 Entering Gaussian System, Link 0=g16
 Input=DDL-LR-2.gjf
 Output=DDL-LR-2.log
 Initial command:
 /data/home/wyx/g16/l1.exe "/scr/tmp/wyx/13109/Gau-1683103.inp" -scrdir="/scr/tmp/wyx/13109/"
 Entering Link 1 = /data/home/wyx/g16/l1.exe PID=   1683104.
  
 Copyright (c) 1988,1990,1992,1993,1995,1998,2003,2009,2016,
            Gaussian, Inc.  All Rights Reserved.
  
 This is part of the Gaussian(R) 16 program.  It is based on
 the Gaussian(R) 09 system (copyright 2009, Gaussian, Inc.),
 the Gaussian(R) 03 system (copyright 2003, Gaussian, Inc.),
 the Gaussian(R) 98 system (copyright 1998, Gaussian, Inc.),
 the Gaussian(R) 94 system (copyright 1995, Gaussian, Inc.),
 the Gaussian 92(TM) system (copyright 1992, Gaussian, Inc.),
 the Gaussian 90(TM) system (copyright 1990, Gaussian, Inc.),
 the Gaussian 88(TM) system (copyright 1988, Gaussian, Inc.),
 the Gaussian 86(TM) system (copyright 1986, Carnegie Mellon
 University), and the Gaussian 82(TM) system (copyright 1983,
 Carnegie Mellon University). Gaussian is a federally registered
 trademark of Gaussian, Inc.
  
 This software contains proprietary and confidential information,
 including trade secrets, belonging to Gaussian, Inc.
  
 This software is provided under written license and may be
 used, copied, transmitted, or stored only in accord with that
 written license.
  
 The following legend is applicable only to US Government
 contracts under FAR:
  
                    RESTRICTED RIGHTS LEGEND
  
 Use, reproduction and disclosure by the US Government is
 subject to restrictions as set forth in subparagraphs (a)
 and (c) of the Commercial Computer Software - Restricted
 Rights clause in FAR 52.227-19.
  
 Gaussian, Inc.
 340 Quinnipiac St., Bldg. 40, Wallingford CT 06492
  
  
 ---------------------------------------------------------------
 Warning -- This program may not be used in any manner that
 competes with the business of Gaussian, Inc. or will provide
 assistance to any competitor of Gaussian, Inc.  The licensee
 of this program is prohibited from giving any competitor of
 Gaussian, Inc. access to this program.  By using this program,
 the user acknowledges that Gaussian, Inc. is engaged in the
 business of creating and licensing software in the field of
 computational chemistry and represents and warrants to the
 licensee that it is not a competitor of Gaussian, Inc. and that
 it will not use this program in any manner prohibited above.
 ---------------------------------------------------------------
  

 Cite this work as:
 Gaussian 16, Revision A.03,
 M. J. Frisch, G. W. Trucks, H. B. Schlegel, G. E. Scuseria, 
 M. A. Robb, J. R. Cheeseman, G. Scalmani, V. Barone, 
 G. A. Petersson, H. Nakatsuji, X. Li, M. Caricato, A. V. Marenich, 
 J. Bloino, B. G. Janesko, R. Gomperts, B. Mennucci, H. P. Hratchian, 
 J. V. Ortiz, A. F. Izmaylov, J. L. Sonnenberg, D. Williams-Young, 
 F. Ding, F. Lipparini, F. Egidi, J. Goings, B. Peng, A. Petrone, 
 T. Henderson, D. Ranasinghe, V. G. Zakrzewski, J. Gao, N. Rega, 
 G. Zheng, W. Liang, M. Hada, M. Ehara, K. Toyota, R. Fukuda, 
 J. Hasegawa, M. Ishida, T. Nakajima, Y. Honda, O. Kitao, H. Nakai, 
 T. Vreven, K. Throssell, J. A. Montgomery, Jr., J. E. Peralta, 
 F. Ogliaro, M. J. Bearpark, J. J. Heyd, E. N. Brothers, K. N. Kudin, 
 V. N. Staroverov, T. A. Keith, R. Kobayashi, J. Normand, 
 K. Raghavachari, A. P. Rendell, J. C. Burant, S. S. Iyengar, 
 J. Tomasi, M. Cossi, J. M. Millam, M. Klene, C. Adamo, R. Cammi, 
 J. W. Ochterski, R. L. Martin, K. Morokuma, O. Farkas, 
 J. B. Foresman, and D. J. Fox, Gaussian, Inc., Wallingford CT, 2016.
 
 ******************************************
 Gaussian 16:  ES64L-G16RevA.03 25-Dec-2016
                23-Jan-2026 
 ******************************************
 %nprocshared=16
 Will use up to   16 processors via shared memory.
 %mem=16GB
 %chk=DDL-LR-2.chk
 ----------------------------------------------------------------------
 #p CAM-B3LYP TZVP em=gd3bj td(nstates=6,root=1) scrf=(Solvent=TetraHyd
 roFuran)
 ----------------------------------------------------------------------
 1/38=1,172=1/1;
 2/12=2,17=6,18=5,40=1/2;
 3/5=19,7=101,11=9,25=1,30=1,70=2201,72=20,74=-40,124=41/1,2,3,8;
 4//1;
 5/5=2,38=5,53=20/2;
 8/6=1,10=1,107=1,108=6/1;
 9/8=1,41=6,42=1,70=2/14;
 6/7=2,8=2,9=2,10=2/1;
 99/5=1,9=1/99;
 Leave Link    1 at Fri Jan 23 15:19:06 2026, MaxMem=  2147483648 cpu:               0.4 elap:               0.2
 (Enter /data/home/wyx/g16/l101.exe)
 -------------------
 Title Card Required
 -------------------
 Symbolic Z-matrix:
 Charge =  0 Multiplicity = 1
 O                     2.79531  -1.56532   0.46301 
 O                    -3.4247   -1.65419  -0.53463 
 N                    -0.65952   1.52477  -0.07472 
 H                    -0.97918   2.47803  -0.11486 
 C                    -1.24018  -0.77385  -0.17635 
 C                     0.67031   1.31475   0.12295 
 C                    -1.62018   0.5368   -0.23592 
 C                    -2.16004  -1.82974  -0.33193 
 C                     0.20439  -1.13695   0.07112 
 H                     0.28583  -1.73614   0.98233 
 H                     0.56815  -1.78146  -0.73265 
 C                     1.14349   0.04139   0.18538 
 C                     2.52453  -0.367     0.3783 
 C                    -2.98875   1.07389  -0.4514 
 H                    -2.9999    1.81329  -1.25743 
 H                    -3.70271   0.29702  -0.72219 
 H                    -3.37412   1.5555    0.45209 
 C                    -1.81673  -3.29121  -0.27957 
 H                    -2.12914  -3.82727  -1.17861 
 H                    -0.74733  -3.44342  -0.16144 
 H                    -2.30889  -3.77466   0.56856 
 C                     3.67217   0.60855   0.46949 
 H                     3.7039    1.30294  -0.36725 
 H                     3.63263   1.19414   1.38779 
 H                     4.58688   0.02084   0.4754 
 C                     1.44318   2.59302   0.24287 
 H                     2.05212   2.62446   1.14155 
 H                     2.09767   2.75304  -0.61257 
 H                     0.77078   3.4488    0.29065 
 
 ITRead=  0  0  0  0  0  0  0  0  0  0  0  0  0  0  0  0  0  0  0  0
 ITRead=  0  0  0  0  0  0  0  0  0
 MicOpt= -1 -1 -1 -1 -1 -1 -1 -1 -1 -1 -1 -1 -1 -1 -1 -1 -1 -1 -1 -1
 MicOpt= -1 -1 -1 -1 -1 -1 -1 -1 -1
 NAtoms=     29 NQM=       29 NQMF=       0 NMMI=      0 NMMIF=      0
                NMic=       0 NMicF=      0.
                    Isotopes and Nuclear Properties:
 (Nuclear quadrupole moments (NQMom) in fm**2, nuclear magnetic moments (NMagM)
  in nuclear magnetons)

  Atom         1           2           3           4           5           6           7           8           9          10
 IAtWgt=          16          16          14           1          12          12          12          12          12           1
 AtmWgt=  15.9949146  15.9949146  14.0030740   1.0078250  12.0000000  12.0000000  12.0000000  12.0000000  12.0000000   1.0078250
 NucSpn=           0           0           2           1           0           0           0           0           0           1
 AtZEff=  -0.0000000  -0.0000000  -0.0000000  -0.0000000  -0.0000000  -0.0000000  -0.0000000  -0.0000000  -0.0000000  -0.0000000
 NQMom=    0.0000000   0.0000000   2.0440000   0.0000000   0.0000000   0.0000000   0.0000000   0.0000000   0.0000000   0.0000000
 NMagM=    0.0000000   0.0000000   0.4037610   2.7928460   0.0000000   0.0000000   0.0000000   0.0000000   0.0000000   2.7928460
 AtZNuc=   8.0000000   8.0000000   7.0000000   1.0000000   6.0000000   6.0000000   6.0000000   6.0000000   6.0000000   1.0000000

  Atom        11          12          13          14          15          16          17          18          19          20
 IAtWgt=           1          12          12          12           1           1           1          12           1           1
 AtmWgt=   1.0078250  12.0000000  12.0000000  12.0000000   1.0078250   1.0078250   1.0078250  12.0000000   1.0078250   1.0078250
 NucSpn=           1           0           0           0           1           1           1           0           1           1
 AtZEff=  -0.0000000  -0.0000000  -0.0000000  -0.0000000  -0.0000000  -0.0000000  -0.0000000  -0.0000000  -0.0000000  -0.0000000
 NQMom=    0.0000000   0.0000000   0.0000000   0.0000000   0.0000000   0.0000000   0.0000000   0.0000000   0.0000000   0.0000000
 NMagM=    2.7928460   0.0000000   0.0000000   0.0000000   2.7928460   2.7928460   2.7928460   0.0000000   2.7928460   2.7928460
 AtZNuc=   1.0000000   6.0000000   6.0000000   6.0000000   1.0000000   1.0000000   1.0000000   6.0000000   1.0000000   1.0000000

  Atom        21          22          23          24          25          26          27          28          29
 IAtWgt=           1          12           1           1           1          12           1           1           1
 AtmWgt=   1.0078250  12.0000000   1.0078250   1.0078250   1.0078250  12.0000000   1.0078250   1.0078250   1.0078250
 NucSpn=           1           0           1           1           1           0           1           1           1
 AtZEff=  -0.0000000  -0.0000000  -0.0000000  -0.0000000  -0.0000000  -0.0000000  -0.0000000  -0.0000000  -0.0000000
 NQMom=    0.0000000   0.0000000   0.0000000   0.0000000   0.0000000   0.0000000   0.0000000   0.0000000   0.0000000
 NMagM=    2.7928460   0.0000000   2.7928460   2.7928460   2.7928460   0.0000000   2.7928460   2.7928460   2.7928460
 AtZNuc=   1.0000000   6.0000000   1.0000000   1.0000000   1.0000000   6.0000000   1.0000000   1.0000000   1.0000000
 Leave Link  101 at Fri Jan 23 15:19:07 2026, MaxMem=  2147483648 cpu:               0.8 elap:               0.1
 (Enter /data/home/wyx/g16/l202.exe)
                          Input orientation:                          
 ---------------------------------------------------------------------
 Center     Atomic      Atomic             Coordinates (Angstroms)
 Number     Number       Type             X           Y           Z
 ---------------------------------------------------------------------
      1          8           0        2.795308   -1.565315    0.463013
      2          8           0       -3.424701   -1.654191   -0.534626
      3          7           0       -0.659517    1.524773   -0.074715
      4          1           0       -0.979176    2.478028   -0.114855
      5          6           0       -1.240182   -0.773853   -0.176353
      6          6           0        0.670305    1.314751    0.122953
      7          6           0       -1.620178    0.536803   -0.235920
      8          6           0       -2.160037   -1.829739   -0.331926
      9          6           0        0.204387   -1.136947    0.071119
     10          1           0        0.285831   -1.736138    0.982334
     11          1           0        0.568149   -1.781461   -0.732650
     12          6           0        1.143487    0.041391    0.185375
     13          6           0        2.524526   -0.367001    0.378304
     14          6           0       -2.988745    1.073889   -0.451395
     15          1           0       -2.999897    1.813288   -1.257431
     16          1           0       -3.702706    0.297015   -0.722190
     17          1           0       -3.374115    1.555500    0.452092
     18          6           0       -1.816725   -3.291210   -0.279572
     19          1           0       -2.129137   -3.827268   -1.178606
     20          1           0       -0.747333   -3.443423   -0.161436
     21          1           0       -2.308885   -3.774663    0.568561
     22          6           0        3.672173    0.608547    0.469490
     23          1           0        3.703898    1.302937   -0.367246
     24          1           0        3.632631    1.194142    1.387788
     25          1           0        4.586884    0.020836    0.475404
     26          6           0        1.443181    2.593015    0.242867
     27          1           0        2.052124    2.624459    1.141545
     28          1           0        2.097674    2.753037   -0.612571
     29          1           0        0.770776    3.448800    0.290648
 ---------------------------------------------------------------------
                    Distance matrix (angstroms):
                    1          2          3          4          5
     1  O    0.000000
     2  O    6.300134   0.000000
     3  N    4.666220   4.238346   0.000000
     4  H    5.561410   4.819962   1.006225   0.000000
     5  C    4.161776   2.382326   2.373012   3.262918   0.000000
     6  C    3.595283   5.100598   1.360738   2.032376   2.846368
     7  C    4.940033   2.854117   1.387423   2.047900   1.365930
     8  C    5.025663   1.292780   3.683812   4.471958   1.408982
     9  C    2.655175   3.715474   2.802205   3.808340   1.509920
    10  H    2.568336   4.009480   3.555921   4.534673   2.144123
    11  H    2.537039   3.999783   3.587649   4.573744   2.143549
    12  C    2.321013   4.925621   2.349232   3.245464   2.545063
    13  C    1.231444   6.154966   3.731242   4.540190   3.827035
    14  C    6.423146   2.763947   2.402184   2.474517   2.558764
    15  H    6.925264   3.567396   2.638074   2.414679   3.310381
    16  H    6.862737   1.979816   3.344789   3.541651   2.740205
    17  H    6.913855   3.358316   2.765414   2.628349   3.220947
    18  C    4.980060   2.308781   4.957297   5.832043   2.584597
    19  H    5.662288   2.610644   5.658860   6.496979   3.334381
    20  H    4.058021   3.241747   4.969729   5.926171   2.714724
    21  H    5.562836   2.637891   5.587329   6.428945   3.271373
    22  C    2.344058   7.516239   4.460848   5.046926   5.143868
    23  H    3.121175   7.719427   4.378833   4.834845   5.365950
    24  H    3.028353   7.849498   4.546511   5.017476   5.483051
    25  H    2.392859   8.246901   5.485361   6.112873   5.917011
    26  C    4.378175   6.506883   2.379777   2.451326   4.325735
    27  H    4.308937   7.149266   3.168848   3.284625   4.911686
    28  H    4.504635   7.065859   3.065946   3.128955   4.875502
    29  H    5.410156   6.657599   2.425100   2.041853   4.700302
                    6          7          8          9         10
     6  C    0.000000
     7  C    2.445466   0.000000
     8  C    4.255064   2.429236   0.000000
     9  C    2.496115   2.494945   2.496579   0.000000
    10  H    3.192848   3.206754   2.778185   1.093607   0.000000
    11  H    3.213879   3.226432   2.757881   1.092596   1.738657
    12  C    1.359869   2.839149   3.831710   1.511107   2.128456
    13  C    2.516273   4.286339   4.958746   2.463783   2.692795
    14  C    3.711676   1.485889   3.021934   3.918789   4.546942
    15  H    3.952769   2.139281   3.851437   4.553720   5.330195
    16  H    4.568728   2.151948   2.656166   4.236858   4.790359
    17  H    4.064926   2.141821   3.680830   4.494451   4.950883
    18  C    5.249973   3.833304   1.502166   2.974681   2.903687
    19  H    5.997607   4.493641   2.169780   3.774251   3.856755
    20  H    4.973007   4.075488   2.151459   2.505930   2.300100
    21  H    5.914074   4.439622   2.148432   3.677163   3.325559
    22  C    3.103228   5.339638   6.371984   3.902690   4.150647
    23  H    3.072966   5.380520   6.648356   4.288563   4.768703
    24  H    3.223310   5.537195   6.756943   4.349764   4.466767
    25  H    4.139810   6.268957   7.042539   4.550845   4.673649
    26  C    1.498558   3.720405   5.733613   3.934047   4.541788
    27  H    2.159233   4.443143   6.305022   4.325288   4.707435
    28  H    2.155700   4.344650   6.261685   4.379948   5.096978
    29  H    2.142984   3.804427   6.069616   4.625804   5.253302
                   11         12         13         14         15
    11  H    0.000000
    12  C    2.120512   0.000000
    13  C    2.657504   1.453022   0.000000
    14  C    4.569860   4.306608   5.758535   0.000000
    15  H    5.092010   4.731695   6.160239   1.093860   0.000000
    16  H    4.749776   4.937064   6.358492   1.089313   1.754852
    17  H    5.299091   4.772043   6.204468   1.093960   1.768887
    18  C    2.858714   4.481658   5.275439   4.522968   5.330291
    19  H    3.414609   5.247574   6.004498   5.028827   5.707916
    20  H    2.195198   3.979875   4.523356   5.051150   5.823080
    21  H    3.734077   5.160230   5.916943   5.001098   5.919201
    22  C    4.097834   2.607037   1.509007   6.740356   6.996440
    23  H    4.413610   2.907334   2.176110   6.697090   6.781870
    24  H    4.768807   2.995074   2.164283   6.873112   7.167353
    25  H    4.567045   3.455651   2.100754   7.704416   7.985916
    26  C    4.566547   2.569807   3.154258   4.736213   4.753926
    27  H    5.012676   2.900366   3.123225   5.509273   5.651195
    28  H    4.787018   2.983323   3.301314   5.358841   5.223428
    29  H    5.333275   3.429349   4.200436   4.508307   4.391973
                   16         17         18         19         20
    16  H    0.000000
    17  H    1.752340   0.000000
    18  C    4.077768   5.143092   0.000000
    19  H    4.437809   5.760498   1.092347   0.000000
    20  H    4.799953   5.680284   1.086611   1.758225   0.000000
    21  H    4.493032   5.436811   1.093288   1.757176   1.755295
    22  C    7.477031   7.109655   6.774747   7.486513   6.028977
    23  H    7.483024   7.129753   7.182698   7.810352   6.510280
    24  H    7.685312   7.078177   7.252169   8.062190   6.564388
    25  H    8.380203   8.107604   7.248851   7.915086   6.392224
    26  C    5.716914   4.932196   6.747150   7.483453   6.434314
    27  H    6.481402   5.573337   7.209903   8.030618   6.808371
    28  H    6.299878   5.701585   7.208768   7.841348   6.833279
    29  H    5.565216   4.559690   7.242102   7.969277   7.071900
                   21         22         23         24         25
    21  H    0.000000
    22  C    7.415888   0.000000
    23  H    7.925359   1.087801   0.000000
    24  H    7.788567   1.089842   1.759846   0.000000
    25  H    7.871856   1.087261   1.770171   1.766265   0.000000
    26  C    7.398067   2.992971   2.673459   2.839257   4.068544
    27  H    7.765016   2.672100   2.598313   2.145797   3.694266
    28  H    7.963900   2.872062   2.177827   2.964403   3.852892
    29  H    7.857478   4.064127   3.693340   3.804920   5.133006
                   26         27         28         29
    26  C    0.000000
    27  H    1.086012   0.000000
    28  H    1.088918   1.759412   0.000000
    29  H    1.089394   1.745112   1.749442   0.000000
 Stoichiometry    C11H15NO2
 Framework group  C1[X(C11H15NO2)]
 Deg. of freedom    81
 Full point group                 C1      NOp   1
 Largest Abelian subgroup         C1      NOp   1
 Largest concise Abelian subgroup C1      NOp   1
                         Standard orientation:                         
 ---------------------------------------------------------------------
 Center     Atomic      Atomic             Coordinates (Angstroms)
 Number     Number       Type             X           Y           Z
 ---------------------------------------------------------------------
      1          8           0        2.253001   -2.314869    0.045482
      2          8           0       -3.676962   -0.188407   -0.027943
      3          7           0        0.062887    1.805350    0.017165
      4          1           0        0.095682    2.811022    0.023257
      5          6           0       -1.295341   -0.140477    0.004638
      6          6           0        1.248200    1.137037    0.017682
      7          6           0       -1.195732    1.221808   -0.000056
      8          6           0       -2.539213   -0.802070   -0.012923
      9          6           0       -0.050575   -0.994481    0.037753
     10          1           0       -0.059670   -1.629793    0.927849
     11          1           0       -0.050599   -1.683810   -0.809945
     12          6           0        1.248381   -0.222817    0.011472
     13          6           0        2.410889   -1.094435    0.000018
     14          6           0       -2.304651    2.210747   -0.012888
     15          1           0       -2.166758    2.947652   -0.809434
     16          1           0       -3.275828    1.744761   -0.174987
     17          1           0       -2.368037    2.750002    0.936814
     18          6           0       -2.726701   -2.292486   -0.009798
     19          1           0       -3.328112   -2.640702   -0.852574
     20          1           0       -1.773297   -2.812241   -0.049781
     21          1           0       -3.235187   -2.617098    0.901985
     22          6           0        3.828688   -0.583913   -0.079462
     23          1           0        3.986272    0.097506   -0.912617
     24          1           0        4.124141   -0.068091    0.833988
     25          1           0        4.470567   -1.452132   -0.207218
     26          6           0        2.429029    2.059699    0.021285
     27          1           0        3.128026    1.832442    0.820772
     28          1           0        2.973403    2.025446   -0.921172
     29          1           0        2.113030    3.092127    0.166255
 ---------------------------------------------------------------------
 Rotational constants (GHZ):           1.1024108           0.4813357           0.3386227
 Leave Link  202 at Fri Jan 23 15:19:07 2026, MaxMem=  2147483648 cpu:               0.0 elap:               0.0
 (Enter /data/home/wyx/g16/l301.exe)
 Standard basis: TZVP (5D, 7F)
 Ernie: Thresh=  0.10000D-02 Tol=  0.10000D-05 Strict=F.
 There are   370 symmetry adapted cartesian basis functions of A   symmetry.
 There are   356 symmetry adapted basis functions of A   symmetry.
   356 basis functions,   610 primitive gaussians,   370 cartesian basis functions
    52 alpha electrons       52 beta electrons
       nuclear repulsion energy       898.4121943935 Hartrees.
 IExCor=20419 DFT=T Ex+Corr=CAM-B3LYP ExCW=0 ScaHFX=  1.000000
 ScaDFX=  1.000000  1.000000  1.000000  0.810000 ScalE2=  1.000000  1.000000
 IRadAn=      5 IRanWt=     -1 IRanGd=            0 ICorTp=0 IEmpDi=141
 HFx  wShort=  0.000000 wLong=  0.330000 cFull=  0.190000 cShort=  0.000000 cLong=  0.460000
 DFx  wShort=  0.000000 wLong=  0.330000 cFull=  0.190000 cShort=  0.000000 cLong=  0.460000
 NAtoms=   29 NActive=   29 NUniq=   29 SFac= 1.00D+00 NAtFMM=   60 NAOKFM=F Big=F
 Integral buffers will be    131072 words long.
 Raffenetti 1 integral format.
 Two-electron integral symmetry is turned on.
 R6Disp:  Grimme-D3(BJ) Dispersion energy=       -0.0260684374 Hartrees.
 Nuclear repulsion after empirical dispersion term =      898.3861259561 Hartrees.
 ------------------------------------------------------------------------------
 Polarizable Continuum Model (PCM)
 =================================
 Model                : PCM.
 Atomic radii         : UFF (Universal Force Field).
 Polarization charges : Total charges.
 Charge compensation  : None.
 Solution method      : On-the-fly selection.
 Cavity type          : Scaled VdW (van der Waals Surface) (Alpha=1.100).
 Cavity algorithm     : GePol (No added spheres)
                        Default sphere list used, NSphG=   29.
                        Lebedev-Laikov grids with approx.  5.0 points / Ang**2.
                        Smoothing algorithm: York/Karplus (Gamma=1.0000).
                        Polarization charges: spherical gaussians, with
                                              point-specific exponents (IZeta= 3).
                        Self-potential: point-specific (ISelfS= 7).
                        Self-field    : sphere-specific E.n sum rule (ISelfD= 2).
 Solvent              : TetraHydroFuran, Eps=   7.425700 Eps(inf)=   1.974025
 ------------------------------------------------------------------------------
 GePol: Number of generator spheres                  =      29
 GePol: Total number of spheres                      =      29
 GePol: Number of exposed spheres                    =      29 (100.00%)
 GePol: Number of points                             =    2105
 GePol: Average weight of points                     =       0.13
 GePol: Minimum weight of points                     =   0.21D-10
 GePol: Maximum weight of points                     =    0.20577
 GePol: Number of points with low weight             =     132
 GePol: Fraction of low-weight points (<1% of avg)   =       6.27%
 GePol: Cavity surface area                          =    268.974 Ang**2
 GePol: Cavity volume                                =    286.265 Ang**3
 Leave Link  301 at Fri Jan 23 15:19:07 2026, MaxMem=  2147483648 cpu:               0.6 elap:               0.0
 (Enter /data/home/wyx/g16/l302.exe)
 NPDir=0 NMtPBC=     1 NCelOv=     1 NCel=       1 NClECP=     1 NCelD=      1
         NCelK=      1 NCelE2=     1 NClLst=     1 CellRange=     0.0.
 One-electron integrals computed using PRISM.
 One-electron integral symmetry used in STVInt
 NBasis=   356 RedAO= T EigKep=  3.39D-05  NBF=   356
 NBsUse=   356 1.00D-06 EigRej= -1.00D+00 NBFU=   356
 Precomputing XC quadrature grid using
 IXCGrd= 4 IRadAn=           5 IRanWt=          -1 IRanGd=           0 AccXCQ= 0.00D+00.
 Generated NRdTot=       0 NPtTot=           0 NUsed=           0 NTot=          32
 NSgBfM=   366   366   366   366   366 MxSgAt=    29 MxSgA2=    29.
 Leave Link  302 at Fri Jan 23 15:19:07 2026, MaxMem=  2147483648 cpu:               3.1 elap:               0.2
 (Enter /data/home/wyx/g16/l303.exe)
 DipDrv:  MaxL=1.
 Leave Link  303 at Fri Jan 23 15:19:08 2026, MaxMem=  2147483648 cpu:               0.6 elap:               0.0
 (Enter /data/home/wyx/g16/l308.exe)
 Leave Link  308 at Fri Jan 23 15:19:08 2026, MaxMem=  2147483648 cpu:               0.7 elap:               0.1
 (Enter /data/home/wyx/g16/l401.exe)
 ExpMin= 9.52D-02 ExpMax= 2.70D+04 ExpMxC= 9.22D+02 IAcc=3 IRadAn=         5 AccDes= 0.00D+00
 Harris functional with IExCor=20419 and IRadAn=       5 diagonalized for initial guess.
 HarFok:  IExCor=20419 AccDes= 0.00D+00 IRadAn=         5 IDoV= 1 UseB2=F ITyADJ=14
 ICtDFT=  3500011 ScaDFX=  1.000000  1.000000  1.000000  1.000000
 FoFCou: FMM=F IPFlag=           0 FMFlag=      100000 FMFlg1=           0
         NFxFlg=           0 DoJE=T BraDBF=F KetDBF=T FulRan=T
         wScrn=  0.000000 ICntrl=       500 IOpCl=  0 I1Cent=   200000004 NGrid=           0
         NMat0=    1 NMatS0=      1 NMatT0=    0 NMatD0=    1 NMtDS0=    0 NMtDT0=    0
 Petite list used in FoFCou.
 Harris En= -608.708445654635    
 JPrj=0 DoOrth=F DoCkMO=F.
 Leave Link  401 at Fri Jan 23 15:19:09 2026, MaxMem=  2147483648 cpu:              11.7 elap:               0.7
 (Enter /data/home/wyx/g16/l502.exe)
 Integral symmetry usage will be decided dynamically.
 Closed shell SCF:
 Using DIIS extrapolation, IDIIS=  1040.
 NGot=  2147483648 LenX=  2147200095 LenY=  2147062754
 Requested convergence on RMS density matrix=1.00D-08 within 128 cycles.
 Requested convergence on MAX density matrix=1.00D-06.
 Requested convergence on             energy=1.00D-06.
 No special actions if energy rises.
 Fock matrices will be formed incrementally for  20 cycles.

 Cycle   1  Pass 1  IDiag  1:
 FoFJK:  IHMeth= 1 ICntrl=       0 DoSepK=T KAlg= 0 I1Cent=           0 FoldK=F
 IRaf=         1 NMat=       1 IRICut=       1 DoRegI=T DoRafI=F ISym2E= 0 IDoP0=0 IntGTp=1.
 FoFCou: FMM=F IPFlag=           0 FMFlag=      100000 FMFlg1=           0
         NFxFlg=           0 DoJE=T BraDBF=F KetDBF=F FulRan=T
         wScrn=  0.000000 ICntrl=       500 IOpCl=  0 I1Cent=           0 NGrid=           0
         NMat0=    1 NMatS0=      1 NMatT0=    0 NMatD0=    1 NMtDS0=    0 NMtDT0=    0
 Symmetry not used in FoFCou.
 Inv3:  Mode=1 IEnd=    13293075.
 Iteration    1 A*A^-1 deviation from unit magnitude is 3.33D-15 for   1074.
 Iteration    1 A*A^-1 deviation from orthogonality  is 1.84D-15 for   1613   1318.
 Iteration    1 A^-1*A deviation from unit magnitude is 3.11D-15 for    489.
 Iteration    1 A^-1*A deviation from orthogonality  is 2.34D-14 for   1760   1670.
 E= -633.111548965084    
 DIIS: error= 4.29D-02 at cycle   1 NSaved=   1.
 NSaved= 1 IEnMin= 1 EnMin= -633.111548965084     IErMin= 1 ErrMin= 4.29D-02
 ErrMax= 4.29D-02  0.00D+00 EMaxC= 1.00D-01 BMatC= 1.10D+00 BMatP= 1.10D+00
 IDIUse=3 WtCom= 5.71D-01 WtEn= 4.29D-01
 Coeff-Com:  0.100D+01
 Coeff-En:   0.100D+01
 Coeff:      0.100D+01
 Gap=     0.219 Goal=   None    Shift=    0.000
 GapD=    0.219 DampG=1.000 DampE=0.500 DampFc=0.5000 IDamp=-1.
 Damping current iteration by 5.00D-01
 RMSDP=3.98D-03 MaxDP=2.17D-01              OVMax= 1.56D-01

 Cycle   2  Pass 1  IDiag  1:
 RMSU=  1.71D-03    CP:  9.30D-01
 E= -633.209169640298     Delta-E=       -0.097620675214 Rises=F Damp=T
 DIIS: error= 1.96D-02 at cycle   2 NSaved=   2.
 NSaved= 2 IEnMin= 2 EnMin= -633.209169640298     IErMin= 2 ErrMin= 1.96D-02
 ErrMax= 1.96D-02  0.00D+00 EMaxC= 1.00D-01 BMatC= 2.24D-01 BMatP= 1.10D+00
 IDIUse=3 WtCom= 8.04D-01 WtEn= 1.96D-01
 Coeff-Com: -0.588D+00 0.159D+01
 Coeff-En:   0.000D+00 0.100D+01
 Coeff:     -0.473D+00 0.147D+01
 Gap=     0.232 Goal=   None    Shift=    0.000
 RMSDP=1.62D-03 MaxDP=5.16D-02 DE=-9.76D-02 OVMax= 1.43D-01

 Cycle   3  Pass 1  IDiag  1:
 RMSU=  1.53D-03    CP:  9.07D-01  1.23D+00
 E= -633.259473567367     Delta-E=       -0.050303927069 Rises=F Damp=F
 DIIS: error= 1.62D-02 at cycle   3 NSaved=   3.
 NSaved= 3 IEnMin= 3 EnMin= -633.259473567367     IErMin= 3 ErrMin= 1.62D-02
 ErrMax= 1.62D-02  0.00D+00 EMaxC= 1.00D-01 BMatC= 6.42D-02 BMatP= 2.24D-01
 IDIUse=3 WtCom= 8.38D-01 WtEn= 1.62D-01
 Coeff-Com: -0.361D+00 0.792D+00 0.569D+00
 Coeff-En:   0.000D+00 0.000D+00 0.100D+01
 Coeff:     -0.303D+00 0.664D+00 0.638D+00
 Gap=     0.231 Goal=   None    Shift=    0.000
 RMSDP=1.52D-03 MaxDP=9.56D-02 DE=-5.03D-02 OVMax= 8.44D-02

 Cycle   4  Pass 1  IDiag  1:
 RMSU=  5.62D-04    CP:  8.53D-01  1.74D+00  4.90D-01
 E= -633.306758166726     Delta-E=       -0.047284599359 Rises=F Damp=F
 DIIS: error= 5.44D-03 at cycle   4 NSaved=   4.
 NSaved= 4 IEnMin= 4 EnMin= -633.306758166726     IErMin= 4 ErrMin= 5.44D-03
 ErrMax= 5.44D-03  0.00D+00 EMaxC= 1.00D-01 BMatC= 8.95D-03 BMatP= 6.42D-02
 IDIUse=3 WtCom= 9.46D-01 WtEn= 5.44D-02
 Coeff-Com: -0.162D+00 0.352D+00 0.376D+00 0.434D+00
 Coeff-En:   0.000D+00 0.000D+00 0.712D-01 0.929D+00
 Coeff:     -0.154D+00 0.333D+00 0.359D+00 0.461D+00
 Gap=     0.225 Goal=   None    Shift=    0.000
 RMSDP=4.27D-04 MaxDP=2.75D-02 DE=-4.73D-02 OVMax= 2.03D-02

 Cycle   5  Pass 1  IDiag  1:
 RMSU=  1.02D-04    CP:  8.67D-01  1.65D+00  6.54D-01  6.39D-01
 E= -633.313779096367     Delta-E=       -0.007020929640 Rises=F Damp=F
 DIIS: error= 5.70D-04 at cycle   5 NSaved=   5.
 NSaved= 5 IEnMin= 5 EnMin= -633.313779096367     IErMin= 5 ErrMin= 5.70D-04
 ErrMax= 5.70D-04  0.00D+00 EMaxC= 1.00D-01 BMatC= 9.84D-05 BMatP= 8.95D-03
 IDIUse=3 WtCom= 9.94D-01 WtEn= 5.70D-03
 Coeff-Com: -0.322D-01 0.691D-01 0.900D-01 0.166D+00 0.707D+00
 Coeff-En:   0.000D+00 0.000D+00 0.000D+00 0.000D+00 0.100D+01
 Coeff:     -0.320D-01 0.687D-01 0.894D-01 0.165D+00 0.709D+00
 Gap=     0.225 Goal=   None    Shift=    0.000
 RMSDP=1.60D-04 MaxDP=1.17D-02 DE=-7.02D-03 OVMax= 2.75D-03

 Cycle   6  Pass 1  IDiag  1:
 RMSU=  6.16D-05    CP:  8.60D-01  1.68D+00  6.46D-01  7.96D-01  1.03D+00
 E= -633.313837881375     Delta-E=       -0.000058785008 Rises=F Damp=F
 DIIS: error= 5.01D-04 at cycle   6 NSaved=   6.
 NSaved= 6 IEnMin= 6 EnMin= -633.313837881375     IErMin= 6 ErrMin= 5.01D-04
 ErrMax= 5.01D-04  0.00D+00 EMaxC= 1.00D-01 BMatC= 3.22D-05 BMatP= 9.84D-05
 IDIUse=3 WtCom= 9.95D-01 WtEn= 5.01D-03
 Coeff-Com:  0.177D-01-0.387D-01-0.308D-01-0.325D-02 0.434D+00 0.621D+00
 Coeff-En:   0.000D+00 0.000D+00 0.000D+00 0.000D+00 0.156D+00 0.844D+00
 Coeff:      0.176D-01-0.386D-01-0.307D-01-0.323D-02 0.433D+00 0.622D+00
 Gap=     0.226 Goal=   None    Shift=    0.000
 RMSDP=3.08D-05 MaxDP=2.36D-03 DE=-5.88D-05 OVMax= 3.19D-03

 Cycle   7  Pass 1  IDiag  1:
 RMSU=  1.90D-05    CP:  8.60D-01  1.68D+00  6.53D-01  7.83D-01  1.14D+00
                    CP:  7.53D-01
 E= -633.313867131342     Delta-E=       -0.000029249967 Rises=F Damp=F
 DIIS: error= 6.29D-05 at cycle   7 NSaved=   7.
 NSaved= 7 IEnMin= 7 EnMin= -633.313867131342     IErMin= 7 ErrMin= 6.29D-05
 ErrMax= 6.29D-05  0.00D+00 EMaxC= 1.00D-01 BMatC= 1.18D-06 BMatP= 3.22D-05
 IDIUse=1 WtCom= 1.00D+00 WtEn= 0.00D+00
 Coeff-Com:  0.488D-02-0.106D-01-0.974D-02-0.109D-01 0.260D-01 0.174D+00
 Coeff-Com:  0.826D+00
 Coeff:      0.488D-02-0.106D-01-0.974D-02-0.109D-01 0.260D-01 0.174D+00
 Coeff:      0.826D+00
 Gap=     0.226 Goal=   None    Shift=    0.000
 RMSDP=1.85D-05 MaxDP=1.17D-03 DE=-2.92D-05 OVMax= 6.51D-04

 Cycle   8  Pass 1  IDiag  1:
 RMSU=  6.38D-06    CP:  8.60D-01  1.68D+00  6.53D-01  8.01D-01  1.17D+00
                    CP:  8.81D-01  9.12D-01
 E= -633.313868717502     Delta-E=       -0.000001586160 Rises=F Damp=F
 DIIS: error= 2.24D-05 at cycle   8 NSaved=   8.
 NSaved= 8 IEnMin= 8 EnMin= -633.313868717502     IErMin= 8 ErrMin= 2.24D-05
 ErrMax= 2.24D-05  0.00D+00 EMaxC= 1.00D-01 BMatC= 2.18D-07 BMatP= 1.18D-06
 IDIUse=1 WtCom= 1.00D+00 WtEn= 0.00D+00
 Coeff-Com: -0.171D-03 0.437D-03-0.359D-03-0.598D-02-0.621D-01-0.331D-02
 Coeff-Com:  0.351D+00 0.720D+00
 Coeff:     -0.171D-03 0.437D-03-0.359D-03-0.598D-02-0.621D-01-0.331D-02
 Coeff:      0.351D+00 0.720D+00
 Gap=     0.226 Goal=   None    Shift=    0.000
 RMSDP=6.82D-06 MaxDP=4.11D-04 DE=-1.59D-06 OVMax= 4.20D-04

 Cycle   9  Pass 1  IDiag  1:
 RMSU=  2.69D-06    CP:  8.59D-01  1.69D+00  6.53D-01  8.07D-01  1.19D+00
                    CP:  9.08D-01  1.02D+00  1.02D+00
 E= -633.313869016906     Delta-E=       -0.000000299403 Rises=F Damp=F
 DIIS: error= 1.06D-05 at cycle   9 NSaved=   9.
 NSaved= 9 IEnMin= 9 EnMin= -633.313869016906     IErMin= 9 ErrMin= 1.06D-05
 ErrMax= 1.06D-05  0.00D+00 EMaxC= 1.00D-01 BMatC= 3.95D-08 BMatP= 2.18D-07
 IDIUse=1 WtCom= 1.00D+00 WtEn= 0.00D+00
 Coeff-Com: -0.881D-03 0.193D-02 0.155D-02-0.849D-03-0.319D-01-0.226D-01
 Coeff-Com:  0.121D-01 0.333D+00 0.707D+00
 Coeff:     -0.881D-03 0.193D-02 0.155D-02-0.849D-03-0.319D-01-0.226D-01
 Coeff:      0.121D-01 0.333D+00 0.707D+00
 Gap=     0.226 Goal=   None    Shift=    0.000
 RMSDP=2.58D-06 MaxDP=1.58D-04 DE=-2.99D-07 OVMax= 1.69D-04

 Cycle  10  Pass 1  IDiag  1:
 RMSU=  1.03D-06    CP:  8.59D-01  1.69D+00  6.53D-01  8.09D-01  1.19D+00
                    CP:  9.30D-01  1.02D+00  1.18D+00  7.79D-01
 E= -633.313869062486     Delta-E=       -0.000000045580 Rises=F Damp=F
 DIIS: error= 5.15D-06 at cycle  10 NSaved=  10.
 NSaved=10 IEnMin=10 EnMin= -633.313869062486     IErMin=10 ErrMin= 5.15D-06
 ErrMax= 5.15D-06  0.00D+00 EMaxC= 1.00D-01 BMatC= 7.42D-09 BMatP= 3.95D-08
 IDIUse=1 WtCom= 1.00D+00 WtEn= 0.00D+00
 Coeff-Com: -0.514D-03 0.112D-02 0.104D-02 0.462D-03-0.935D-02-0.111D-01
 Coeff-Com: -0.485D-01 0.782D-01 0.374D+00 0.614D+00
 Coeff:     -0.514D-03 0.112D-02 0.104D-02 0.462D-03-0.935D-02-0.111D-01
 Coeff:     -0.485D-01 0.782D-01 0.374D+00 0.614D+00
 Gap=     0.226 Goal=   None    Shift=    0.000
 RMSDP=9.16D-07 MaxDP=6.75D-05 DE=-4.56D-08 OVMax= 5.09D-05

 Cycle  11  Pass 1  IDiag  1:
 RMSU=  3.06D-07    CP:  8.59D-01  1.69D+00  6.53D-01  8.10D-01  1.19D+00
                    CP:  9.35D-01  1.03D+00  1.20D+00  9.05D-01  1.05D+00
 E= -633.313869070904     Delta-E=       -0.000000008418 Rises=F Damp=F
 DIIS: error= 1.86D-06 at cycle  11 NSaved=  11.
 NSaved=11 IEnMin=11 EnMin= -633.313869070904     IErMin=11 ErrMin= 1.86D-06
 ErrMax= 1.86D-06  0.00D+00 EMaxC= 1.00D-01 BMatC= 4.93D-10 BMatP= 7.42D-09
 IDIUse=1 WtCom= 1.00D+00 WtEn= 0.00D+00
 Coeff-Com:  0.341D-04-0.774D-04-0.266D-04 0.176D-03 0.262D-02 0.196D-02
 Coeff-Com: -0.169D-01-0.311D-01-0.196D-01 0.174D+00 0.889D+00
 Coeff:      0.341D-04-0.774D-04-0.266D-04 0.176D-03 0.262D-02 0.196D-02
 Coeff:     -0.169D-01-0.311D-01-0.196D-01 0.174D+00 0.889D+00
 Gap=     0.226 Goal=   None    Shift=    0.000
 RMSDP=4.13D-07 MaxDP=3.23D-05 DE=-8.42D-09 OVMax= 3.10D-05

 Cycle  12  Pass 1  IDiag  1:
 RMSU=  1.53D-07    CP:  8.59D-01  1.69D+00  6.52D-01  8.10D-01  1.19D+00
                    CP:  9.37D-01  1.02D+00  1.23D+00  8.85D-01  1.15D+00
                    CP:  1.07D+00
 E= -633.313869071961     Delta-E=       -0.000000001057 Rises=F Damp=F
 DIIS: error= 8.66D-07 at cycle  12 NSaved=  12.
 NSaved=12 IEnMin=12 EnMin= -633.313869071961     IErMin=12 ErrMin= 8.66D-07
 ErrMax= 8.66D-07  0.00D+00 EMaxC= 1.00D-01 BMatC= 6.20D-11 BMatP= 4.93D-10
 IDIUse=1 WtCom= 1.00D+00 WtEn= 0.00D+00
 Coeff-Com:  0.456D-04-0.100D-03-0.759D-04 0.435D-04 0.165D-02 0.154D-02
 Coeff-Com: -0.255D-02-0.154D-01-0.417D-01 0.790D-02 0.307D+00 0.741D+00
 Coeff:      0.456D-04-0.100D-03-0.759D-04 0.435D-04 0.165D-02 0.154D-02
 Coeff:     -0.255D-02-0.154D-01-0.417D-01 0.790D-02 0.307D+00 0.741D+00
 Gap=     0.226 Goal=   None    Shift=    0.000
 RMSDP=1.06D-07 MaxDP=7.26D-06 DE=-1.06D-09 OVMax= 1.01D-05

 Cycle  13  Pass 1  IDiag  1:
 RMSU=  4.05D-08    CP:  8.59D-01  1.69D+00  6.52D-01  8.10D-01  1.19D+00
                    CP:  9.38D-01  1.02D+00  1.24D+00  8.80D-01  1.20D+00
                    CP:  1.16D+00  1.13D+00
 E= -633.313869072112     Delta-E=       -0.000000000151 Rises=F Damp=F
 DIIS: error= 4.43D-07 at cycle  13 NSaved=  13.
 NSaved=13 IEnMin=13 EnMin= -633.313869072112     IErMin=13 ErrMin= 4.43D-07
 ErrMax= 4.43D-07  0.00D+00 EMaxC= 1.00D-01 BMatC= 1.00D-11 BMatP= 6.20D-11
 IDIUse=1 WtCom= 1.00D+00 WtEn= 0.00D+00
 Coeff-Com:  0.509D-05-0.104D-04-0.171D-04-0.324D-04-0.208D-03-0.705D-04
 Coeff-Com:  0.325D-02 0.492D-02-0.791D-02-0.362D-01-0.135D+00 0.159D+00
 Coeff-Com:  0.101D+01
 Coeff:      0.509D-05-0.104D-04-0.171D-04-0.324D-04-0.208D-03-0.705D-04
 Coeff:      0.325D-02 0.492D-02-0.791D-02-0.362D-01-0.135D+00 0.159D+00
 Coeff:      0.101D+01
 Gap=     0.226 Goal=   None    Shift=    0.000
 RMSDP=8.25D-08 MaxDP=3.55D-06 DE=-1.51D-10 OVMax= 7.58D-06

 Cycle  14  Pass 1  IDiag  1:
 RMSU=  2.08D-08    CP:  8.59D-01  1.69D+00  6.52D-01  8.10D-01  1.19D+00
                    CP:  9.38D-01  1.02D+00  1.24D+00  8.66D-01  1.22D+00
                    CP:  1.21D+00  1.36D+00  1.29D+00
 E= -633.313869072159     Delta-E=       -0.000000000047 Rises=F Damp=F
 DIIS: error= 1.48D-07 at cycle  14 NSaved=  14.
 NSaved=14 IEnMin=14 EnMin= -633.313869072159     IErMin=14 ErrMin= 1.48D-07
 ErrMax= 1.48D-07  0.00D+00 EMaxC= 1.00D-01 BMatC= 8.78D-13 BMatP= 1.00D-11
 IDIUse=1 WtCom= 1.00D+00 WtEn= 0.00D+00
 Coeff-Com: -0.399D-05 0.890D-05 0.565D-05-0.807D-05-0.201D-03-0.165D-03
 Coeff-Com:  0.619D-03 0.235D-02 0.354D-02-0.219D-02-0.514D-01-0.754D-01
 Coeff-Com:  0.549D-01 0.107D+01
 Coeff:     -0.399D-05 0.890D-05 0.565D-05-0.807D-05-0.201D-03-0.165D-03
 Coeff:      0.619D-03 0.235D-02 0.354D-02-0.219D-02-0.514D-01-0.754D-01
 Coeff:      0.549D-01 0.107D+01
 Gap=     0.226 Goal=   None    Shift=    0.000
 RMSDP=2.81D-08 MaxDP=1.34D-06 DE=-4.72D-11 OVMax= 2.88D-06

 Cycle  15  Pass 1  IDiag  1:
 RMSU=  6.47D-09    CP:  8.59D-01  1.69D+00  6.52D-01  8.10D-01  1.19D+00
                    CP:  9.38D-01  1.02D+00  1.24D+00  8.61D-01  1.23D+00
                    CP:  1.21D+00  1.43D+00  1.50D+00  1.30D+00
 E= -633.313869072160     Delta-E=       -0.000000000001 Rises=F Damp=F
 DIIS: error= 3.01D-08 at cycle  15 NSaved=  15.
 NSaved=15 IEnMin=15 EnMin= -633.313869072160     IErMin=15 ErrMin= 3.01D-08
 ErrMax= 3.01D-08  0.00D+00 EMaxC= 1.00D-01 BMatC= 1.75D-13 BMatP= 8.78D-13
 IDIUse=1 WtCom= 1.00D+00 WtEn= 0.00D+00
 Coeff-Com: -0.199D-05 0.429D-05 0.387D-05 0.701D-06-0.490D-04-0.584D-04
 Coeff-Com: -0.152D-03 0.205D-03 0.197D-02 0.388D-02-0.333D-02-0.394D-01
 Coeff-Com: -0.943D-01 0.383D+00 0.749D+00
 Coeff:     -0.199D-05 0.429D-05 0.387D-05 0.701D-06-0.490D-04-0.584D-04
 Coeff:     -0.152D-03 0.205D-03 0.197D-02 0.388D-02-0.333D-02-0.394D-01
 Coeff:     -0.943D-01 0.383D+00 0.749D+00
 Gap=     0.226 Goal=   None    Shift=    0.000
 RMSDP=5.11D-09 MaxDP=2.65D-07 DE=-1.02D-12 OVMax= 6.01D-07

 Error on total polarization charges =  0.01447
 SCF Done:  E(RCAM-B3LYP) =  -633.313869072     A.U. after   15 cycles
            NFock= 15  Conv=0.51D-08     -V/T= 2.0043
 KE= 6.306140375002D+02 PE=-3.272703291271D+03 EE= 1.110389258743D+03
 Leave Link  502 at Fri Jan 23 15:20:07 2026, MaxMem=  2147483648 cpu:             928.9 elap:              58.5
 (Enter /data/home/wyx/g16/l801.exe)
 DoSCS=F DFT=T ScalE2(SS,OS)=  1.000000  1.000000
 ExpMin= 9.52D-02 ExpMax= 2.70D+04 ExpMxC= 9.22D+02 IAcc=3 IRadAn=         5 AccDes= 0.00D+00
 HarFok:  IExCor=  205 AccDes= 0.00D+00 IRadAn=         5 IDoV=-2 UseB2=F ITyADJ=14
 ICtDFT= 12500011 ScaDFX=  1.000000  1.000000  1.000000  1.000000
 Largest valence mixing into a core orbital is  5.63D-05
 Largest core mixing into a valence orbital is  1.21D-05
 Range of M.O.s used for correlation:    15   356
 NBasis=   356 NAE=    52 NBE=    52 NFC=    14 NFV=     0
 NROrb=    342 NOA=    38 NOB=    38 NVA=   304 NVB=   304

 **** Warning!!: The largest alpha MO coefficient is  0.42049939D+02

 Leave Link  801 at Fri Jan 23 15:20:08 2026, MaxMem=  2147483648 cpu:               1.0 elap:               0.1
 (Enter /data/home/wyx/g16/l914.exe)
 RHF ground state
 Two-electron integrals replicated using symmetry.
 MDV=  2147483648 DFT=T DoStab=F Mixed=T DoRPA=T DoScal=F NonHer=T
 NEqPCM:  Using non-equilibrium solvation (IEInf=1, Eps=   7.4257, EpsInf=   1.9740)
 Inv3:  Mode=1 IEnd=    13293075.
 Iteration    1 A*A^-1 deviation from unit magnitude is 3.11D-15 for   1443.
 Iteration    1 A*A^-1 deviation from orthogonality  is 2.10D-15 for   1761    279.
 Iteration    1 A^-1*A deviation from unit magnitude is 3.11D-15 for   1443.
 Iteration    1 A^-1*A deviation from orthogonality  is 6.71D-15 for   1791   1761.
 Making orbital integer symmetry assigments:
 Orbital symmetries:
       Occupied  (A) (A) (A) (A) (A) (A) (A) (A) (A) (A) (A) (A)
                 (A) (A) (A) (A) (A) (A) (A) (A) (A) (A) (A) (A)
                 (A) (A) (A) (A) (A) (A) (A) (A) (A) (A) (A) (A)
                 (A) (A) (A) (A) (A) (A) (A) (A) (A) (A) (A) (A)
                 (A) (A) (A) (A)
       Virtual   (A) (A) (A) (A) (A) (A) (A) (A) (A) (A) (A) (A)
                 (A) (A) (A) (A) (A) (A) (A) (A) (A) (A) (A) (A)
                 (A) (A) (A) (A) (A) (A) (A) (A) (A) (A) (A) (A)
                 (A) (A) (A) (A) (A) (A) (A) (A) (A) (A) (A) (A)
                 (A) (A) (A) (A) (A) (A) (A) (A) (A) (A) (A) (A)
                 (A) (A) (A) (A) (A) (A) (A) (A) (A) (A) (A) (A)
                 (A) (A) (A) (A) (A) (A) (A) (A) (A) (A) (A) (A)
                 (A) (A) (A) (A) (A) (A) (A) (A) (A) (A) (A) (A)
                 (A) (A) (A) (A) (A) (A) (A) (A) (A) (A) (A) (A)
                 (A) (A) (A) (A) (A) (A) (A) (A) (A) (A) (A) (A)
                 (A) (A) (A) (A) (A) (A) (A) (A) (A) (A) (A) (A)
                 (A) (A) (A) (A) (A) (A) (A) (A) (A) (A) (A) (A)
                 (A) (A) (A) (A) (A) (A) (A) (A) (A) (A) (A) (A)
                 (A) (A) (A) (A) (A) (A) (A) (A) (A) (A) (A) (A)
                 (A) (A) (A) (A) (A) (A) (A) (A) (A) (A) (A) (A)
                 (A) (A) (A) (A) (A) (A) (A) (A) (A) (A) (A) (A)
                 (A) (A) (A) (A) (A) (A) (A) (A) (A) (A) (A) (A)
                 (A) (A) (A) (A) (A) (A) (A) (A) (A) (A) (A) (A)
                 (A) (A) (A) (A) (A) (A) (A) (A) (A) (A) (A) (A)
                 (A) (A) (A) (A) (A) (A) (A) (A) (A) (A) (A) (A)
                 (A) (A) (A) (A) (A) (A) (A) (A) (A) (A) (A) (A)
                 (A) (A) (A) (A) (A) (A) (A) (A) (A) (A) (A) (A)
                 (A) (A) (A) (A) (A) (A) (A) (A) (A) (A) (A) (A)
                 (A) (A) (A) (A) (A) (A) (A) (A) (A) (A) (A) (A)
                 (A) (A) (A) (A) (A) (A) (A) (A) (A) (A) (A) (A)
                 (A) (A) (A) (A)
    24 initial guesses have been made.
 Convergence on wavefunction:    0.001000000000000
 Davidson Disk Diagonalization:  ConvIn= 1.00D-03 SkipCon=T Conv= 1.00D-03.
 Max sub-space:  2000 roots to seek:    24 dimension of matrix:        23104
 Iteration     1 Dimension    24 NMult     0 NNew     24
 CISAX will form    24 AO SS matrices at one time.
 NMat=    24 NSing=    24 JSym2X= 0.
 FoFJK:  IHMeth= 1 ICntrl=       0 DoSepK=T KAlg= 0 I1Cent=           0 FoldK=F
 IRaf=         1 NMat=      48 IRICut=       1 DoRegI=T DoRafI=F ISym2E= 0 IDoP0=3 IntGTp=3.
 New state      1 was old state      2
 New state      2 was old state      1
 New state      3 was old state      4
 New state      4 was old state      3
 New state      5 was old state      7
 New state      6 was old state      5
 Excitation Energies [eV] at current iteration:
 Root      1 :     3.575031471805509
 Root      2 :     3.697622244493691
 Root      3 :     4.433705804364553
 Root      4 :     5.447909047746215
 Root      5 :     6.267266007623055
 Root      6 :     6.321373373898418
 Root      7 :     6.522084003060567
 Root      8 :     6.616051828341955
 Root      9 :     6.854484629315976
 Root     10 :     7.067526322039567
 Root     11 :     7.132793503028525
 Root     12 :     7.288918134985179
 Root     13 :     7.492793262714120
 Root     14 :     7.629781513649911
 Root     15 :     7.676406708991507
 Root     16 :     7.712430889638976
 Root     17 :     7.749191336834063
 Root     18 :     8.203871657884175
 Root     19 :     8.276961652326310
 Root     20 :     8.314801714116790
 Root     21 :     8.370719899855564
 Root     22 :     8.540945659151999
 Root     23 :     8.708913781149588
 Root     24 :     8.980002857892698
 Iteration     2 Dimension    36 NMult    24 NNew     12
 CISAX will form    12 AO SS matrices at one time.
 NMat=    12 NSing=    12 JSym2X= 0.
 New state      1 was old state      2
 Root      1 not converged, maximum delta is    0.140397650212212
 New state      2 was old state      1
 Root      2 not converged, maximum delta is    0.142460518073601
 Root      3 not converged, maximum delta is    0.094471620411286
 Root      4 not converged, maximum delta is    0.328930737217275
 New state      5 was old state      6
 Root      5 not converged, maximum delta is    0.309665322231562
 New state      6 was old state      5
 Root      6 not converged, maximum delta is    0.072579708160533
 Excitation Energies [eV] at current iteration:
 Root      1 :     3.249554396672448   Change is   -0.448067847821243
 Root      2 :     3.375919671290183   Change is   -0.199111800515327
 Root      3 :     4.198669824844271   Change is   -0.235035979520282
 Root      4 :     5.121534831350334   Change is   -0.326374216395880
 Root      5 :     5.436463945573071   Change is   -0.884909428325347
 Root      6 :     6.122322720203646   Change is   -0.144943287419409
 Iteration     3 Dimension    48 NMult    36 NNew     12
 CISAX will form    12 AO SS matrices at one time.
 NMat=    12 NSing=    12 JSym2X= 0.
 Root      1 not converged, maximum delta is    0.008792753223745
 Root      2 not converged, maximum delta is    0.012282841347812
 Root      3 not converged, maximum delta is    0.018681877368979
 Root      4 not converged, maximum delta is    0.035082707719885
 Root      5 not converged, maximum delta is    0.034467854945170
 Root      6 not converged, maximum delta is    0.014476514859776
 Excitation Energies [eV] at current iteration:
 Root      1 :     3.232577384640879   Change is   -0.016977012031568
 Root      2 :     3.367922440182475   Change is   -0.007997231107707
 Root      3 :     4.185817868812929   Change is   -0.012851956031341
 Root      4 :     5.097186843058179   Change is   -0.024347988292156
 Root      5 :     5.409664971626598   Change is   -0.026798973946473
 Root      6 :     6.115014857043700   Change is   -0.007307863159946
 Iteration     4 Dimension    60 NMult    48 NNew     12
 CISAX will form    12 AO SS matrices at one time.
 NMat=    12 NSing=    12 JSym2X= 0.
 Root      1 not converged, maximum delta is    0.002500823851523
 Root      2 not converged, maximum delta is    0.001821553129039
 Root      3 not converged, maximum delta is    0.001897119070514
 Root      4 not converged, maximum delta is    0.004546194039483
 Root      5 not converged, maximum delta is    0.004928611329837
 Root      6 not converged, maximum delta is    0.003380007243952
 Excitation Energies [eV] at current iteration:
 Root      1 :     3.231132933884521   Change is   -0.001444450756358
 Root      2 :     3.367532502030364   Change is   -0.000389938152111
 Root      3 :     4.185371008694744   Change is   -0.000446860118185
 Root      4 :     5.094304831785967   Change is   -0.002882011272211
 Root      5 :     5.405857569632987   Change is   -0.003807401993611
 Root      6 :     6.114515989968161   Change is   -0.000498867075539
 Iteration     5 Dimension    72 NMult    60 NNew     12
 CISAX will form    12 AO SS matrices at one time.
 NMat=    12 NSing=    12 JSym2X= 0.
 Root      1 has converged.
 Root      2 has converged.
 Root      3 has converged.
 Root      4 has converged.
 Root      5 not converged, maximum delta is    0.001272705647391
 Root      6 has converged.
 Excitation Energies [eV] at current iteration:
 Root      1 :     3.231053973174103   Change is   -0.000078960710418
 Root      2 :     3.367509735752087   Change is   -0.000022766278277
 Root      3 :     4.185347796108246   Change is   -0.000023212586498
 Root      4 :     5.094125226104402   Change is   -0.000179605681566
 Root      5 :     5.405586557860324   Change is   -0.000271011772663
 Root      6 :     6.114480724344469   Change is   -0.000035265623691
 Iteration     6 Dimension    74 NMult    72 NNew      2
 CISAX will form     2 AO SS matrices at one time.
 NMat=     2 NSing=     2 JSym2X= 0.
 Root      1 has converged.
 Root      2 has converged.
 Root      3 has converged.
 Root      4 has converged.
 Root      5 has converged.
 Root      6 has converged.
 Excitation Energies [eV] at current iteration:
 Root      1 :     3.231053299827615   Change is   -0.000000673346488
 Root      2 :     3.367509718414004   Change is   -0.000000017338083
 Root      3 :     4.185347736970186   Change is   -0.000000059138060
 Root      4 :     5.094116721037216   Change is   -0.000008505067185
 Root      5 :     5.405563149988135   Change is   -0.000023407872189
 Root      6 :     6.114480658296273   Change is   -0.000000066048196
 Convergence achieved on expansion vectors.
 ***********************************************************************
 Excited states from <AA,BB:AA,BB> singles matrix:
 ***********************************************************************
 
 1PDM for each excited state written to RWF  633
 Ground to excited state transition densities written to RWF  633
 Ground to excited state transition electric dipole moments (Au):
       state          X           Y           Z        Dip. S.      Osc.
         1         1.5777     -0.0284      0.0127      2.4900      0.1971
         2         0.1635     -0.0215     -0.0378      0.0286      0.0024
         3        -0.0051      0.0175      0.0349      0.0016      0.0002
         4        -0.0654      1.3596      0.0059      1.8528      0.2312
         5         0.3069      1.3429      0.0097      1.8977      0.2513
         6        -0.0198      0.0149      0.0415      0.0023      0.0003
 Ground to excited state transition velocity dipole moments (Au):
       state          X           Y           Z        Dip. S.      Osc.
         1        -0.1830      0.0025     -0.0016      0.0335      0.1882
         2        -0.0203      0.0027      0.0036      0.0004      0.0023
         3         0.0004     -0.0024     -0.0018      0.0000      0.0000
         4         0.0054     -0.2372     -0.0008      0.0563      0.2005
         5        -0.0579     -0.2614     -0.0020      0.0717      0.2405
         6         0.0040     -0.0030     -0.0286      0.0008      0.0025
 Ground to excited state transition magnetic dipole moments (Au):
       state          X           Y           Z
         1         0.0461     -0.0200      1.4152
         2        -0.7142      0.2711      0.1743
         3        -0.0025      0.9263     -0.0124
         4        -0.0088     -0.0106     -0.4499
         5         0.0014     -0.0199     -0.3652
         6        -0.0630      0.0099     -0.0167
 Ground to excited state transition velocity quadrupole moments (Au):
       state          XX          YY          ZZ          XY          XZ          YZ
         1         0.3643     -0.1357     -0.0134      0.4664      0.0093      0.0020
         2         0.0426     -0.0051     -0.0022      0.0461     -0.0366     -0.0199
         3        -0.0079      0.0042      0.0020     -0.0084     -0.0722      0.0050
         4         1.2473     -0.2417     -0.0326     -0.2594      0.0113     -0.0080
         5         0.8925     -0.4825     -0.0353      0.0215      0.0270     -0.0118
         6         0.0320      0.0257     -0.0210     -0.0149      0.0058      0.0206
 <0|del|b> * <b|rxdel|0> + <0|del|b> * <b|delr+rdel|0>
 Rotatory Strengths (R) in cgs (10**-40 erg-esu-cm/Gauss)
       state          XX          YY          ZZ    R(velocity)    E-M Angle
         1        -8.9127    -30.5883    -24.0878    -21.1963       92.36
         2         4.6434     43.7859     42.0021     30.1438       13.20
         3        -5.5015      0.0189     -4.7861     -3.4229      142.03
         4        10.8548      0.1004     -0.3268      3.5428       88.49
         5        23.0647      2.4475     -4.6503      6.9539       86.57
         6         1.4053     -0.1880     -0.6045      0.2043       84.17
 1/2[<0|r|b>*<b|rxdel|0> + (<0|rxdel|b>*<b|r|0>)*]
 Rotatory Strengths (R) in cgs (10**-40 erg-esu-cm/Gauss)
       state          XX          YY          ZZ     R(length)
         1       -51.3879     -0.4009    -12.7093    -21.4994
         2        82.5886      4.1141      4.6636     30.4555
         3        -0.0088    -11.4880      0.3060     -3.7303
         4        -0.4081     10.2243      1.8738      3.8967
         5        -0.2933     18.9261      2.5046      7.0458
         6        -0.8819     -0.1044      0.4902     -0.1654
  1/2[<0|del|b>*<b|r|0> + (<0|r|b>*<b|del|0>)*] (Au)
       state          X           Y           Z        Dip. S.   Osc.(frdel)
         1        -0.2888     -0.0001     -0.0000      0.2889      0.1926
         2        -0.0033     -0.0001     -0.0001      0.0035      0.0023
         3        -0.0000     -0.0000     -0.0001      0.0001      0.0001
         4        -0.0004     -0.3225     -0.0000      0.3229      0.2153
         5        -0.0178     -0.3510     -0.0000      0.3688      0.2459
         6        -0.0001     -0.0000     -0.0012      0.0013      0.0009

 Excitation energies and oscillator strengths:
 
 Excited State   1:      Singlet-A      3.2311 eV  383.73 nm  f=0.1971  <S**2>=0.000
      52 -> 53         0.69799
 This state for optimization and/or second-order correction.
 Total Energy, E(TD-HF/TD-DFT) =  -633.195130048    
 Copying the excited state density for this state as the 1-particle RhoCI density.
 
 Excited State   2:      Singlet-A      3.3675 eV  368.18 nm  f=0.0024  <S**2>=0.000
      51 -> 53         0.63063
      51 -> 54         0.27236
 
 Excited State   3:      Singlet-A      4.1853 eV  296.23 nm  f=0.0002  <S**2>=0.000
      50 -> 53         0.52896
      50 -> 54        -0.42859
      50 -> 58         0.12085
 
 Excited State   4:      Singlet-A      5.0941 eV  243.39 nm  f=0.2312  <S**2>=0.000
      52 -> 54         0.69992
 
 Excited State   5:      Singlet-A      5.4056 eV  229.36 nm  f=0.2513  <S**2>=0.000
      49 -> 53         0.69618
 
 Excited State   6:      Singlet-A      6.1145 eV  202.77 nm  f=0.0003  <S**2>=0.000
      52 -> 55         0.66347
      52 -> 57         0.14786
      52 -> 61        -0.11083
 SavETr:  write IOETrn=   770 NScale= 10 NData=  16 NLR=1 NState=    6 LETran=     118.
 Leave Link  914 at Fri Jan 23 15:22:16 2026, MaxMem=  2147483648 cpu:            2035.4 elap:             127.8
 (Enter /data/home/wyx/g16/l601.exe)
 Copying SCF densities to generalized density rwf, IOpCl= 0 IROHF=0.

 **********************************************************************

            Population analysis using the SCF density.

 **********************************************************************

 Orbital symmetries:
       Occupied  (A) (A) (A) (A) (A) (A) (A) (A) (A) (A) (A) (A)
                 (A) (A) (A) (A) (A) (A) (A) (A) (A) (A) (A) (A)
                 (A) (A) (A) (A) (A) (A) (A) (A) (A) (A) (A) (A)
                 (A) (A) (A) (A) (A) (A) (A) (A) (A) (A) (A) (A)
                 (A) (A) (A) (A)
       Virtual   (A) (A) (A) (A) (A) (A) (A) (A) (A) (A) (A) (A)
                 (A) (A) (A) (A) (A) (A) (A) (A) (A) (A) (A) (A)
                 (A) (A) (A) (A) (A) (A) (A) (A) (A) (A) (A) (A)
                 (A) (A) (A) (A) (A) (A) (A) (A) (A) (A) (A) (A)
                 (A) (A) (A) (A) (A) (A) (A) (A) (A) (A) (A) (A)
                 (A) (A) (A) (A) (A) (A) (A) (A) (A) (A) (A) (A)
                 (A) (A) (A) (A) (A) (A) (A) (A) (A) (A) (A) (A)
                 (A) (A) (A) (A) (A) (A) (A) (A) (A) (A) (A) (A)
                 (A) (A) (A) (A) (A) (A) (A) (A) (A) (A) (A) (A)
                 (A) (A) (A) (A) (A) (A) (A) (A) (A) (A) (A) (A)
                 (A) (A) (A) (A) (A) (A) (A) (A) (A) (A) (A) (A)
                 (A) (A) (A) (A) (A) (A) (A) (A) (A) (A) (A) (A)
                 (A) (A) (A) (A) (A) (A) (A) (A) (A) (A) (A) (A)
                 (A) (A) (A) (A) (A) (A) (A) (A) (A) (A) (A) (A)
                 (A) (A) (A) (A) (A) (A) (A) (A) (A) (A) (A) (A)
                 (A) (A) (A) (A) (A) (A) (A) (A) (A) (A) (A) (A)
                 (A) (A) (A) (A) (A) (A) (A) (A) (A) (A) (A) (A)
                 (A) (A) (A) (A) (A) (A) (A) (A) (A) (A) (A) (A)
                 (A) (A) (A) (A) (A) (A) (A) (A) (A) (A) (A) (A)
                 (A) (A) (A) (A) (A) (A) (A) (A) (A) (A) (A) (A)
                 (A) (A) (A) (A) (A) (A) (A) (A) (A) (A) (A) (A)
                 (A) (A) (A) (A) (A) (A) (A) (A) (A) (A) (A) (A)
                 (A) (A) (A) (A) (A) (A) (A) (A) (A) (A) (A) (A)
                 (A) (A) (A) (A) (A) (A) (A) (A) (A) (A) (A) (A)
                 (A) (A) (A) (A) (A) (A) (A) (A) (A) (A) (A) (A)
                 (A) (A) (A) (A)
 The electronic state is 1-A.
 Alpha  occ. eigenvalues --  -19.17674 -19.16278 -14.44673 -10.33240 -10.33201
 Alpha  occ. eigenvalues --  -10.32669 -10.32541 -10.26141 -10.25352 -10.25216
 Alpha  occ. eigenvalues --  -10.25105 -10.24271 -10.24130 -10.23844  -1.11683
 Alpha  occ. eigenvalues --   -1.08484  -1.07625  -0.91650  -0.90691  -0.83944
 Alpha  occ. eigenvalues --   -0.82568  -0.81546  -0.78830  -0.74468  -0.71796
 Alpha  occ. eigenvalues --   -0.69286  -0.62178  -0.58554  -0.56982  -0.55243
 Alpha  occ. eigenvalues --   -0.54854  -0.54137  -0.52375  -0.51877  -0.50690
 Alpha  occ. eigenvalues --   -0.49505  -0.49336  -0.48996  -0.48518  -0.48154
 Alpha  occ. eigenvalues --   -0.46610  -0.45514  -0.44581  -0.43885  -0.42984
 Alpha  occ. eigenvalues --   -0.42429  -0.41521  -0.40434  -0.32998  -0.32119
 Alpha  occ. eigenvalues --   -0.30429  -0.26294
 Alpha virt. eigenvalues --   -0.03680   0.01897   0.06291   0.08255   0.08509
 Alpha virt. eigenvalues --    0.09933   0.10920   0.11240   0.12690   0.13030
 Alpha virt. eigenvalues --    0.14671   0.15141   0.15336   0.16483   0.17148
 Alpha virt. eigenvalues --    0.17388   0.17619   0.17642   0.18764   0.19526
 Alpha virt. eigenvalues --    0.19934   0.20325   0.22492   0.23152   0.24230
 Alpha virt. eigenvalues --    0.24622   0.25072   0.25432   0.26024   0.26515
 Alpha virt. eigenvalues --    0.27297   0.27542   0.28643   0.29220   0.29794
 Alpha virt. eigenvalues --    0.30770   0.31110   0.33576   0.34217   0.34743
 Alpha virt. eigenvalues --    0.35502   0.36028   0.36652   0.36894   0.37508
 Alpha virt. eigenvalues --    0.40091   0.40888   0.41334   0.42543   0.42821
 Alpha virt. eigenvalues --    0.44385   0.45174   0.45485   0.46293   0.46486
 Alpha virt. eigenvalues --    0.47564   0.47791   0.48108   0.48671   0.48924
 Alpha virt. eigenvalues --    0.49821   0.50250   0.50922   0.51371   0.51771
 Alpha virt. eigenvalues --    0.52013   0.52951   0.53238   0.53633   0.53918
 Alpha virt. eigenvalues --    0.54980   0.55663   0.56080   0.57509   0.57820
 Alpha virt. eigenvalues --    0.58147   0.59032   0.61724   0.62600   0.62970
 Alpha virt. eigenvalues --    0.63627   0.65066   0.65522   0.66579   0.67614
 Alpha virt. eigenvalues --    0.68693   0.69265   0.71115   0.71708   0.71830
 Alpha virt. eigenvalues --    0.73529   0.75919   0.77775   0.78036   0.79514
 Alpha virt. eigenvalues --    0.81396   0.82816   0.85051   0.88772   0.92342
 Alpha virt. eigenvalues --    0.94784   0.95904   1.00634   1.03796   1.19408
 Alpha virt. eigenvalues --    1.20933   1.22398   1.25923   1.29922   1.31073
 Alpha virt. eigenvalues --    1.31766   1.33529   1.34123   1.35277   1.36610
 Alpha virt. eigenvalues --    1.37662   1.38385   1.39277   1.39515   1.39812
 Alpha virt. eigenvalues --    1.40267   1.40764   1.40990   1.41297   1.42097
 Alpha virt. eigenvalues --    1.42360   1.43270   1.44371   1.44865   1.45803
 Alpha virt. eigenvalues --    1.48480   1.49705   1.50492   1.50836   1.51280
 Alpha virt. eigenvalues --    1.51917   1.53117   1.55138   1.57603   1.58107
 Alpha virt. eigenvalues --    1.59076   1.59588   1.59934   1.61358   1.61872
 Alpha virt. eigenvalues --    1.62413   1.62632   1.63804   1.64114   1.64682
 Alpha virt. eigenvalues --    1.64836   1.65829   1.65905   1.66559   1.67684
 Alpha virt. eigenvalues --    1.68142   1.69031   1.69791   1.71627   1.72144
 Alpha virt. eigenvalues --    1.72424   1.74667   1.75518   1.76130   1.80596
 Alpha virt. eigenvalues --    1.81809   1.82863   1.83998   1.84107   1.85685
 Alpha virt. eigenvalues --    1.85969   1.86362   1.89803   1.90250   1.91042
 Alpha virt. eigenvalues --    1.91554   1.92986   1.97073   1.98216   2.01571
 Alpha virt. eigenvalues --    2.02504   2.04897   2.06376   2.08096   2.09735
 Alpha virt. eigenvalues --    2.10285   2.13668   2.14988   2.18572   2.20080
 Alpha virt. eigenvalues --    2.20153   2.23518   2.24951   2.25174   2.26187
 Alpha virt. eigenvalues --    2.27457   2.29274   2.30269   2.31802   2.32935
 Alpha virt. eigenvalues --    2.35047   2.35078   2.36064   2.38331   2.39208
 Alpha virt. eigenvalues --    2.40155   2.42183   2.42983   2.44242   2.46281
 Alpha virt. eigenvalues --    2.47188   2.47953   2.49232   2.50359   2.50655
 Alpha virt. eigenvalues --    2.52772   2.54282   2.55566   2.55986   2.56940
 Alpha virt. eigenvalues --    2.57412   2.58623   2.61652   2.62702   2.63499
 Alpha virt. eigenvalues --    2.64188   2.64598   2.65478   2.65929   2.68017
 Alpha virt. eigenvalues --    2.69025   2.71157   2.73035   2.74488   2.75573
 Alpha virt. eigenvalues --    2.76326   2.77102   2.77281   2.78264   2.79376
 Alpha virt. eigenvalues --    2.80768   2.81570   2.83359   2.84522   2.84546
 Alpha virt. eigenvalues --    2.85874   2.88776   2.89438   2.90778   2.93442
 Alpha virt. eigenvalues --    2.97494   2.99086   2.99414   3.04137   3.08576
 Alpha virt. eigenvalues --    3.11326   3.12601   3.14632   3.18804   3.21031
 Alpha virt. eigenvalues --    3.21608   3.22148   3.25716   3.25976   3.26443
 Alpha virt. eigenvalues --    3.30845   3.31171   3.32986   3.36176   3.38121
 Alpha virt. eigenvalues --    3.38796   3.39531   3.40352   3.40531   3.41169
 Alpha virt. eigenvalues --    3.42074   3.44398   3.45148   3.47032   3.49693
 Alpha virt. eigenvalues --    3.51245   3.54369   3.55378   3.58254   3.60389
 Alpha virt. eigenvalues --    3.64042   3.92736   4.00574   4.29333   4.36758
 Alpha virt. eigenvalues --   21.64922  21.76612  22.05436  22.10262  22.12453
 Alpha virt. eigenvalues --   22.13276  22.16634  22.19983  22.21072  22.27543
 Alpha virt. eigenvalues --   22.31707  31.92799  43.64958  43.67998
          Condensed to atoms (all electrons):
               1          2          3          4          5          6
     1  O    7.925338   0.000000  -0.000214   0.000018   0.017438   0.016927
     2  O    0.000000   8.106722   0.000742   0.000011  -0.183401   0.001855
     3  N   -0.000214   0.000742   6.341599   0.369355  -0.093737   0.387900
     4  H    0.000018   0.000011   0.369355   0.400380   0.011209  -0.039735
     5  C    0.017438  -0.183401  -0.093737   0.011209   7.194239  -0.040125
     6  C    0.016927   0.001855   0.387900  -0.039735  -0.040125   5.552895
     7  C    0.000205  -0.000965   0.347780  -0.044424   0.340618  -0.163936
     8  C   -0.000287   0.597965   0.004310  -0.001342  -0.487791   0.049287
     9  C    0.005176   0.026215   0.022385   0.001207  -0.694319  -0.081429
    10  H    0.006717  -0.000176   0.000684   0.000003  -0.073697   0.000954
    11  H    0.007047  -0.000135  -0.000018   0.000012  -0.096840   0.019596
    12  C   -0.254913  -0.004369  -0.105994   0.019041   0.221786  -0.127800
    13  C    0.745401   0.000005  -0.000894   0.000561   0.063636   0.098251
    14  C   -0.000014  -0.084755  -0.049132   0.002014   0.027207  -0.003095
    15  H    0.000000   0.004147   0.002042  -0.000368  -0.003691   0.003597
    16  H    0.000000   0.041565   0.003428   0.000703   0.013248  -0.000180
    17  H    0.000000   0.002550  -0.001508   0.000276  -0.015615   0.000646
    18  C   -0.000348  -0.084776  -0.000302   0.000012  -0.128197  -0.002461
    19  H    0.000005  -0.000593   0.000010  -0.000001  -0.000934   0.000061
    20  H    0.000977   0.007501   0.000061   0.000001   0.081421  -0.001377
    21  H    0.000004  -0.001606   0.000010  -0.000001  -0.007642   0.000062
    22  C   -0.125361   0.000000   0.000128   0.000115  -0.000101  -0.004616
    23  H    0.003543   0.000000   0.000111  -0.000044  -0.000284  -0.017148
    24  H    0.002722   0.000000   0.000146  -0.000018  -0.000117   0.004886
    25  H    0.010887  -0.000000   0.000015  -0.000003  -0.000038  -0.002078
    26  C    0.000795   0.000011  -0.026896  -0.011940   0.002620   0.224273
    27  H   -0.000084  -0.000000  -0.001059   0.000846   0.000449  -0.037249
    28  H   -0.000025  -0.000000  -0.002685   0.000639   0.000458  -0.041977
    29  H    0.000015   0.000000   0.004503   0.002606  -0.000505  -0.053499
               7          8          9         10         11         12
     1  O    0.000205  -0.000287   0.005176   0.006717   0.007047  -0.254913
     2  O   -0.000965   0.597965   0.026215  -0.000176  -0.000135  -0.004369
     3  N    0.347780   0.004310   0.022385   0.000684  -0.000018  -0.105994
     4  H   -0.044424  -0.001342   0.001207   0.000003   0.000012   0.019041
     5  C    0.340618  -0.487791  -0.694319  -0.073697  -0.096840   0.221786
     6  C   -0.163936   0.049287  -0.081429   0.000954   0.019596  -0.127800
     7  C    5.541870  -0.250323  -0.278447   0.004786   0.007656   0.062153
     8  C   -0.250323   5.761296   0.238022  -0.006057   0.002323  -0.101232
     9  C   -0.278447   0.238022   6.462676   0.472322   0.492696  -0.175776
    10  H    0.004786  -0.006057   0.472322   0.533912  -0.041523  -0.046825
    11  H    0.007656   0.002323   0.492696  -0.041523   0.531005  -0.066296
    12  C    0.062153  -0.101232  -0.175776  -0.046825  -0.066296   7.554729
    13  C    0.028341  -0.010483  -0.197627  -0.007535  -0.006188  -0.508886
    14  C    0.193248  -0.094509   0.019474  -0.000117  -0.000360   0.006180
    15  H   -0.050896   0.007143  -0.000069  -0.000026   0.000073  -0.001316
    16  H   -0.059650  -0.027525   0.002638  -0.000040   0.000015  -0.000414
    17  H   -0.023608   0.006715  -0.001021   0.000094  -0.000016  -0.000234
    18  C    0.027331   0.277155  -0.023650  -0.005297  -0.012051   0.012689
    19  H   -0.001110  -0.023053  -0.001449   0.000313   0.000416  -0.000254
    20  H    0.005825  -0.143396  -0.016688  -0.005396  -0.002430   0.005747
    21  H   -0.000927  -0.018421  -0.001708   0.000460   0.000476  -0.000462
    22  C    0.001383  -0.000052   0.020747   0.001304   0.000169  -0.332094
    23  H   -0.000058   0.000003   0.000261  -0.000155   0.000088   0.041995
    24  H   -0.000030   0.000002  -0.001834   0.000145  -0.000127   0.010795
    25  H    0.000011  -0.000001  -0.000038  -0.000079  -0.000030   0.026672
    26  C    0.005106   0.000915   0.016860  -0.000188  -0.000022  -0.098041
    27  H   -0.001303  -0.000001  -0.000215  -0.000008   0.000009  -0.001126
    28  H   -0.001249  -0.000006  -0.000481  -0.000005   0.000039  -0.013052
    29  H    0.003719   0.000023  -0.000622   0.000026  -0.000005   0.022991
              13         14         15         16         17         18
     1  O    0.745401  -0.000014   0.000000   0.000000   0.000000  -0.000348
     2  O    0.000005  -0.084755   0.004147   0.041565   0.002550  -0.084776
     3  N   -0.000894  -0.049132   0.002042   0.003428  -0.001508  -0.000302
     4  H    0.000561   0.002014  -0.000368   0.000703   0.000276   0.000012
     5  C    0.063636   0.027207  -0.003691   0.013248  -0.015615  -0.128197
     6  C    0.098251  -0.003095   0.003597  -0.000180   0.000646  -0.002461
     7  C    0.028341   0.193248  -0.050896  -0.059650  -0.023608   0.027331
     8  C   -0.010483  -0.094509   0.007143  -0.027525   0.006715   0.277155
     9  C   -0.197627   0.019474  -0.000069   0.002638  -0.001021  -0.023650
    10  H   -0.007535  -0.000117  -0.000026  -0.000040   0.000094  -0.005297
    11  H   -0.006188  -0.000360   0.000073   0.000015  -0.000016  -0.012051
    12  C   -0.508886   0.006180  -0.001316  -0.000414  -0.000234   0.012689
    13  C    5.517808  -0.000045  -0.000030   0.000006  -0.000022   0.000845
    14  C   -0.000045   5.309984   0.390043   0.413409   0.393515  -0.004285
    15  H   -0.000030   0.390043   0.552802  -0.016912  -0.032185   0.000142
    16  H    0.000006   0.413409  -0.016912   0.437878  -0.013530   0.001589
    17  H   -0.000022   0.393515  -0.032185  -0.013530   0.520191   0.000099
    18  C    0.000845  -0.004285   0.000142   0.001589   0.000099   5.167516
    19  H   -0.000018   0.000008   0.000006   0.000009  -0.000009   0.405394
    20  H    0.002303   0.000545  -0.000016  -0.000198  -0.000012   0.411995
    21  H   -0.000029  -0.000115  -0.000007   0.000009   0.000016   0.406768
    22  C    0.336400   0.000023  -0.000001   0.000000  -0.000000   0.000013
    23  H   -0.065660   0.000001   0.000000  -0.000000  -0.000000  -0.000000
    24  H   -0.044197   0.000001  -0.000000  -0.000000   0.000000  -0.000000
    25  H   -0.047626   0.000000  -0.000000  -0.000000   0.000000   0.000000
    26  C   -0.045832  -0.000914   0.000073   0.000018  -0.000134  -0.000023
    27  H   -0.005107  -0.000026   0.000010   0.000000  -0.000005  -0.000000
    28  H    0.004378  -0.000034  -0.000016  -0.000001   0.000009  -0.000000
    29  H   -0.000375   0.000654   0.000030  -0.000001  -0.000009   0.000001
              19         20         21         22         23         24
     1  O    0.000005   0.000977   0.000004  -0.125361   0.003543   0.002722
     2  O   -0.000593   0.007501  -0.001606   0.000000   0.000000   0.000000
     3  N    0.000010   0.000061   0.000010   0.000128   0.000111   0.000146
     4  H   -0.000001   0.000001  -0.000001   0.000115  -0.000044  -0.000018
     5  C   -0.000934   0.081421  -0.007642  -0.000101  -0.000284  -0.000117
     6  C    0.000061  -0.001377   0.000062  -0.004616  -0.017148   0.004886
     7  C   -0.001110   0.005825  -0.000927   0.001383  -0.000058  -0.000030
     8  C   -0.023053  -0.143396  -0.018421  -0.000052   0.000003   0.000002
     9  C   -0.001449  -0.016688  -0.001708   0.020747   0.000261  -0.001834
    10  H    0.000313  -0.005396   0.000460   0.001304  -0.000155   0.000145
    11  H    0.000416  -0.002430   0.000476   0.000169   0.000088  -0.000127
    12  C   -0.000254   0.005747  -0.000462  -0.332094   0.041995   0.010795
    13  C   -0.000018   0.002303  -0.000029   0.336400  -0.065660  -0.044197
    14  C    0.000008   0.000545  -0.000115   0.000023   0.000001   0.000001
    15  H    0.000006  -0.000016  -0.000007  -0.000001   0.000000  -0.000000
    16  H    0.000009  -0.000198   0.000009   0.000000  -0.000000  -0.000000
    17  H   -0.000009  -0.000012   0.000016  -0.000000  -0.000000   0.000000
    18  C    0.405394   0.411995   0.406768   0.000013  -0.000000  -0.000000
    19  H    0.501147  -0.024148  -0.018171  -0.000000   0.000000  -0.000000
    20  H   -0.024148   0.548373  -0.022321   0.000064  -0.000001  -0.000002
    21  H   -0.018171  -0.022321   0.498357  -0.000000   0.000000   0.000000
    22  C   -0.000000   0.000064  -0.000000   5.451334   0.381618   0.402016
    23  H    0.000000  -0.000001   0.000000   0.381618   0.552754  -0.032972
    24  H   -0.000000  -0.000002   0.000000   0.402016  -0.032972   0.513410
    25  H    0.000000  -0.000000  -0.000000   0.382286  -0.018386  -0.008855
    26  C    0.000000  -0.000017   0.000000  -0.043991   0.016658  -0.012955
    27  H    0.000000   0.000000  -0.000000   0.006756  -0.005703  -0.000462
    28  H   -0.000000   0.000000   0.000000  -0.011281  -0.002223   0.001204
    29  H   -0.000000  -0.000000   0.000000   0.001979   0.000580   0.000158
              25         26         27         28         29
     1  O    0.010887   0.000795  -0.000084  -0.000025   0.000015
     2  O   -0.000000   0.000011  -0.000000  -0.000000   0.000000
     3  N    0.000015  -0.026896  -0.001059  -0.002685   0.004503
     4  H   -0.000003  -0.011940   0.000846   0.000639   0.002606
     5  C   -0.000038   0.002620   0.000449   0.000458  -0.000505
     6  C   -0.002078   0.224273  -0.037249  -0.041977  -0.053499
     7  C    0.000011   0.005106  -0.001303  -0.001249   0.003719
     8  C   -0.000001   0.000915  -0.000001  -0.000006   0.000023
     9  C   -0.000038   0.016860  -0.000215  -0.000481  -0.000622
    10  H   -0.000079  -0.000188  -0.000008  -0.000005   0.000026
    11  H   -0.000030  -0.000022   0.000009   0.000039  -0.000005
    12  C    0.026672  -0.098041  -0.001126  -0.013052   0.022991
    13  C   -0.047626  -0.045832  -0.005107   0.004378  -0.000375
    14  C    0.000000  -0.000914  -0.000026  -0.000034   0.000654
    15  H   -0.000000   0.000073   0.000010  -0.000016   0.000030
    16  H   -0.000000   0.000018   0.000000  -0.000001  -0.000001
    17  H    0.000000  -0.000134  -0.000005   0.000009  -0.000009
    18  C    0.000000  -0.000023  -0.000000  -0.000000   0.000001
    19  H    0.000000   0.000000   0.000000  -0.000000  -0.000000
    20  H   -0.000000  -0.000017   0.000000   0.000000  -0.000000
    21  H   -0.000000   0.000000  -0.000000   0.000000   0.000000
    22  C    0.382286  -0.043991   0.006756  -0.011281   0.001979
    23  H   -0.018386   0.016658  -0.005703  -0.002223   0.000580
    24  H   -0.008855  -0.012955  -0.000462   0.001204   0.000158
    25  H    0.494481   0.002008   0.000428   0.000085  -0.000036
    26  C    0.002008   5.216707   0.415567   0.438794   0.386058
    27  H    0.000428   0.415567   0.511758  -0.031385  -0.022028
    28  H    0.000085   0.438794  -0.031385   0.484146  -0.016240
    29  H   -0.000036   0.386058  -0.022028  -0.016240   0.522268
 Mulliken charges:
               1
     1  O   -0.361973
     2  O   -0.428512
     3  N   -0.202770
     4  H    0.288866
     5  C   -0.147299
     6  C    0.255512
     7  C    0.306892
     8  C    0.219319
     9  C   -0.305305
    10  H    0.165404
    11  H    0.164423
    12  C   -0.145694
    13  C    0.142619
    14  C   -0.518905
    15  H    0.145425
    16  H    0.203936
    17  H    0.163799
    18  C   -0.450157
    19  H    0.162370
    20  H    0.151189
    21  H    0.165247
    22  C   -0.468836
    23  H    0.145024
    24  H    0.166083
    25  H    0.160295
    26  C   -0.485511
    27  H    0.169939
    28  H    0.190909
    29  H    0.147711
 Sum of Mulliken charges =  -0.00000
 Mulliken charges with hydrogens summed into heavy atoms:
               1
     1  O   -0.361973
     2  O   -0.428512
     3  N    0.086096
     5  C   -0.147299
     6  C    0.255512
     7  C    0.306892
     8  C    0.219319
     9  C    0.024522
    12  C   -0.145694
    13  C    0.142619
    14  C   -0.005745
    18  C    0.028649
    22  C    0.002567
    26  C    0.023048
 Electronic spatial extent (au):  <R**2>=           3234.7059
 Charge=              0.0000 electrons
 Dipole moment (field-independent basis, Debye):
    X=              4.4842    Y=              7.2701    Z=             -0.0073  Tot=              8.5418
 Quadrupole moment (field-independent basis, Debye-Ang):
   XX=            -99.7282   YY=            -78.8800   ZZ=            -84.2484
   XY=             13.4109   XZ=             -0.5391   YZ=              0.4033
 Traceless Quadrupole moment (field-independent basis, Debye-Ang):
   XX=            -12.1094   YY=              8.7389   ZZ=              3.3705
   XY=             13.4109   XZ=             -0.5391   YZ=              0.4033
 Octapole moment (field-independent basis, Debye-Ang**2):
  XXX=            120.7979  YYY=             63.9532  ZZZ=              0.4422  XYY=            -36.5514
  XXY=             25.9658  XXZ=              0.4342  XZZ=              0.2621  YZZ=             -1.3637
  YYZ=             -0.6574  XYZ=              0.5842
 Hexadecapole moment (field-independent basis, Debye-Ang**3):
 XXXX=          -3190.3490 YYYY=          -1289.9663 ZZZZ=           -123.3200 XXXY=             48.4259
 XXXZ=             -0.9943 YYYX=             91.7579 YYYZ=              3.7129 ZZZX=             -0.9710
 ZZZY=             -0.7042 XXYY=           -691.3439 XXZZ=           -483.1364 YYZZ=           -235.3267
 XXYZ=              2.9198 YYXZ=             -3.2037 ZZXY=              3.9875
 N-N= 8.983861259561D+02 E-N=-3.272703293247D+03  KE= 6.306140375002D+02
 Leave Link  601 at Fri Jan 23 15:22:16 2026, MaxMem=  2147483648 cpu:               0.7 elap:               0.1
 (Enter /data/home/wyx/g16/l9999.exe)
 Electronic transition elements 
                 1             2             3             4             5 
      1  -0.633195D+03 -0.633190D+03 -0.633160D+03 -0.633127D+03 -0.633115D+03
      2   0.146926D+01  0.164465D+00 -0.159187D-01 -0.533451D+00 -0.183356D+00
      3   0.526880D+00  0.373121D-01  0.145997D-01  0.125025D+01  0.136523D+01
      4   0.231573D+00 -0.137939D-01  0.329587D-01 -0.717207D-01 -0.157627D-01
      5  -0.170192D+00 -0.202286D-01  0.146580D-02  0.874354D-01  0.374332D-01
      6  -0.618431D-01 -0.455979D-02 -0.214305D-02 -0.220270D+00 -0.265065D+00
      7  -0.269065D-01  0.604033D-03 -0.161608D-02  0.119527D-01  0.321698D-02
      8  -0.158190D+00 -0.781231D+00 -0.322046D+00  0.615817D-01  0.617946D-01
      9  -0.425129D-02  0.309195D-02  0.866616D+00 -0.125161D-01 -0.177520D-01
     10   0.140719D+01  0.602398D-01 -0.592825D-01 -0.445734D+00 -0.360060D+00
     11  -0.637040D-02  0.141446D-01  0.193278D-01  0.120317D+01  0.684349D+00
     12   0.232299D+00  0.311671D-01 -0.277183D-02 -0.228889D+00 -0.299125D+00
     13  -0.106789D-01 -0.100046D-01 -0.182743D-01 -0.126308D-02 -0.105003D-01
     14   0.509455D+00  0.545475D-01 -0.702946D-02  0.290891D+00  0.463066D+00
     15   0.963577D-02 -0.247940D-01 -0.668109D-01  0.197203D+00  0.136810D+00
     16   0.811191D-01 -0.236480D-01 -0.219726D-01  0.394256D-01  0.668645D-01
                 6 
      1  -0.633089D+03
      2  -0.295795D-01
      3   0.692564D-02
      4   0.375482D-01
      5   0.898243D-02
      6  -0.139419D-02
      7  -0.276057D-01
      8  -0.593633D-01
      9  -0.127804D-01
     10  -0.257247D-01
     11   0.401701D-01
     12   0.166236D-01
     13  -0.201238D-01
     14  -0.122341D-01
     15   0.729481D-02
     16   0.197759D-01
 1\1\GINC-CN013\SP\RCAM-B3LYP TD-FC\TZVP\C11H15N1O2\WYX\23-Jan-2026\0\\
 #p CAM-B3LYP TZVP em=gd3bj td(nstates=6,root=1) scrf=(Solvent=TetraHyd
 roFuran)\\Title Card Required\\0,1\O,0,2.795308,-1.565315,0.463013\O,0
 ,-3.424701,-1.654191,-0.534626\N,0,-0.659517,1.524773,-0.074715\H,0,-0
 .979176,2.478028,-0.114855\C,0,-1.240182,-0.773853,-0.176353\C,0,0.670
 305,1.314751,0.122953\C,0,-1.620178,0.536803,-0.23592\C,0,-2.160037,-1
 .829739,-0.331926\C,0,0.204387,-1.136947,0.071119\H,0,0.285831,-1.7361
 38,0.982334\H,0,0.568149,-1.781461,-0.73265\C,0,1.143487,0.041391,0.18
 5375\C,0,2.524526,-0.367001,0.378304\C,0,-2.988745,1.073889,-0.451395\
 H,0,-2.999897,1.813288,-1.257431\H,0,-3.702706,0.297015,-0.72219\H,0,-
 3.374115,1.5555,0.452092\C,0,-1.816725,-3.29121,-0.279572\H,0,-2.12913
 7,-3.827268,-1.178606\H,0,-0.747333,-3.443423,-0.161436\H,0,-2.308885,
 -3.774663,0.568561\C,0,3.672173,0.608547,0.46949\H,0,3.703898,1.302937
 ,-0.367246\H,0,3.632631,1.194142,1.387788\H,0,4.586884,0.020836,0.4754
 04\C,0,1.443181,2.593015,0.242867\H,0,2.052124,2.624459,1.141545\H,0,2
 .097674,2.753037,-0.612571\H,0,0.770776,3.4488,0.290648\\Version=ES64L
 -G16RevA.03\State=1-A\HF=-633.3138691\RMSD=5.105e-09\PG=C01 [X(C11H15N
 1O2)]\\@


 IT'S WHAT A FELLER THINKS HE KNOWS THAT HURTS HIM...
                    ------
           KIN HUBBARD
 Job cpu time:       0 days  0 hours 49 minutes 44.4 seconds.
 Elapsed time:       0 days  0 hours  3 minutes  7.8 seconds.
 File lengths (MBytes):  RWF=    831 Int=      0 D2E=      0 Chk=     34 Scr=      1
 Normal termination of Gaussian 16 at Fri Jan 23 15:22:18 2026.
