 Entering Gaussian System, Link 0=g16
 Input=DDL-S2-cLR-gs-9.gjf
 Output=DDL-S2-cLR-gs-9.log
 Initial command:
 /data/home/wyx/g16/l1.exe "/scr/tmp/wyx/13109/Gau-1703724.inp" -scrdir="/scr/tmp/wyx/13109/"
 Entering Link 1 = /data/home/wyx/g16/l1.exe PID=   1703725.
  
 Copyright (c) 1988,1990,1992,1993,1995,1998,2003,2009,2016,
            Gaussian, Inc.  All Rights Reserved.
  
 This is part of the Gaussian(R) 16 program.  It is based on
 the Gaussian(R) 09 system (copyright 2009, Gaussian, Inc.),
 the Gaussian(R) 03 system (copyright 2003, Gaussian, Inc.),
 the Gaussian(R) 98 system (copyright 1998, Gaussian, Inc.),
 the Gaussian(R) 94 system (copyright 1995, Gaussian, Inc.),
 the Gaussian 92(TM) system (copyright 1992, Gaussian, Inc.),
 the Gaussian 90(TM) system (copyright 1990, Gaussian, Inc.),
 the Gaussian 88(TM) system (copyright 1988, Gaussian, Inc.),
 the Gaussian 86(TM) system (copyright 1986, Carnegie Mellon
 University), and the Gaussian 82(TM) system (copyright 1983,
 Carnegie Mellon University). Gaussian is a federally registered
 trademark of Gaussian, Inc.
  
 This software contains proprietary and confidential information,
 including trade secrets, belonging to Gaussian, Inc.
  
 This software is provided under written license and may be
 used, copied, transmitted, or stored only in accord with that
 written license.
  
 The following legend is applicable only to US Government
 contracts under FAR:
  
                    RESTRICTED RIGHTS LEGEND
  
 Use, reproduction and disclosure by the US Government is
 subject to restrictions as set forth in subparagraphs (a)
 and (c) of the Commercial Computer Software - Restricted
 Rights clause in FAR 52.227-19.
  
 Gaussian, Inc.
 340 Quinnipiac St., Bldg. 40, Wallingford CT 06492
  
  
 ---------------------------------------------------------------
 Warning -- This program may not be used in any manner that
 competes with the business of Gaussian, Inc. or will provide
 assistance to any competitor of Gaussian, Inc.  The licensee
 of this program is prohibited from giving any competitor of
 Gaussian, Inc. access to this program.  By using this program,
 the user acknowledges that Gaussian, Inc. is engaged in the
 business of creating and licensing software in the field of
 computational chemistry and represents and warrants to the
 licensee that it is not a competitor of Gaussian, Inc. and that
 it will not use this program in any manner prohibited above.
 ---------------------------------------------------------------
  

 Cite this work as:
 Gaussian 16, Revision A.03,
 M. J. Frisch, G. W. Trucks, H. B. Schlegel, G. E. Scuseria, 
 M. A. Robb, J. R. Cheeseman, G. Scalmani, V. Barone, 
 G. A. Petersson, H. Nakatsuji, X. Li, M. Caricato, A. V. Marenich, 
 J. Bloino, B. G. Janesko, R. Gomperts, B. Mennucci, H. P. Hratchian, 
 J. V. Ortiz, A. F. Izmaylov, J. L. Sonnenberg, D. Williams-Young, 
 F. Ding, F. Lipparini, F. Egidi, J. Goings, B. Peng, A. Petrone, 
 T. Henderson, D. Ranasinghe, V. G. Zakrzewski, J. Gao, N. Rega, 
 G. Zheng, W. Liang, M. Hada, M. Ehara, K. Toyota, R. Fukuda, 
 J. Hasegawa, M. Ishida, T. Nakajima, Y. Honda, O. Kitao, H. Nakai, 
 T. Vreven, K. Throssell, J. A. Montgomery, Jr., J. E. Peralta, 
 F. Ogliaro, M. J. Bearpark, J. J. Heyd, E. N. Brothers, K. N. Kudin, 
 V. N. Staroverov, T. A. Keith, R. Kobayashi, J. Normand, 
 K. Raghavachari, A. P. Rendell, J. C. Burant, S. S. Iyengar, 
 J. Tomasi, M. Cossi, J. M. Millam, M. Klene, C. Adamo, R. Cammi, 
 J. W. Ochterski, R. L. Martin, K. Morokuma, O. Farkas, 
 J. B. Foresman, and D. J. Fox, Gaussian, Inc., Wallingford CT, 2016.
 
 ******************************************
 Gaussian 16:  ES64L-G16RevA.03 25-Dec-2016
                23-Jan-2026 
 ******************************************
 %nprocshared=16
 Will use up to   16 processors via shared memory.
 %mem=16GB
 %oldchk=DDL-S2-cLR-9.chk
 %chk=DDL-S2-cLR-gs-9.chk
 Copying data from "DDL-S2-cLR-9.chk" to current chk file "DDL-S2-cLR-gs-9.chk"
 IOpt=  2 FromEx=T IUOpen= 4 IOptOp= 5 NList=   0 IFRang= 0 IUIn= 4 IUOut= 2.
 ----------------------------------------------------------------------
 #p CAM-B3LYP TZVP em=gd3bj scrf=(Solvent=TetraHydroFuran,NonEquilibriu
 m=Read) Geom=Check Guess=Read
 ----------------------------------------------------------------------
 1/29=2,38=1,172=1/1;
 2/12=2,40=1/2;
 3/5=19,7=101,11=2,14=-4,25=1,30=1,70=6002201,72=20,74=-40,116=-2,124=41/1,2,3;
 4/5=1/1;
 5/5=2,38=6,53=20/2;
 6/7=2,8=2,9=2,10=2,28=1/1;
 99/5=1,9=1/99;
 Leave Link    1 at Fri Jan 23 22:52:44 2026, MaxMem=  2147483648 cpu:               0.8 elap:               0.1
 (Enter /data/home/wyx/g16/l101.exe)
 -------------------
 Title Card Required
 -------------------
 Structure from the checkpoint file:  "DDL-S2-cLR-gs-9.chk"
 Charge =  0 Multiplicity = 1
 Z-Matrix found in chk file.
 O,0,2.809094,-1.578071,0.310833
 O,0,-3.448305,-1.642133,-0.208932
 N,0,-0.643429,1.520514,-0.231603
 H,0,-0.958187,2.475215,-0.274119
 C,0,-1.242103,-0.760338,-0.200636
 C,0,0.685997,1.306078,0.003643
 C,0,-1.615047,0.540802,-0.267709
 C,0,-2.204093,-1.82235,-0.213132
 C,0,0.217972,-1.126518,-0.153404
 H,0,0.388615,-1.861769,0.633669
 H,0,0.513562,-1.614585,-1.088375
 C,0,1.146806,0.037003,0.08316
 C,0,2.514283,-0.385286,0.350937
 C,0,-2.997744,1.076935,-0.369395
 H,0,-3.017073,2.00128,-0.951526
 H,0,-3.692154,0.391021,-0.848576
 H,0,-3.40941,1.290526,0.619094
 C,0,-1.78758,-3.262088,-0.242795
 H,0,-2.477526,-3.91957,-0.773032
 H,0,-0.813671,-3.424774,-0.70405
 H,0,-1.70236,-3.660932,0.772964
 C,0,3.611768,0.582593,0.704248
 H,0,3.890002,1.214559,-0.138249
 H,0,3.361592,1.233561,1.539281
 H,0,4.474003,-0.022524,0.974707
 C,0,1.450081,2.583203,0.141248
 H,0,1.775722,2.757856,1.165587
 H,0,2.325584,2.623381,-0.500244
 H,0,0.843601,3.44641,-0.133595
 Recover connectivity data from disk.
 ITRead=  0  0  0  0  0  0  0  0  0  0  0  0  0  0  0  0  0  0  0  0
 ITRead=  0  0  0  0  0  0  0  0  0
 MicOpt= -1 -1 -1 -1 -1 -1 -1 -1 -1 -1 -1 -1 -1 -1 -1 -1 -1 -1 -1 -1
 MicOpt= -1 -1 -1 -1 -1 -1 -1 -1 -1
 NAtoms=     29 NQM=       29 NQMF=       0 NMMI=      0 NMMIF=      0
                NMic=       0 NMicF=      0.
                    Isotopes and Nuclear Properties:
 (Nuclear quadrupole moments (NQMom) in fm**2, nuclear magnetic moments (NMagM)
  in nuclear magnetons)

  Atom         1           2           3           4           5           6           7           8           9          10
 IAtWgt=          16          16          14           1          12          12          12          12          12           1
 AtmWgt=  15.9949146  15.9949146  14.0030740   1.0078250  12.0000000  12.0000000  12.0000000  12.0000000  12.0000000   1.0078250
 NucSpn=           0           0           2           1           0           0           0           0           0           1
 AtZEff=   5.6000000   5.6000000   4.5500000   1.0000000   3.6000000   3.6000000   3.6000000   3.6000000   3.6000000   1.0000000
 NQMom=    0.0000000   0.0000000   2.0440000   0.0000000   0.0000000   0.0000000   0.0000000   0.0000000   0.0000000   0.0000000
 NMagM=    0.0000000   0.0000000   0.4037610   2.7928460   0.0000000   0.0000000   0.0000000   0.0000000   0.0000000   2.7928460
 AtZNuc=   8.0000000   8.0000000   7.0000000   1.0000000   6.0000000   6.0000000   6.0000000   6.0000000   6.0000000   1.0000000

  Atom        11          12          13          14          15          16          17          18          19          20
 IAtWgt=           1          12          12          12           1           1           1          12           1           1
 AtmWgt=   1.0078250  12.0000000  12.0000000  12.0000000   1.0078250   1.0078250   1.0078250  12.0000000   1.0078250   1.0078250
 NucSpn=           1           0           0           0           1           1           1           0           1           1
 AtZEff=   1.0000000   3.6000000   3.6000000   3.6000000   1.0000000   1.0000000   1.0000000   3.6000000   1.0000000   1.0000000
 NQMom=    0.0000000   0.0000000   0.0000000   0.0000000   0.0000000   0.0000000   0.0000000   0.0000000   0.0000000   0.0000000
 NMagM=    2.7928460   0.0000000   0.0000000   0.0000000   2.7928460   2.7928460   2.7928460   0.0000000   2.7928460   2.7928460
 AtZNuc=   1.0000000   6.0000000   6.0000000   6.0000000   1.0000000   1.0000000   1.0000000   6.0000000   1.0000000   1.0000000

  Atom        21          22          23          24          25          26          27          28          29
 IAtWgt=           1          12           1           1           1          12           1           1           1
 AtmWgt=   1.0078250  12.0000000   1.0078250   1.0078250   1.0078250  12.0000000   1.0078250   1.0078250   1.0078250
 NucSpn=           1           0           1           1           1           0           1           1           1
 AtZEff=   1.0000000   3.6000000   1.0000000   1.0000000   1.0000000   3.6000000   1.0000000   1.0000000   1.0000000
 NQMom=    0.0000000   0.0000000   0.0000000   0.0000000   0.0000000   0.0000000   0.0000000   0.0000000   0.0000000
 NMagM=    2.7928460   0.0000000   2.7928460   2.7928460   2.7928460   0.0000000   2.7928460   2.7928460   2.7928460
 AtZNuc=   1.0000000   6.0000000   1.0000000   1.0000000   1.0000000   6.0000000   1.0000000   1.0000000   1.0000000
 Leave Link  101 at Fri Jan 23 22:52:47 2026, MaxMem=  2147483648 cpu:               0.8 elap:               0.1
 (Enter /data/home/wyx/g16/l202.exe)
                          Input orientation:                          
 ---------------------------------------------------------------------
 Center     Atomic      Atomic             Coordinates (Angstroms)
 Number     Number       Type             X           Y           Z
 ---------------------------------------------------------------------
      1          8           0        2.809094   -1.578071    0.310833
      2          8           0       -3.448305   -1.642133   -0.208932
      3          7           0       -0.643429    1.520514   -0.231603
      4          1           0       -0.958187    2.475215   -0.274119
      5          6           0       -1.242103   -0.760338   -0.200636
      6          6           0        0.685997    1.306078    0.003643
      7          6           0       -1.615047    0.540802   -0.267709
      8          6           0       -2.204093   -1.822350   -0.213132
      9          6           0        0.217972   -1.126518   -0.153404
     10          1           0        0.388615   -1.861769    0.633669
     11          1           0        0.513562   -1.614585   -1.088375
     12          6           0        1.146806    0.037003    0.083160
     13          6           0        2.514283   -0.385286    0.350937
     14          6           0       -2.997744    1.076935   -0.369395
     15          1           0       -3.017073    2.001280   -0.951526
     16          1           0       -3.692154    0.391021   -0.848576
     17          1           0       -3.409410    1.290526    0.619094
     18          6           0       -1.787580   -3.262088   -0.242795
     19          1           0       -2.477526   -3.919570   -0.773032
     20          1           0       -0.813671   -3.424774   -0.704050
     21          1           0       -1.702360   -3.660932    0.772964
     22          6           0        3.611768    0.582593    0.704248
     23          1           0        3.890002    1.214559   -0.138249
     24          1           0        3.361592    1.233561    1.539281
     25          1           0        4.474003   -0.022524    0.974707
     26          6           0        1.450081    2.583203    0.141248
     27          1           0        1.775722    2.757856    1.165587
     28          1           0        2.325584    2.623381   -0.500244
     29          1           0        0.843601    3.446410   -0.133595
 ---------------------------------------------------------------------
                    Distance matrix (angstroms):
                    1          2          3          4          5
     1  O    0.000000
     2  O    6.279276   0.000000
     3  N    4.670694   4.227313   0.000000
     4  H    5.564504   4.812223   1.006148   0.000000
     5  C    4.164431   2.375912   2.358316   3.248817   0.000000
     6  C    3.594471   5.082282   1.367003   2.036510   2.833615
     7  C    4.939368   2.851227   1.380283   2.042905   1.355194
     8  C    5.046410   1.257203   3.689275   4.474938   1.432987
     9  C    2.670829   3.702773   2.784763   3.790831   1.506034
    10  H    2.458338   3.934485   3.640556   4.631132   2.137395
    11  H    2.688603   4.058395   3.449860   4.422163   2.144803
    12  C    2.328841   4.901006   2.346236   3.240914   2.534399
    13  C    1.229332   6.119279   3.733975   4.542159   3.815145
    14  C    6.421147   2.760812   2.399697   2.474683   2.546827
    15  H    6.953382   3.743243   2.526581   2.218672   3.367624
    16  H    6.891138   2.145302   3.309250   3.485461   2.783560
    17  H    6.855193   3.047561   2.902969   2.865277   3.094385
    18  C    4.926645   2.320217   4.917569   5.797027   2.560874
    19  H    5.882664   2.539161   5.766418   6.591705   3.440153
    20  H    4.191029   3.219355   4.970720   5.917398   2.745214
    21  H    4.990500   2.843940   5.383110   6.269169   3.094055
    22  C    2.338275   7.458414   4.456704   5.042193   5.116868
    23  H    3.028006   7.875051   4.544702   5.011252   5.499328
    24  H    3.117629   7.596089   4.388458   4.846712   5.310080
    25  H    2.373263   8.172337   5.479440   6.107942   5.882148
    26  C    4.380853   6.478447   2.377206   2.446211   4.306275
    27  H    4.538582   6.967041   3.055396   3.102724   4.832341
    28  H    4.306254   7.184516   3.178604   3.294881   4.926227
    29  H    5.413510   6.657282   2.435147   2.051684   4.695890
                    6          7          8          9         10
     6  C    0.000000
     7  C    2.440099   0.000000
     8  C    4.264584   2.436071   0.000000
     9  C    2.482183   2.480520   2.520744   0.000000
    10  H    3.243551   3.255686   2.727776   1.090503   0.000000
    11  H    3.122901   3.138497   2.862668   1.095333   1.744175
    12  C    1.352486   2.829267   3.843632   1.507473   2.117368
    13  C    2.514748   4.276883   4.964514   2.465122   2.603537
    14  C    3.709665   1.486482   3.010009   3.904188   4.594513
    15  H    3.886950   2.136885   3.978229   4.570080   5.388386
    16  H    4.553220   2.161993   2.741738   4.251503   4.891297
    17  H    4.141422   2.137345   3.440260   4.426822   4.935805
    18  C    5.200717   3.806883   1.499069   2.931022   2.732198
    19  H    6.157800   4.571011   2.187827   3.930749   3.798436
    20  H    5.013062   4.069200   2.177622   2.578658   2.382849
    21  H    5.564826   4.329572   2.145811   3.311961   2.761986
    22  C    3.094255   5.316582   6.359998   3.895443   4.045813
    23  H    3.208451   5.547637   6.809289   4.354845   4.724337
    24  H    3.085815   5.339669   6.586835   4.279895   4.386319
    25  H    4.130029   6.239989   7.017642   4.539299   4.493275
    26  C    1.494593   3.705895   5.734760   3.920069   4.596408
    27  H    2.155290   4.297322   6.222385   4.388016   4.852622
    28  H    2.162738   4.463158   6.353340   4.315561   5.015394
    29  H    2.150510   3.808608   6.087249   4.615569   5.382608
                   11         12         13         14         15
    11  H    0.000000
    12  C    2.121611   0.000000
    13  C    2.754211   1.456031   0.000000
    14  C    4.482241   4.296924   5.747992   0.000000
    15  H    5.055550   4.718776   6.163441   1.092549   0.000000
    16  H    4.665620   4.940546   6.368779   1.087335   1.749076
    17  H    5.171540   4.755802   6.162012   1.091879   1.768035
    18  C    2.953731   4.427287   5.209082   4.506400   5.451330
    19  H    3.789328   5.433536   6.218732   5.039704   5.948062
    20  H    2.277287   4.055499   4.628905   5.014734   5.861594
    21  H    3.544352   4.718930   5.356122   5.042855   6.063248
    22  C    4.199996   2.599895   1.505354   6.714368   6.978237
    23  H    4.506345   2.993457   2.165966   6.892997   6.999145
    24  H    4.809136   2.908147   2.179624   6.641440   6.890637
    25  H    4.740892   3.445089   2.088346   7.670882   7.995147
    26  C    4.473306   2.564856   3.160447   4.723637   4.635542
    27  H    5.078546   2.995033   3.329935   5.288444   5.293908
    28  H    4.646469   2.901591   3.132442   5.544947   5.397652
    29  H    5.160833   3.429719   4.208069   4.519507   4.202644
                   16         17         18         19         20
    16  H    0.000000
    17  H    1.744451   0.000000
    18  C    4.164082   4.909122   0.000000
    19  H    4.479087   5.472798   1.090623   0.000000
    20  H    4.781929   5.542799   1.089826   1.737238   0.000000
    21  H    4.796561   5.239717   1.094580   1.748679   1.739859
    22  C    7.469621   7.057291   6.695627   7.715655   6.134069
    23  H    7.659756   7.338989   7.230922   8.204124   6.630843
    24  H    7.494469   6.833481   7.064038   8.123845   6.645708
    25  H    8.377440   7.999923   7.154335   8.158757   6.507920
    26  C    5.676971   5.051139   6.693083   7.651670   6.475715
    27  H    6.289390   5.416392   7.135852   8.150851   6.958837
    28  H    6.427903   5.993294   7.184925   8.121237   6.817378
    29  H    5.515403   4.827264   7.206871   8.105333   7.091202
                   21         22         23         24         25
    21  H    0.000000
    22  C    6.800896   0.000000
    23  H    7.474974   1.089310   0.000000
    24  H    7.084272   1.087946   1.758887   0.000000
    25  H    7.171204   1.087549   1.763548   1.770297   0.000000
    26  C    7.023259   2.998716   2.811498   2.725785   4.077815
    27  H    7.311091   2.883690   2.924369   2.231167   3.879132
    28  H    7.572185   2.696273   2.136170   2.676672   3.713758
    29  H    7.603820   4.070157   3.776472   3.746397   5.142145
                   26         27         28         29
    26  C    0.000000
    27  H    1.088952   0.000000
    28  H    1.086109   1.759382   0.000000
    29  H    1.090176   1.740928   1.734382   0.000000
 Stoichiometry    C11H15NO2
 Framework group  C1[X(C11H15NO2)]
 Deg. of freedom    81
 Full point group                 C1      NOp   1
 RotChk:  IX=0 Diff= 5.11D-16
 Largest Abelian subgroup         C1      NOp   1
 Largest concise Abelian subgroup C1      NOp   1
                         Standard orientation:                         
 ---------------------------------------------------------------------
 Center     Atomic      Atomic             Coordinates (Angstroms)
 Number     Number       Type             X           Y           Z
 ---------------------------------------------------------------------
      1          8           0        2.261387   -2.308219   -0.068688
      2          8           0       -3.650808   -0.213469    0.226735
      3          7           0        0.047335    1.803978   -0.125151
      4          1           0        0.077570    2.809632   -0.116124
      5          6           0       -1.291374   -0.135746   -0.041570
      6          6           0        1.239701    1.137993   -0.066634
      7          6           0       -1.199051    1.216294   -0.045585
      8          6           0       -2.554318   -0.805264    0.059264
      9          6           0       -0.051712   -0.978312   -0.188057
     10          1           0       -0.052784   -1.769697    0.562213
     11          1           0       -0.054672   -1.485837   -1.158708
     12          6           0        1.241725   -0.214482   -0.061327
     13          6           0        2.401867   -1.090330    0.022254
     14          6           0       -2.314594    2.195113    0.038722
     15          1           0       -2.083320    3.101401   -0.525918
     16          1           0       -3.253995    1.813318   -0.353778
     17          1           0       -2.507870    2.481452    1.074509
     18          6           0       -2.665160   -2.296945   -0.039789
     19          1           0       -3.596649   -2.650768   -0.483181
     20          1           0       -1.868390   -2.755411   -0.625184
     21          1           0       -2.603067   -2.755966    0.951952
     22          6           0        3.798879   -0.573889    0.240744
     23          1           0        4.176003   -0.028986   -0.623810
     24          1           0        3.888387    0.076619    1.108186
     25          1           0        4.425803   -1.449844    0.390520
     26          6           0        2.407073    2.069887   -0.015423
     27          1           0        2.891437    2.067147    0.959872
     28          1           0        3.160690    1.845194   -0.764559
     29          1           0        2.106660    3.101488   -0.199910
 ---------------------------------------------------------------------
 Rotational constants (GHZ):           1.0982118           0.4858344           0.3416515
 Leave Link  202 at Fri Jan 23 22:52:47 2026, MaxMem=  2147483648 cpu:               0.0 elap:               0.0
 (Enter /data/home/wyx/g16/l301.exe)
 Standard basis: TZVP (5D, 7F)
 Ernie: Thresh=  0.10000D-02 Tol=  0.10000D-05 Strict=F.
 There are   370 symmetry adapted cartesian basis functions of A   symmetry.
 There are   356 symmetry adapted basis functions of A   symmetry.
   356 basis functions,   610 primitive gaussians,   370 cartesian basis functions
    52 alpha electrons       52 beta electrons
       nuclear repulsion energy       900.3054206077 Hartrees.
 IExCor=20419 DFT=T Ex+Corr=CAM-B3LYP ExCW=0 ScaHFX=  1.000000
 ScaDFX=  1.000000  1.000000  1.000000  0.810000 ScalE2=  1.000000  1.000000
 IRadAn=      5 IRanWt=     -1 IRanGd=            0 ICorTp=0 IEmpDi=141
 HFx  wShort=  0.000000 wLong=  0.330000 cFull=  0.190000 cShort=  0.000000 cLong=  0.460000
 DFx  wShort=  0.000000 wLong=  0.330000 cFull=  0.190000 cShort=  0.000000 cLong=  0.460000
 NAtoms=   29 NActive=   29 NUniq=   29 SFac= 1.00D+00 NAtFMM=   60 NAOKFM=F Big=F
 Integral buffers will be    131072 words long.
 Raffenetti 2 integral format.
 Two-electron integral symmetry is turned on.
 R6Disp:  Grimme-D3(BJ) Dispersion energy=       -0.0261411977 Hartrees.
 Nuclear repulsion after empirical dispersion term =      900.2792794100 Hartrees.
 ------------------------------------------------------------------------------
 Polarizable Continuum Model (PCM)
 =================================
 Model                : PCM.
 Atomic radii         : UFF (Universal Force Field).
 Polarization charges : Total charges.
 Charge compensation  : None.
 Solution method      : On-the-fly selection.
 Cavity type          : Scaled VdW (van der Waals Surface) (Alpha=1.100).
 Cavity algorithm     : GePol (No added spheres)
                        Default sphere list used, NSphG=   29.
                        Lebedev-Laikov grids with approx.  5.0 points / Ang**2.
                        Smoothing algorithm: York/Karplus (Gamma=1.0000).
                        Polarization charges: spherical gaussians, with
                                              point-specific exponents (IZeta= 3).
                        Self-potential: point-specific (ISelfS= 7).
                        Self-field    : sphere-specific E.n sum rule (ISelfD= 2).
 Solvent              : TetraHydroFuran, Eps=   7.425700 Eps(inf)=   1.974025
 ------------------------------------------------------------------------------
 GePol: Number of generator spheres                  =      29
 GePol: Total number of spheres                      =      29
 GePol: Number of exposed spheres                    =      29 (100.00%)
 GePol: Number of points                             =    2114
 GePol: Average weight of points                     =       0.13
 GePol: Minimum weight of points                     =   0.61D-10
 GePol: Maximum weight of points                     =    0.20577
 GePol: Number of points with low weight             =     132
 GePol: Fraction of low-weight points (<1% of avg)   =       6.24%
 GePol: Cavity surface area                          =    268.939 Ang**2
 GePol: Cavity volume                                =    286.571 Ang**3
 Leave Link  301 at Fri Jan 23 22:52:47 2026, MaxMem=  2147483648 cpu:               0.6 elap:               0.0
 (Enter /data/home/wyx/g16/l302.exe)
 NPDir=0 NMtPBC=     1 NCelOv=     1 NCel=       1 NClECP=     1 NCelD=      1
         NCelK=      1 NCelE2=     1 NClLst=     1 CellRange=     0.0.
 One-electron integrals computed using PRISM.
 One-electron integral symmetry used in STVInt
 NBasis=   356 RedAO= T EigKep=  3.82D-05  NBF=   356
 NBsUse=   356 1.00D-06 EigRej= -1.00D+00 NBFU=   356
 Precomputing XC quadrature grid using
 IXCGrd= 4 IRadAn=           5 IRanWt=          -1 IRanGd=           0 AccXCQ= 0.00D+00.
 Generated NRdTot=       0 NPtTot=           0 NUsed=           0 NTot=          32
 NSgBfM=   366   366   366   366   366 MxSgAt=    29 MxSgA2=    29.
 Leave Link  302 at Fri Jan 23 22:52:47 2026, MaxMem=  2147483648 cpu:               3.1 elap:               0.2
 (Enter /data/home/wyx/g16/l303.exe)
 DipDrv:  MaxL=1.
 Leave Link  303 at Fri Jan 23 22:52:48 2026, MaxMem=  2147483648 cpu:               0.6 elap:               0.0
 (Enter /data/home/wyx/g16/l401.exe)
 Initial guess from the checkpoint file:  "DDL-S2-cLR-gs-9.chk"
 B after Tr=    -0.000000    0.000000   -0.000000
         Rot=    1.000000   -0.000000    0.000000   -0.000000 Ang=   0.00 deg.
 Guess basis will be translated and rotated to current coordinates.
 JPrj=2 DoOrth=T DoCkMO=T.
 Leave Link  401 at Fri Jan 23 22:52:48 2026, MaxMem=  2147483648 cpu:               2.2 elap:               0.1
 (Enter /data/home/wyx/g16/l502.exe)
 Integral symmetry usage will be decided dynamically.
 Closed shell SCF:
 Using DIIS extrapolation, IDIIS=  1040.
 NGot=  2147483648 LenX=  2147200095 LenY=  2147062754
 Requested convergence on RMS density matrix=1.00D-08 within 128 cycles.
 Requested convergence on MAX density matrix=1.00D-06.
 Requested convergence on             energy=1.00D-06.
 No special actions if energy rises.
 Fock matrices will be formed incrementally for  20 cycles.

 Cycle   1  Pass 1  IDiag  1:
 FoFJK:  IHMeth= 1 ICntrl=       0 DoSepK=T KAlg= 0 I1Cent=           0 FoldK=F
 IRaf=         1 NMat=       1 IRICut=       1 DoRegI=T DoRafI=F ISym2E= 0 IDoP0=0 IntGTp=1.
 FoFCou: FMM=F IPFlag=           0 FMFlag=      100000 FMFlg1=           0
         NFxFlg=           0 DoJE=T BraDBF=F KetDBF=F FulRan=T
         wScrn=  0.000000 ICntrl=       500 IOpCl=  0 I1Cent=           0 NGrid=           0
         NMat0=    1 NMatS0=      1 NMatT0=    0 NMatD0=    1 NMtDS0=    0 NMtDT0=    0
 Symmetry not used in FoFCou.
 Inv3:  Mode=1 IEnd=    13406988.
 Iteration    1 A*A^-1 deviation from unit magnitude is 3.11D-15 for    350.
 Iteration    1 A*A^-1 deviation from orthogonality  is 1.81D-15 for   1798    658.
 Iteration    1 A^-1*A deviation from unit magnitude is 3.11D-15 for   1249.
 Iteration    1 A^-1*A deviation from orthogonality  is 2.11D-15 for   1966    100.
 NEqPCM:  Using non-equilibrium solvation (IEInf=1, Eps=   7.4257, EpsInf=   1.9740)
 Inv3:  Mode=1 IEnd=    13406988.
 Iteration    1 A*A^-1 deviation from unit magnitude is 3.66D-15 for   1037.
 Iteration    1 A*A^-1 deviation from orthogonality  is 3.00D-15 for   1951    329.
 Iteration    1 A^-1*A deviation from unit magnitude is 3.22D-15 for   1037.
 Iteration    1 A^-1*A deviation from orthogonality  is 1.71D-15 for    435    179.
 E= -633.320386750220    
 DIIS: error= 5.13D-04 at cycle   1 NSaved=   1.
 NSaved= 1 IEnMin= 1 EnMin= -633.320386750220     IErMin= 1 ErrMin= 5.13D-04
 ErrMax= 5.13D-04  0.00D+00 EMaxC= 1.00D-01 BMatC= 5.02D-05 BMatP= 5.02D-05
 IDIUse=3 WtCom= 9.95D-01 WtEn= 5.13D-03
 Coeff-Com:  0.100D+01
 Coeff-En:   0.100D+01
 Coeff:      0.100D+01
 Gap=     0.234 Goal=   None    Shift=    0.000
 RMSDP=2.93D-04 MaxDP=2.49D-02              OVMax= 8.09D-03

 Cycle   2  Pass 1  IDiag  1:
 RMSU=  2.89D-04    CP:  1.00D+00
 E= -633.320474877744     Delta-E=       -0.000088127524 Rises=F Damp=F
 DIIS: error= 3.54D-04 at cycle   2 NSaved=   2.
 NSaved= 2 IEnMin= 2 EnMin= -633.320474877744     IErMin= 2 ErrMin= 3.54D-04
 ErrMax= 3.54D-04  0.00D+00 EMaxC= 1.00D-01 BMatC= 5.54D-05 BMatP= 5.02D-05
 IDIUse=3 WtCom= 3.47D-01 WtEn= 6.53D-01
 Coeff-Com:  0.517D+00 0.483D+00
 Coeff-En:   0.000D+00 0.100D+01
 Coeff:      0.180D+00 0.820D+00
 Gap=     0.234 Goal=   None    Shift=    0.000
 RMSDP=1.64D-04 MaxDP=1.02D-02 DE=-8.81D-05 OVMax= 3.28D-03

 Cycle   3  Pass 1  IDiag  1:
 RMSU=  1.47D-04    CP:  9.99D-01  9.07D-01
 E= -633.320467594645     Delta-E=        0.000007283099 Rises=F Damp=F
 DIIS: error= 4.44D-04 at cycle   3 NSaved=   3.
 NSaved= 3 IEnMin= 2 EnMin= -633.320474877744     IErMin= 2 ErrMin= 3.54D-04
 ErrMax= 4.44D-04  0.00D+00 EMaxC= 1.00D-01 BMatC= 7.57D-05 BMatP= 5.02D-05
 IDIUse=3 WtCom= 3.22D-01 WtEn= 6.78D-01
 Coeff-Com:  0.678D-01 0.515D+00 0.417D+00
 Coeff-En:   0.000D+00 0.531D+00 0.469D+00
 Coeff:      0.218D-01 0.526D+00 0.452D+00
 Gap=     0.234 Goal=   None    Shift=    0.000
 RMSDP=4.95D-05 MaxDP=3.59D-03 DE= 7.28D-06 OVMax= 2.11D-03

 Cycle   4  Pass 1  IDiag  1:
 RMSU=  1.79D-05    CP:  1.00D+00  9.59D-01  7.47D-01
 E= -633.320522573131     Delta-E=       -0.000054978486 Rises=F Damp=F
 DIIS: error= 5.33D-05 at cycle   4 NSaved=   4.
 NSaved= 4 IEnMin= 4 EnMin= -633.320522573131     IErMin= 4 ErrMin= 5.33D-05
 ErrMax= 5.33D-05  0.00D+00 EMaxC= 1.00D-01 BMatC= 6.47D-07 BMatP= 5.02D-05
 IDIUse=1 WtCom= 1.00D+00 WtEn= 0.00D+00
 Coeff-Com: -0.134D-01 0.129D+00 0.149D+00 0.736D+00
 Coeff:     -0.134D-01 0.129D+00 0.149D+00 0.736D+00
 Gap=     0.234 Goal=   None    Shift=    0.000
 RMSDP=1.49D-05 MaxDP=9.12D-04 DE=-5.50D-05 OVMax= 6.61D-04

 Cycle   5  Pass 1  IDiag  1:
 RMSU=  7.58D-06    CP:  1.00D+00  9.63D-01  8.27D-01  1.01D+00
 E= -633.320523341171     Delta-E=       -0.000000768040 Rises=F Damp=F
 DIIS: error= 1.86D-05 at cycle   5 NSaved=   5.
 NSaved= 5 IEnMin= 5 EnMin= -633.320523341171     IErMin= 5 ErrMin= 1.86D-05
 ErrMax= 1.86D-05  0.00D+00 EMaxC= 1.00D-01 BMatC= 1.49D-07 BMatP= 6.47D-07
 IDIUse=1 WtCom= 1.00D+00 WtEn= 0.00D+00
 Coeff-Com: -0.137D-01-0.202D-01 0.779D-02 0.341D+00 0.685D+00
 Coeff:     -0.137D-01-0.202D-01 0.779D-02 0.341D+00 0.685D+00
 Gap=     0.234 Goal=   None    Shift=    0.000
 RMSDP=6.61D-06 MaxDP=3.37D-04 DE=-7.68D-07 OVMax= 2.81D-04

 Cycle   6  Pass 1  IDiag  1:
 RMSU=  2.32D-06    CP:  1.00D+00  9.60D-01  8.63D-01  1.16D+00  1.10D+00
 E= -633.320523575613     Delta-E=       -0.000000234442 Rises=F Damp=F
 DIIS: error= 1.45D-05 at cycle   6 NSaved=   6.
 NSaved= 6 IEnMin= 6 EnMin= -633.320523575613     IErMin= 6 ErrMin= 1.45D-05
 ErrMax= 1.45D-05  0.00D+00 EMaxC= 1.00D-01 BMatC= 1.65D-08 BMatP= 1.49D-07
 IDIUse=1 WtCom= 1.00D+00 WtEn= 0.00D+00
 Coeff-Com: -0.919D-03-0.267D-01-0.156D-01 0.270D-02 0.182D+00 0.858D+00
 Coeff:     -0.919D-03-0.267D-01-0.156D-01 0.270D-02 0.182D+00 0.858D+00
 Gap=     0.234 Goal=   None    Shift=    0.000
 RMSDP=3.13D-06 MaxDP=1.33D-04 DE=-2.34D-07 OVMax= 2.22D-04

 Cycle   7  Pass 1  IDiag  1:
 RMSU=  1.19D-06    CP:  1.00D+00  9.57D-01  8.77D-01  1.23D+00  1.20D+00
                    CP:  1.25D+00
 E= -633.320523622716     Delta-E=       -0.000000047104 Rises=F Damp=F
 DIIS: error= 5.57D-06 at cycle   7 NSaved=   7.
 NSaved= 7 IEnMin= 7 EnMin= -633.320523622716     IErMin= 7 ErrMin= 5.57D-06
 ErrMax= 5.57D-06  0.00D+00 EMaxC= 1.00D-01 BMatC= 7.61D-09 BMatP= 1.65D-08
 IDIUse=1 WtCom= 1.00D+00 WtEn= 0.00D+00
 Coeff-Com:  0.252D-02-0.935D-02-0.699D-02-0.682D-01-0.918D-01 0.433D+00
 Coeff-Com:  0.741D+00
 Coeff:      0.252D-02-0.935D-02-0.699D-02-0.682D-01-0.918D-01 0.433D+00
 Coeff:      0.741D+00
 Gap=     0.234 Goal=   None    Shift=    0.000
 RMSDP=1.27D-06 MaxDP=5.71D-05 DE=-4.71D-08 OVMax= 1.14D-04

 Cycle   8  Pass 1  IDiag  1:
 RMSU=  4.20D-07    CP:  1.00D+00  9.55D-01  8.82D-01  1.25D+00  1.26D+00
                    CP:  1.45D+00  1.11D+00
 E= -633.320523637156     Delta-E=       -0.000000014440 Rises=F Damp=F
 DIIS: error= 1.70D-06 at cycle   8 NSaved=   8.
 NSaved= 8 IEnMin= 8 EnMin= -633.320523637156     IErMin= 8 ErrMin= 1.70D-06
 ErrMax= 1.70D-06  0.00D+00 EMaxC= 1.00D-01 BMatC= 7.55D-10 BMatP= 7.61D-09
 IDIUse=1 WtCom= 1.00D+00 WtEn= 0.00D+00
 Coeff-Com:  0.101D-02 0.431D-03 0.588D-03-0.220D-01-0.746D-01 0.109D-01
 Coeff-Com:  0.249D+00 0.835D+00
 Coeff:      0.101D-02 0.431D-03 0.588D-03-0.220D-01-0.746D-01 0.109D-01
 Coeff:      0.249D+00 0.835D+00
 Gap=     0.234 Goal=   None    Shift=    0.000
 RMSDP=4.89D-07 MaxDP=1.71D-05 DE=-1.44D-08 OVMax= 4.22D-05

 Cycle   9  Pass 1  IDiag  1:
 RMSU=  1.32D-07    CP:  1.00D+00  9.55D-01  8.84D-01  1.26D+00  1.26D+00
                    CP:  1.56D+00  1.31D+00  1.17D+00
 E= -633.320523638796     Delta-E=       -0.000000001640 Rises=F Damp=F
 DIIS: error= 6.08D-07 at cycle   9 NSaved=   9.
 NSaved= 9 IEnMin= 9 EnMin= -633.320523638796     IErMin= 9 ErrMin= 6.08D-07
 ErrMax= 6.08D-07  0.00D+00 EMaxC= 1.00D-01 BMatC= 8.17D-11 BMatP= 7.55D-10
 IDIUse=1 WtCom= 1.00D+00 WtEn= 0.00D+00
 Coeff-Com:  0.682D-04 0.135D-02 0.119D-02 0.246D-02-0.166D-01-0.529D-01
 Coeff-Com:  0.407D-02 0.323D+00 0.737D+00
 Coeff:      0.682D-04 0.135D-02 0.119D-02 0.246D-02-0.166D-01-0.529D-01
 Coeff:      0.407D-02 0.323D+00 0.737D+00
 Gap=     0.234 Goal=   None    Shift=    0.000
 RMSDP=1.34D-07 MaxDP=6.87D-06 DE=-1.64D-09 OVMax= 1.18D-05

 Cycle  10  Pass 1  IDiag  1:
 RMSU=  5.26D-08    CP:  1.00D+00  9.55D-01  8.83D-01  1.27D+00  1.26D+00
                    CP:  1.58D+00  1.36D+00  1.26D+00  1.01D+00
 E= -633.320523638949     Delta-E=       -0.000000000153 Rises=F Damp=F
 DIIS: error= 1.80D-07 at cycle  10 NSaved=  10.
 NSaved=10 IEnMin=10 EnMin= -633.320523638949     IErMin=10 ErrMin= 1.80D-07
 ErrMax= 1.80D-07  0.00D+00 EMaxC= 1.00D-01 BMatC= 1.78D-11 BMatP= 8.17D-11
 IDIUse=1 WtCom= 1.00D+00 WtEn= 0.00D+00
 Coeff-Com: -0.806D-04 0.533D-03 0.305D-03 0.344D-02 0.621D-03-0.251D-01
 Coeff-Com: -0.233D-01 0.276D-01 0.317D+00 0.699D+00
 Coeff:     -0.806D-04 0.533D-03 0.305D-03 0.344D-02 0.621D-03-0.251D-01
 Coeff:     -0.233D-01 0.276D-01 0.317D+00 0.699D+00
 Gap=     0.234 Goal=   None    Shift=    0.000
 RMSDP=6.87D-08 MaxDP=5.03D-06 DE=-1.53D-10 OVMax= 3.15D-06

 Cycle  11  Pass 1  IDiag  1:
 RMSU=  2.69D-08    CP:  1.00D+00  9.55D-01  8.83D-01  1.27D+00  1.26D+00
                    CP:  1.58D+00  1.38D+00  1.28D+00  1.16D+00  1.05D+00
 E= -633.320523638960     Delta-E=       -0.000000000011 Rises=F Damp=F
 DIIS: error= 8.56D-08 at cycle  11 NSaved=  11.
 NSaved=11 IEnMin=11 EnMin= -633.320523638960     IErMin=11 ErrMin= 8.56D-08
 ErrMax= 8.56D-08  0.00D+00 EMaxC= 1.00D-01 BMatC= 3.54D-12 BMatP= 1.78D-11
 IDIUse=1 WtCom= 1.00D+00 WtEn= 0.00D+00
 Coeff-Com: -0.496D-04 0.552D-04-0.968D-04 0.139D-02 0.363D-02-0.239D-02
 Coeff-Com: -0.108D-01-0.505D-01 0.390D-01 0.336D+00 0.683D+00
 Coeff:     -0.496D-04 0.552D-04-0.968D-04 0.139D-02 0.363D-02-0.239D-02
 Coeff:     -0.108D-01-0.505D-01 0.390D-01 0.336D+00 0.683D+00
 Gap=     0.234 Goal=   None    Shift=    0.000
 RMSDP=2.46D-08 MaxDP=1.24D-06 DE=-1.14D-11 OVMax= 1.08D-06

 Cycle  12  Pass 1  IDiag  1:
 RMSU=  8.28D-09    CP:  1.00D+00  9.55D-01  8.83D-01  1.27D+00  1.26D+00
                    CP:  1.58D+00  1.38D+00  1.29D+00  1.19D+00  1.17D+00
                    CP:  8.77D-01
 E= -633.320523638969     Delta-E=       -0.000000000009 Rises=F Damp=F
 DIIS: error= 4.10D-08 at cycle  12 NSaved=  12.
 NSaved=12 IEnMin=12 EnMin= -633.320523638969     IErMin=12 ErrMin= 4.10D-08
 ErrMax= 4.10D-08  0.00D+00 EMaxC= 1.00D-01 BMatC= 5.05D-13 BMatP= 3.54D-12
 IDIUse=1 WtCom= 1.00D+00 WtEn= 0.00D+00
 Coeff-Com: -0.140D-04-0.298D-04-0.822D-04 0.161D-03 0.142D-02 0.218D-02
 Coeff-Com: -0.512D-03-0.259D-01-0.232D-01 0.294D-01 0.312D+00 0.705D+00
 Coeff:     -0.140D-04-0.298D-04-0.822D-04 0.161D-03 0.142D-02 0.218D-02
 Coeff:     -0.512D-03-0.259D-01-0.232D-01 0.294D-01 0.312D+00 0.705D+00
 Gap=     0.234 Goal=   None    Shift=    0.000
 RMSDP=9.53D-09 MaxDP=7.17D-07 DE=-8.53D-12 OVMax= 3.78D-07

 Error on total polarization charges =  0.00981
 SCF Done:  E(RCAM-B3LYP) =  -633.320523639     A.U. after   12 cycles
            NFock= 12  Conv=0.95D-08     -V/T= 2.0041
 KE= 6.307356125281D+02 PE=-3.276681988877D+03 EE= 1.112346573300D+03
 Leave Link  502 at Fri Jan 23 22:53:36 2026, MaxMem=  2147483648 cpu:             752.0 elap:              47.6
 (Enter /data/home/wyx/g16/l601.exe)
 Copying SCF densities to generalized density rwf, IOpCl= 0 IROHF=0.

 **********************************************************************

            Population analysis using the SCF density.

 **********************************************************************

 Orbital symmetries:
       Occupied  (A) (A) (A) (A) (A) (A) (A) (A) (A) (A) (A) (A)
                 (A) (A) (A) (A) (A) (A) (A) (A) (A) (A) (A) (A)
                 (A) (A) (A) (A) (A) (A) (A) (A) (A) (A) (A) (A)
                 (A) (A) (A) (A) (A) (A) (A) (A) (A) (A) (A) (A)
                 (A) (A) (A) (A)
       Virtual   (A) (A) (A) (A) (A) (A) (A) (A) (A) (A) (A) (A)
                 (A) (A) (A) (A) (A) (A) (A) (A) (A) (A) (A) (A)
                 (A) (A) (A) (A) (A) (A) (A) (A) (A) (A) (A) (A)
                 (A) (A) (A) (A) (A) (A) (A) (A) (A) (A) (A) (A)
                 (A) (A) (A) (A) (A) (A) (A) (A) (A) (A) (A) (A)
                 (A) (A) (A) (A) (A) (A) (A) (A) (A) (A) (A) (A)
                 (A) (A) (A) (A) (A) (A) (A) (A) (A) (A) (A) (A)
                 (A) (A) (A) (A) (A) (A) (A) (A) (A) (A) (A) (A)
                 (A) (A) (A) (A) (A) (A) (A) (A) (A) (A) (A) (A)
                 (A) (A) (A) (A) (A) (A) (A) (A) (A) (A) (A) (A)
                 (A) (A) (A) (A) (A) (A) (A) (A) (A) (A) (A) (A)
                 (A) (A) (A) (A) (A) (A) (A) (A) (A) (A) (A) (A)
                 (A) (A) (A) (A) (A) (A) (A) (A) (A) (A) (A) (A)
                 (A) (A) (A) (A) (A) (A) (A) (A) (A) (A) (A) (A)
                 (A) (A) (A) (A) (A) (A) (A) (A) (A) (A) (A) (A)
                 (A) (A) (A) (A) (A) (A) (A) (A) (A) (A) (A) (A)
                 (A) (A) (A) (A) (A) (A) (A) (A) (A) (A) (A) (A)
                 (A) (A) (A) (A) (A) (A) (A) (A) (A) (A) (A) (A)
                 (A) (A) (A) (A) (A) (A) (A) (A) (A) (A) (A) (A)
                 (A) (A) (A) (A) (A) (A) (A) (A) (A) (A) (A) (A)
                 (A) (A) (A) (A) (A) (A) (A) (A) (A) (A) (A) (A)
                 (A) (A) (A) (A) (A) (A) (A) (A) (A) (A) (A) (A)
                 (A) (A) (A) (A) (A) (A) (A) (A) (A) (A) (A) (A)
                 (A) (A) (A) (A) (A) (A) (A) (A) (A) (A) (A) (A)
                 (A) (A) (A) (A) (A) (A) (A) (A) (A) (A) (A) (A)
                 (A) (A) (A) (A)
 The electronic state is 1-A.
 Alpha  occ. eigenvalues --  -19.18028 -19.16481 -14.44535 -10.33521 -10.32846
 Alpha  occ. eigenvalues --  -10.32574 -10.31980 -10.26334 -10.25291 -10.25048
 Alpha  occ. eigenvalues --  -10.24955 -10.24538 -10.24343 -10.23388  -1.12107
 Alpha  occ. eigenvalues --   -1.09574  -1.08008  -0.91741  -0.90754  -0.83971
 Alpha  occ. eigenvalues --   -0.82664  -0.81688  -0.78715  -0.74528  -0.71687
 Alpha  occ. eigenvalues --   -0.69114  -0.62149  -0.58668  -0.57131  -0.55429
 Alpha  occ. eigenvalues --   -0.54968  -0.54067  -0.52556  -0.52044  -0.50827
 Alpha  occ. eigenvalues --   -0.49867  -0.49259  -0.49124  -0.48477  -0.48322
 Alpha  occ. eigenvalues --   -0.46788  -0.44927  -0.44805  -0.43953  -0.43144
 Alpha  occ. eigenvalues --   -0.42626  -0.41778  -0.40824  -0.33229  -0.32424
 Alpha  occ. eigenvalues --   -0.30566  -0.26345
 Alpha virt. eigenvalues --   -0.02975   0.02147   0.06039   0.08003   0.08334
 Alpha virt. eigenvalues --    0.09669   0.10675   0.11899   0.12572   0.13235
 Alpha virt. eigenvalues --    0.13895   0.14973   0.15486   0.16739   0.16828
 Alpha virt. eigenvalues --    0.17401   0.17578   0.17928   0.18442   0.19427
 Alpha virt. eigenvalues --    0.19789   0.21393   0.22810   0.23263   0.23885
 Alpha virt. eigenvalues --    0.24212   0.24776   0.25774   0.26074   0.26435
 Alpha virt. eigenvalues --    0.27230   0.27469   0.27991   0.29508   0.29912
 Alpha virt. eigenvalues --    0.30971   0.31490   0.33005   0.33408   0.34618
 Alpha virt. eigenvalues --    0.35280   0.35475   0.36666   0.37554   0.38234
 Alpha virt. eigenvalues --    0.39797   0.40914   0.41623   0.42237   0.43125
 Alpha virt. eigenvalues --    0.44029   0.45251   0.45694   0.46035   0.46476
 Alpha virt. eigenvalues --    0.46784   0.48007   0.48230   0.48841   0.48931
 Alpha virt. eigenvalues --    0.50024   0.50394   0.50979   0.51145   0.51968
 Alpha virt. eigenvalues --    0.52284   0.52817   0.53181   0.53905   0.54154
 Alpha virt. eigenvalues --    0.54603   0.55435   0.55941   0.57019   0.57184
 Alpha virt. eigenvalues --    0.58042   0.59627   0.60045   0.62040   0.63024
 Alpha virt. eigenvalues --    0.63243   0.64966   0.65990   0.67933   0.68124
 Alpha virt. eigenvalues --    0.69921   0.70425   0.71069   0.71651   0.72942
 Alpha virt. eigenvalues --    0.73725   0.74916   0.76853   0.77868   0.79201
 Alpha virt. eigenvalues --    0.80718   0.81312   0.82477   0.86088   0.88100
 Alpha virt. eigenvalues --    0.91153   0.91868   0.96607   1.02138   1.21148
 Alpha virt. eigenvalues --    1.24710   1.24893   1.27045   1.29686   1.30355
 Alpha virt. eigenvalues --    1.32621   1.33004   1.33749   1.35727   1.36019
 Alpha virt. eigenvalues --    1.36683   1.37445   1.38597   1.39143   1.39422
 Alpha virt. eigenvalues --    1.39643   1.40787   1.41121   1.41478   1.42217
 Alpha virt. eigenvalues --    1.42793   1.44091   1.44347   1.44716   1.46729
 Alpha virt. eigenvalues --    1.47952   1.49603   1.49912   1.50711   1.51564
 Alpha virt. eigenvalues --    1.52063   1.52483   1.54033   1.55944   1.57741
 Alpha virt. eigenvalues --    1.58606   1.59114   1.60668   1.61018   1.61765
 Alpha virt. eigenvalues --    1.62697   1.63130   1.64082   1.64787   1.65481
 Alpha virt. eigenvalues --    1.65944   1.66358   1.66798   1.67794   1.68216
 Alpha virt. eigenvalues --    1.68972   1.69910   1.71064   1.72327   1.73000
 Alpha virt. eigenvalues --    1.74274   1.74598   1.75966   1.76149   1.79534
 Alpha virt. eigenvalues --    1.81032   1.82429   1.83423   1.83692   1.86224
 Alpha virt. eigenvalues --    1.86869   1.87381   1.88569   1.89761   1.90255
 Alpha virt. eigenvalues --    1.91444   1.93329   1.95842   1.97763   2.00668
 Alpha virt. eigenvalues --    2.01669   2.04738   2.04967   2.06833   2.09390
 Alpha virt. eigenvalues --    2.10375   2.13332   2.15117   2.18280   2.19187
 Alpha virt. eigenvalues --    2.19660   2.22621   2.23925   2.24778   2.25385
 Alpha virt. eigenvalues --    2.26749   2.28915   2.30303   2.31247   2.33351
 Alpha virt. eigenvalues --    2.34619   2.35213   2.36464   2.37642   2.39498
 Alpha virt. eigenvalues --    2.41274   2.41470   2.42306   2.44833   2.45504
 Alpha virt. eigenvalues --    2.45877   2.48513   2.49426   2.50200   2.51470
 Alpha virt. eigenvalues --    2.52766   2.53112   2.54593   2.55678   2.56451
 Alpha virt. eigenvalues --    2.56761   2.60347   2.60870   2.62432   2.63223
 Alpha virt. eigenvalues --    2.64428   2.65342   2.66458   2.67217   2.69051
 Alpha virt. eigenvalues --    2.69554   2.73054   2.73167   2.74175   2.74813
 Alpha virt. eigenvalues --    2.76280   2.76862   2.77586   2.77913   2.79840
 Alpha virt. eigenvalues --    2.80423   2.81580   2.83227   2.84650   2.85017
 Alpha virt. eigenvalues --    2.85810   2.86545   2.88513   2.89917   2.93713
 Alpha virt. eigenvalues --    2.97076   2.98808   2.99125   3.05447   3.09461
 Alpha virt. eigenvalues --    3.10094   3.11831   3.13787   3.19898   3.20708
 Alpha virt. eigenvalues --    3.21766   3.23575   3.24279   3.25419   3.26096
 Alpha virt. eigenvalues --    3.29427   3.32046   3.32903   3.35917   3.37889
 Alpha virt. eigenvalues --    3.38802   3.39235   3.39850   3.40911   3.41679
 Alpha virt. eigenvalues --    3.42224   3.43306   3.45952   3.47664   3.48786
 Alpha virt. eigenvalues --    3.50043   3.53665   3.55450   3.58400   3.60081
 Alpha virt. eigenvalues --    3.62733   3.91828   4.00544   4.33196   4.36244
 Alpha virt. eigenvalues --   21.64305  21.77523  22.07174  22.10128  22.12180
 Alpha virt. eigenvalues --   22.13413  22.16761  22.19508  22.21463  22.27540
 Alpha virt. eigenvalues --   22.31674  31.92741  43.63627  43.66127
          Condensed to atoms (all electrons):
               1          2          3          4          5          6
     1  O    7.923519   0.000000  -0.000200   0.000017   0.015333   0.015940
     2  O    0.000000   8.022674   0.000593   0.000038  -0.174939   0.001538
     3  N   -0.000200   0.000593   6.375655   0.372686  -0.116261   0.363159
     4  H    0.000017   0.000038   0.372686   0.405813   0.013308  -0.041814
     5  C    0.015333  -0.174939  -0.116261   0.013308   7.123438  -0.052063
     6  C    0.015940   0.001538   0.363159  -0.041814  -0.052063   5.550432
     7  C   -0.000042  -0.025865   0.367875  -0.045047   0.388690  -0.143620
     8  C   -0.000433   0.649465   0.004086  -0.000859  -0.377692   0.040262
     9  C   -0.003920   0.023162   0.019601   0.000562  -0.665359  -0.071125
    10  H    0.010423  -0.000225  -0.001127   0.000006  -0.119199   0.019213
    11  H    0.004137   0.000025   0.002315   0.000019  -0.043058  -0.000688
    12  C   -0.241741  -0.003437  -0.098083   0.018348   0.204187  -0.119056
    13  C    0.747791  -0.000004   0.000051   0.000480   0.068305   0.095169
    14  C   -0.000009  -0.042449  -0.044965  -0.001909  -0.046062  -0.001046
    15  H    0.000000   0.004849   0.004583   0.000239   0.015550   0.005886
    16  H    0.000000   0.015624   0.003337   0.000732  -0.001864  -0.000402
    17  H   -0.000000   0.000775  -0.003831   0.000724  -0.015474  -0.000948
    18  C   -0.000199  -0.099330  -0.000301   0.000020  -0.192753  -0.001425
    19  H   -0.000001   0.004514   0.000006  -0.000001   0.011585   0.000036
    20  H    0.000447   0.006013   0.000100   0.000001   0.068999  -0.001444
    21  H    0.000013  -0.000486   0.000013  -0.000001  -0.008260   0.000158
    22  C   -0.128755   0.000000  -0.000105   0.000124   0.001815  -0.002178
    23  H    0.002674   0.000000   0.000109  -0.000025  -0.000181   0.006473
    24  H    0.003753   0.000000   0.000107  -0.000034  -0.000256  -0.018521
    25  H    0.010924  -0.000000   0.000013  -0.000003  -0.000063  -0.002157
    26  C    0.000802   0.000008  -0.028167  -0.010948   0.000464   0.233424
    27  H   -0.000037  -0.000000  -0.003308   0.000590   0.000518  -0.041270
    28  H   -0.000076  -0.000000  -0.000184   0.000851   0.000188  -0.039275
    29  H    0.000015   0.000000   0.003885   0.002196  -0.000403  -0.052028
               7          8          9         10         11         12
     1  O   -0.000042  -0.000433  -0.003920   0.010423   0.004137  -0.241741
     2  O   -0.025865   0.649465   0.023162  -0.000225   0.000025  -0.003437
     3  N    0.367875   0.004086   0.019601  -0.001127   0.002315  -0.098083
     4  H   -0.045047  -0.000859   0.000562   0.000006   0.000019   0.018348
     5  C    0.388690  -0.377692  -0.665359  -0.119199  -0.043058   0.204187
     6  C   -0.143620   0.040262  -0.071125   0.019213  -0.000688  -0.119056
     7  C    5.519695  -0.266827  -0.225241   0.015990  -0.004160   0.037094
     8  C   -0.266827   5.567768   0.203428  -0.007785   0.001066  -0.072543
     9  C   -0.225241   0.203428   6.421061   0.549718   0.408777  -0.172708
    10  H    0.015990  -0.007785   0.549718   0.505194  -0.035626  -0.099246
    11  H   -0.004160   0.001066   0.408777  -0.035626   0.546637  -0.021737
    12  C    0.037094  -0.072543  -0.172708  -0.099246  -0.021737   7.498840
    13  C    0.021133  -0.009022  -0.217681  -0.003946  -0.007229  -0.449638
    14  C    0.230204  -0.058449   0.015635   0.000489  -0.001165   0.001950
    15  H   -0.077031   0.006263  -0.000593  -0.000012   0.000111  -0.001166
    16  H   -0.035476  -0.016008   0.001216  -0.000060   0.000099  -0.000372
    17  H   -0.012759   0.003692  -0.000282   0.000064  -0.000041   0.000181
    18  C    0.011033   0.322659  -0.001089  -0.000792  -0.011681   0.006411
    19  H    0.000033  -0.035270  -0.002014   0.000445   0.000310  -0.000201
    20  H    0.004964  -0.113173  -0.016459  -0.006169   0.000892   0.007551
    21  H   -0.000762  -0.010594  -0.003239  -0.000110   0.000452  -0.002041
    22  C    0.000695  -0.000027   0.011408   0.000882   0.001404  -0.337793
    23  H   -0.000030   0.000005  -0.002034  -0.000141   0.000156   0.008885
    24  H   -0.000034   0.000000   0.001430   0.000054  -0.000147   0.043098
    25  H    0.000012  -0.000000  -0.000075  -0.000096  -0.000040   0.028347
    26  C    0.005774   0.000777   0.018937   0.000100  -0.000466  -0.098921
    27  H   -0.001325  -0.000013   0.000211   0.000029  -0.000002  -0.009770
    28  H   -0.000855  -0.000005  -0.000802   0.000006  -0.000026  -0.004403
    29  H    0.003813   0.000016  -0.000618  -0.000002   0.000033   0.021517
              13         14         15         16         17         18
     1  O    0.747791  -0.000009   0.000000   0.000000  -0.000000  -0.000199
     2  O   -0.000004  -0.042449   0.004849   0.015624   0.000775  -0.099330
     3  N    0.000051  -0.044965   0.004583   0.003337  -0.003831  -0.000301
     4  H    0.000480  -0.001909   0.000239   0.000732   0.000724   0.000020
     5  C    0.068305  -0.046062   0.015550  -0.001864  -0.015474  -0.192753
     6  C    0.095169  -0.001046   0.005886  -0.000402  -0.000948  -0.001425
     7  C    0.021133   0.230204  -0.077031  -0.035476  -0.012759   0.011033
     8  C   -0.009022  -0.058449   0.006263  -0.016008   0.003692   0.322659
     9  C   -0.217681   0.015635  -0.000593   0.001216  -0.000282  -0.001089
    10  H   -0.003946   0.000489  -0.000012  -0.000060   0.000064  -0.000792
    11  H   -0.007229  -0.001165   0.000111   0.000099  -0.000041  -0.011681
    12  C   -0.449638   0.001950  -0.001166  -0.000372   0.000181   0.006411
    13  C    5.476242  -0.000044  -0.000026   0.000001  -0.000020   0.000909
    14  C   -0.000044   5.198066   0.383919   0.420309   0.399695  -0.000003
    15  H   -0.000026   0.383919   0.587454  -0.027443  -0.030192   0.000181
    16  H    0.000001   0.420309  -0.027443   0.467645  -0.017446   0.000543
    17  H   -0.000020   0.399695  -0.030192  -0.017446   0.505475  -0.000001
    18  C    0.000909  -0.000003   0.000181   0.000543  -0.000001   5.231860
    19  H   -0.000017  -0.000047  -0.000001   0.000088  -0.000012   0.401605
    20  H    0.001426   0.000293  -0.000019  -0.000101  -0.000002   0.399152
    21  H   -0.000075  -0.000271  -0.000005   0.000022   0.000016   0.391098
    22  C    0.338810   0.000008   0.000003  -0.000000  -0.000001   0.000018
    23  H   -0.039927  -0.000001   0.000000  -0.000000  -0.000000  -0.000001
    24  H   -0.063641   0.000001  -0.000000   0.000000   0.000000   0.000002
    25  H   -0.050808   0.000000   0.000000  -0.000000  -0.000000   0.000000
    26  C   -0.044586   0.000459  -0.000186   0.000038  -0.000097  -0.000006
    27  H    0.003410  -0.000092   0.000019   0.000001  -0.000011  -0.000000
    28  H   -0.003345   0.000073  -0.000019  -0.000002   0.000005   0.000000
    29  H   -0.000336   0.000054   0.000086  -0.000001  -0.000001   0.000000
              19         20         21         22         23         24
     1  O   -0.000001   0.000447   0.000013  -0.128755   0.002674   0.003753
     2  O    0.004514   0.006013  -0.000486   0.000000   0.000000   0.000000
     3  N    0.000006   0.000100   0.000013  -0.000105   0.000109   0.000107
     4  H   -0.000001   0.000001  -0.000001   0.000124  -0.000025  -0.000034
     5  C    0.011585   0.068999  -0.008260   0.001815  -0.000181  -0.000256
     6  C    0.000036  -0.001444   0.000158  -0.002178   0.006473  -0.018521
     7  C    0.000033   0.004964  -0.000762   0.000695  -0.000030  -0.000034
     8  C   -0.035270  -0.113173  -0.010594  -0.000027   0.000005   0.000000
     9  C   -0.002014  -0.016459  -0.003239   0.011408  -0.002034   0.001430
    10  H    0.000445  -0.006169  -0.000110   0.000882  -0.000141   0.000054
    11  H    0.000310   0.000892   0.000452   0.001404   0.000156  -0.000147
    12  C   -0.000201   0.007551  -0.002041  -0.337793   0.008885   0.043098
    13  C   -0.000017   0.001426  -0.000075   0.338810  -0.039927  -0.063641
    14  C   -0.000047   0.000293  -0.000271   0.000008  -0.000001   0.000001
    15  H   -0.000001  -0.000019  -0.000005   0.000003   0.000000  -0.000000
    16  H    0.000088  -0.000101   0.000022  -0.000000  -0.000000   0.000000
    17  H   -0.000012  -0.000002   0.000016  -0.000001  -0.000000   0.000000
    18  C    0.401605   0.399152   0.391098   0.000018  -0.000001   0.000002
    19  H    0.497012  -0.030613  -0.010665  -0.000000   0.000000   0.000000
    20  H   -0.030613   0.550466  -0.022128   0.000040  -0.000001  -0.000001
    21  H   -0.010665  -0.022128   0.496171  -0.000003   0.000000  -0.000000
    22  C   -0.000000   0.000040  -0.000003   5.466264   0.394444   0.383952
    23  H    0.000000  -0.000001   0.000000   0.394444   0.520270  -0.033133
    24  H    0.000000  -0.000001  -0.000000   0.383952  -0.033133   0.547205
    25  H   -0.000000  -0.000000  -0.000000   0.383081  -0.009506  -0.016941
    26  C    0.000000  -0.000018   0.000002  -0.045933  -0.008804   0.009911
    27  H    0.000000   0.000000  -0.000000  -0.009330   0.000670  -0.001027
    28  H   -0.000000   0.000000   0.000000   0.003343  -0.000806  -0.003974
    29  H    0.000000  -0.000000   0.000000   0.002197   0.000202   0.000395
              25         26         27         28         29
     1  O    0.010924   0.000802  -0.000037  -0.000076   0.000015
     2  O   -0.000000   0.000008  -0.000000  -0.000000   0.000000
     3  N    0.000013  -0.028167  -0.003308  -0.000184   0.003885
     4  H   -0.000003  -0.010948   0.000590   0.000851   0.002196
     5  C   -0.000063   0.000464   0.000518   0.000188  -0.000403
     6  C   -0.002157   0.233424  -0.041270  -0.039275  -0.052028
     7  C    0.000012   0.005774  -0.001325  -0.000855   0.003813
     8  C   -0.000000   0.000777  -0.000013  -0.000005   0.000016
     9  C   -0.000075   0.018937   0.000211  -0.000802  -0.000618
    10  H   -0.000096   0.000100   0.000029   0.000006  -0.000002
    11  H   -0.000040  -0.000466  -0.000002  -0.000026   0.000033
    12  C    0.028347  -0.098921  -0.009770  -0.004403   0.021517
    13  C   -0.050808  -0.044586   0.003410  -0.003345  -0.000336
    14  C    0.000000   0.000459  -0.000092   0.000073   0.000054
    15  H    0.000000  -0.000186   0.000019  -0.000019   0.000086
    16  H   -0.000000   0.000038   0.000001  -0.000002  -0.000001
    17  H   -0.000000  -0.000097  -0.000011   0.000005  -0.000001
    18  C    0.000000  -0.000006  -0.000000   0.000000   0.000000
    19  H   -0.000000   0.000000   0.000000  -0.000000   0.000000
    20  H   -0.000000  -0.000018   0.000000   0.000000  -0.000000
    21  H   -0.000000   0.000002  -0.000000   0.000000   0.000000
    22  C    0.383081  -0.045933  -0.009330   0.003343   0.002197
    23  H   -0.009506  -0.008804   0.000670  -0.000806   0.000202
    24  H   -0.016941   0.009911  -0.001027  -0.003974   0.000395
    25  H    0.494432   0.002313   0.000059   0.000307  -0.000030
    26  C    0.002313   5.201689   0.434380   0.422179   0.387984
    27  H    0.000059   0.434380   0.488658  -0.031796  -0.016750
    28  H    0.000307   0.422179  -0.031796   0.512675  -0.022772
    29  H   -0.000030   0.387984  -0.016750  -0.022772   0.519606
 Mulliken charges:
               1
     1  O   -0.360377
     2  O   -0.382544
     3  N   -0.221642
     4  H    0.283887
     5  C   -0.098494
     6  C    0.257370
     7  C    0.232070
     8  C    0.169212
     9  C   -0.291909
    10  H    0.171924
    11  H    0.159631
    12  C   -0.143553
    13  C    0.136620
    14  C   -0.454641
    15  H    0.127554
    16  H    0.189519
    17  H    0.170492
    18  C   -0.457908
    19  H    0.163207
    20  H    0.149784
    21  H    0.170695
    22  C   -0.464361
    23  H    0.160702
    24  H    0.147801
    25  H    0.160230
    26  C   -0.481113
    27  H    0.186187
    28  H    0.168714
    29  H    0.150942
 Sum of Mulliken charges =  -0.00000
 Mulliken charges with hydrogens summed into heavy atoms:
               1
     1  O   -0.360377
     2  O   -0.382544
     3  N    0.062246
     5  C   -0.098494
     6  C    0.257370
     7  C    0.232070
     8  C    0.169212
     9  C    0.039646
    12  C   -0.143553
    13  C    0.136620
    14  C    0.032924
    18  C    0.025777
    22  C    0.004372
    26  C    0.024731
 Electronic spatial extent (au):  <R**2>=           3211.2659
 Charge=             -0.0000 electrons
 Dipole moment (field-independent basis, Debye):
    X=              3.7577    Y=              7.0440    Z=             -0.1743  Tot=              7.9855
 Quadrupole moment (field-independent basis, Debye-Ang):
   XX=            -97.3901   YY=            -78.8696   ZZ=            -84.4769
   XY=             13.2624   XZ=              2.5278   YZ=             -0.5741
 Traceless Quadrupole moment (field-independent basis, Debye-Ang):
   XX=            -10.4779   YY=              8.0426   ZZ=              2.4353
   XY=             13.2624   XZ=              2.5278   YZ=             -0.5741
 Octapole moment (field-independent basis, Debye-Ang**2):
  XXX=            105.6445  YYY=             60.9626  ZZZ=              2.2064  XYY=            -36.8809
  XXY=             27.4008  XXZ=             -6.9131  XZZ=              0.9706  YZZ=             -1.6900
  YYZ=              1.4827  XYZ=             -2.0106
 Hexadecapole moment (field-independent basis, Debye-Ang**3):
 XXXX=          -3099.4774 YYYY=          -1283.1791 ZZZZ=           -130.5245 XXXY=             46.9145
 XXXZ=             38.1022 YYYX=             95.2831 YYYZ=            -11.1930 ZZZX=             -4.2977
 ZZZY=              2.5606 XXYY=           -684.5855 XXZZ=           -483.0075 YYZZ=           -238.2981
 XXYZ=              0.1971 YYXZ=              1.1397 ZZXY=              1.4706
 N-N= 9.002792794100D+02 E-N=-3.276681992466D+03  KE= 6.307356125281D+02
 No NMR shielding tensors so no spin-rotation constants.
 Leave Link  601 at Fri Jan 23 22:53:36 2026, MaxMem=  2147483648 cpu:               1.8 elap:               0.1
 (Enter /data/home/wyx/g16/l9999.exe)
 1\1\GINC-CN013\SP\RCAM-B3LYP\TZVP\C11H15N1O2\WYX\23-Jan-2026\0\\#p CAM
 -B3LYP TZVP em=gd3bj scrf=(Solvent=TetraHydroFuran,NonEquilibrium=Read
 ) Geom=Check Guess=Read\\Title Card Required\\0,1\O,0,2.809094,-1.5780
 71,0.310833\O,0,-3.448305,-1.642133,-0.208932\N,0,-0.643429,1.520514,-
 0.231603\H,0,-0.958187,2.475215,-0.274119\C,0,-1.242103,-0.760338,-0.2
 00636\C,0,0.685997,1.306078,0.003643\C,0,-1.615047,0.540802,-0.267709\
 C,0,-2.204093,-1.82235,-0.213132\C,0,0.217972,-1.126518,-0.153404\H,0,
 0.388615,-1.861769,0.633669\H,0,0.513562,-1.614585,-1.088375\C,0,1.146
 806,0.037003,0.08316\C,0,2.514283,-0.385286,0.350937\C,0,-2.997744,1.0
 76935,-0.369395\H,0,-3.017073,2.00128,-0.951526\H,0,-3.692154,0.391021
 ,-0.848576\H,0,-3.40941,1.290526,0.619094\C,0,-1.78758,-3.262088,-0.24
 2795\H,0,-2.477526,-3.91957,-0.773032\H,0,-0.813671,-3.424774,-0.70405
 \H,0,-1.70236,-3.660932,0.772964\C,0,3.611768,0.582593,0.704248\H,0,3.
 890002,1.214559,-0.138249\H,0,3.361592,1.233561,1.539281\H,0,4.474003,
 -0.022524,0.974707\C,0,1.450081,2.583203,0.141248\H,0,1.775722,2.75785
 6,1.165587\H,0,2.325584,2.623381,-0.500244\H,0,0.843601,3.44641,-0.133
 595\\Version=ES64L-G16RevA.03\State=1-A\HF=-633.3205236\RMSD=9.532e-09
 \Dipole=0.4442368,3.1098547,-0.0451215\Quadrupole=-12.772715,10.724556
 6,2.0481584,3.0526398,-0.0288842,0.5495846\PG=C01 [X(C11H15N1O2)]\\@


 MY GROUP MEETINGS AREN'T VERY STRUCTURED.
     -- PROF. M. S. GORDON, OCT. 5, 1984
 Job cpu time:       0 days  0 hours 12 minutes 42.1 seconds.
 Elapsed time:       0 days  0 hours  0 minutes 48.5 seconds.
 File lengths (MBytes):  RWF=    343 Int=      0 D2E=      0 Chk=     67 Scr=      1
 Normal termination of Gaussian 16 at Fri Jan 23 22:53:37 2026.
