 Entering Gaussian System, Link 0=g16
 Input=DDL-S1-cLR-11.gjf
 Output=DDL-S1-cLR-11.log
 Initial command:
 /data/home/wyx/g16/l1.exe "/scr/tmp/wyx/13109/Gau-1697166.inp" -scrdir="/scr/tmp/wyx/13109/"
 Entering Link 1 = /data/home/wyx/g16/l1.exe PID=   1697167.
  
 Copyright (c) 1988,1990,1992,1993,1995,1998,2003,2009,2016,
            Gaussian, Inc.  All Rights Reserved.
  
 This is part of the Gaussian(R) 16 program.  It is based on
 the Gaussian(R) 09 system (copyright 2009, Gaussian, Inc.),
 the Gaussian(R) 03 system (copyright 2003, Gaussian, Inc.),
 the Gaussian(R) 98 system (copyright 1998, Gaussian, Inc.),
 the Gaussian(R) 94 system (copyright 1995, Gaussian, Inc.),
 the Gaussian 92(TM) system (copyright 1992, Gaussian, Inc.),
 the Gaussian 90(TM) system (copyright 1990, Gaussian, Inc.),
 the Gaussian 88(TM) system (copyright 1988, Gaussian, Inc.),
 the Gaussian 86(TM) system (copyright 1986, Carnegie Mellon
 University), and the Gaussian 82(TM) system (copyright 1983,
 Carnegie Mellon University). Gaussian is a federally registered
 trademark of Gaussian, Inc.
  
 This software contains proprietary and confidential information,
 including trade secrets, belonging to Gaussian, Inc.
  
 This software is provided under written license and may be
 used, copied, transmitted, or stored only in accord with that
 written license.
  
 The following legend is applicable only to US Government
 contracts under FAR:
  
                    RESTRICTED RIGHTS LEGEND
  
 Use, reproduction and disclosure by the US Government is
 subject to restrictions as set forth in subparagraphs (a)
 and (c) of the Commercial Computer Software - Restricted
 Rights clause in FAR 52.227-19.
  
 Gaussian, Inc.
 340 Quinnipiac St., Bldg. 40, Wallingford CT 06492
  
  
 ---------------------------------------------------------------
 Warning -- This program may not be used in any manner that
 competes with the business of Gaussian, Inc. or will provide
 assistance to any competitor of Gaussian, Inc.  The licensee
 of this program is prohibited from giving any competitor of
 Gaussian, Inc. access to this program.  By using this program,
 the user acknowledges that Gaussian, Inc. is engaged in the
 business of creating and licensing software in the field of
 computational chemistry and represents and warrants to the
 licensee that it is not a competitor of Gaussian, Inc. and that
 it will not use this program in any manner prohibited above.
 ---------------------------------------------------------------
  

 Cite this work as:
 Gaussian 16, Revision A.03,
 M. J. Frisch, G. W. Trucks, H. B. Schlegel, G. E. Scuseria, 
 M. A. Robb, J. R. Cheeseman, G. Scalmani, V. Barone, 
 G. A. Petersson, H. Nakatsuji, X. Li, M. Caricato, A. V. Marenich, 
 J. Bloino, B. G. Janesko, R. Gomperts, B. Mennucci, H. P. Hratchian, 
 J. V. Ortiz, A. F. Izmaylov, J. L. Sonnenberg, D. Williams-Young, 
 F. Ding, F. Lipparini, F. Egidi, J. Goings, B. Peng, A. Petrone, 
 T. Henderson, D. Ranasinghe, V. G. Zakrzewski, J. Gao, N. Rega, 
 G. Zheng, W. Liang, M. Hada, M. Ehara, K. Toyota, R. Fukuda, 
 J. Hasegawa, M. Ishida, T. Nakajima, Y. Honda, O. Kitao, H. Nakai, 
 T. Vreven, K. Throssell, J. A. Montgomery, Jr., J. E. Peralta, 
 F. Ogliaro, M. J. Bearpark, J. J. Heyd, E. N. Brothers, K. N. Kudin, 
 V. N. Staroverov, T. A. Keith, R. Kobayashi, J. Normand, 
 K. Raghavachari, A. P. Rendell, J. C. Burant, S. S. Iyengar, 
 J. Tomasi, M. Cossi, J. M. Millam, M. Klene, C. Adamo, R. Cammi, 
 J. W. Ochterski, R. L. Martin, K. Morokuma, O. Farkas, 
 J. B. Foresman, and D. J. Fox, Gaussian, Inc., Wallingford CT, 2016.
 
 ******************************************
 Gaussian 16:  ES64L-G16RevA.03 25-Dec-2016
                23-Jan-2026 
 ******************************************
 %nprocshared=16
 Will use up to   16 processors via shared memory.
 %mem=16GB
 %oldchk=DDL-LR-11.chk
 %chk=DDL-S1-cLR-11.chk
 Copying data from "DDL-LR-11.chk" to current chk file "DDL-S1-cLR-11.chk"
 IOpt=  2 FromEx=T IUOpen= 4 IOptOp= 5 NList=   0 IFRang= 0 IUIn= 4 IUOut= 2.
 ----------------------------------------------------------------------
 #p CAM-B3LYP TZVP em=gd3bj td(nstates=6,root=1) scrf=(Solvent=TetraHyd
 roFuran,CorrectedLR,NonEquilibrium=Save) Geom=Check Guess=Read
 ----------------------------------------------------------------------
 1/29=2,30=1,38=1,172=1/1;
 2/12=2,40=1/2;
 3/5=19,7=101,11=9,14=-4,25=1,30=1,70=9002201,71=1,72=20,74=-40,116=-2,124=41/1,2,3,8;
 4/5=1/1;
 5/5=2,38=6,53=20/2;
 8/6=1,10=1,107=1,108=6/1;
 9/8=1,15=1,41=6,42=1,70=2,73=22/14;
 10/5=4,13=10,28=1,74=20/2;
 6/7=2,8=2,9=2,10=2,22=-1/1;
 99/5=1,9=1/99;
 Leave Link    1 at Fri Jan 23 20:40:53 2026, MaxMem=  2147483648 cpu:               0.8 elap:               0.1
 (Enter /data/home/wyx/g16/l101.exe)
 -------------------
 Title Card Required
 -------------------
 Structure from the checkpoint file:  "DDL-S1-cLR-11.chk"
 Charge =  0 Multiplicity = 1
 Z-Matrix found in chk file.
 O,0,2.815621,-1.576243,0.268713
 O,0,-3.445005,-1.635482,-0.117911
 N,0,-0.639568,1.517918,-0.276379
 H,0,-0.952106,2.473375,-0.320663
 C,0,-1.241157,-0.758478,-0.207429
 C,0,0.690852,1.302832,-0.030027
 C,0,-1.613122,0.541105,-0.276652
 C,0,-2.212799,-1.82233,-0.177811
 C,0,0.220402,-1.123938,-0.217835
 H,0,0.415998,-1.894536,0.527171
 H,0,0.492414,-1.569109,-1.181776
 C,0,1.147875,0.033718,0.053776
 C,0,2.51302,-0.388108,0.343741
 C,0,-2.999234,1.077919,-0.346075
 H,0,-3.01789,2.044402,-0.853819
 H,0,-3.683159,0.42184,-0.878341
 H,0,-3.416146,1.211824,0.65352
 C,0,-1.774326,-3.25608,-0.229394
 H,0,-2.537,-3.930844,-0.617207
 H,0,-0.885348,-3.413517,-0.84092
 H,0,-1.517841,-3.619608,0.77033
 C,0,3.590415,0.573699,0.769951
 H,0,3.937285,1.186228,-0.062084
 H,0,3.28413,1.242443,1.571062
 H,0,4.424707,-0.033782,1.112948
 C,0,1.453539,2.580551,0.113073
 H,0,1.692889,2.796192,1.154036
 H,0,2.379391,2.587432,-0.452949
 H,0,0.876162,3.430577,-0.251047
 Recover connectivity data from disk.
 ITRead=  0  0  0  0  0  0  0  0  0  0  0  0  0  0  0  0  0  0  0  0
 ITRead=  0  0  0  0  0  0  0  0  0
 MicOpt= -1 -1 -1 -1 -1 -1 -1 -1 -1 -1 -1 -1 -1 -1 -1 -1 -1 -1 -1 -1
 MicOpt= -1 -1 -1 -1 -1 -1 -1 -1 -1
 NAtoms=     29 NQM=       29 NQMF=       0 NMMI=      0 NMMIF=      0
                NMic=       0 NMicF=      0.
                    Isotopes and Nuclear Properties:
 (Nuclear quadrupole moments (NQMom) in fm**2, nuclear magnetic moments (NMagM)
  in nuclear magnetons)

  Atom         1           2           3           4           5           6           7           8           9          10
 IAtWgt=          16          16          14           1          12          12          12          12          12           1
 AtmWgt=  15.9949146  15.9949146  14.0030740   1.0078250  12.0000000  12.0000000  12.0000000  12.0000000  12.0000000   1.0078250
 NucSpn=           0           0           2           1           0           0           0           0           0           1
 AtZEff=   5.6000000   5.6000000   4.5500000   1.0000000   3.6000000   3.6000000   3.6000000   3.6000000   3.6000000   1.0000000
 NQMom=    0.0000000   0.0000000   2.0440000   0.0000000   0.0000000   0.0000000   0.0000000   0.0000000   0.0000000   0.0000000
 NMagM=    0.0000000   0.0000000   0.4037610   2.7928460   0.0000000   0.0000000   0.0000000   0.0000000   0.0000000   2.7928460
 AtZNuc=   8.0000000   8.0000000   7.0000000   1.0000000   6.0000000   6.0000000   6.0000000   6.0000000   6.0000000   1.0000000

  Atom        11          12          13          14          15          16          17          18          19          20
 IAtWgt=           1          12          12          12           1           1           1          12           1           1
 AtmWgt=   1.0078250  12.0000000  12.0000000  12.0000000   1.0078250   1.0078250   1.0078250  12.0000000   1.0078250   1.0078250
 NucSpn=           1           0           0           0           1           1           1           0           1           1
 AtZEff=   1.0000000   3.6000000   3.6000000   3.6000000   1.0000000   1.0000000   1.0000000   3.6000000   1.0000000   1.0000000
 NQMom=    0.0000000   0.0000000   0.0000000   0.0000000   0.0000000   0.0000000   0.0000000   0.0000000   0.0000000   0.0000000
 NMagM=    2.7928460   0.0000000   0.0000000   0.0000000   2.7928460   2.7928460   2.7928460   0.0000000   2.7928460   2.7928460
 AtZNuc=   1.0000000   6.0000000   6.0000000   6.0000000   1.0000000   1.0000000   1.0000000   6.0000000   1.0000000   1.0000000

  Atom        21          22          23          24          25          26          27          28          29
 IAtWgt=           1          12           1           1           1          12           1           1           1
 AtmWgt=   1.0078250  12.0000000   1.0078250   1.0078250   1.0078250  12.0000000   1.0078250   1.0078250   1.0078250
 NucSpn=           1           0           1           1           1           0           1           1           1
 AtZEff=   1.0000000   3.6000000   1.0000000   1.0000000   1.0000000   3.6000000   1.0000000   1.0000000   1.0000000
 NQMom=    0.0000000   0.0000000   0.0000000   0.0000000   0.0000000   0.0000000   0.0000000   0.0000000   0.0000000
 NMagM=    2.7928460   0.0000000   2.7928460   2.7928460   2.7928460   0.0000000   2.7928460   2.7928460   2.7928460
 AtZNuc=   1.0000000   6.0000000   1.0000000   1.0000000   1.0000000   6.0000000   1.0000000   1.0000000   1.0000000
 Leave Link  101 at Fri Jan 23 20:40:55 2026, MaxMem=  2147483648 cpu:               0.9 elap:               0.1
 (Enter /data/home/wyx/g16/l202.exe)
                          Input orientation:                          
 ---------------------------------------------------------------------
 Center     Atomic      Atomic             Coordinates (Angstroms)
 Number     Number       Type             X           Y           Z
 ---------------------------------------------------------------------
      1          8           0        2.815621   -1.576243    0.268713
      2          8           0       -3.445005   -1.635482   -0.117911
      3          7           0       -0.639568    1.517918   -0.276379
      4          1           0       -0.952106    2.473375   -0.320663
      5          6           0       -1.241157   -0.758478   -0.207429
      6          6           0        0.690852    1.302832   -0.030027
      7          6           0       -1.613122    0.541105   -0.276652
      8          6           0       -2.212799   -1.822330   -0.177811
      9          6           0        0.220402   -1.123938   -0.217835
     10          1           0        0.415998   -1.894536    0.527171
     11          1           0        0.492414   -1.569109   -1.181776
     12          6           0        1.147875    0.033718    0.053776
     13          6           0        2.513020   -0.388108    0.343741
     14          6           0       -2.999234    1.077919   -0.346075
     15          1           0       -3.017890    2.044402   -0.853819
     16          1           0       -3.683159    0.421840   -0.878341
     17          1           0       -3.416146    1.211824    0.653520
     18          6           0       -1.774326   -3.256080   -0.229394
     19          1           0       -2.537000   -3.930844   -0.617207
     20          1           0       -0.885348   -3.413517   -0.840920
     21          1           0       -1.517841   -3.619608    0.770330
     22          6           0        3.590415    0.573699    0.769951
     23          1           0        3.937285    1.186228   -0.062084
     24          1           0        3.284130    1.242443    1.571062
     25          1           0        4.424707   -0.033782    1.112948
     26          6           0        1.453539    2.580551    0.113073
     27          1           0        1.692889    2.796192    1.154036
     28          1           0        2.379391    2.587432   -0.452949
     29          1           0        0.876162    3.430577   -0.251047
 ---------------------------------------------------------------------
                    Distance matrix (angstroms):
                    1          2          3          4          5
     1  O    0.000000
     2  O    6.272832   0.000000
     3  N    4.670042   4.223686   0.000000
     4  H    5.562602   4.810235   1.006250   0.000000
     5  C    4.165681   2.373625   2.355556   3.246729   0.000000
     6  C    3.590677   5.074123   1.370025   2.038124   2.830747
     7  C    4.939064   2.849303   1.379120   2.042681   1.353538
     8  C    5.054201   1.247731   3.693512   4.479156   1.441092
     9  C    2.678894   3.702279   2.778917   3.784972   1.506594
    10  H    2.434400   3.923083   3.661250   4.655016   2.139259
    11  H    2.738843   4.079152   3.410405   4.378337   2.147497
    12  C    2.327992   4.889811   2.346658   3.240687   2.530470
    13  C    1.228357   6.104681   3.735812   4.542754   3.812454
    14  C    6.421455   2.759224   2.401350   2.477635   2.546058
    15  H    6.956939   3.776974   2.503405   2.176175   3.380937
    16  H    6.895086   2.206251   3.290470   3.460990   2.794038
    17  H    6.837859   2.950100   2.944111   2.934627   3.058415
    18  C    4.913001   2.330222   4.907233   5.788871   2.553971
    19  H    5.914351   2.518423   5.779742   6.604078   3.451236
    20  H    4.278321   3.199374   4.969725   5.910213   2.752661
    21  H    4.817245   2.905114   5.316120   6.215687   3.036220
    22  C    2.339614   7.427376   4.458600   5.043085   5.106276
    23  H    2.999800   7.903377   4.593857   5.062584   5.533468
    24  H    3.140160   7.511081   4.345611   4.799949   5.257845
    25  H    2.383501   8.124828   5.475845   6.103376   5.862644
    26  C    4.377034   6.467149   2.379487   2.446782   4.302699
    27  H    4.600273   6.903299   3.020004   3.045480   4.806027
    28  H    4.248209   7.202003   3.207671   3.336073   4.935966
    29  H    5.394432   6.659967   2.440562   2.064860   4.693945
                    6          7          8          9         10
     6  C    0.000000
     7  C    2.439129   0.000000
     8  C    4.268450   2.440329   0.000000
     9  C    2.479074   2.477426   2.531762   0.000000
    10  H    3.257173   3.270444   2.722643   1.089547   0.000000
    11  H    3.100637   3.115371   2.896592   1.096061   1.741333
    12  C    1.351497   2.826611   3.846125   1.508027   2.116107
    13  C    2.513817   4.274736   4.966123   2.472430   2.588527
    14  C    3.710419   1.488051   3.009691   3.902650   4.611058
    15  H    3.870830   2.136913   4.007091   4.574865   5.404993
    16  H    4.541779   2.159006   2.772905   4.250116   4.913670
    17  H    4.164487   2.136815   3.368270   4.409028   4.934649
    18  C    5.186572   3.800899   1.500186   2.919778   2.687696
    19  H    6.176987   4.579067   2.178074   3.954932   3.765149
    20  H    5.038442   4.060430   2.175710   2.617841   2.423320
    21  H    5.454293   4.291478   2.147591   3.197863   2.602832
    22  C    3.095007   5.307847   6.349528   3.900600   4.028405
    23  H    3.248685   5.591891   6.847507   4.379080   4.715696
    24  H    3.048315   5.281004   6.532046   4.264545   4.376817
    25  H    4.127300   6.222288   6.994387   4.542643   4.458171
    26  C    1.494903   3.703463   5.736899   3.918337   4.612415
    27  H    2.153185   4.249941   6.193461   4.406548   4.901667
    28  H    2.163383   4.489844   6.372591   4.300091   4.990349
    29  H    2.147205   3.813953   6.094266   4.601601   5.401315
                   11         12         13         14         15
    11  H    0.000000
    12  C    2.127269   0.000000
    13  C    2.793710   1.457957   0.000000
    14  C    4.460578   4.295201   5.745435   0.000000
    15  H    5.048490   4.713828   6.159726   1.091898   0.000000
    16  H    4.635878   4.935420   6.367271   1.086968   1.753822
    17  H    5.136024   4.751622   6.149045   1.091300   1.767446
    18  C    2.981780   4.409333   5.189902   4.505282   5.480097
    19  H    3.882509   5.454014   6.243164   5.037348   5.999234
    20  H    2.327284   4.100964   4.701641   4.988625   5.859760
    21  H    3.472231   4.578895   5.183861   5.050509   6.080215
    22  C    4.242461   2.602016   1.505825   6.702479   6.961989
    23  H    4.551124   3.020349   2.161425   6.943175   7.052501
    24  H    4.824585   2.885612   2.181656   6.571388   6.799900
    25  H    4.804780   3.444420   2.090879   7.647191   7.973661
    26  C    4.451974   2.565795   3.160482   4.721854   4.606084
    27  H    5.094410   3.023057   3.386585   5.217165   5.175723
    28  H    4.622630   2.880079   3.083247   5.587455   5.439322
    29  H    5.100037   3.421315   4.197074   4.534614   4.177135
                   16         17         18         19         20
    16  H    0.000000
    17  H    1.744124   0.000000
    18  C    4.194266   4.841206   0.000000
    19  H    4.508628   5.369793   1.089668   0.000000
    20  H    4.747537   5.480152   1.090428   1.745173   0.000000
    21  H    4.872373   5.192296   1.094251   1.749518   1.743172
    22  C    7.459545   7.036523   6.666809   7.730481   6.206871
    23  H    7.702060   7.388213   7.237720   8.270971   6.709846
    24  H    7.430752   6.762878   7.004736   8.089312   6.699266
    25  H    8.361239   7.952458   7.114288   8.163694   6.590667
    26  C    5.659382   5.087173   6.678522   7.671765   6.504563
    27  H    6.218520   5.372427   7.110939   8.141393   7.013390
    28  H    6.451764   6.058450   7.172864   8.166138   6.842546
    29  H    5.498491   4.915792   7.192839   8.122455   7.091720
                   21         22         23         24         25
    21  H    0.000000
    22  C    6.608941   0.000000
    23  H    7.317607   1.089859   0.000000
    24  H    6.880381   1.087570   1.759812   0.000000
    25  H    6.949058   1.087531   1.762585   1.771873   0.000000
    26  C    6.906740   3.004194   2.853736   2.695798   4.081951
    27  H    7.184602   2.947474   3.017987   2.262763   3.933608
    28  H    7.430490   2.648997   2.131474   2.593100   3.675067
    29  H    7.515289   4.070793   3.800432   3.729118   5.143388
                   26         27         28         29
    26  C    0.000000
    27  H    1.089676   0.000000
    28  H    1.085187   1.759905   0.000000
    29  H    1.090180   1.744633   1.735326   0.000000
 Stoichiometry    C11H15NO2
 Framework group  C1[X(C11H15NO2)]
 Deg. of freedom    81
 Full point group                 C1      NOp   1
 RotChk:  IX=0 Diff= 3.62D-16
 Largest Abelian subgroup         C1      NOp   1
 Largest concise Abelian subgroup C1      NOp   1
                         Standard orientation:                         
 ---------------------------------------------------------------------
 Center     Atomic      Atomic             Coordinates (Angstroms)
 Number     Number       Type             X           Y           Z
 ---------------------------------------------------------------------
      1          8           0        2.267870   -2.301544   -0.101041
      2          8           0       -3.636507   -0.220962    0.296377
      3          7           0        0.041687    1.803245   -0.165141
      4          1           0        0.071993    2.808998   -0.156093
      5          6           0       -1.290540   -0.136252   -0.054846
      6          6           0        1.236971    1.137946   -0.090030
      7          6           0       -1.200753    1.214301   -0.058094
      8          6           0       -2.557612   -0.809304    0.080345
      9          6           0       -0.053216   -0.972660   -0.253028
     10          1           0       -0.050618   -1.804713    0.450389
     11          1           0       -0.060091   -1.428480   -1.249788
     12          6           0        1.238598   -0.213529   -0.082495
     13          6           0        2.400456   -1.087256    0.028528
     14          6           0       -2.318045    2.190721    0.053972
     15          1           0       -2.061892    3.133690   -0.433302
     16          1           0       -3.240360    1.835278   -0.398239
     17          1           0       -2.548825    2.401019    1.099654
     18          6           0       -2.644829   -2.301570   -0.046519
     19          1           0       -3.630765   -2.656111   -0.345862
     20          1           0       -1.938080   -2.715278   -0.766508
     21          1           0       -2.417539   -2.786075    0.907933
     22          6           0        3.782513   -0.571480    0.330851
     23          1           0        4.222135   -0.066250   -0.528956
     24          1           0        3.815595    0.115148    1.173618
     25          1           0        4.391577   -1.443338    0.558069
     26          6           0        2.401681    2.072778   -0.024656
     27          1           0        2.815751    2.135896    0.981304
     28          1           0        3.204158    1.798438   -0.701708
     29          1           0        2.112897    3.086939   -0.301372
 ---------------------------------------------------------------------
 Rotational constants (GHZ):           1.0944382           0.4871695           0.3430034
 Leave Link  202 at Fri Jan 23 20:40:56 2026, MaxMem=  2147483648 cpu:               0.0 elap:               0.0
 (Enter /data/home/wyx/g16/l301.exe)
 Standard basis: TZVP (5D, 7F)
 Ernie: Thresh=  0.10000D-02 Tol=  0.10000D-05 Strict=F.
 There are   370 symmetry adapted cartesian basis functions of A   symmetry.
 There are   356 symmetry adapted basis functions of A   symmetry.
   356 basis functions,   610 primitive gaussians,   370 cartesian basis functions
    52 alpha electrons       52 beta electrons
       nuclear repulsion energy       900.6037425925 Hartrees.
 IExCor=20419 DFT=T Ex+Corr=CAM-B3LYP ExCW=0 ScaHFX=  1.000000
 ScaDFX=  1.000000  1.000000  1.000000  0.810000 ScalE2=  1.000000  1.000000
 IRadAn=      5 IRanWt=     -1 IRanGd=            0 ICorTp=0 IEmpDi=141
 HFx  wShort=  0.000000 wLong=  0.330000 cFull=  0.190000 cShort=  0.000000 cLong=  0.460000
 DFx  wShort=  0.000000 wLong=  0.330000 cFull=  0.190000 cShort=  0.000000 cLong=  0.460000
 NAtoms=   29 NActive=   29 NUniq=   29 SFac= 1.00D+00 NAtFMM=   60 NAOKFM=F Big=F
 Integral buffers will be    131072 words long.
 Raffenetti 1 integral format.
 Two-electron integral symmetry is turned on.
 R6Disp:  Grimme-D3(BJ) Dispersion energy=       -0.0261622880 Hartrees.
 Nuclear repulsion after empirical dispersion term =      900.5775803045 Hartrees.
 ------------------------------------------------------------------------------
 Polarizable Continuum Model (PCM)
 =================================
 Model                : PCM.
 Atomic radii         : UFF (Universal Force Field).
 Polarization charges : Total charges.
 Charge compensation  : None.
 Solution method      : On-the-fly selection.
 Cavity type          : Scaled VdW (van der Waals Surface) (Alpha=1.100).
 Cavity algorithm     : GePol (No added spheres)
                        Default sphere list used, NSphG=   29.
                        Lebedev-Laikov grids with approx.  5.0 points / Ang**2.
                        Smoothing algorithm: York/Karplus (Gamma=1.0000).
                        Polarization charges: spherical gaussians, with
                                              point-specific exponents (IZeta= 3).
                        Self-potential: point-specific (ISelfS= 7).
                        Self-field    : sphere-specific E.n sum rule (ISelfD= 2).
 1st derivatives      : Analytical E(r).r(x)/FMM algorithm (CHGder, D1EAlg=3).
                        Cavity 1st derivative terms included.
 Solvent              : TetraHydroFuran, Eps=   7.425700 Eps(inf)=   1.974025
 ------------------------------------------------------------------------------
 GePol: Number of generator spheres                  =      29
 GePol: Total number of spheres                      =      29
 GePol: Number of exposed spheres                    =      29 (100.00%)
 GePol: Number of points                             =    2114
 GePol: Average weight of points                     =       0.13
 GePol: Minimum weight of points                     =   0.28D-11
 GePol: Maximum weight of points                     =    0.20577
 GePol: Number of points with low weight             =     158
 GePol: Fraction of low-weight points (<1% of avg)   =       7.47%
 GePol: Cavity surface area                          =    268.870 Ang**2
 GePol: Cavity volume                                =    286.500 Ang**3
 Leave Link  301 at Fri Jan 23 20:40:56 2026, MaxMem=  2147483648 cpu:               0.6 elap:               0.0
 (Enter /data/home/wyx/g16/l302.exe)
 NPDir=0 NMtPBC=     1 NCelOv=     1 NCel=       1 NClECP=     1 NCelD=      1
         NCelK=      1 NCelE2=     1 NClLst=     1 CellRange=     0.0.
 One-electron integrals computed using PRISM.
 One-electron integral symmetry used in STVInt
 NBasis=   356 RedAO= T EigKep=  4.06D-05  NBF=   356
 NBsUse=   356 1.00D-06 EigRej= -1.00D+00 NBFU=   356
 Precomputing XC quadrature grid using
 IXCGrd= 4 IRadAn=           5 IRanWt=          -1 IRanGd=           0 AccXCQ= 0.00D+00.
 Generated NRdTot=       0 NPtTot=           0 NUsed=           0 NTot=          32
 NSgBfM=   366   366   366   366   366 MxSgAt=    29 MxSgA2=    29.
 Leave Link  302 at Fri Jan 23 20:40:56 2026, MaxMem=  2147483648 cpu:               3.1 elap:               0.2
 (Enter /data/home/wyx/g16/l303.exe)
 DipDrv:  MaxL=1.
 Leave Link  303 at Fri Jan 23 20:40:56 2026, MaxMem=  2147483648 cpu:               0.6 elap:               0.0
 (Enter /data/home/wyx/g16/l308.exe)
 Leave Link  308 at Fri Jan 23 20:40:57 2026, MaxMem=  2147483648 cpu:               0.7 elap:               0.1
 (Enter /data/home/wyx/g16/l401.exe)
 Initial guess from the checkpoint file:  "DDL-S1-cLR-11.chk"
 B after Tr=     0.000000    0.000000    0.000000
         Rot=    1.000000    0.000000    0.000000    0.000000 Ang=   0.00 deg.
 Guess basis will be translated and rotated to current coordinates.
 JPrj=2 DoOrth=T DoCkMO=T.
 Leave Link  401 at Fri Jan 23 20:40:57 2026, MaxMem=  2147483648 cpu:               2.2 elap:               0.2
 (Enter /data/home/wyx/g16/l502.exe)
 Integral symmetry usage will be decided dynamically.
 Closed shell SCF:
 Using DIIS extrapolation, IDIIS=  1040.
 NGot=  2147483648 LenX=  2147200095 LenY=  2147062754
 Requested convergence on RMS density matrix=1.00D-08 within 128 cycles.
 Requested convergence on MAX density matrix=1.00D-06.
 Requested convergence on             energy=1.00D-06.
 No special actions if energy rises.
 Fock matrices will be formed incrementally for  20 cycles.

 Cycle   1  Pass 1  IDiag  1:
 FoFJK:  IHMeth= 1 ICntrl=       0 DoSepK=T KAlg= 0 I1Cent=           0 FoldK=F
 IRaf=         1 NMat=       1 IRICut=       1 DoRegI=T DoRafI=F ISym2E= 0 IDoP0=0 IntGTp=1.
 FoFCou: FMM=F IPFlag=           0 FMFlag=      100000 FMFlg1=           0
         NFxFlg=           0 DoJE=T BraDBF=F KetDBF=F FulRan=T
         wScrn=  0.000000 ICntrl=       500 IOpCl=  0 I1Cent=           0 NGrid=           0
         NMat0=    1 NMatS0=      1 NMatT0=    0 NMatD0=    1 NMtDS0=    0 NMtDT0=    0
 Symmetry not used in FoFCou.
 Inv3:  Mode=1 IEnd=    13406988.
 Iteration    1 A*A^-1 deviation from unit magnitude is 4.00D-15 for    875.
 Iteration    1 A*A^-1 deviation from orthogonality  is 1.89D-15 for   2021    813.
 Iteration    1 A^-1*A deviation from unit magnitude is 4.00D-15 for    875.
 Iteration    1 A^-1*A deviation from orthogonality  is 2.10D-15 for   1766    738.
 E= -633.324652107748    
 DIIS: error= 5.40D-09 at cycle   1 NSaved=   1.
 NSaved= 1 IEnMin= 1 EnMin= -633.324652107748     IErMin= 1 ErrMin= 5.40D-09
 ErrMax= 5.40D-09  0.00D+00 EMaxC= 1.00D-01 BMatC= 1.47D-14 BMatP= 1.47D-14
 IDIUse=1 WtCom= 1.00D+00 WtEn= 0.00D+00
 Coeff-Com:  0.100D+01
 Coeff:      0.100D+01
 Gap=     0.235 Goal=   None    Shift=    0.000
 RMSDP=1.61D-09 MaxDP=9.59D-08              OVMax= 1.23D-07

 Error on total polarization charges =  0.01443
 SCF Done:  E(RCAM-B3LYP) =  -633.324652108     A.U. after    1 cycles
            NFock=  1  Conv=0.16D-08     -V/T= 2.0041
 KE= 6.307390893886D+02 PE=-3.277225150939D+03 EE= 1.112583829138D+03
 Leave Link  502 at Fri Jan 23 20:41:03 2026, MaxMem=  2147483648 cpu:              85.5 elap:               5.6
 (Enter /data/home/wyx/g16/l801.exe)
 DoSCS=F DFT=T ScalE2(SS,OS)=  1.000000  1.000000
 ExpMin= 9.52D-02 ExpMax= 2.70D+04 ExpMxC= 9.22D+02 IAcc=3 IRadAn=         5 AccDes= 0.00D+00
 HarFok:  IExCor=  205 AccDes= 0.00D+00 IRadAn=         5 IDoV=-2 UseB2=F ITyADJ=14
 ICtDFT= 12500011 ScaDFX=  1.000000  1.000000  1.000000  1.000000
 Largest valence mixing into a core orbital is  5.63D-05
 Largest core mixing into a valence orbital is  1.17D-05
 Range of M.O.s used for correlation:    15   356
 NBasis=   356 NAE=    52 NBE=    52 NFC=    14 NFV=     0
 NROrb=    342 NOA=    38 NOB=    38 NVA=   304 NVB=   304

 **** Warning!!: The largest alpha MO coefficient is  0.42110170D+02

 Leave Link  801 at Fri Jan 23 20:41:03 2026, MaxMem=  2147483648 cpu:               1.0 elap:               0.1
 (Enter /data/home/wyx/g16/l914.exe)
 RHF ground state
 Two-electron integrals replicated using symmetry.
 MDV=  2147483648 DFT=T DoStab=F Mixed=T DoRPA=T DoScal=F NonHer=T
 NEqPCM:  Using equilibrium solvation (IEInf=0, Eps=   7.4257, EpsInf=   1.9740)
 Making orbital integer symmetry assigments:
 Orbital symmetries:
       Occupied  (A) (A) (A) (A) (A) (A) (A) (A) (A) (A) (A) (A)
                 (A) (A) (A) (A) (A) (A) (A) (A) (A) (A) (A) (A)
                 (A) (A) (A) (A) (A) (A) (A) (A) (A) (A) (A) (A)
                 (A) (A) (A) (A) (A) (A) (A) (A) (A) (A) (A) (A)
                 (A) (A) (A) (A)
       Virtual   (A) (A) (A) (A) (A) (A) (A) (A) (A) (A) (A) (A)
                 (A) (A) (A) (A) (A) (A) (A) (A) (A) (A) (A) (A)
                 (A) (A) (A) (A) (A) (A) (A) (A) (A) (A) (A) (A)
                 (A) (A) (A) (A) (A) (A) (A) (A) (A) (A) (A) (A)
                 (A) (A) (A) (A) (A) (A) (A) (A) (A) (A) (A) (A)
                 (A) (A) (A) (A) (A) (A) (A) (A) (A) (A) (A) (A)
                 (A) (A) (A) (A) (A) (A) (A) (A) (A) (A) (A) (A)
                 (A) (A) (A) (A) (A) (A) (A) (A) (A) (A) (A) (A)
                 (A) (A) (A) (A) (A) (A) (A) (A) (A) (A) (A) (A)
                 (A) (A) (A) (A) (A) (A) (A) (A) (A) (A) (A) (A)
                 (A) (A) (A) (A) (A) (A) (A) (A) (A) (A) (A) (A)
                 (A) (A) (A) (A) (A) (A) (A) (A) (A) (A) (A) (A)
                 (A) (A) (A) (A) (A) (A) (A) (A) (A) (A) (A) (A)
                 (A) (A) (A) (A) (A) (A) (A) (A) (A) (A) (A) (A)
                 (A) (A) (A) (A) (A) (A) (A) (A) (A) (A) (A) (A)
                 (A) (A) (A) (A) (A) (A) (A) (A) (A) (A) (A) (A)
                 (A) (A) (A) (A) (A) (A) (A) (A) (A) (A) (A) (A)
                 (A) (A) (A) (A) (A) (A) (A) (A) (A) (A) (A) (A)
                 (A) (A) (A) (A) (A) (A) (A) (A) (A) (A) (A) (A)
                 (A) (A) (A) (A) (A) (A) (A) (A) (A) (A) (A) (A)
                 (A) (A) (A) (A) (A) (A) (A) (A) (A) (A) (A) (A)
                 (A) (A) (A) (A) (A) (A) (A) (A) (A) (A) (A) (A)
                 (A) (A) (A) (A) (A) (A) (A) (A) (A) (A) (A) (A)
                 (A) (A) (A) (A) (A) (A) (A) (A) (A) (A) (A) (A)
                 (A) (A) (A) (A) (A) (A) (A) (A) (A) (A) (A) (A)
                 (A) (A) (A) (A)
 PCM Corrected Linear-Response:
 Compute the excitation energies in the ground state reaction field.
    24 initial guesses have been made.
 Convergence on wavefunction:    0.000001000000000
 Davidson Disk Diagonalization:  ConvIn= 1.00D-06 SkipCon=T Conv= 1.00D-06.
 Max sub-space:  2000 roots to seek:    24 dimension of matrix:        23104
 Iteration     1 Dimension    24 NMult     0 NNew     24
 CISAX will form    24 AO SS matrices at one time.
 NMat=    24 NSing=    24 JSym2X= 0.
 FoFJK:  IHMeth= 1 ICntrl=       0 DoSepK=T KAlg= 0 I1Cent=           0 FoldK=F
 IRaf=         1 NMat=      48 IRICut=       1 DoRegI=T DoRafI=F ISym2E= 0 IDoP0=3 IntGTp=3.
 FoFCou: FMM=F IPFlag=           0 FMFlag=      100000 FMFlg1=           0
         NFxFlg=           0 DoJE=F BraDBF=F KetDBF=F FulRan=T
         wScrn=  0.000000 ICntrl=       500 IOpCl=  0 I1Cent=           0 NGrid=           0
         NMat0=   24 NMatS0=     24 NMatT0=    0 NMatD0=   24 NMtDS0=    0 NMtDT0=    0
 Symmetry not used in FoFCou.
 New state      3 was old state      4
 New state      4 was old state      3
 New state      5 was old state      6
 New state      6 was old state      5
 Excitation Energies [eV] at current iteration:
 Root      1 :     3.947497992715776
 Root      2 :     4.119747928906524
 Root      3 :     4.508774071213666
 Root      4 :     5.578636964733764
 Root      5 :     6.234027868815889
 Root      6 :     6.597438863165774
 Root      7 :     6.750108189050999
 Root      8 :     6.805077048951574
 Root      9 :     6.885480590781468
 Root     10 :     7.099758857703693
 Root     11 :     7.370394687461834
 Root     12 :     7.487692398776262
 Root     13 :     7.529575719955436
 Root     14 :     7.649548099261270
 Root     15 :     7.754440016122203
 Root     16 :     8.102680419224594
 Root     17 :     8.194644596319423
 Root     18 :     8.271682291546554
 Root     19 :     8.315660363540964
 Root     20 :     8.576020593276406
 Root     21 :     8.733574130759139
 Root     22 :     8.934388869859905
 Root     23 :     9.032958789577268
 Root     24 :     9.130967842883393
 Iteration     2 Dimension    36 NMult    24 NNew     12
 CISAX will form    12 AO SS matrices at one time.
 NMat=    12 NSing=    12 JSym2X= 0.
 Root      1 not converged, maximum delta is    0.175509274484635
 Root      2 not converged, maximum delta is    0.169669766142018
 Root      3 not converged, maximum delta is    0.096795295480847
 Root      4 not converged, maximum delta is    0.231757161926280
 New state      5 was old state      6
 Root      5 not converged, maximum delta is    0.208751150059092
 New state      6 was old state      5
 Root      6 not converged, maximum delta is    0.106167559879520
 Excitation Energies [eV] at current iteration:
 Root      1 :     3.508761659325105   Change is   -0.438736333390671
 Root      2 :     3.867040058020621   Change is   -0.252707870885903
 Root      3 :     4.247102199009988   Change is   -0.261671872203678
 Root      4 :     5.256181444315188   Change is   -0.322455520418576
 Root      5 :     5.767469541663365   Change is   -0.829969321502409
 Root      6 :     6.102713433726843   Change is   -0.131314435089045
 Iteration     3 Dimension    48 NMult    36 NNew     12
 CISAX will form    12 AO SS matrices at one time.
 NMat=    12 NSing=    12 JSym2X= 0.
 Root      1 not converged, maximum delta is    0.010954323247388
 Root      2 not converged, maximum delta is    0.010883273050708
 Root      3 not converged, maximum delta is    0.017212291591643
 Root      4 not converged, maximum delta is    0.028987350816144
 Root      5 not converged, maximum delta is    0.027713408456370
 Root      6 not converged, maximum delta is    0.017760356494354
 Excitation Energies [eV] at current iteration:
 Root      1 :     3.488809339153113   Change is   -0.019952320171992
 Root      2 :     3.854876375214042   Change is   -0.012163682806578
 Root      3 :     4.233203789329975   Change is   -0.013898409680013
 Root      4 :     5.233046796955505   Change is   -0.023134647359683
 Root      5 :     5.723812755001920   Change is   -0.043656786661445
 Root      6 :     6.093956716137471   Change is   -0.008756717589372
 Iteration     4 Dimension    60 NMult    48 NNew     12
 CISAX will form    12 AO SS matrices at one time.
 NMat=    12 NSing=    12 JSym2X= 0.
 Root      1 not converged, maximum delta is    0.002512358860903
 Root      2 not converged, maximum delta is    0.001776704148265
 Root      3 not converged, maximum delta is    0.002197329236760
 Root      4 not converged, maximum delta is    0.003302789347249
 Root      5 not converged, maximum delta is    0.005628512408683
 Root      6 not converged, maximum delta is    0.004321982206547
 Excitation Energies [eV] at current iteration:
 Root      1 :     3.487094283460912   Change is   -0.001715055692202
 Root      2 :     3.853929089810956   Change is   -0.000947285403087
 Root      3 :     4.232587404845220   Change is   -0.000616384484755
 Root      4 :     5.230726931435181   Change is   -0.002319865520324
 Root      5 :     5.718494103129996   Change is   -0.005318651871924
 Root      6 :     6.093328988751103   Change is   -0.000627727386368
 Iteration     5 Dimension    72 NMult    60 NNew     12
 CISAX will form    12 AO SS matrices at one time.
 NMat=    12 NSing=    12 JSym2X= 0.
 Root      1 not converged, maximum delta is    0.000799172484954
 Root      2 not converged, maximum delta is    0.000300590077964
 Root      3 not converged, maximum delta is    0.000646507729329
 Root      4 not converged, maximum delta is    0.000637529098663
 Root      5 not converged, maximum delta is    0.001011902020472
 Root      6 not converged, maximum delta is    0.001128381202110
 Excitation Energies [eV] at current iteration:
 Root      1 :     3.486984326237185   Change is   -0.000109957223726
 Root      2 :     3.853884261173440   Change is   -0.000044828637516
 Root      3 :     4.232547347519841   Change is   -0.000040057325379
 Root      4 :     5.230549285276878   Change is   -0.000177646158304
 Root      5 :     5.718072005477246   Change is   -0.000422097652750
 Root      6 :     6.093276399939140   Change is   -0.000052588811963
 Iteration     6 Dimension    84 NMult    72 NNew     12
 CISAX will form    12 AO SS matrices at one time.
 NMat=    12 NSing=    12 JSym2X= 0.
 Root      1 not converged, maximum delta is    0.000220598801226
 Root      2 not converged, maximum delta is    0.000073581772077
 Root      3 not converged, maximum delta is    0.000211032736955
 Root      4 not converged, maximum delta is    0.000426622500842
 Root      5 not converged, maximum delta is    0.000331189732528
 Root      6 not converged, maximum delta is    0.000294977733884
 Excitation Energies [eV] at current iteration:
 Root      1 :     3.486978776861704   Change is   -0.000005549375481
 Root      2 :     3.853880856055509   Change is   -0.000003405117931
 Root      3 :     4.232544549912125   Change is   -0.000002797607717
 Root      4 :     5.230532296306999   Change is   -0.000016988969878
 Root      5 :     5.718035068036014   Change is   -0.000036937441233
 Root      6 :     6.093271201238214   Change is   -0.000005198700926
 Iteration     7 Dimension    96 NMult    84 NNew     12
 CISAX will form    12 AO SS matrices at one time.
 NMat=    12 NSing=    12 JSym2X= 0.
 Root      1 not converged, maximum delta is    0.000019103553429
 Root      2 not converged, maximum delta is    0.000013086958949
 Root      3 not converged, maximum delta is    0.000059174715141
 Root      4 not converged, maximum delta is    0.000167760927724
 Root      5 not converged, maximum delta is    0.000141693912329
 Root      6 not converged, maximum delta is    0.000178210137203
 Excitation Energies [eV] at current iteration:
 Root      1 :     3.486978433076038   Change is   -0.000000343785665
 Root      2 :     3.853880687794385   Change is   -0.000000168261124
 Root      3 :     4.232544323935019   Change is   -0.000000225977105
 Root      4 :     5.230530696450886   Change is   -0.000001599856113
 Root      5 :     5.718032038124481   Change is   -0.000003029911533
 Root      6 :     6.093270609411674   Change is   -0.000000591826541
 Iteration     8 Dimension   108 NMult    96 NNew     12
 CISAX will form    12 AO SS matrices at one time.
 NMat=    12 NSing=    12 JSym2X= 0.
 Root      1 not converged, maximum delta is    0.000003403758600
 Root      2 not converged, maximum delta is    0.000002771831121
 Root      3 not converged, maximum delta is    0.000006775130099
 Root      4 not converged, maximum delta is    0.000028780121114
 Root      5 not converged, maximum delta is    0.000034423862993
 Root      6 not converged, maximum delta is    0.000042128382749
 Excitation Energies [eV] at current iteration:
 Root      1 :     3.486978419391078   Change is   -0.000000013684960
 Root      2 :     3.853880680035603   Change is   -0.000000007758782
 Root      3 :     4.232544314308323   Change is   -0.000000009626696
 Root      4 :     5.230530582562073   Change is   -0.000000113888813
 Root      5 :     5.718031813357448   Change is   -0.000000224767033
 Root      6 :     6.093270556165708   Change is   -0.000000053245966
 Iteration     9 Dimension   120 NMult   108 NNew     12
 CISAX will form    12 AO SS matrices at one time.
 NMat=    12 NSing=    12 JSym2X= 0.
 Root      1 has converged.
 Root      2 has converged.
 Root      3 has converged.
 Root      4 not converged, maximum delta is    0.000004896709749
 Root      5 not converged, maximum delta is    0.000008332362415
 Root      6 not converged, maximum delta is    0.000005709929559
 Excitation Energies [eV] at current iteration:
 Root      1 :     3.486978418837666   Change is   -0.000000000553413
 Root      2 :     3.853880679753308   Change is   -0.000000000282296
 Root      3 :     4.232544313957336   Change is   -0.000000000350988
 Root      4 :     5.230530576741413   Change is   -0.000000005820661
 Root      5 :     5.718031799739801   Change is   -0.000000013617647
 Root      6 :     6.093270552860756   Change is   -0.000000003304952
 Iteration    10 Dimension   126 NMult   120 NNew      6
 CISAX will form     6 AO SS matrices at one time.
 NMat=     6 NSing=     6 JSym2X= 0.
 Root      1 has converged.
 Root      2 has converged.
 Root      3 has converged.
 Root      4 not converged, maximum delta is    0.000001091508413
 Root      5 not converged, maximum delta is    0.000002062969562
 Root      6 has converged.
 Excitation Energies [eV] at current iteration:
 Root      1 :     3.486978418835025   Change is   -0.000000000002640
 Root      2 :     3.853880679752795   Change is   -0.000000000000512
 Root      3 :     4.232544313956676   Change is   -0.000000000000660
 Root      4 :     5.230530576464529   Change is   -0.000000000276883
 Root      5 :     5.718031798973355   Change is   -0.000000000766446
 Root      6 :     6.093270552679066   Change is   -0.000000000181690
 Iteration    11 Dimension   130 NMult   126 NNew      4
 CISAX will form     4 AO SS matrices at one time.
 NMat=     4 NSing=     4 JSym2X= 0.
 Root      1 has converged.
 Root      2 has converged.
 Root      3 has converged.
 Root      4 has converged.
 Root      5 has converged.
 Root      6 has converged.
 Excitation Energies [eV] at current iteration:
 Root      1 :     3.486978418835001   Change is   -0.000000000000024
 Root      2 :     3.853880679752774   Change is   -0.000000000000021
 Root      3 :     4.232544313956597   Change is   -0.000000000000078
 Root      4 :     5.230530576450352   Change is   -0.000000000014177
 Root      5 :     5.718031798928125   Change is   -0.000000000045230
 Root      6 :     6.093270552677528   Change is   -0.000000000001538
 Convergence achieved on expansion vectors.
 PCM Corrected Linear-Response:
 The state of interest is root number   1
 Excitation energy =    3.4870 eV, Total energy =  -633.196508009    
 Recompute the excitation energies using the linear response reaction field.
 Convergence on wavefunction:    0.000001000000000
 Davidson Disk Diagonalization:  ConvIn= 1.00D-06 SkipCon=T Conv= 1.00D-06.
 Max sub-space:  2000 roots to seek:     6 dimension of matrix:        23104
 Iteration     1 Dimension     6 NMult     0 NNew      6
 CISAX will form     6 AO SS matrices at one time.
 NMat=     6 NSing=     6 JSym2X= 0.
 Excitation Energies [eV] at current iteration:
 Root      1 :     3.580309660282676
 Root      2 :     3.882647541353774
 Root      3 :     4.259920097997639
 Root      4 :     5.308365748383146
 Root      5 :     5.889103586371499
 Root      6 :     6.069322503353821
 Iteration     2 Dimension    18 NMult     6 NNew     12
 CISAX will form    12 AO SS matrices at one time.
 NMat=    12 NSing=    12 JSym2X= 0.
 Root      1 not converged, maximum delta is    0.046143847577027
 Root      2 not converged, maximum delta is    0.055971736403563
 Root      3 not converged, maximum delta is    0.005409171145462
 Root      4 not converged, maximum delta is    0.225232851385562
 Root      5 not converged, maximum delta is    0.249054315766848
 Root      6 not converged, maximum delta is    0.072423768794837
 Excitation Energies [eV] at current iteration:
 Root      1 :     3.372404488356814   Change is   -0.207905171925863
 Root      2 :     3.847388092719886   Change is   -0.035259448633887
 Root      3 :     4.228024684499517   Change is   -0.031895413498123
 Root      4 :     5.100203864863668   Change is   -0.208161883519478
 Root      5 :     5.597669246184544   Change is   -0.291434340186956
 Root      6 :     6.053406385503718   Change is   -0.015916117850103
 Iteration     3 Dimension    30 NMult    18 NNew     12
 CISAX will form    12 AO SS matrices at one time.
 NMat=    12 NSing=    12 JSym2X= 0.
 Root      1 not converged, maximum delta is    0.002811692138265
 Root      2 not converged, maximum delta is    0.000951745416141
 Root      3 not converged, maximum delta is    0.000986777462759
 Root      4 not converged, maximum delta is    0.012062146557055
 Root      5 not converged, maximum delta is    0.009476129661696
 Root      6 not converged, maximum delta is    0.007714249006760
 Excitation Energies [eV] at current iteration:
 Root      1 :     3.369515322085277   Change is   -0.002889166271536
 Root      2 :     3.847086284206994   Change is   -0.000301808512892
 Root      3 :     4.227746179585812   Change is   -0.000278504913706
 Root      4 :     5.091833448685507   Change is   -0.008370416178162
 Root      5 :     5.589517504390306   Change is   -0.008151741794237
 Root      6 :     6.052355223680239   Change is   -0.001051161823479
 Iteration     4 Dimension    42 NMult    30 NNew     12
 CISAX will form    12 AO SS matrices at one time.
 NMat=    12 NSing=    12 JSym2X= 0.
 Root      1 not converged, maximum delta is    0.001724208063958
 Root      2 not converged, maximum delta is    0.000306987546221
 Root      3 not converged, maximum delta is    0.000230907421928
 Root      4 not converged, maximum delta is    0.002186913979210
 Root      5 not converged, maximum delta is    0.003135011236052
 Root      6 not converged, maximum delta is    0.008941277983130
 Excitation Energies [eV] at current iteration:
 Root      1 :     3.369112918308711   Change is   -0.000402403776567
 Root      2 :     3.847067427117700   Change is   -0.000018857089295
 Root      3 :     4.227732179698410   Change is   -0.000013999887401
 Root      4 :     5.090745727698867   Change is   -0.001087720986640
 Root      5 :     5.588370906294521   Change is   -0.001146598095785
 Root      6 :     6.051983938181747   Change is   -0.000371285498492
 Iteration     5 Dimension    54 NMult    42 NNew     12
 CISAX will form    12 AO SS matrices at one time.
 NMat=    12 NSing=    12 JSym2X= 0.
 Root      1 not converged, maximum delta is    0.000679614099706
 Root      2 not converged, maximum delta is    0.000111892633434
 Root      3 not converged, maximum delta is    0.000089120879495
 Root      4 not converged, maximum delta is    0.000881685166161
 Root      5 not converged, maximum delta is    0.000886174290883
 Root      6 not converged, maximum delta is    0.004312975987895
 Excitation Energies [eV] at current iteration:
 Root      1 :     3.369082566408505   Change is   -0.000030351900206
 Root      2 :     3.847066234549006   Change is   -0.000001192568694
 Root      3 :     4.227731248997388   Change is   -0.000000930701023
 Root      4 :     5.090627084133767   Change is   -0.000118643565100
 Root      5 :     5.588235510448434   Change is   -0.000135395846087
 Root      6 :     6.051893699321973   Change is   -0.000090238859775
 Iteration     6 Dimension    66 NMult    54 NNew     12
 CISAX will form    12 AO SS matrices at one time.
 NMat=    12 NSing=    12 JSym2X= 0.
 Root      1 not converged, maximum delta is    0.000114291411013
 Root      2 not converged, maximum delta is    0.000027411008716
 Root      3 not converged, maximum delta is    0.000021358964023
 Root      4 not converged, maximum delta is    0.000386859126733
 Root      5 not converged, maximum delta is    0.000482799716211
 Root      6 not converged, maximum delta is    0.000761903500804
 Excitation Energies [eV] at current iteration:
 Root      1 :     3.369080373181027   Change is   -0.000002193227478
 Root      2 :     3.847066112566199   Change is   -0.000000121982807
 Root      3 :     4.227731168971819   Change is   -0.000000080025569
 Root      4 :     5.090614711005779   Change is   -0.000012373127988
 Root      5 :     5.588218736131524   Change is   -0.000016774316909
 Root      6 :     6.051883051712890   Change is   -0.000010647609082
 Iteration     7 Dimension    78 NMult    66 NNew     12
 CISAX will form    12 AO SS matrices at one time.
 NMat=    12 NSing=    12 JSym2X= 0.
 Root      1 not converged, maximum delta is    0.000015938061944
 Root      2 not converged, maximum delta is    0.000002804608756
 Root      3 not converged, maximum delta is    0.000007404488003
 Root      4 not converged, maximum delta is    0.000168645376227
 Root      5 not converged, maximum delta is    0.000227757910298
 Root      6 not converged, maximum delta is    0.000118041423685
 Excitation Energies [eV] at current iteration:
 Root      1 :     3.369080271879406   Change is   -0.000000101301621
 Root      2 :     3.847066107188505   Change is   -0.000000005377694
 Root      3 :     4.227731162964222   Change is   -0.000000006007597
 Root      4 :     5.090613446112755   Change is   -0.000001264893024
 Root      5 :     5.588216708039248   Change is   -0.000002028092277
 Root      6 :     6.051881895495178   Change is   -0.000001156217712
 Iteration     8 Dimension    90 NMult    78 NNew     12
 CISAX will form    12 AO SS matrices at one time.
 NMat=    12 NSing=    12 JSym2X= 0.
 Root      1 not converged, maximum delta is    0.000004310384259
 Root      2 has converged.
 Root      3 not converged, maximum delta is    0.000001681029527
 Root      4 not converged, maximum delta is    0.000038218582813
 Root      5 not converged, maximum delta is    0.000056213408718
 Root      6 not converged, maximum delta is    0.000052940175953
 Excitation Energies [eV] at current iteration:
 Root      1 :     3.369080266710167   Change is   -0.000000005169239
 Root      2 :     3.847066106965221   Change is   -0.000000000223284
 Root      3 :     4.227731162642234   Change is   -0.000000000321987
 Root      4 :     5.090613350543371   Change is   -0.000000095569385
 Root      5 :     5.588216508932844   Change is   -0.000000199106403
 Root      6 :     6.051881739400080   Change is   -0.000000156095099
 Iteration     9 Dimension   100 NMult    90 NNew     10
 CISAX will form    10 AO SS matrices at one time.
 NMat=    10 NSing=    10 JSym2X= 0.
 Root      1 has converged.
 Root      2 has converged.
 Root      3 has converged.
 Root      4 not converged, maximum delta is    0.000011167960791
 Root      5 not converged, maximum delta is    0.000015864293805
 Root      6 not converged, maximum delta is    0.000022745991214
 Excitation Energies [eV] at current iteration:
 Root      1 :     3.369080266566058   Change is   -0.000000000144110
 Root      2 :     3.847066106962614   Change is   -0.000000000002607
 Root      3 :     4.227731162626990   Change is   -0.000000000015245
 Root      4 :     5.090613341534545   Change is   -0.000000009008826
 Root      5 :     5.588216488611002   Change is   -0.000000020321843
 Root      6 :     6.051881719979682   Change is   -0.000000019420397
 Iteration    10 Dimension   106 NMult   100 NNew      6
 CISAX will form     6 AO SS matrices at one time.
 NMat=     6 NSing=     6 JSym2X= 0.
 Root      1 has converged.
 Root      2 has converged.
 Root      3 has converged.
 Root      4 not converged, maximum delta is    0.000002637999904
 Root      5 not converged, maximum delta is    0.000004434689362
 Root      6 not converged, maximum delta is    0.000007933179792
 Excitation Energies [eV] at current iteration:
 Root      1 :     3.369080266565618   Change is   -0.000000000000439
 Root      2 :     3.847066106961931   Change is   -0.000000000000684
 Root      3 :     4.227731162626698   Change is   -0.000000000000292
 Root      4 :     5.090613340881259   Change is   -0.000000000653285
 Root      5 :     5.588216486866469   Change is   -0.000000001744532
 Root      6 :     6.051881717918695   Change is   -0.000000002060987
 Iteration    11 Dimension   112 NMult   106 NNew      6
 CISAX will form     6 AO SS matrices at one time.
 NMat=     6 NSing=     6 JSym2X= 0.
 Root      1 has converged.
 Root      2 has converged.
 Root      3 has converged.
 Root      4 has converged.
 Root      5 has converged.
 Root      6 not converged, maximum delta is    0.000001762336926
 Excitation Energies [eV] at current iteration:
 Root      1 :     3.369080266565667   Change is    0.000000000000049
 Root      2 :     3.847066106961696   Change is   -0.000000000000235
 Root      3 :     4.227731162626698   Change is    0.000000000000000
 Root      4 :     5.090613340837059   Change is   -0.000000000044200
 Root      5 :     5.588216486733645   Change is   -0.000000000132824
 Root      6 :     6.051881717708689   Change is   -0.000000000210006
 Iteration    12 Dimension   114 NMult   112 NNew      2
 CISAX will form     2 AO SS matrices at one time.
 NMat=     2 NSing=     2 JSym2X= 0.
 Root      1 has converged.
 Root      2 has converged.
 Root      3 has converged.
 Root      4 has converged.
 Root      5 has converged.
 Root      6 has converged.
 Excitation Energies [eV] at current iteration:
 Root      1 :     3.369080266565593   Change is   -0.000000000000073
 Root      2 :     3.847066106961653   Change is   -0.000000000000043
 Root      3 :     4.227731162626659   Change is   -0.000000000000039
 Root      4 :     5.090613340836543   Change is   -0.000000000000517
 Root      5 :     5.588216486733468   Change is   -0.000000000000177
 Root      6 :     6.051881717688843   Change is   -0.000000000019845
 Convergence achieved on expansion vectors.
 ***********************************************************************
 Excited states from <AA,BB:AA,BB> singles matrix:
 ***********************************************************************
 
 1PDM for each excited state written to RWF  633
 Ground to excited state transition densities written to RWF  633
 Ground to excited state transition electric dipole moments (Au):
       state          X           Y           Z        Dip. S.      Osc.
         1         1.6482     -0.1425     -0.0380      2.7382      0.2260
         2         0.2232     -0.0423     -0.0471      0.0538      0.0051
         3        -0.0079     -0.0932      0.0398      0.0103      0.0011
         4        -0.1058     -1.7742      0.0955      3.1680      0.3951
         5         0.1855      1.4455     -0.0126      2.1240      0.2908
         6         0.0220      0.1759      0.0462      0.0335      0.0050
 Ground to excited state transition velocity dipole moments (Au):
       state          X           Y           Z        Dip. S.      Osc.
         1        -0.1965      0.0145      0.0048      0.0388      0.2091
         2        -0.0312      0.0051      0.0047      0.0010      0.0048
         3         0.0010      0.0139     -0.0028      0.0002      0.0009
         4         0.0233      0.3161     -0.0142      0.1007      0.3588
         5        -0.0371     -0.2919      0.0032      0.0866      0.2812
         6        -0.0060     -0.0359     -0.0299      0.0022      0.0067
 Ground to excited state transition magnetic dipole moments (Au):
       state          X           Y           Z
         1         0.0835     -0.0161      1.4592
         2        -0.7954      0.2648      0.3871
         3        -0.0426      0.9687      0.0754
         4         0.0638     -0.0703      0.2554
         5        -0.1927      0.0885     -0.2506
         6        -0.0334     -0.0042     -0.0042
 Ground to excited state transition velocity quadrupole moments (Au):
       state          XX          YY          ZZ          XY          XZ          YZ
         1         0.2648     -0.1244     -0.0053      0.5315     -0.0460     -0.0066
         2         0.0334      0.0081     -0.0016      0.0917     -0.0362     -0.0700
         3        -0.0130      0.0086     -0.0185      0.0269     -0.0774      0.0017
         4        -1.3876      0.3071      0.0184      0.1713      0.0625     -0.0263
         5         0.5925     -0.3323     -0.0448     -0.1074     -0.0466     -0.0644
         6        -0.1773     -0.1345      0.1173      0.0036      0.0197      0.0477
 <0|del|b> * <b|rxdel|0> + <0|del|b> * <b|delr+rdel|0>
 Rotatory Strengths (R) in cgs (10**-40 erg-esu-cm/Gauss)
       state          XX          YY          ZZ    R(velocity)    E-M Angle
         1        28.6674    -30.3959    -53.1057    -18.2781       91.91
         2         9.4494     70.9249     59.4315     46.6019       18.51
         3        32.4887     -0.4005     28.1248     20.0710       17.02
         4       -90.8380     -0.6169     -0.6387    -30.6979      106.37
         5       -69.8458     15.6397    -12.8306    -22.3456      101.63
         6         1.3879      0.2353     -0.1082      0.5050       72.69
 1/2[<0|r|b>*<b|rxdel|0> + (<0|rxdel|b>*<b|r|0>)*]
 Rotatory Strengths (R) in cgs (10**-40 erg-esu-cm/Gauss)
       state          XX          YY          ZZ     R(length)
         1       -97.3389     -1.6238     39.2274    -19.9118
         2       125.5731      7.9131     12.8884     48.7916
         3        -0.2386     63.8705     -2.1224     20.5032
         4         4.7721    -88.1507    -17.2419    -33.5402
         5        25.2808    -90.4174     -2.2363    -22.4576
         6         0.5211      0.5174      0.1366      0.3917
  1/2[<0|del|b>*<b|r|0> + (<0|r|b>*<b|del|0>)*] (Au)
       state          X           Y           Z        Dip. S.   Osc.(frdel)
         1        -0.3238     -0.0021     -0.0002      0.3261      0.2174
         2        -0.0070     -0.0002     -0.0002      0.0074      0.0049
         3        -0.0000     -0.0013     -0.0001      0.0014      0.0009
         4        -0.0025     -0.5608     -0.0014      0.5647      0.3764
         5        -0.0069     -0.4220     -0.0000      0.4289      0.2859
         6        -0.0001     -0.0063     -0.0014      0.0078      0.0052

 Excitation energies and oscillator strengths:
 
 Excited State   1:      Singlet-A      3.3691 eV  368.01 nm  f=0.2260  <S**2>=0.000
      52 -> 53         0.69773
 This state for optimization and/or second-order correction.
 Total Energy, E(TD-HF/TD-DFT) =  -633.200840686    
 Copying the excited state density for this state as the 1-particle RhoCI density.
 
 Excited State   2:      Singlet-A      3.8471 eV  322.28 nm  f=0.0051  <S**2>=0.000
      50 -> 54        -0.10237
      51 -> 53         0.58712
      51 -> 54        -0.33180
 
 Excited State   3:      Singlet-A      4.2277 eV  293.26 nm  f=0.0011  <S**2>=0.000
      50 -> 53         0.54633
      50 -> 54         0.36412
      50 -> 58         0.12242
      51 -> 53        -0.10028
      51 -> 54        -0.13931
 
 Excited State   4:      Singlet-A      5.0906 eV  243.55 nm  f=0.3951  <S**2>=0.000
      52 -> 54         0.69345
 
 Excited State   5:      Singlet-A      5.5882 eV  221.87 nm  f=0.2908  <S**2>=0.000
      49 -> 53         0.67738
      50 -> 53        -0.12705
 
 Excited State   6:      Singlet-A      6.0519 eV  204.87 nm  f=0.0050  <S**2>=0.000
      52 -> 55         0.65985
      52 -> 56         0.12671
      52 -> 57         0.10796
 SavETr:  write IOETrn=   770 NScale= 10 NData=  16 NLR=1 NState=    6 LETran=     118.
 The selected state is a singlet.
 CISGrd: IGrad=1 NXY=2 DFT=T
 CISAX will form     1 AO SS matrices at one time.
 NMat=     1 NSing=     1 JSym2X= 0.
 Leave Link  914 at Fri Jan 23 20:49:08 2026, MaxMem=  2147483648 cpu:            7735.7 elap:             484.7
 (Enter /data/home/wyx/g16/l1002.exe)
 Minotr:  Closed shell wavefunction.
          Computing CIS/TDA/TD derivatives.
          Using Z-Vector for PSCF gradient.
          Skipping F1 and S1 gradient terms here.
 NEqPCM:  Using equilibrium solvation (IEInf=0, Eps=   7.4257, EpsInf=   1.9740)
          Frozen-core window.
          Direct CPHF calculation.
          Differentiating once with respect to electric field.
                with respect to dipole field.
          Electric field/nuclear overlap derivatives assumed to be zero.
          Requested convergence is 1.0D-10 RMS, and 1.0D-09 maximum.
          NewPWx=F KeepS1=T KeepF1=T KeepIn=T MapXYZ=F SortEE=F KeepMc=T.
 Two-electron integral symmetry used by symmetrizing perturbed Fock matrices.
          MDV=    2147483648 using IRadAn=       5.
          Solving linear equations separately, MaxMat=     384.
          There are     1 degrees of freedom in the 1st order CPHF.  IDoFFX=0 NUNeed=     1.
 FoFJK:  IHMeth= 1 ICntrl=       0 DoSepK=T KAlg= 0 I1Cent=           0 FoldK=F
 IRaf=         1 NMat=       1 IRICut=       1 DoRegI=T DoRafI=F ISym2E=-1 IDoP0=0 IntGTp=1.
 FoFCou: FMM=F IPFlag=           0 FMFlag=      100000 FMFlg1=           0
         NFxFlg=           0 DoJE=T BraDBF=F KetDBF=F FulRan=T
         wScrn=  0.000000 ICntrl=       500 IOpCl=  0 I1Cent=           0 NGrid=           0
         NMat0=    1 NMatS0=      1 NMatT0=    0 NMatD0=    1 NMtDS0=    0 NMtDT0=    0
 Petite list used in FoFCou.
 LinEq1:  Iter=  0 NonCon=     1 RMS=3.50D-03 Max=1.72D-01 NDo=     1
 AX will form     1 AO Fock derivatives at one time.
 LinEq1:  Iter=  1 NonCon=     1 RMS=1.43D-03 Max=9.24D-02 NDo=     1
 LinEq1:  Iter=  2 NonCon=     1 RMS=6.88D-04 Max=3.79D-02 NDo=     1
 LinEq1:  Iter=  3 NonCon=     1 RMS=3.66D-04 Max=1.98D-02 NDo=     1
 LinEq1:  Iter=  4 NonCon=     1 RMS=1.69D-04 Max=4.24D-03 NDo=     1
 LinEq1:  Iter=  5 NonCon=     1 RMS=8.78D-05 Max=3.24D-03 NDo=     1
 LinEq1:  Iter=  6 NonCon=     1 RMS=5.70D-05 Max=2.10D-03 NDo=     1
 LinEq1:  Iter=  7 NonCon=     1 RMS=2.12D-05 Max=1.17D-03 NDo=     1
 LinEq1:  Iter=  8 NonCon=     1 RMS=1.08D-05 Max=4.66D-04 NDo=     1
 LinEq1:  Iter=  9 NonCon=     1 RMS=7.18D-06 Max=3.78D-04 NDo=     1
 LinEq1:  Iter= 10 NonCon=     1 RMS=4.48D-06 Max=1.41D-04 NDo=     1
 LinEq1:  Iter= 11 NonCon=     1 RMS=2.06D-06 Max=5.18D-05 NDo=     1
 LinEq1:  Iter= 12 NonCon=     1 RMS=8.06D-07 Max=1.46D-05 NDo=     1
 LinEq1:  Iter= 13 NonCon=     1 RMS=2.76D-07 Max=9.75D-06 NDo=     1
 LinEq1:  Iter= 14 NonCon=     1 RMS=9.31D-08 Max=4.93D-06 NDo=     1
 LinEq1:  Iter= 15 NonCon=     1 RMS=5.10D-08 Max=2.32D-06 NDo=     1
 LinEq1:  Iter= 16 NonCon=     1 RMS=2.42D-08 Max=8.92D-07 NDo=     1
 LinEq1:  Iter= 17 NonCon=     1 RMS=9.24D-09 Max=2.22D-07 NDo=     1
 LinEq1:  Iter= 18 NonCon=     1 RMS=3.78D-09 Max=7.53D-08 NDo=     1
 LinEq1:  Iter= 19 NonCon=     1 RMS=1.58D-09 Max=3.58D-08 NDo=     1
 LinEq1:  Iter= 20 NonCon=     1 RMS=4.71D-10 Max=7.88D-09 NDo=     1
 LinEq1:  Iter= 21 NonCon=     1 RMS=2.09D-10 Max=3.79D-09 NDo=     1
 LinEq1:  Iter= 22 NonCon=     1 RMS=7.64D-11 Max=1.96D-09 NDo=     1
 LinEq1:  Iter= 23 NonCon=     0 RMS=1.83D-11 Max=4.30D-10 NDo=     1
 Linear equations converged to 1.000D-10 1.000D-09 after    23 iterations.
 PCM Corrected Linear-Response - Equilibrium solvation:
 Corrected transition energy               =    3.4688          eV
 Total energy after correction             = -633.197176594     a.u.
 NEqPCM:  Using non-equilibrium solvation (IEInf=1, Eps=   7.4257, EpsInf=   1.9740)
 Inv3:  Mode=1 IEnd=    13406988.
 Iteration    1 A*A^-1 deviation from unit magnitude is 3.11D-15 for    518.
 Iteration    1 A*A^-1 deviation from orthogonality  is 2.06D-15 for   1789    224.
 Iteration    1 A^-1*A deviation from unit magnitude is 2.89D-15 for   1784.
 Iteration    1 A^-1*A deviation from orthogonality  is 1.74D-15 for   1881   1502.
 NEqSol: Computing the dynamic-inertial partition of the PCM polarization charges.
 End of Minotr F.D. properties file   721 does not exist.
 End of Minotr F.D. properties file   722 does not exist.
 End of Minotr F.D. properties file   788 does not exist.
 Leave Link 1002 at Fri Jan 23 20:51:08 2026, MaxMem=  2147483648 cpu:            1892.4 elap:             119.0
 (Enter /data/home/wyx/g16/l601.exe)
 Copying SCF densities to generalized density rwf, IOpCl= 0 IROHF=0.

 **********************************************************************

            Population analysis using the CI density.

 **********************************************************************

 Orbital symmetries:
       Occupied  (A) (A) (A) (A) (A) (A) (A) (A) (A) (A) (A) (A)
                 (A) (A) (A) (A) (A) (A) (A) (A) (A) (A) (A) (A)
                 (A) (A) (A) (A) (A) (A) (A) (A) (A) (A) (A) (A)
                 (A) (A) (A) (A) (A) (A) (A) (A) (A) (A) (A) (A)
                 (A) (A) (A) (A)
       Virtual   (A) (A) (A) (A) (A) (A) (A) (A) (A) (A) (A) (A)
                 (A) (A) (A) (A) (A) (A) (A) (A) (A) (A) (A) (A)
                 (A) (A) (A) (A) (A) (A) (A) (A) (A) (A) (A) (A)
                 (A) (A) (A) (A) (A) (A) (A) (A) (A) (A) (A) (A)
                 (A) (A) (A) (A) (A) (A) (A) (A) (A) (A) (A) (A)
                 (A) (A) (A) (A) (A) (A) (A) (A) (A) (A) (A) (A)
                 (A) (A) (A) (A) (A) (A) (A) (A) (A) (A) (A) (A)
                 (A) (A) (A) (A) (A) (A) (A) (A) (A) (A) (A) (A)
                 (A) (A) (A) (A) (A) (A) (A) (A) (A) (A) (A) (A)
                 (A) (A) (A) (A) (A) (A) (A) (A) (A) (A) (A) (A)
                 (A) (A) (A) (A) (A) (A) (A) (A) (A) (A) (A) (A)
                 (A) (A) (A) (A) (A) (A) (A) (A) (A) (A) (A) (A)
                 (A) (A) (A) (A) (A) (A) (A) (A) (A) (A) (A) (A)
                 (A) (A) (A) (A) (A) (A) (A) (A) (A) (A) (A) (A)
                 (A) (A) (A) (A) (A) (A) (A) (A) (A) (A) (A) (A)
                 (A) (A) (A) (A) (A) (A) (A) (A) (A) (A) (A) (A)
                 (A) (A) (A) (A) (A) (A) (A) (A) (A) (A) (A) (A)
                 (A) (A) (A) (A) (A) (A) (A) (A) (A) (A) (A) (A)
                 (A) (A) (A) (A) (A) (A) (A) (A) (A) (A) (A) (A)
                 (A) (A) (A) (A) (A) (A) (A) (A) (A) (A) (A) (A)
                 (A) (A) (A) (A) (A) (A) (A) (A) (A) (A) (A) (A)
                 (A) (A) (A) (A) (A) (A) (A) (A) (A) (A) (A) (A)
                 (A) (A) (A) (A) (A) (A) (A) (A) (A) (A) (A) (A)
                 (A) (A) (A) (A) (A) (A) (A) (A) (A) (A) (A) (A)
                 (A) (A) (A) (A) (A) (A) (A) (A) (A) (A) (A) (A)
                 (A) (A) (A) (A)
 The electronic state is 1-A.
 Alpha  occ. eigenvalues --  -19.17791 -19.16933 -14.44283 -10.33293 -10.33079
 Alpha  occ. eigenvalues --  -10.32222 -10.31812 -10.25992 -10.25052 -10.24863
 Alpha  occ. eigenvalues --  -10.24780 -10.24677 -10.24076 -10.23703  -1.11900
 Alpha  occ. eigenvalues --   -1.10357  -1.07768  -0.91509  -0.90540  -0.83871
 Alpha  occ. eigenvalues --   -0.82556  -0.81567  -0.78682  -0.74286  -0.71463
 Alpha  occ. eigenvalues --   -0.68900  -0.61974  -0.58480  -0.56936  -0.55210
 Alpha  occ. eigenvalues --   -0.54746  -0.54070  -0.52529  -0.51939  -0.50680
 Alpha  occ. eigenvalues --   -0.49717  -0.49391  -0.49121  -0.48390  -0.48272
 Alpha  occ. eigenvalues --   -0.46775  -0.45161  -0.44817  -0.43706  -0.43030
 Alpha  occ. eigenvalues --   -0.42391  -0.41806  -0.41337  -0.33051  -0.32194
 Alpha  occ. eigenvalues --   -0.31023  -0.26206
 Alpha virt. eigenvalues --   -0.02672   0.02333   0.06291   0.08100   0.08463
 Alpha virt. eigenvalues --    0.09926   0.10646   0.12021   0.12662   0.13573
 Alpha virt. eigenvalues --    0.13944   0.15033   0.15554   0.16650   0.16987
 Alpha virt. eigenvalues --    0.17559   0.17613   0.17820   0.18270   0.19325
 Alpha virt. eigenvalues --    0.19856   0.21720   0.22847   0.23450   0.23780
 Alpha virt. eigenvalues --    0.24509   0.24626   0.25805   0.25993   0.26706
 Alpha virt. eigenvalues --    0.27272   0.27592   0.28186   0.29344   0.29988
 Alpha virt. eigenvalues --    0.31193   0.31883   0.32597   0.33499   0.34606
 Alpha virt. eigenvalues --    0.35350   0.35705   0.36731   0.37934   0.38786
 Alpha virt. eigenvalues --    0.39561   0.41242   0.41794   0.42306   0.42930
 Alpha virt. eigenvalues --    0.44114   0.44943   0.45642   0.46156   0.46517
 Alpha virt. eigenvalues --    0.46858   0.48162   0.48449   0.48763   0.49102
 Alpha virt. eigenvalues --    0.49820   0.50056   0.50762   0.51276   0.51850
 Alpha virt. eigenvalues --    0.52738   0.52883   0.53455   0.54052   0.54410
 Alpha virt. eigenvalues --    0.54719   0.55677   0.55801   0.56932   0.57848
 Alpha virt. eigenvalues --    0.58174   0.59358   0.60123   0.62027   0.62570
 Alpha virt. eigenvalues --    0.63240   0.65276   0.65849   0.67688   0.68125
 Alpha virt. eigenvalues --    0.70199   0.70824   0.71538   0.71995   0.72955
 Alpha virt. eigenvalues --    0.73856   0.74923   0.76332   0.77150   0.77872
 Alpha virt. eigenvalues --    0.79986   0.80618   0.82872   0.85566   0.87202
 Alpha virt. eigenvalues --    0.89619   0.90782   0.95388   1.01311   1.22899
 Alpha virt. eigenvalues --    1.25408   1.26220   1.28078   1.29598   1.30994
 Alpha virt. eigenvalues --    1.32522   1.32947   1.33898   1.35534   1.35835
 Alpha virt. eigenvalues --    1.37100   1.37279   1.38222   1.38932   1.39569
 Alpha virt. eigenvalues --    1.39873   1.40886   1.41131   1.41391   1.42117
 Alpha virt. eigenvalues --    1.43122   1.44073   1.44293   1.44923   1.47234
 Alpha virt. eigenvalues --    1.47700   1.49584   1.49904   1.50773   1.51679
 Alpha virt. eigenvalues --    1.52055   1.52885   1.53397   1.55373   1.57646
 Alpha virt. eigenvalues --    1.58488   1.59806   1.60564   1.61352   1.61947
 Alpha virt. eigenvalues --    1.63065   1.63452   1.64582   1.65573   1.66119
 Alpha virt. eigenvalues --    1.66363   1.66595   1.67943   1.68118   1.68814
 Alpha virt. eigenvalues --    1.69019   1.69777   1.71101   1.72340   1.73155
 Alpha virt. eigenvalues --    1.74257   1.74515   1.76116   1.76622   1.78776
 Alpha virt. eigenvalues --    1.80889   1.82569   1.83869   1.84626   1.86243
 Alpha virt. eigenvalues --    1.86954   1.87660   1.88167   1.89706   1.90238
 Alpha virt. eigenvalues --    1.91537   1.93648   1.95578   1.98009   2.00082
 Alpha virt. eigenvalues --    2.01319   2.04555   2.04853   2.06649   2.09482
 Alpha virt. eigenvalues --    2.10703   2.13261   2.15011   2.18004   2.19424
 Alpha virt. eigenvalues --    2.20032   2.22035   2.23079   2.24283   2.25372
 Alpha virt. eigenvalues --    2.26879   2.28774   2.30337   2.31132   2.33228
 Alpha virt. eigenvalues --    2.34388   2.34910   2.36180   2.37990   2.39095
 Alpha virt. eigenvalues --    2.39863   2.41502   2.41872   2.44745   2.45328
 Alpha virt. eigenvalues --    2.45743   2.48983   2.49140   2.50520   2.51944
 Alpha virt. eigenvalues --    2.52782   2.53092   2.54351   2.56173   2.57404
 Alpha virt. eigenvalues --    2.57724   2.60715   2.60853   2.62150   2.62969
 Alpha virt. eigenvalues --    2.64012   2.65849   2.66303   2.67153   2.69154
 Alpha virt. eigenvalues --    2.70553   2.72321   2.73605   2.74085   2.75034
 Alpha virt. eigenvalues --    2.75871   2.76837   2.77952   2.78227   2.79295
 Alpha virt. eigenvalues --    2.80675   2.81533   2.82982   2.83962   2.84891
 Alpha virt. eigenvalues --    2.86027   2.86273   2.88397   2.90093   2.93412
 Alpha virt. eigenvalues --    2.97355   2.99060   2.99494   3.05391   3.10296
 Alpha virt. eigenvalues --    3.10562   3.12338   3.14303   3.19185   3.20608
 Alpha virt. eigenvalues --    3.21184   3.23478   3.24724   3.25469   3.26490
 Alpha virt. eigenvalues --    3.28251   3.31250   3.32836   3.35636   3.37340
 Alpha virt. eigenvalues --    3.38069   3.39583   3.39978   3.40442   3.41880
 Alpha virt. eigenvalues --    3.42804   3.43653   3.45909   3.47333   3.47622
 Alpha virt. eigenvalues --    3.50220   3.53238   3.54470   3.57615   3.59684
 Alpha virt. eigenvalues --    3.61893   3.91364   4.00327   4.33875   4.36017
 Alpha virt. eigenvalues --   21.63960  21.77852  22.07508  22.10396  22.11889
 Alpha virt. eigenvalues --   22.13432  22.16426  22.19073  22.21553  22.27172
 Alpha virt. eigenvalues --   22.31487  31.92975  43.63206  43.65617
          Condensed to atoms (all electrons):
               1          2          3          4          5          6
     1  O    7.974335  -0.000000  -0.000249   0.000017   0.019977   0.023255
     2  O   -0.000000   8.061703   0.000235   0.000041  -0.201283   0.001346
     3  N   -0.000249   0.000235   6.189665   0.367774  -0.079984   0.386315
     4  H    0.000017   0.000041   0.367774   0.397056   0.015428  -0.040510
     5  C    0.019977  -0.201283  -0.079984   0.015428   7.331356   0.007644
     6  C    0.023255   0.001346   0.386315  -0.040510   0.007644   5.963899
     7  C   -0.000546  -0.018076   0.393259  -0.042561   0.102191  -0.231832
     8  C   -0.000279   0.656312   0.003445  -0.000493  -0.407048   0.041790
     9  C   -0.015436   0.021427   0.002790  -0.000880  -0.607537  -0.154288
    10  H    0.013228  -0.000359  -0.001484   0.000007  -0.088408   0.015692
    11  H    0.002034  -0.000020   0.000961   0.000046  -0.023736  -0.001061
    12  C   -0.249260  -0.002729  -0.059049   0.016647   0.077683  -0.367245
    13  C    0.716003  -0.000011   0.000023   0.000613   0.077238   0.091561
    14  C   -0.000009  -0.040299  -0.045950  -0.005509  -0.034946   0.004370
    15  H   -0.000000   0.005079   0.004142   0.001057   0.020943   0.006125
    16  H    0.000000   0.012145   0.002994   0.000727  -0.007843  -0.000484
    17  H    0.000000  -0.001371  -0.003368   0.000651  -0.015660   0.000475
    18  C   -0.000102  -0.107428  -0.000416   0.000020  -0.241800  -0.001408
    19  H   -0.000000   0.009009   0.000006  -0.000001   0.020065   0.000013
    20  H    0.000306   0.005453   0.000097   0.000001   0.063869  -0.001405
    21  H   -0.000060   0.002141   0.000007  -0.000001  -0.005490   0.000184
    22  C   -0.124528   0.000000   0.000222   0.000126   0.003824   0.000514
    23  H    0.002693   0.000000   0.000115  -0.000019  -0.000191   0.013920
    24  H    0.004190  -0.000000  -0.000031  -0.000043  -0.000387  -0.025560
    25  H    0.011244  -0.000000   0.000007  -0.000003  -0.000126  -0.002345
    26  C    0.000797   0.000005  -0.037399  -0.010195  -0.001031   0.225063
    27  H   -0.000079   0.000000  -0.002213   0.000707   0.000774  -0.052057
    28  H   -0.000236  -0.000000   0.000163   0.000736  -0.000382  -0.058142
    29  H    0.000015   0.000000   0.003779   0.002003  -0.000503  -0.054460
               7          8          9         10         11         12
     1  O   -0.000546  -0.000279  -0.015436   0.013228   0.002034  -0.249260
     2  O   -0.018076   0.656312   0.021427  -0.000359  -0.000020  -0.002729
     3  N    0.393259   0.003445   0.002790  -0.001484   0.000961  -0.059049
     4  H   -0.042561  -0.000493  -0.000880   0.000007   0.000046   0.016647
     5  C    0.102191  -0.407048  -0.607537  -0.088408  -0.023736   0.077683
     6  C   -0.231832   0.041790  -0.154288   0.015692  -0.001061  -0.367245
     7  C    6.016740  -0.329227  -0.207280   0.014850  -0.007473   0.051892
     8  C   -0.329227   5.680864   0.193226  -0.006713   0.003775  -0.059524
     9  C   -0.207280   0.193226   6.569586   0.514293   0.352539  -0.135987
    10  H    0.014850  -0.006713   0.514293   0.452627  -0.021635  -0.105981
    11  H   -0.007473   0.003775   0.352539  -0.021635   0.481973   0.013785
    12  C    0.051892  -0.059524  -0.135987  -0.105981   0.013785   7.680100
    13  C    0.019284  -0.008938  -0.223593   0.004777  -0.005911  -0.445524
    14  C    0.213370  -0.054077   0.012881   0.000187  -0.000748   0.002337
    15  H   -0.085744   0.008198  -0.000882  -0.000001   0.000071  -0.001320
    16  H   -0.029768  -0.013590   0.000642  -0.000037   0.000092  -0.000477
    17  H   -0.029255   0.002540   0.000837   0.000082  -0.000040  -0.000578
    18  C    0.008899   0.332883  -0.000923   0.000520  -0.009241  -0.000100
    19  H    0.003087  -0.044099  -0.003988   0.000806  -0.000038  -0.000779
    20  H    0.004880  -0.100313  -0.011304  -0.004390  -0.001366   0.007147
    21  H   -0.002221  -0.030224  -0.003925  -0.001672   0.000732  -0.000072
    22  C   -0.000035   0.000026   0.003831   0.001362   0.001208  -0.337936
    23  H   -0.000015   0.000006  -0.003259  -0.000130   0.000089   0.001123
    24  H   -0.000012  -0.000005   0.002610  -0.000058  -0.000124   0.056600
    25  H    0.000024   0.000001   0.000650  -0.000125  -0.000033   0.029745
    26  C    0.007028   0.000497   0.020754   0.000085  -0.000536  -0.093549
    27  H   -0.000326  -0.000017  -0.002124  -0.000001  -0.000006  -0.014556
    28  H   -0.000399  -0.000010   0.001882   0.000019   0.000010   0.005337
    29  H    0.004070   0.000021  -0.000729   0.000004   0.000022   0.023467
              13         14         15         16         17         18
     1  O    0.716003  -0.000009  -0.000000   0.000000   0.000000  -0.000102
     2  O   -0.000011  -0.040299   0.005079   0.012145  -0.001371  -0.107428
     3  N    0.000023  -0.045950   0.004142   0.002994  -0.003368  -0.000416
     4  H    0.000613  -0.005509   0.001057   0.000727   0.000651   0.000020
     5  C    0.077238  -0.034946   0.020943  -0.007843  -0.015660  -0.241800
     6  C    0.091561   0.004370   0.006125  -0.000484   0.000475  -0.001408
     7  C    0.019284   0.213370  -0.085744  -0.029768  -0.029255   0.008899
     8  C   -0.008938  -0.054077   0.008198  -0.013590   0.002540   0.332883
     9  C   -0.223593   0.012881  -0.000882   0.000642   0.000837  -0.000923
    10  H    0.004777   0.000187  -0.000001  -0.000037   0.000082   0.000520
    11  H   -0.005911  -0.000748   0.000071   0.000092  -0.000040  -0.009241
    12  C   -0.445524   0.002337  -0.001320  -0.000477  -0.000578  -0.000100
    13  C    5.531876  -0.000020  -0.000024  -0.000000  -0.000045   0.000873
    14  C   -0.000020   5.175491   0.386032   0.421165   0.398474   0.001196
    15  H   -0.000024   0.386032   0.594636  -0.028295  -0.031635   0.000292
    16  H   -0.000000   0.421165  -0.028295   0.486407  -0.020247   0.000449
    17  H   -0.000045   0.398474  -0.031635  -0.020247   0.538677  -0.000273
    18  C    0.000873   0.001196   0.000292   0.000449  -0.000273   5.316326
    19  H   -0.000023  -0.000307  -0.000011   0.000168   0.000046   0.380764
    20  H    0.001076   0.000292  -0.000027  -0.000116   0.000008   0.384623
    21  H    0.000017  -0.000200  -0.000004  -0.000011  -0.000055   0.397963
    22  C    0.323208   0.000002   0.000003  -0.000000  -0.000001   0.000006
    23  H   -0.037765   0.000000   0.000000  -0.000000  -0.000000  -0.000002
    24  H   -0.074019  -0.000001  -0.000000   0.000000   0.000000   0.000003
    25  H   -0.048655   0.000000   0.000000   0.000000   0.000000   0.000001
    26  C   -0.041702   0.000322  -0.000056   0.000061  -0.000104   0.000006
    27  H    0.005915  -0.000141   0.000027   0.000000  -0.000067  -0.000002
    28  H   -0.003670   0.000047  -0.000020  -0.000001   0.000015   0.000001
    29  H   -0.000227   0.000114   0.000038  -0.000002   0.000013   0.000000
              19         20         21         22         23         24
     1  O   -0.000000   0.000306  -0.000060  -0.124528   0.002693   0.004190
     2  O    0.009009   0.005453   0.002141   0.000000   0.000000  -0.000000
     3  N    0.000006   0.000097   0.000007   0.000222   0.000115  -0.000031
     4  H   -0.000001   0.000001  -0.000001   0.000126  -0.000019  -0.000043
     5  C    0.020065   0.063869  -0.005490   0.003824  -0.000191  -0.000387
     6  C    0.000013  -0.001405   0.000184   0.000514   0.013920  -0.025560
     7  C    0.003087   0.004880  -0.002221  -0.000035  -0.000015  -0.000012
     8  C   -0.044099  -0.100313  -0.030224   0.000026   0.000006  -0.000005
     9  C   -0.003988  -0.011304  -0.003925   0.003831  -0.003259   0.002610
    10  H    0.000806  -0.004390  -0.001672   0.001362  -0.000130  -0.000058
    11  H   -0.000038  -0.001366   0.000732   0.001208   0.000089  -0.000124
    12  C   -0.000779   0.007147  -0.000072  -0.337936   0.001123   0.056600
    13  C   -0.000023   0.001076   0.000017   0.323208  -0.037765  -0.074019
    14  C   -0.000307   0.000292  -0.000200   0.000002   0.000000  -0.000001
    15  H   -0.000011  -0.000027  -0.000004   0.000003   0.000000  -0.000000
    16  H    0.000168  -0.000116  -0.000011  -0.000000  -0.000000   0.000000
    17  H    0.000046   0.000008  -0.000055  -0.000001  -0.000000   0.000000
    18  C    0.380764   0.384623   0.397963   0.000006  -0.000002   0.000003
    19  H    0.530788  -0.025125  -0.020667  -0.000001  -0.000000   0.000000
    20  H   -0.025125   0.558825  -0.025957   0.000027  -0.000001  -0.000000
    21  H   -0.020667  -0.025957   0.524769  -0.000001   0.000000  -0.000000
    22  C   -0.000001   0.000027  -0.000001   5.493554   0.397492   0.380499
    23  H   -0.000000  -0.000001   0.000000   0.397492   0.517933  -0.031820
    24  H    0.000000  -0.000000  -0.000000   0.380499  -0.031820   0.554834
    25  H    0.000000   0.000000  -0.000001   0.375931  -0.009223  -0.018182
    26  C    0.000001  -0.000016   0.000002  -0.043432  -0.013600   0.013844
    27  H   -0.000000  -0.000000   0.000001  -0.011502   0.002360  -0.002639
    28  H    0.000000   0.000000  -0.000000   0.005799  -0.003380  -0.005540
    29  H    0.000000  -0.000000  -0.000000   0.002045   0.000084   0.000597
              25         26         27         28         29
     1  O    0.011244   0.000797  -0.000079  -0.000236   0.000015
     2  O   -0.000000   0.000005   0.000000  -0.000000   0.000000
     3  N    0.000007  -0.037399  -0.002213   0.000163   0.003779
     4  H   -0.000003  -0.010195   0.000707   0.000736   0.002003
     5  C   -0.000126  -0.001031   0.000774  -0.000382  -0.000503
     6  C   -0.002345   0.225063  -0.052057  -0.058142  -0.054460
     7  C    0.000024   0.007028  -0.000326  -0.000399   0.004070
     8  C    0.000001   0.000497  -0.000017  -0.000010   0.000021
     9  C    0.000650   0.020754  -0.002124   0.001882  -0.000729
    10  H   -0.000125   0.000085  -0.000001   0.000019   0.000004
    11  H   -0.000033  -0.000536  -0.000006   0.000010   0.000022
    12  C    0.029745  -0.093549  -0.014556   0.005337   0.023467
    13  C   -0.048655  -0.041702   0.005915  -0.003670  -0.000227
    14  C    0.000000   0.000322  -0.000141   0.000047   0.000114
    15  H    0.000000  -0.000056   0.000027  -0.000020   0.000038
    16  H    0.000000   0.000061   0.000000  -0.000001  -0.000002
    17  H    0.000000  -0.000104  -0.000067   0.000015   0.000013
    18  C    0.000001   0.000006  -0.000002   0.000001   0.000000
    19  H    0.000000   0.000001  -0.000000   0.000000   0.000000
    20  H    0.000000  -0.000016  -0.000000   0.000000  -0.000000
    21  H   -0.000001   0.000002   0.000001  -0.000000  -0.000000
    22  C    0.375931  -0.043432  -0.011502   0.005799   0.002045
    23  H   -0.009223  -0.013600   0.002360  -0.003380   0.000084
    24  H   -0.018182   0.013844  -0.002639  -0.005540   0.000597
    25  H    0.502356   0.002069  -0.000207   0.000822  -0.000032
    26  C    0.002069   5.202638   0.439284   0.421685   0.388234
    27  H   -0.000207   0.439284   0.513357  -0.040608  -0.018891
    28  H    0.000822   0.421685  -0.040608   0.536733  -0.022631
    29  H   -0.000032   0.388234  -0.018891  -0.022631   0.527137
 Mulliken charges:
               1
     1  O   -0.377310
     2  O   -0.403323
     3  N   -0.125858
     4  H    0.296559
     5  C   -0.024638
     6  C    0.208630
     7  C    0.145196
     8  C    0.130972
     9  C   -0.325814
    10  H    0.212453
    11  H    0.214631
    12  C   -0.091198
    13  C    0.117665
    14  C   -0.434074
    15  H    0.121375
    16  H    0.176020
    17  H    0.160878
    18  C   -0.463131
    19  H    0.150285
    20  H    0.143415
    21  H    0.164745
    22  C   -0.472245
    23  H    0.163587
    24  H    0.145243
    25  H    0.156081
    26  C   -0.480756
    27  H    0.183012
    28  H    0.161768
    29  H    0.145833
 Sum of Mulliken charges =  -0.00000
 Mulliken charges with hydrogens summed into heavy atoms:
               1
     1  O   -0.377310
     2  O   -0.403323
     3  N    0.170701
     5  C   -0.024638
     6  C    0.208630
     7  C    0.145196
     8  C    0.130972
     9  C    0.101270
    12  C   -0.091198
    13  C    0.117665
    14  C    0.024199
    18  C   -0.004686
    22  C   -0.007334
    26  C    0.009857
 Electronic spatial extent (au):  <R**2>=           3209.5624
 Charge=             -0.0000 electrons
 Dipole moment (field-independent basis, Debye):
    X=              4.3961    Y=              7.4555    Z=             -0.6229  Tot=              8.6775
 Quadrupole moment (field-independent basis, Debye-Ang):
   XX=           -105.1756   YY=            -79.2351   ZZ=            -84.5520
   XY=             12.9004   XZ=              3.6885   YZ=             -0.6833
 Traceless Quadrupole moment (field-independent basis, Debye-Ang):
   XX=            -15.5214   YY=             10.4191   ZZ=              5.1023
   XY=             12.9004   XZ=              3.6885   YZ=             -0.6833
 Octapole moment (field-independent basis, Debye-Ang**2):
  XXX=            113.8523  YYY=             65.9893  ZZZ=              1.0529  XYY=            -34.4293
  XXY=             30.1919  XXZ=             -9.5904  XZZ=              2.2070  YZZ=             -1.8824
  YYZ=              0.3665  XYZ=             -2.9297
 Hexadecapole moment (field-independent basis, Debye-Ang**3):
 XXXX=          -3179.3018 YYYY=          -1287.6519 ZZZZ=           -136.5926 XXXY=             39.1438
 XXXZ=             49.6721 YYYX=             92.4326 YYYZ=            -15.6595 ZZZX=             -3.5467
 ZZZY=              4.6660 XXYY=           -712.8743 XXZZ=           -493.5829 YYZZ=           -240.2104
 XXYZ=             -2.1370 YYXZ=              3.8531 ZZXY=             -0.1956
 N-N= 9.005775803045D+02 E-N=-3.276772035213D+03  KE= 6.308095031447D+02
 No NMR shielding tensors so no spin-rotation constants.
 Leave Link  601 at Fri Jan 23 20:51:08 2026, MaxMem=  2147483648 cpu:               1.8 elap:               0.1
 (Enter /data/home/wyx/g16/l9999.exe)
 Electronic transition elements 
                 1             2             3             4             5 
      1  -0.633201D+03 -0.633183D+03 -0.633169D+03 -0.633138D+03 -0.633119D+03
      2   0.159048D+01  0.228412D+00  0.191300D-01  0.488549D+00 -0.313524D+00
      3   0.429390D+00  0.359839D-01 -0.897284D-01 -0.170174D+01  0.142138D+01
      4   0.155572D+00 -0.192376D-01  0.438592D-01  0.182776D+00 -0.731074D-01
      5  -0.188783D+00 -0.313698D-01 -0.339296D-02 -0.832464D-01  0.636079D-01
      6  -0.535229D-01 -0.582916D-02  0.133879D-01  0.304767D+00 -0.286940D+00
      7  -0.181126D-01  0.879270D-03 -0.340598D-02 -0.293252D-01  0.154071D-01
      8  -0.988676D-01 -0.879872D+00 -0.376329D+00  0.513204D-01 -0.178341D+00
      9   0.347345D-01 -0.176301D-01  0.896680D+00 -0.404718D-01  0.135347D-01
     10   0.145787D+01  0.279680D+00  0.154192D-01  0.264487D+00 -0.275209D+00
     11  -0.108624D+00 -0.252729D-01 -0.937218D-02 -0.129712D+01  0.550221D+00
     12   0.262187D+00  0.677536D-01  0.226716D-01  0.218736D+00 -0.295235D+00
     13  -0.184822D-01 -0.255106D-02 -0.360898D-01  0.162390D-01 -0.394564D-01
     14   0.530613D+00  0.875207D-01  0.156731D-01 -0.408615D+00  0.222127D+00
     15  -0.618172D-01 -0.144201D-01 -0.724516D-01 -0.917928D-01  0.497006D-01
     16   0.407964D-01 -0.688048D-01 -0.236992D-01 -0.577619D-01 -0.454319D-01
                 6 
      1  -0.633102D+03
      2  -0.446141D-01
      3   0.173444D+00
      4   0.384055D-01
      5   0.102463D-01
      6  -0.362666D-01
      7  -0.283486D-01
      8  -0.292776D-01
      9  -0.154127D-01
     10  -0.767199D-02
     11  -0.170643D+00
     12  -0.135632D+00
     13   0.111758D+00
     14  -0.177378D-01
     15  -0.337050D-01
     16   0.534047D-01
 1\1\GINC-CN013\SP\RCAM-B3LYP TD-FC\TZVP\C11H15N1O2\WYX\23-Jan-2026\0\\
 #p CAM-B3LYP TZVP em=gd3bj td(nstates=6,root=1) scrf=(Solvent=TetraHyd
 roFuran,CorrectedLR,NonEquilibrium=Save) Geom=Check Guess=Read\\Title 
 Card Required\\0,1\O,0,2.815621,-1.576243,0.268713\O,0,-3.445005,-1.63
 5482,-0.117911\N,0,-0.639568,1.517918,-0.276379\H,0,-0.952106,2.473375
 ,-0.320663\C,0,-1.241157,-0.758478,-0.207429\C,0,0.690852,1.302832,-0.
 030027\C,0,-1.613122,0.541105,-0.276652\C,0,-2.212799,-1.82233,-0.1778
 11\C,0,0.220402,-1.123938,-0.217835\H,0,0.415998,-1.894536,0.527171\H,
 0,0.492414,-1.569109,-1.181776\C,0,1.147875,0.033718,0.053776\C,0,2.51
 302,-0.388108,0.343741\C,0,-2.999234,1.077919,-0.346075\H,0,-3.01789,2
 .044402,-0.853819\H,0,-3.683159,0.42184,-0.878341\H,0,-3.416146,1.2118
 24,0.65352\C,0,-1.774326,-3.25608,-0.229394\H,0,-2.537,-3.930844,-0.61
 7207\H,0,-0.885348,-3.413517,-0.84092\H,0,-1.517841,-3.619608,0.77033\
 C,0,3.590415,0.573699,0.769951\H,0,3.937285,1.186228,-0.062084\H,0,3.2
 8413,1.242443,1.571062\H,0,4.424707,-0.033782,1.112948\C,0,1.453539,2.
 580551,0.113073\H,0,1.692889,2.796192,1.154036\H,0,2.379391,2.587432,-
 0.452949\H,0,0.876162,3.430577,-0.251047\\Version=ES64L-G16RevA.03\Sta
 te=1-A\HF=-633.3246521\RMSD=1.614e-09\Dipole=0.6534833,3.3440263,-0.21
 39923\Quadrupole=-15.8265735,11.6674439,4.1591296,1.1331625,0.2653071,
 0.4912956\PG=C01 [X(C11H15N1O2)]\\@


 Spring appears, and we are once more children.
                                  -- Anonymous
 Job cpu time:       0 days  2 hours 42 minutes  5.9 seconds.
 Elapsed time:       0 days  0 hours 10 minutes 10.2 seconds.
 File lengths (MBytes):  RWF=    735 Int=      0 D2E=      0 Chk=     67 Scr=      1
 Normal termination of Gaussian 16 at Fri Jan 23 20:51:11 2026.
