 Entering Gaussian System, Link 0=g16
 Input=DDL-S2-cLR-gs-4.gjf
 Output=DDL-S2-cLR-gs-4.log
 Initial command:
 /data/home/wyx/g16/l1.exe "/scr/tmp/wyx/13109/Gau-1702116.inp" -scrdir="/scr/tmp/wyx/13109/"
 Entering Link 1 = /data/home/wyx/g16/l1.exe PID=   1702117.
  
 Copyright (c) 1988,1990,1992,1993,1995,1998,2003,2009,2016,
            Gaussian, Inc.  All Rights Reserved.
  
 This is part of the Gaussian(R) 16 program.  It is based on
 the Gaussian(R) 09 system (copyright 2009, Gaussian, Inc.),
 the Gaussian(R) 03 system (copyright 2003, Gaussian, Inc.),
 the Gaussian(R) 98 system (copyright 1998, Gaussian, Inc.),
 the Gaussian(R) 94 system (copyright 1995, Gaussian, Inc.),
 the Gaussian 92(TM) system (copyright 1992, Gaussian, Inc.),
 the Gaussian 90(TM) system (copyright 1990, Gaussian, Inc.),
 the Gaussian 88(TM) system (copyright 1988, Gaussian, Inc.),
 the Gaussian 86(TM) system (copyright 1986, Carnegie Mellon
 University), and the Gaussian 82(TM) system (copyright 1983,
 Carnegie Mellon University). Gaussian is a federally registered
 trademark of Gaussian, Inc.
  
 This software contains proprietary and confidential information,
 including trade secrets, belonging to Gaussian, Inc.
  
 This software is provided under written license and may be
 used, copied, transmitted, or stored only in accord with that
 written license.
  
 The following legend is applicable only to US Government
 contracts under FAR:
  
                    RESTRICTED RIGHTS LEGEND
  
 Use, reproduction and disclosure by the US Government is
 subject to restrictions as set forth in subparagraphs (a)
 and (c) of the Commercial Computer Software - Restricted
 Rights clause in FAR 52.227-19.
  
 Gaussian, Inc.
 340 Quinnipiac St., Bldg. 40, Wallingford CT 06492
  
  
 ---------------------------------------------------------------
 Warning -- This program may not be used in any manner that
 competes with the business of Gaussian, Inc. or will provide
 assistance to any competitor of Gaussian, Inc.  The licensee
 of this program is prohibited from giving any competitor of
 Gaussian, Inc. access to this program.  By using this program,
 the user acknowledges that Gaussian, Inc. is engaged in the
 business of creating and licensing software in the field of
 computational chemistry and represents and warrants to the
 licensee that it is not a competitor of Gaussian, Inc. and that
 it will not use this program in any manner prohibited above.
 ---------------------------------------------------------------
  

 Cite this work as:
 Gaussian 16, Revision A.03,
 M. J. Frisch, G. W. Trucks, H. B. Schlegel, G. E. Scuseria, 
 M. A. Robb, J. R. Cheeseman, G. Scalmani, V. Barone, 
 G. A. Petersson, H. Nakatsuji, X. Li, M. Caricato, A. V. Marenich, 
 J. Bloino, B. G. Janesko, R. Gomperts, B. Mennucci, H. P. Hratchian, 
 J. V. Ortiz, A. F. Izmaylov, J. L. Sonnenberg, D. Williams-Young, 
 F. Ding, F. Lipparini, F. Egidi, J. Goings, B. Peng, A. Petrone, 
 T. Henderson, D. Ranasinghe, V. G. Zakrzewski, J. Gao, N. Rega, 
 G. Zheng, W. Liang, M. Hada, M. Ehara, K. Toyota, R. Fukuda, 
 J. Hasegawa, M. Ishida, T. Nakajima, Y. Honda, O. Kitao, H. Nakai, 
 T. Vreven, K. Throssell, J. A. Montgomery, Jr., J. E. Peralta, 
 F. Ogliaro, M. J. Bearpark, J. J. Heyd, E. N. Brothers, K. N. Kudin, 
 V. N. Staroverov, T. A. Keith, R. Kobayashi, J. Normand, 
 K. Raghavachari, A. P. Rendell, J. C. Burant, S. S. Iyengar, 
 J. Tomasi, M. Cossi, J. M. Millam, M. Klene, C. Adamo, R. Cammi, 
 J. W. Ochterski, R. L. Martin, K. Morokuma, O. Farkas, 
 J. B. Foresman, and D. J. Fox, Gaussian, Inc., Wallingford CT, 2016.
 
 ******************************************
 Gaussian 16:  ES64L-G16RevA.03 25-Dec-2016
                23-Jan-2026 
 ******************************************
 %nprocshared=16
 Will use up to   16 processors via shared memory.
 %mem=16GB
 %oldchk=DDL-S2-cLR-4.chk
 %chk=DDL-S2-cLR-gs-4.chk
 Copying data from "DDL-S2-cLR-4.chk" to current chk file "DDL-S2-cLR-gs-4.chk"
 IOpt=  2 FromEx=T IUOpen= 4 IOptOp= 5 NList=   0 IFRang= 0 IUIn= 4 IUOut= 2.
 ----------------------------------------------------------------------
 #p CAM-B3LYP TZVP em=gd3bj scrf=(Solvent=TetraHydroFuran,NonEquilibriu
 m=Read) Geom=Check Guess=Read
 ----------------------------------------------------------------------
 1/29=2,38=1,172=1/1;
 2/12=2,40=1/2;
 3/5=19,7=101,11=2,14=-4,25=1,30=1,70=6002201,72=20,74=-40,116=-2,124=41/1,2,3;
 4/5=1/1;
 5/5=2,38=6,53=20/2;
 6/7=2,8=2,9=2,10=2,28=1/1;
 99/5=1,9=1/99;
 Leave Link    1 at Fri Jan 23 22:43:32 2026, MaxMem=  2147483648 cpu:               0.8 elap:               0.1
 (Enter /data/home/wyx/g16/l101.exe)
 -------------------
 Title Card Required
 -------------------
 Structure from the checkpoint file:  "DDL-S2-cLR-gs-4.chk"
 Charge =  0 Multiplicity = 1
 Z-Matrix found in chk file.
 O,0,2.798035,-1.572028,0.417829
 O,0,-3.437111,-1.653321,-0.43864
 N,0,-0.654499,1.524434,-0.120601
 H,0,-0.973501,2.477794,-0.161363
 C,0,-1.241474,-0.768716,-0.183694
 C,0,0.674573,1.312704,0.087494
 C,0,-1.618978,0.538403,-0.244897
 C,0,-2.17453,-1.826255,-0.297965
 C,0,0.209314,-1.133434,0.005091
 H,0,0.317558,-1.77306,0.884487
 H,0,0.554957,-1.732344,-0.841891
 C,0,1.144524,0.0414,0.15485
 C,0,2.52047,-0.373637,0.370227
 C,0,-2.991841,1.075036,-0.42639
 H,0,-3.006357,1.873184,-1.173932
 H,0,-3.703838,0.322532,-0.760528
 H,0,-3.386173,1.481203,0.509033
 C,0,-1.810302,-3.280677,-0.270984
 H,0,-2.239637,-3.858895,-1.091914
 H,0,-0.735758,-3.443892,-0.310817
 H,0,-2.154384,-3.749835,0.655524
 C,0,3.656826,0.601779,0.538556
 H,0,3.760292,1.279296,-0.306625
 H,0,3.554519,1.206571,1.438632
 H,0,4.563556,0.007354,0.621762
 C,0,1.44429,2.58998,0.212239
 H,0,1.975773,2.662621,1.15755
 H,0,2.168686,2.715323,-0.590069
 H,0,0.785009,3.45648,0.167035
 Recover connectivity data from disk.
 ITRead=  0  0  0  0  0  0  0  0  0  0  0  0  0  0  0  0  0  0  0  0
 ITRead=  0  0  0  0  0  0  0  0  0
 MicOpt= -1 -1 -1 -1 -1 -1 -1 -1 -1 -1 -1 -1 -1 -1 -1 -1 -1 -1 -1 -1
 MicOpt= -1 -1 -1 -1 -1 -1 -1 -1 -1
 NAtoms=     29 NQM=       29 NQMF=       0 NMMI=      0 NMMIF=      0
                NMic=       0 NMicF=      0.
                    Isotopes and Nuclear Properties:
 (Nuclear quadrupole moments (NQMom) in fm**2, nuclear magnetic moments (NMagM)
  in nuclear magnetons)

  Atom         1           2           3           4           5           6           7           8           9          10
 IAtWgt=          16          16          14           1          12          12          12          12          12           1
 AtmWgt=  15.9949146  15.9949146  14.0030740   1.0078250  12.0000000  12.0000000  12.0000000  12.0000000  12.0000000   1.0078250
 NucSpn=           0           0           2           1           0           0           0           0           0           1
 AtZEff=   5.6000000   5.6000000   4.5500000   1.0000000   3.6000000   3.6000000   3.6000000   3.6000000   3.6000000   1.0000000
 NQMom=    0.0000000   0.0000000   2.0440000   0.0000000   0.0000000   0.0000000   0.0000000   0.0000000   0.0000000   0.0000000
 NMagM=    0.0000000   0.0000000   0.4037610   2.7928460   0.0000000   0.0000000   0.0000000   0.0000000   0.0000000   2.7928460
 AtZNuc=   8.0000000   8.0000000   7.0000000   1.0000000   6.0000000   6.0000000   6.0000000   6.0000000   6.0000000   1.0000000

  Atom        11          12          13          14          15          16          17          18          19          20
 IAtWgt=           1          12          12          12           1           1           1          12           1           1
 AtmWgt=   1.0078250  12.0000000  12.0000000  12.0000000   1.0078250   1.0078250   1.0078250  12.0000000   1.0078250   1.0078250
 NucSpn=           1           0           0           0           1           1           1           0           1           1
 AtZEff=   1.0000000   3.6000000   3.6000000   3.6000000   1.0000000   1.0000000   1.0000000   3.6000000   1.0000000   1.0000000
 NQMom=    0.0000000   0.0000000   0.0000000   0.0000000   0.0000000   0.0000000   0.0000000   0.0000000   0.0000000   0.0000000
 NMagM=    2.7928460   0.0000000   0.0000000   0.0000000   2.7928460   2.7928460   2.7928460   0.0000000   2.7928460   2.7928460
 AtZNuc=   1.0000000   6.0000000   6.0000000   6.0000000   1.0000000   1.0000000   1.0000000   6.0000000   1.0000000   1.0000000

  Atom        21          22          23          24          25          26          27          28          29
 IAtWgt=           1          12           1           1           1          12           1           1           1
 AtmWgt=   1.0078250  12.0000000   1.0078250   1.0078250   1.0078250  12.0000000   1.0078250   1.0078250   1.0078250
 NucSpn=           1           0           1           1           1           0           1           1           1
 AtZEff=   1.0000000   3.6000000   1.0000000   1.0000000   1.0000000   3.6000000   1.0000000   1.0000000   1.0000000
 NQMom=    0.0000000   0.0000000   0.0000000   0.0000000   0.0000000   0.0000000   0.0000000   0.0000000   0.0000000
 NMagM=    2.7928460   0.0000000   2.7928460   2.7928460   2.7928460   0.0000000   2.7928460   2.7928460   2.7928460
 AtZNuc=   1.0000000   6.0000000   1.0000000   1.0000000   1.0000000   6.0000000   1.0000000   1.0000000   1.0000000
 Leave Link  101 at Fri Jan 23 22:43:35 2026, MaxMem=  2147483648 cpu:               0.8 elap:               0.1
 (Enter /data/home/wyx/g16/l202.exe)
                          Input orientation:                          
 ---------------------------------------------------------------------
 Center     Atomic      Atomic             Coordinates (Angstroms)
 Number     Number       Type             X           Y           Z
 ---------------------------------------------------------------------
      1          8           0        2.798035   -1.572028    0.417829
      2          8           0       -3.437111   -1.653321   -0.438640
      3          7           0       -0.654499    1.524434   -0.120601
      4          1           0       -0.973501    2.477794   -0.161363
      5          6           0       -1.241474   -0.768716   -0.183694
      6          6           0        0.674573    1.312704    0.087494
      7          6           0       -1.618978    0.538403   -0.244897
      8          6           0       -2.174530   -1.826255   -0.297965
      9          6           0        0.209314   -1.133434    0.005091
     10          1           0        0.317558   -1.773060    0.884487
     11          1           0        0.554957   -1.732344   -0.841891
     12          6           0        1.144524    0.041400    0.154850
     13          6           0        2.520470   -0.373637    0.370227
     14          6           0       -2.991841    1.075036   -0.426390
     15          1           0       -3.006357    1.873184   -1.173932
     16          1           0       -3.703838    0.322532   -0.760528
     17          1           0       -3.386173    1.481203    0.509033
     18          6           0       -1.810302   -3.280677   -0.270984
     19          1           0       -2.239637   -3.858895   -1.091914
     20          1           0       -0.735758   -3.443892   -0.310817
     21          1           0       -2.154384   -3.749835    0.655524
     22          6           0        3.656826    0.601779    0.538556
     23          1           0        3.760292    1.279296   -0.306625
     24          1           0        3.554519    1.206571    1.438632
     25          1           0        4.563556    0.007354    0.621762
     26          6           0        1.444290    2.589980    0.212239
     27          1           0        1.975773    2.662621    1.157550
     28          1           0        2.168686    2.715323   -0.590069
     29          1           0        0.785009    3.456480    0.167035
 ---------------------------------------------------------------------
                    Distance matrix (angstroms):
                    1          2          3          4          5
     1  O    0.000000
     2  O    6.294219   0.000000
     3  N    4.668830   4.235824   0.000000
     4  H    5.564261   4.817922   1.006141   0.000000
     5  C    4.162304   2.380829   2.367923   3.257627   0.000000
     6  C    3.597206   5.097065   1.361824   2.033596   2.842022
     7  C    4.939952   2.854260   1.384892   2.045692   1.361916
     8  C    5.030248   1.282110   3.683622   4.470567   1.414935
     9  C    2.657855   3.709932   2.797541   3.803646   1.507795
    10  H    2.531985   3.982781   3.581698   4.564033   2.140163
    11  H    2.577595   4.013161   3.548189   4.530404   2.142187
    12  C    2.325168   4.920944   2.347711   3.243769   2.542417
    13  C    1.231036   6.146920   3.731489   4.541044   3.822975
    14  C    6.422018   2.764480   2.399715   2.472178   2.553842
    15  H    6.934995   3.628008   2.600456   2.350181   3.327915
    16  H    6.874026   2.019592   3.339542   3.529716   2.754414
    17  H    6.897461   3.275045   2.803632   2.695109   3.184610
    18  C    4.962934   2.307142   4.944450   5.819986   2.577040
    19  H    5.734738   2.593312   5.695291   6.528603   3.372002
    20  H    4.064787   3.243423   4.972630   5.928341   2.725523
    21  H    5.415330   2.690345   5.538045   6.391021   3.228740
    22  C    2.340413   7.507618   4.457948   5.044725   5.137436
    23  H    3.095290   7.773048   4.425503   4.885314   5.406212
    24  H    3.055310   7.783702   4.499786   4.967792   5.434634
    25  H    2.377625   8.239719   5.484590   6.113539   5.911803
    26  C    4.381461   6.500563   2.377201   2.449056   4.318672
    27  H    4.376706   7.104540   3.138068   3.236033   4.891185
    28  H    4.448968   7.108653   3.099837   3.180180   4.892122
    29  H    5.422275   6.656065   2.426462   2.039125   4.699141
                    6          7          8          9         10
     6  C    0.000000
     7  C    2.443441   0.000000
     8  C    4.256645   2.429622   0.000000
     9  C    2.491355   2.490017   2.500911   0.000000
    10  H    3.206961   3.220022   2.758899   1.092783   0.000000
    11  H    3.185966   3.199795   2.784739   1.093408   1.743100
    12  C    1.357057   2.836151   3.835270   1.509066   2.123325
    13  C    2.516152   4.283133   4.959799   2.460093   2.660013
    14  C    3.709873   1.485149   3.016949   3.912916   4.558747
    15  H    3.931231   2.137655   3.891671   4.557454   5.346082
    16  H    4.568377   2.158499   2.677692   4.244852   4.823817
    17  H    4.086043   2.140154   3.613669   4.474127   4.944574
    18  C    5.234717   3.823958   1.499578   2.960696   2.852334
    19  H    6.052195   4.520939   2.183167   3.824777   3.846572
    20  H    4.977237   4.079595   2.164943   2.516183   2.308659
    21  H    5.827088   4.414341   2.147023   3.585483   3.173415
    22  C    3.098823   5.334034   6.371800   3.896266   4.112206
    23  H    3.110966   5.430403   6.698256   4.304402   4.752688
    24  H    3.182912   5.481404   6.710872   4.326784   4.434320
    25  H    4.136855   6.265528   7.043424   4.543248   4.611659
    26  C    1.496482   3.715044   5.732303   3.928344   4.556047
    27  H    2.158800   4.404701   6.284389   4.342646   4.743364
    28  H    2.158427   4.382297   6.290849   4.359620   5.074108
    29  H    2.148092   3.803159   6.073087   4.628711   5.299183
                   11         12         13         14         15
    11  H    0.000000
    12  C    2.118313   0.000000
    13  C    2.679283   1.453228   0.000000
    14  C    4.542444   4.302994   5.754896   0.000000
    15  H    5.078685   4.727675   6.162666   1.093650   0.000000
    16  H    4.729320   4.942020   6.364375   1.088508   1.749830
    17  H    5.261595   4.767147   6.192587   1.093383   1.769260
    18  C    2.884046   4.466377   5.255247   4.515797   5.367322
    19  H    3.520580   5.312181   6.078116   5.035117   5.783711
    20  H    2.208479   3.987426   4.526953   5.052126   5.845672
    21  H    3.695003   5.050439   5.773592   5.015102   5.974204
    22  C    4.120116   2.602483   1.507009   6.734973   6.996220
    23  H    4.430650   2.930459   2.174276   6.756283   6.847807
    24  H    4.778638   2.968804   2.169747   6.808116   7.093304
    25  H    4.608437   3.450934   2.093472   7.702116   8.000589
    26  C    4.537024   2.566790   3.156921   4.730979   4.716304
    27  H    5.033110   2.926975   3.183620   5.450365   5.557035
    28  H    4.738067   2.958661   3.253858   5.417414   5.275525
    29  H    5.291007   3.433973   4.209858   4.504223   4.321976
                   16         17         18         19         20
    16  H    0.000000
    17  H    1.747917   0.000000
    18  C    4.099786   5.076150   0.000000
    19  H    4.442751   5.691592   1.092058   0.000000
    20  H    4.816398   5.652735   1.087599   1.744704   0.000000
    21  H    4.581505   5.376107   1.094038   1.752912   1.743535
    22  C    7.479637   7.097753   6.754133   7.571283   6.031889
    23  H    7.538877   7.195695   7.199038   7.938314   6.520965
    24  H    7.635547   7.008051   7.199964   8.101534   6.564591
    25  H    8.388079   8.085984   7.227324   8.010493   6.392459
    26  C    5.708837   4.964962   6.729821   7.540565   6.436910
    27  H    6.435295   5.528724   7.190123   8.084550   6.840907
    28  H    6.343583   5.795475   7.203206   7.931299   6.815402
    29  H    5.552635   4.627898   7.233034   8.015494   7.082105
                   21         22         23         24         25
    21  H    0.000000
    22  C    7.260881   0.000000
    23  H    7.823125   1.088148   0.000000
    24  H    7.600710   1.089209   1.758850   0.000000
    25  H    7.697293   1.087393   1.767759   1.767358   0.000000
    26  C    7.303438   2.992447   2.711269   2.805517   4.070318
    27  H    7.643940   2.730597   2.691079   2.165993   3.746216
    28  H    7.876465   2.820536   2.162342   2.883140   3.812746
    29  H    7.798053   4.066286   3.717095   3.788038   5.136211
                   26         27         28         29
    26  C    0.000000
    27  H    1.086906   0.000000
    28  H    1.088190   1.759024   0.000000
    29  H    1.089733   1.740474   1.742723   0.000000
 Stoichiometry    C11H15NO2
 Framework group  C1[X(C11H15NO2)]
 Deg. of freedom    81
 Full point group                 C1      NOp   1
 RotChk:  IX=0 Diff= 5.72D-16
 Largest Abelian subgroup         C1      NOp   1
 Largest concise Abelian subgroup C1      NOp   1
                         Standard orientation:                         
 ---------------------------------------------------------------------
 Center     Atomic      Atomic             Coordinates (Angstroms)
 Number     Number       Type             X           Y           Z
 ---------------------------------------------------------------------
      1          8           0        2.253211   -2.315570    0.012476
      2          8           0       -3.673415   -0.196361    0.047782
      3          7           0        0.058911    1.805307   -0.024820
      4          1           0        0.090118    2.810940   -0.017948
      5          6           0       -1.293979   -0.138014   -0.009006
      6          6           0        1.245686    1.137600   -0.007559
      7          6           0       -1.196345    1.220391   -0.013328
      8          6           0       -2.543701   -0.801303    0.007805
      9          6           0       -0.050190   -0.990103   -0.028430
     10          1           0       -0.056777   -1.672093    0.825397
     11          1           0       -0.050243   -1.627119   -0.917110
     12          6           0        1.247133   -0.219454   -0.010167
     13          6           0        2.407439   -1.094245    0.007228
     14          6           0       -2.306899    2.206334    0.002641
     15          1           0       -2.140640    2.997771   -0.733603
     16          1           0       -3.274136    1.763943   -0.228863
     17          1           0       -2.407581    2.674969    0.985356
     18          6           0       -2.709557   -2.291417   -0.020183
     19          1           0       -3.418004   -2.642982   -0.773241
     20          1           0       -1.774753   -2.813093   -0.212189
     21          1           0       -3.070141   -2.659999    0.944724
     22          6           0        3.824279   -0.580845    0.014954
     23          1           0        4.045034    0.061849   -0.834916
     24          1           0        4.059170   -0.025006    0.921732
     25          1           0        4.469201   -1.455063   -0.032399
     26          6           0        2.421892    2.062642    0.009605
     27          1           0        3.065172    1.898752    0.870242
     28          1           0        3.031807    1.971400   -0.886965
     29          1           0        2.106490    3.104510    0.060101
 ---------------------------------------------------------------------
 Rotational constants (GHZ):           1.1027059           0.4826739           0.3392595
 Leave Link  202 at Fri Jan 23 22:43:35 2026, MaxMem=  2147483648 cpu:               0.0 elap:               0.0
 (Enter /data/home/wyx/g16/l301.exe)
 Standard basis: TZVP (5D, 7F)
 Ernie: Thresh=  0.10000D-02 Tol=  0.10000D-05 Strict=F.
 There are   370 symmetry adapted cartesian basis functions of A   symmetry.
 There are   356 symmetry adapted basis functions of A   symmetry.
   356 basis functions,   610 primitive gaussians,   370 cartesian basis functions
    52 alpha electrons       52 beta electrons
       nuclear repulsion energy       899.1439204817 Hartrees.
 IExCor=20419 DFT=T Ex+Corr=CAM-B3LYP ExCW=0 ScaHFX=  1.000000
 ScaDFX=  1.000000  1.000000  1.000000  0.810000 ScalE2=  1.000000  1.000000
 IRadAn=      5 IRanWt=     -1 IRanGd=            0 ICorTp=0 IEmpDi=141
 HFx  wShort=  0.000000 wLong=  0.330000 cFull=  0.190000 cShort=  0.000000 cLong=  0.460000
 DFx  wShort=  0.000000 wLong=  0.330000 cFull=  0.190000 cShort=  0.000000 cLong=  0.460000
 NAtoms=   29 NActive=   29 NUniq=   29 SFac= 1.00D+00 NAtFMM=   60 NAOKFM=F Big=F
 Integral buffers will be    131072 words long.
 Raffenetti 2 integral format.
 Two-electron integral symmetry is turned on.
 R6Disp:  Grimme-D3(BJ) Dispersion energy=       -0.0260904230 Hartrees.
 Nuclear repulsion after empirical dispersion term =      899.1178300587 Hartrees.
 ------------------------------------------------------------------------------
 Polarizable Continuum Model (PCM)
 =================================
 Model                : PCM.
 Atomic radii         : UFF (Universal Force Field).
 Polarization charges : Total charges.
 Charge compensation  : None.
 Solution method      : On-the-fly selection.
 Cavity type          : Scaled VdW (van der Waals Surface) (Alpha=1.100).
 Cavity algorithm     : GePol (No added spheres)
                        Default sphere list used, NSphG=   29.
                        Lebedev-Laikov grids with approx.  5.0 points / Ang**2.
                        Smoothing algorithm: York/Karplus (Gamma=1.0000).
                        Polarization charges: spherical gaussians, with
                                              point-specific exponents (IZeta= 3).
                        Self-potential: point-specific (ISelfS= 7).
                        Self-field    : sphere-specific E.n sum rule (ISelfD= 2).
 Solvent              : TetraHydroFuran, Eps=   7.425700 Eps(inf)=   1.974025
 ------------------------------------------------------------------------------
 GePol: Number of generator spheres                  =      29
 GePol: Total number of spheres                      =      29
 GePol: Number of exposed spheres                    =      29 (100.00%)
 GePol: Number of points                             =    2120
 GePol: Average weight of points                     =       0.13
 GePol: Minimum weight of points                     =   0.32D-11
 GePol: Maximum weight of points                     =    0.20577
 GePol: Number of points with low weight             =     144
 GePol: Fraction of low-weight points (<1% of avg)   =       6.79%
 GePol: Cavity surface area                          =    268.995 Ang**2
 GePol: Cavity volume                                =    286.447 Ang**3
 Leave Link  301 at Fri Jan 23 22:43:35 2026, MaxMem=  2147483648 cpu:               0.6 elap:               0.0
 (Enter /data/home/wyx/g16/l302.exe)
 NPDir=0 NMtPBC=     1 NCelOv=     1 NCel=       1 NClECP=     1 NCelD=      1
         NCelK=      1 NCelE2=     1 NClLst=     1 CellRange=     0.0.
 One-electron integrals computed using PRISM.
 One-electron integral symmetry used in STVInt
 NBasis=   356 RedAO= T EigKep=  3.34D-05  NBF=   356
 NBsUse=   356 1.00D-06 EigRej= -1.00D+00 NBFU=   356
 Precomputing XC quadrature grid using
 IXCGrd= 4 IRadAn=           5 IRanWt=          -1 IRanGd=           0 AccXCQ= 0.00D+00.
 Generated NRdTot=       0 NPtTot=           0 NUsed=           0 NTot=          32
 NSgBfM=   366   366   366   366   366 MxSgAt=    29 MxSgA2=    29.
 Leave Link  302 at Fri Jan 23 22:43:36 2026, MaxMem=  2147483648 cpu:               3.1 elap:               0.2
 (Enter /data/home/wyx/g16/l303.exe)
 DipDrv:  MaxL=1.
 Leave Link  303 at Fri Jan 23 22:43:36 2026, MaxMem=  2147483648 cpu:               0.5 elap:               0.0
 (Enter /data/home/wyx/g16/l401.exe)
 Initial guess from the checkpoint file:  "DDL-S2-cLR-gs-4.chk"
 B after Tr=    -0.000000    0.000000   -0.000000
         Rot=    1.000000    0.000000   -0.000000    0.000000 Ang=   0.00 deg.
 Guess basis will be translated and rotated to current coordinates.
 JPrj=2 DoOrth=T DoCkMO=T.
 Leave Link  401 at Fri Jan 23 22:43:36 2026, MaxMem=  2147483648 cpu:               2.2 elap:               0.1
 (Enter /data/home/wyx/g16/l502.exe)
 Integral symmetry usage will be decided dynamically.
 Closed shell SCF:
 Using DIIS extrapolation, IDIIS=  1040.
 NGot=  2147483648 LenX=  2147200095 LenY=  2147062754
 Requested convergence on RMS density matrix=1.00D-08 within 128 cycles.
 Requested convergence on MAX density matrix=1.00D-06.
 Requested convergence on             energy=1.00D-06.
 No special actions if energy rises.
 Fock matrices will be formed incrementally for  20 cycles.

 Cycle   1  Pass 1  IDiag  1:
 FoFJK:  IHMeth= 1 ICntrl=       0 DoSepK=T KAlg= 0 I1Cent=           0 FoldK=F
 IRaf=         1 NMat=       1 IRICut=       1 DoRegI=T DoRafI=F ISym2E= 0 IDoP0=0 IntGTp=1.
 FoFCou: FMM=F IPFlag=           0 FMFlag=      100000 FMFlg1=           0
         NFxFlg=           0 DoJE=T BraDBF=F KetDBF=F FulRan=T
         wScrn=  0.000000 ICntrl=       500 IOpCl=  0 I1Cent=           0 NGrid=           0
         NMat0=    1 NMatS0=      1 NMatT0=    0 NMatD0=    1 NMtDS0=    0 NMtDT0=    0
 Symmetry not used in FoFCou.
 Inv3:  Mode=1 IEnd=    13483200.
 Iteration    1 A*A^-1 deviation from unit magnitude is 3.22D-15 for   1422.
 Iteration    1 A*A^-1 deviation from orthogonality  is 2.08D-15 for    751    234.
 Iteration    1 A^-1*A deviation from unit magnitude is 3.00D-15 for   1422.
 Iteration    1 A^-1*A deviation from orthogonality  is 2.36D-15 for   1371   1349.
 NEqPCM:  Using non-equilibrium solvation (IEInf=1, Eps=   7.4257, EpsInf=   1.9740)
 Inv3:  Mode=1 IEnd=    13483200.
 Iteration    1 A*A^-1 deviation from unit magnitude is 2.89D-15 for   1146.
 Iteration    1 A*A^-1 deviation from orthogonality  is 2.08D-15 for   1817    202.
 Iteration    1 A^-1*A deviation from unit magnitude is 3.22D-15 for    240.
 Iteration    1 A^-1*A deviation from orthogonality  is 1.71D-15 for   1818    203.
 E= -633.314284563499    
 DIIS: error= 6.26D-04 at cycle   1 NSaved=   1.
 NSaved= 1 IEnMin= 1 EnMin= -633.314284563499     IErMin= 1 ErrMin= 6.26D-04
 ErrMax= 6.26D-04  0.00D+00 EMaxC= 1.00D-01 BMatC= 5.16D-05 BMatP= 5.16D-05
 IDIUse=3 WtCom= 9.94D-01 WtEn= 6.26D-03
 Coeff-Com:  0.100D+01
 Coeff-En:   0.100D+01
 Coeff:      0.100D+01
 Gap=     0.229 Goal=   None    Shift=    0.000
 RMSDP=3.08D-04 MaxDP=3.32D-02              OVMax= 8.63D-03

 Cycle   2  Pass 1  IDiag  1:
 RMSU=  3.00D-04    CP:  1.01D+00
 E= -633.314370992370     Delta-E=       -0.000086428871 Rises=F Damp=F
 DIIS: error= 4.05D-04 at cycle   2 NSaved=   2.
 NSaved= 2 IEnMin= 2 EnMin= -633.314370992370     IErMin= 2 ErrMin= 4.05D-04
 ErrMax= 4.05D-04  0.00D+00 EMaxC= 1.00D-01 BMatC= 6.36D-05 BMatP= 5.16D-05
 IDIUse=3 WtCom= 3.32D-01 WtEn= 6.68D-01
 Coeff-Com:  0.537D+00 0.463D+00
 Coeff-En:   0.000D+00 0.100D+01
 Coeff:      0.178D+00 0.822D+00
 Gap=     0.229 Goal=   None    Shift=    0.000
 RMSDP=1.99D-04 MaxDP=1.27D-02 DE=-8.64D-05 OVMax= 3.46D-03

 Cycle   3  Pass 1  IDiag  1:
 RMSU=  1.66D-04    CP:  9.99D-01  7.74D-01
 E= -633.314357529421     Delta-E=        0.000013462949 Rises=F Damp=F
 DIIS: error= 5.47D-04 at cycle   3 NSaved=   3.
 NSaved= 3 IEnMin= 2 EnMin= -633.314370992370     IErMin= 2 ErrMin= 4.05D-04
 ErrMax= 5.47D-04  0.00D+00 EMaxC= 1.00D-01 BMatC= 9.31D-05 BMatP= 5.16D-05
 IDIUse=3 WtCom= 3.00D-01 WtEn= 7.00D-01
 Coeff-Com:  0.743D-01 0.520D+00 0.406D+00
 Coeff-En:   0.000D+00 0.548D+00 0.452D+00
 Coeff:      0.223D-01 0.539D+00 0.439D+00
 Gap=     0.229 Goal=   None    Shift=    0.000
 RMSDP=6.14D-05 MaxDP=4.91D-03 DE= 1.35D-05 OVMax= 2.36D-03

 Cycle   4  Pass 1  IDiag  1:
 RMSU=  1.81D-05    CP:  1.00D+00  8.65D-01  7.41D-01
 E= -633.314425538199     Delta-E=       -0.000068008778 Rises=F Damp=F
 DIIS: error= 7.43D-05 at cycle   4 NSaved=   4.
 NSaved= 4 IEnMin= 4 EnMin= -633.314425538199     IErMin= 4 ErrMin= 7.43D-05
 ErrMax= 7.43D-05  0.00D+00 EMaxC= 1.00D-01 BMatC= 6.00D-07 BMatP= 5.16D-05
 IDIUse=1 WtCom= 1.00D+00 WtEn= 0.00D+00
 Coeff-Com: -0.127D-01 0.134D+00 0.137D+00 0.742D+00
 Coeff:     -0.127D-01 0.134D+00 0.137D+00 0.742D+00
 Gap=     0.229 Goal=   None    Shift=    0.000
 RMSDP=1.65D-05 MaxDP=1.01D-03 DE=-6.80D-05 OVMax= 7.48D-04

 Cycle   5  Pass 1  IDiag  1:
 RMSU=  7.26D-06    CP:  1.00D+00  8.56D-01  8.20D-01  9.95D-01
 E= -633.314426373960     Delta-E=       -0.000000835761 Rises=F Damp=F
 DIIS: error= 2.48D-05 at cycle   5 NSaved=   5.
 NSaved= 5 IEnMin= 5 EnMin= -633.314426373960     IErMin= 5 ErrMin= 2.48D-05
 ErrMax= 2.48D-05  0.00D+00 EMaxC= 1.00D-01 BMatC= 1.72D-07 BMatP= 6.00D-07
 IDIUse=1 WtCom= 1.00D+00 WtEn= 0.00D+00
 Coeff-Com: -0.142D-01-0.220D-01 0.221D-02 0.345D+00 0.689D+00
 Coeff:     -0.142D-01-0.220D-01 0.221D-02 0.345D+00 0.689D+00
 Gap=     0.229 Goal=   None    Shift=    0.000
 RMSDP=7.67D-06 MaxDP=4.03D-04 DE=-8.36D-07 OVMax= 3.25D-04

 Cycle   6  Pass 1  IDiag  1:
 RMSU=  2.25D-06    CP:  1.00D+00  8.49D-01  8.56D-01  1.13D+00  1.13D+00
 E= -633.314426656943     Delta-E=       -0.000000282983 Rises=F Damp=F
 DIIS: error= 1.91D-05 at cycle   6 NSaved=   6.
 NSaved= 6 IEnMin= 6 EnMin= -633.314426656943     IErMin= 6 ErrMin= 1.91D-05
 ErrMax= 1.91D-05  0.00D+00 EMaxC= 1.00D-01 BMatC= 2.13D-08 BMatP= 1.72D-07
 IDIUse=1 WtCom= 1.00D+00 WtEn= 0.00D+00
 Coeff-Com: -0.109D-02-0.299D-01-0.164D-01 0.251D-02 0.190D+00 0.855D+00
 Coeff:     -0.109D-02-0.299D-01-0.164D-01 0.251D-02 0.190D+00 0.855D+00
 Gap=     0.229 Goal=   None    Shift=    0.000
 RMSDP=3.76D-06 MaxDP=1.98D-04 DE=-2.83D-07 OVMax= 2.51D-04

 Cycle   7  Pass 1  IDiag  1:
 RMSU=  1.33D-06    CP:  1.00D+00  8.43D-01  8.71D-01  1.20D+00  1.22D+00
                    CP:  1.26D+00
 E= -633.314426716588     Delta-E=       -0.000000059645 Rises=F Damp=F
 DIIS: error= 7.19D-06 at cycle   7 NSaved=   7.
 NSaved= 7 IEnMin= 7 EnMin= -633.314426716588     IErMin= 7 ErrMin= 7.19D-06
 ErrMax= 7.19D-06  0.00D+00 EMaxC= 1.00D-01 BMatC= 9.38D-09 BMatP= 2.13D-08
 IDIUse=1 WtCom= 1.00D+00 WtEn= 0.00D+00
 Coeff-Com:  0.273D-02-0.104D-01-0.612D-02-0.724D-01-0.958D-01 0.433D+00
 Coeff-Com:  0.749D+00
 Coeff:      0.273D-02-0.104D-01-0.612D-02-0.724D-01-0.958D-01 0.433D+00
 Coeff:      0.749D+00
 Gap=     0.229 Goal=   None    Shift=    0.000
 RMSDP=1.52D-06 MaxDP=9.73D-05 DE=-5.96D-08 OVMax= 1.32D-04

 Cycle   8  Pass 1  IDiag  1:
 RMSU=  4.47D-07    CP:  1.00D+00  8.41D-01  8.77D-01  1.21D+00  1.28D+00
                    CP:  1.46D+00  1.09D+00
 E= -633.314426734698     Delta-E=       -0.000000018110 Rises=F Damp=F
 DIIS: error= 2.06D-06 at cycle   8 NSaved=   8.
 NSaved= 8 IEnMin= 8 EnMin= -633.314426734698     IErMin= 8 ErrMin= 2.06D-06
 ErrMax= 2.06D-06  0.00D+00 EMaxC= 1.00D-01 BMatC= 9.74D-10 BMatP= 9.38D-09
 IDIUse=1 WtCom= 1.00D+00 WtEn= 0.00D+00
 Coeff-Com:  0.115D-02 0.161D-03 0.746D-03-0.249D-01-0.782D-01 0.219D-01
 Coeff-Com:  0.270D+00 0.809D+00
 Coeff:      0.115D-02 0.161D-03 0.746D-03-0.249D-01-0.782D-01 0.219D-01
 Coeff:      0.270D+00 0.809D+00
 Gap=     0.229 Goal=   None    Shift=    0.000
 RMSDP=5.34D-07 MaxDP=2.37D-05 DE=-1.81D-08 OVMax= 4.63D-05

 Cycle   9  Pass 1  IDiag  1:
 RMSU=  1.64D-07    CP:  1.00D+00  8.40D-01  8.78D-01  1.22D+00  1.28D+00
                    CP:  1.55D+00  1.31D+00  1.16D+00
 E= -633.314426736650     Delta-E=       -0.000000001952 Rises=F Damp=F
 DIIS: error= 8.05D-07 at cycle   9 NSaved=   9.
 NSaved= 9 IEnMin= 9 EnMin= -633.314426736650     IErMin= 9 ErrMin= 8.05D-07
 ErrMax= 8.05D-07  0.00D+00 EMaxC= 1.00D-01 BMatC= 1.20D-10 BMatP= 9.74D-10
 IDIUse=1 WtCom= 1.00D+00 WtEn= 0.00D+00
 Coeff-Com:  0.124D-03 0.146D-02 0.118D-02 0.165D-02-0.188D-01-0.508D-01
 Coeff-Com:  0.139D-01 0.340D+00 0.711D+00
 Coeff:      0.124D-03 0.146D-02 0.118D-02 0.165D-02-0.188D-01-0.508D-01
 Coeff:      0.139D-01 0.340D+00 0.711D+00
 Gap=     0.229 Goal=   None    Shift=    0.000
 RMSDP=1.64D-07 MaxDP=9.43D-06 DE=-1.95D-09 OVMax= 1.27D-05

 Cycle  10  Pass 1  IDiag  1:
 RMSU=  6.61D-08    CP:  1.00D+00  8.40D-01  8.77D-01  1.22D+00  1.27D+00
                    CP:  1.57D+00  1.35D+00  1.25D+00  9.37D-01
 E= -633.314426736833     Delta-E=       -0.000000000183 Rises=F Damp=F
 DIIS: error= 3.11D-07 at cycle  10 NSaved=  10.
 NSaved=10 IEnMin=10 EnMin= -633.314426736833     IErMin=10 ErrMin= 3.11D-07
 ErrMax= 3.11D-07  0.00D+00 EMaxC= 1.00D-01 BMatC= 3.07D-11 BMatP= 1.20D-10
 IDIUse=1 WtCom= 1.00D+00 WtEn= 0.00D+00
 Coeff-Com: -0.760D-04 0.694D-03 0.369D-03 0.377D-02-0.737D-03-0.291D-01
 Coeff-Com: -0.216D-01 0.588D-01 0.359D+00 0.629D+00
 Coeff:     -0.760D-04 0.694D-03 0.369D-03 0.377D-02-0.737D-03-0.291D-01
 Coeff:     -0.216D-01 0.588D-01 0.359D+00 0.629D+00
 Gap=     0.229 Goal=   None    Shift=    0.000
 RMSDP=8.69D-08 MaxDP=7.20D-06 DE=-1.83D-10 OVMax= 3.54D-06

 Cycle  11  Pass 1  IDiag  1:
 RMSU=  2.99D-08    CP:  1.00D+00  8.40D-01  8.77D-01  1.22D+00  1.27D+00
                    CP:  1.57D+00  1.38D+00  1.27D+00  1.10D+00  9.53D-01
 E= -633.314426736871     Delta-E=       -0.000000000038 Rises=F Damp=F
 DIIS: error= 1.16D-07 at cycle  11 NSaved=  11.
 NSaved=11 IEnMin=11 EnMin= -633.314426736871     IErMin=11 ErrMin= 1.16D-07
 ErrMax= 1.16D-07  0.00D+00 EMaxC= 1.00D-01 BMatC= 5.01D-12 BMatP= 3.07D-11
 IDIUse=1 WtCom= 1.00D+00 WtEn= 0.00D+00
 Coeff-Com: -0.609D-04 0.806D-04-0.114D-03 0.166D-02 0.397D-02-0.372D-02
 Coeff-Com: -0.127D-01-0.513D-01 0.396D-01 0.291D+00 0.732D+00
 Coeff:     -0.609D-04 0.806D-04-0.114D-03 0.166D-02 0.397D-02-0.372D-02
 Coeff:     -0.127D-01-0.513D-01 0.396D-01 0.291D+00 0.732D+00
 Gap=     0.229 Goal=   None    Shift=    0.000
 RMSDP=3.81D-08 MaxDP=3.42D-06 DE=-3.75D-11 OVMax= 1.47D-06

 Cycle  12  Pass 1  IDiag  1:
 RMSU=  9.35D-09    CP:  1.00D+00  8.40D-01  8.77D-01  1.22D+00  1.27D+00
                    CP:  1.57D+00  1.39D+00  1.28D+00  1.14D+00  1.07D+00
                    CP:  9.80D-01
 E= -633.314426736876     Delta-E=       -0.000000000005 Rises=F Damp=F
 DIIS: error= 3.78D-08 at cycle  12 NSaved=  12.
 NSaved=12 IEnMin=12 EnMin= -633.314426736876     IErMin=12 ErrMin= 3.78D-08
 ErrMax= 3.78D-08  0.00D+00 EMaxC= 1.00D-01 BMatC= 5.02D-13 BMatP= 5.01D-12
 IDIUse=1 WtCom= 1.00D+00 WtEn= 0.00D+00
 Coeff-Com: -0.161D-04-0.298D-04-0.858D-04 0.203D-03 0.150D-02 0.201D-02
 Coeff-Com: -0.812D-03-0.260D-01-0.226D-01 0.243D-01 0.270D+00 0.751D+00
 Coeff:     -0.161D-04-0.298D-04-0.858D-04 0.203D-03 0.150D-02 0.201D-02
 Coeff:     -0.812D-03-0.260D-01-0.226D-01 0.243D-01 0.270D+00 0.751D+00
 Gap=     0.229 Goal=   None    Shift=    0.000
 RMSDP=1.10D-08 MaxDP=1.05D-06 DE=-5.46D-12 OVMax= 4.43D-07

 Cycle  13  Pass 1  IDiag  1:
 RMSU=  3.23D-09    CP:  1.00D+00  8.40D-01  8.77D-01  1.22D+00  1.27D+00
                    CP:  1.57D+00  1.39D+00  1.28D+00  1.16D+00  1.08D+00
                    CP:  1.10D+00  1.11D+00
 E= -633.314426736883     Delta-E=       -0.000000000007 Rises=F Damp=F
 DIIS: error= 1.39D-08 at cycle  13 NSaved=  13.
 NSaved=13 IEnMin=13 EnMin= -633.314426736883     IErMin=13 ErrMin= 1.39D-08
 ErrMax= 1.39D-08  0.00D+00 EMaxC= 1.00D-01 BMatC= 8.38D-14 BMatP= 5.02D-13
 IDIUse=1 WtCom= 1.00D+00 WtEn= 0.00D+00
 Coeff-Com:  0.179D-06-0.207D-04-0.227D-04-0.170D-03 0.918D-04 0.115D-02
 Coeff-Com:  0.140D-02-0.514D-02-0.162D-01-0.380D-01 0.450D-03 0.328D+00
 Coeff-Com:  0.728D+00
 Coeff:      0.179D-06-0.207D-04-0.227D-04-0.170D-03 0.918D-04 0.115D-02
 Coeff:      0.140D-02-0.514D-02-0.162D-01-0.380D-01 0.450D-03 0.328D+00
 Coeff:      0.728D+00
 Gap=     0.229 Goal=   None    Shift=    0.000
 RMSDP=3.99D-09 MaxDP=1.92D-07 DE=-6.71D-12 OVMax= 2.20D-07

 Error on total polarization charges =  0.00986
 SCF Done:  E(RCAM-B3LYP) =  -633.314426737     A.U. after   13 cycles
            NFock= 13  Conv=0.40D-08     -V/T= 2.0042
 KE= 6.306706615578D+02 PE=-3.274287462501D+03 EE= 1.111184544147D+03
 Leave Link  502 at Fri Jan 23 22:44:28 2026, MaxMem=  2147483648 cpu:             806.5 elap:              51.1
 (Enter /data/home/wyx/g16/l601.exe)
 Copying SCF densities to generalized density rwf, IOpCl= 0 IROHF=0.

 **********************************************************************

            Population analysis using the SCF density.

 **********************************************************************

 Orbital symmetries:
       Occupied  (A) (A) (A) (A) (A) (A) (A) (A) (A) (A) (A) (A)
                 (A) (A) (A) (A) (A) (A) (A) (A) (A) (A) (A) (A)
                 (A) (A) (A) (A) (A) (A) (A) (A) (A) (A) (A) (A)
                 (A) (A) (A) (A) (A) (A) (A) (A) (A) (A) (A) (A)
                 (A) (A) (A) (A)
       Virtual   (A) (A) (A) (A) (A) (A) (A) (A) (A) (A) (A) (A)
                 (A) (A) (A) (A) (A) (A) (A) (A) (A) (A) (A) (A)
                 (A) (A) (A) (A) (A) (A) (A) (A) (A) (A) (A) (A)
                 (A) (A) (A) (A) (A) (A) (A) (A) (A) (A) (A) (A)
                 (A) (A) (A) (A) (A) (A) (A) (A) (A) (A) (A) (A)
                 (A) (A) (A) (A) (A) (A) (A) (A) (A) (A) (A) (A)
                 (A) (A) (A) (A) (A) (A) (A) (A) (A) (A) (A) (A)
                 (A) (A) (A) (A) (A) (A) (A) (A) (A) (A) (A) (A)
                 (A) (A) (A) (A) (A) (A) (A) (A) (A) (A) (A) (A)
                 (A) (A) (A) (A) (A) (A) (A) (A) (A) (A) (A) (A)
                 (A) (A) (A) (A) (A) (A) (A) (A) (A) (A) (A) (A)
                 (A) (A) (A) (A) (A) (A) (A) (A) (A) (A) (A) (A)
                 (A) (A) (A) (A) (A) (A) (A) (A) (A) (A) (A) (A)
                 (A) (A) (A) (A) (A) (A) (A) (A) (A) (A) (A) (A)
                 (A) (A) (A) (A) (A) (A) (A) (A) (A) (A) (A) (A)
                 (A) (A) (A) (A) (A) (A) (A) (A) (A) (A) (A) (A)
                 (A) (A) (A) (A) (A) (A) (A) (A) (A) (A) (A) (A)
                 (A) (A) (A) (A) (A) (A) (A) (A) (A) (A) (A) (A)
                 (A) (A) (A) (A) (A) (A) (A) (A) (A) (A) (A) (A)
                 (A) (A) (A) (A) (A) (A) (A) (A) (A) (A) (A) (A)
                 (A) (A) (A) (A) (A) (A) (A) (A) (A) (A) (A) (A)
                 (A) (A) (A) (A) (A) (A) (A) (A) (A) (A) (A) (A)
                 (A) (A) (A) (A) (A) (A) (A) (A) (A) (A) (A) (A)
                 (A) (A) (A) (A) (A) (A) (A) (A) (A) (A) (A) (A)
                 (A) (A) (A) (A) (A) (A) (A) (A) (A) (A) (A) (A)
                 (A) (A) (A) (A)
 The electronic state is 1-A.
 Alpha  occ. eigenvalues --  -19.17957 -19.16143 -14.44742 -10.33485 -10.32925
 Alpha  occ. eigenvalues --  -10.32750 -10.32442 -10.26412 -10.25374 -10.25270
 Alpha  occ. eigenvalues --  -10.25180 -10.24366 -10.24280 -10.23467  -1.11983
 Alpha  occ. eigenvalues --   -1.08664  -1.07824  -0.91806  -0.90850  -0.84009
 Alpha  occ. eigenvalues --   -0.82690  -0.81669  -0.78784  -0.74628  -0.71857
 Alpha  occ. eigenvalues --   -0.69339  -0.62272  -0.58716  -0.57156  -0.55456
 Alpha  occ. eigenvalues --   -0.55030  -0.54119  -0.52497  -0.52016  -0.50827
 Alpha  occ. eigenvalues --   -0.49759  -0.49322  -0.49039  -0.48563  -0.48160
 Alpha  occ. eigenvalues --   -0.46670  -0.45074  -0.44725  -0.44053  -0.43101
 Alpha  occ. eigenvalues --   -0.42648  -0.41581  -0.40350  -0.33174  -0.32389
 Alpha  occ. eigenvalues --   -0.30239  -0.26393
 Alpha virt. eigenvalues --   -0.03522   0.01873   0.06035   0.08051   0.08436
 Alpha virt. eigenvalues --    0.09661   0.10782   0.11431   0.12609   0.12882
 Alpha virt. eigenvalues --    0.14341   0.14947   0.15451   0.16368   0.16988
 Alpha virt. eigenvalues --    0.17295   0.17676   0.17907   0.18953   0.19440
 Alpha virt. eigenvalues --    0.19874   0.20609   0.22668   0.23171   0.23998
 Alpha virt. eigenvalues --    0.24444   0.25013   0.25418   0.26089   0.26609
 Alpha virt. eigenvalues --    0.26905   0.27425   0.28600   0.29274   0.29833
 Alpha virt. eigenvalues --    0.30700   0.30979   0.33467   0.34275   0.34662
 Alpha virt. eigenvalues --    0.35398   0.35750   0.36520   0.37119   0.37435
 Alpha virt. eigenvalues --    0.40072   0.40735   0.41234   0.42592   0.42779
 Alpha virt. eigenvalues --    0.44426   0.45316   0.45611   0.46146   0.46253
 Alpha virt. eigenvalues --    0.47549   0.47761   0.48071   0.48582   0.48811
 Alpha virt. eigenvalues --    0.50147   0.50758   0.50965   0.51234   0.51552
 Alpha virt. eigenvalues --    0.52092   0.52779   0.53231   0.53468   0.53695
 Alpha virt. eigenvalues --    0.55014   0.55561   0.55966   0.57107   0.57687
 Alpha virt. eigenvalues --    0.57949   0.58974   0.61882   0.62408   0.63044
 Alpha virt. eigenvalues --    0.63639   0.64856   0.65616   0.66961   0.67681
 Alpha virt. eigenvalues --    0.68841   0.70198   0.70831   0.71571   0.72039
 Alpha virt. eigenvalues --    0.73474   0.75757   0.77539   0.78447   0.79814
 Alpha virt. eigenvalues --    0.81858   0.83013   0.84893   0.88602   0.91817
 Alpha virt. eigenvalues --    0.93475   0.96328   1.00107   1.03638   1.18870
 Alpha virt. eigenvalues --    1.21452   1.22317   1.24783   1.29806   1.30713
 Alpha virt. eigenvalues --    1.32047   1.33510   1.33727   1.35623   1.36224
 Alpha virt. eigenvalues --    1.37665   1.37881   1.39006   1.39343   1.39942
 Alpha virt. eigenvalues --    1.40089   1.40681   1.40960   1.41415   1.42057
 Alpha virt. eigenvalues --    1.42453   1.43333   1.44511   1.44934   1.45758
 Alpha virt. eigenvalues --    1.48427   1.49556   1.50510   1.50653   1.51206
 Alpha virt. eigenvalues --    1.51936   1.53085   1.55482   1.57365   1.57831
 Alpha virt. eigenvalues --    1.58465   1.59692   1.60053   1.60962   1.61934
 Alpha virt. eigenvalues --    1.62482   1.62716   1.63665   1.64104   1.64449
 Alpha virt. eigenvalues --    1.65057   1.65510   1.65769   1.66680   1.67484
 Alpha virt. eigenvalues --    1.68754   1.69117   1.70326   1.71552   1.72032
 Alpha virt. eigenvalues --    1.72716   1.74816   1.75227   1.76090   1.80670
 Alpha virt. eigenvalues --    1.81518   1.82635   1.83267   1.83790   1.85906
 Alpha virt. eigenvalues --    1.86288   1.86607   1.89502   1.90098   1.90943
 Alpha virt. eigenvalues --    1.91384   1.93188   1.96833   1.97879   2.01543
 Alpha virt. eigenvalues --    2.02454   2.04858   2.05961   2.07906   2.09274
 Alpha virt. eigenvalues --    2.10380   2.13611   2.15052   2.17991   2.19827
 Alpha virt. eigenvalues --    2.20151   2.23522   2.25032   2.25474   2.25996
 Alpha virt. eigenvalues --    2.26918   2.29160   2.30185   2.31719   2.33054
 Alpha virt. eigenvalues --    2.35302   2.35610   2.36665   2.37906   2.39997
 Alpha virt. eigenvalues --    2.40294   2.42116   2.43398   2.44416   2.46576
 Alpha virt. eigenvalues --    2.47048   2.47769   2.49387   2.50264   2.50648
 Alpha virt. eigenvalues --    2.52839   2.53684   2.55067   2.55688   2.56349
 Alpha virt. eigenvalues --    2.56815   2.59068   2.61352   2.62904   2.63681
 Alpha virt. eigenvalues --    2.64065   2.65018   2.65810   2.66483   2.67736
 Alpha virt. eigenvalues --    2.69280   2.71127   2.73302   2.74386   2.75133
 Alpha virt. eigenvalues --    2.76049   2.76805   2.77558   2.78117   2.79683
 Alpha virt. eigenvalues --    2.80890   2.81766   2.83725   2.84280   2.85115
 Alpha virt. eigenvalues --    2.85878   2.88567   2.89755   2.90096   2.93749
 Alpha virt. eigenvalues --    2.96896   2.98843   2.99410   3.04408   3.08838
 Alpha virt. eigenvalues --    3.10752   3.12208   3.14162   3.20288   3.20829
 Alpha virt. eigenvalues --    3.21650   3.22346   3.25400   3.25599   3.26197
 Alpha virt. eigenvalues --    3.31058   3.31595   3.33829   3.36332   3.38337
 Alpha virt. eigenvalues --    3.38610   3.39649   3.40497   3.40704   3.41397
 Alpha virt. eigenvalues --    3.41540   3.44224   3.45474   3.47291   3.49905
 Alpha virt. eigenvalues --    3.50886   3.54450   3.56330   3.59172   3.60649
 Alpha virt. eigenvalues --    3.64439   3.92752   4.00777   4.30769   4.36789
 Alpha virt. eigenvalues --   21.64948  21.76941  22.06145  22.10114  22.12605
 Alpha virt. eigenvalues --   22.13587  22.16982  22.20172  22.21289  22.27876
 Alpha virt. eigenvalues --   22.32007  31.92680  43.64727  43.67675
          Condensed to atoms (all electrons):
               1          2          3          4          5          6
     1  O    7.922688   0.000000  -0.000207   0.000017   0.016553   0.016345
     2  O    0.000000   8.068229   0.000725   0.000020  -0.174552   0.001809
     3  N   -0.000207   0.000725   6.352368   0.369595  -0.103106   0.386291
     4  H    0.000017   0.000020   0.369595   0.401698   0.011343  -0.039611
     5  C    0.016553  -0.174552  -0.103106   0.011343   7.175399  -0.040248
     6  C    0.016345   0.001809   0.386291  -0.039611  -0.040248   5.528562
     7  C    0.000230  -0.008148   0.350939  -0.044809   0.363329  -0.166998
     8  C   -0.000357   0.605745   0.004289  -0.001192  -0.438605   0.047094
     9  C    0.006219   0.026281   0.024055   0.001260  -0.719455  -0.068614
    10  H    0.007450  -0.000220  -0.000043  -0.000002  -0.093154   0.006986
    11  H    0.005888  -0.000099   0.000682   0.000018  -0.079319   0.015109
    12  C   -0.255473  -0.004300  -0.106580   0.019530   0.229799  -0.103575
    13  C    0.752761   0.000007  -0.000925   0.000540   0.063845   0.080105
    14  C   -0.000013  -0.070332  -0.048934   0.001259   0.000953  -0.002440
    15  H    0.000000   0.004510   0.003151  -0.000205   0.003538   0.004311
    16  H    0.000000   0.033653   0.003361   0.000714   0.009712  -0.000226
    17  H    0.000000   0.001772  -0.002513   0.000428  -0.017966   0.000091
    18  C   -0.000332  -0.088721  -0.000310   0.000016  -0.144058  -0.002382
    19  H    0.000004   0.000396   0.000010  -0.000001   0.002149   0.000055
    20  H    0.000926   0.007259   0.000069   0.000001   0.079821  -0.001437
    21  H    0.000007  -0.001654   0.000011  -0.000001  -0.010016   0.000085
    22  C   -0.130084   0.000000  -0.000052   0.000118  -0.000085  -0.003715
    23  H    0.003311   0.000000   0.000145  -0.000037  -0.000245  -0.008908
    24  H    0.003135   0.000000   0.000166  -0.000021  -0.000155  -0.000368
    25  H    0.011269  -0.000000   0.000012  -0.000003  -0.000022  -0.002477
    26  C    0.000774   0.000011  -0.026553  -0.012447   0.002346   0.241402
    27  H   -0.000065  -0.000000  -0.002078   0.000788   0.000499  -0.038633
    28  H   -0.000030  -0.000000  -0.002336   0.000694   0.000423  -0.043162
    29  H    0.000014   0.000000   0.004849   0.002720  -0.000453  -0.052693
               7          8          9         10         11         12
     1  O    0.000230  -0.000357   0.006219   0.007450   0.005888  -0.255473
     2  O   -0.008148   0.605745   0.026281  -0.000220  -0.000099  -0.004300
     3  N    0.350939   0.004289   0.024055  -0.000043   0.000682  -0.106580
     4  H   -0.044809  -0.001192   0.001260  -0.000002   0.000018   0.019530
     5  C    0.363329  -0.438605  -0.719455  -0.093154  -0.079319   0.229799
     6  C   -0.166998   0.047094  -0.068614   0.006986   0.015109  -0.103575
     7  C    5.548266  -0.265953  -0.275671   0.008994   0.003710   0.063640
     8  C   -0.265953   5.692331   0.245138  -0.005915   0.002440  -0.099577
     9  C   -0.275671   0.245138   6.484181   0.505868   0.463839  -0.215397
    10  H    0.008994  -0.005915   0.505868   0.525734  -0.039817  -0.066503
    11  H    0.003710   0.002440   0.463839  -0.039817   0.538329  -0.051076
    12  C    0.063640  -0.099577  -0.215397  -0.066503  -0.051076   7.573828
    13  C    0.027807  -0.010099  -0.195807  -0.007166  -0.008019  -0.497089
    14  C    0.209619  -0.080476   0.018183   0.000161  -0.000635   0.005918
    15  H   -0.062790   0.006766  -0.000230  -0.000024   0.000089  -0.001336
    16  H   -0.052027  -0.024316   0.002391  -0.000051   0.000038  -0.000430
    17  H   -0.017570   0.006047  -0.000805   0.000083  -0.000023  -0.000133
    18  C    0.023389   0.289747  -0.014698  -0.005293  -0.012348   0.012375
    19  H   -0.000875  -0.023577  -0.001822   0.000355   0.000487  -0.000191
    20  H    0.006097  -0.138799  -0.017507  -0.005965  -0.001602   0.006490
    21  H   -0.001030  -0.011894  -0.001950   0.000467   0.000432  -0.000786
    22  C    0.001423  -0.000052   0.020374   0.001122   0.000519  -0.349909
    23  H   -0.000070   0.000004  -0.000694  -0.000155   0.000120   0.031943
    24  H   -0.000029   0.000002  -0.001098   0.000131  -0.000138   0.019508
    25  H    0.000010  -0.000002  -0.000012  -0.000084  -0.000030   0.028255
    26  C    0.005321   0.000932   0.016454  -0.000062  -0.000144  -0.103105
    27  H   -0.001406  -0.000003   0.000041   0.000003   0.000008  -0.001945
    28  H   -0.001156  -0.000007  -0.000534   0.000003   0.000019  -0.008868
    29  H    0.003782   0.000023  -0.000634   0.000015   0.000002   0.021579
              13         14         15         16         17         18
     1  O    0.752761  -0.000013   0.000000   0.000000   0.000000  -0.000332
     2  O    0.000007  -0.070332   0.004510   0.033653   0.001772  -0.088721
     3  N   -0.000925  -0.048934   0.003151   0.003361  -0.002513  -0.000310
     4  H    0.000540   0.001259  -0.000205   0.000714   0.000428   0.000016
     5  C    0.063845   0.000953   0.003538   0.009712  -0.017966  -0.144058
     6  C    0.080105  -0.002440   0.004311  -0.000226   0.000091  -0.002382
     7  C    0.027807   0.209619  -0.062790  -0.052027  -0.017570   0.023389
     8  C   -0.010099  -0.080476   0.006766  -0.024316   0.006047   0.289747
     9  C   -0.195807   0.018183  -0.000230   0.002391  -0.000805  -0.014698
    10  H   -0.007166   0.000161  -0.000024  -0.000051   0.000083  -0.005293
    11  H   -0.008019  -0.000635   0.000089   0.000038  -0.000023  -0.012348
    12  C   -0.497089   0.005918  -0.001336  -0.000430  -0.000133   0.012375
    13  C    5.511197  -0.000043  -0.000029   0.000005  -0.000021   0.000915
    14  C   -0.000043   5.269304   0.389064   0.415652   0.395848  -0.002966
    15  H   -0.000029   0.389064   0.568883  -0.020385  -0.032493   0.000154
    16  H    0.000005   0.415652  -0.020385   0.437713  -0.013246   0.001275
    17  H   -0.000021   0.395848  -0.032493  -0.013246   0.514890   0.000077
    18  C    0.000915  -0.002966   0.000154   0.001275   0.000077   5.177856
    19  H   -0.000020  -0.000016   0.000003   0.000037  -0.000009   0.403992
    20  H    0.002260   0.000457  -0.000018  -0.000161  -0.000008   0.409877
    21  H   -0.000039  -0.000173  -0.000006   0.000014   0.000018   0.399895
    22  C    0.346383   0.000023   0.000000   0.000000  -0.000001   0.000014
    23  H   -0.056883  -0.000000   0.000000  -0.000000  -0.000000  -0.000001
    24  H   -0.049235   0.000001  -0.000000  -0.000000   0.000000   0.000000
    25  H   -0.049974   0.000000   0.000000  -0.000000  -0.000000   0.000001
    26  C   -0.043967  -0.000802   0.000014   0.000023  -0.000109  -0.000022
    27  H   -0.002645  -0.000050   0.000013   0.000001  -0.000006  -0.000000
    28  H    0.002391  -0.000003  -0.000018  -0.000001   0.000008   0.000000
    29  H   -0.000347   0.000592   0.000036  -0.000002  -0.000005   0.000000
              19         20         21         22         23         24
     1  O    0.000004   0.000926   0.000007  -0.130084   0.003311   0.003135
     2  O    0.000396   0.007259  -0.001654   0.000000   0.000000   0.000000
     3  N    0.000010   0.000069   0.000011  -0.000052   0.000145   0.000166
     4  H   -0.000001   0.000001  -0.000001   0.000118  -0.000037  -0.000021
     5  C    0.002149   0.079821  -0.010016  -0.000085  -0.000245  -0.000155
     6  C    0.000055  -0.001437   0.000085  -0.003715  -0.008908  -0.000368
     7  C   -0.000875   0.006097  -0.001030   0.001423  -0.000070  -0.000029
     8  C   -0.023577  -0.138799  -0.011894  -0.000052   0.000004   0.000002
     9  C   -0.001822  -0.017507  -0.001950   0.020374  -0.000694  -0.001098
    10  H    0.000355  -0.005965   0.000467   0.001122  -0.000155   0.000131
    11  H    0.000487  -0.001602   0.000432   0.000519   0.000120  -0.000138
    12  C   -0.000191   0.006490  -0.000786  -0.349909   0.031943   0.019508
    13  C   -0.000020   0.002260  -0.000039   0.346383  -0.056883  -0.049235
    14  C   -0.000016   0.000457  -0.000173   0.000023  -0.000000   0.000001
    15  H    0.000003  -0.000018  -0.000006   0.000000   0.000000  -0.000000
    16  H    0.000037  -0.000161   0.000014   0.000000  -0.000000  -0.000000
    17  H   -0.000009  -0.000008   0.000018  -0.000001  -0.000000   0.000000
    18  C    0.403992   0.409877   0.399895   0.000014  -0.000001   0.000000
    19  H    0.498399  -0.027794  -0.014983  -0.000000   0.000000   0.000000
    20  H   -0.027794   0.551585  -0.022347   0.000065  -0.000001  -0.000001
    21  H   -0.014983  -0.022347   0.496736  -0.000001   0.000000   0.000000
    22  C   -0.000000   0.000065  -0.000001   5.463054   0.382116   0.396776
    23  H    0.000000  -0.000001   0.000000   0.382116   0.548005  -0.034067
    24  H    0.000000  -0.000001   0.000000   0.396776  -0.034067   0.524572
    25  H    0.000000  -0.000000  -0.000000   0.382040  -0.015805  -0.010468
    26  C    0.000000  -0.000019   0.000001  -0.046582   0.010173  -0.007894
    27  H    0.000000   0.000000  -0.000000   0.001677  -0.003412  -0.000315
    28  H   -0.000000   0.000000   0.000000  -0.008458  -0.001745   0.000346
    29  H   -0.000000  -0.000000   0.000000   0.002154   0.000430   0.000175
              25         26         27         28         29
     1  O    0.011269   0.000774  -0.000065  -0.000030   0.000014
     2  O   -0.000000   0.000011  -0.000000  -0.000000   0.000000
     3  N    0.000012  -0.026553  -0.002078  -0.002336   0.004849
     4  H   -0.000003  -0.012447   0.000788   0.000694   0.002720
     5  C   -0.000022   0.002346   0.000499   0.000423  -0.000453
     6  C   -0.002477   0.241402  -0.038633  -0.043162  -0.052693
     7  C    0.000010   0.005321  -0.001406  -0.001156   0.003782
     8  C   -0.000002   0.000932  -0.000003  -0.000007   0.000023
     9  C   -0.000012   0.016454   0.000041  -0.000534  -0.000634
    10  H   -0.000084  -0.000062   0.000003   0.000003   0.000015
    11  H   -0.000030  -0.000144   0.000008   0.000019   0.000002
    12  C    0.028255  -0.103105  -0.001945  -0.008868   0.021579
    13  C   -0.049974  -0.043967  -0.002645   0.002391  -0.000347
    14  C    0.000000  -0.000802  -0.000050  -0.000003   0.000592
    15  H    0.000000   0.000014   0.000013  -0.000018   0.000036
    16  H   -0.000000   0.000023   0.000001  -0.000001  -0.000002
    17  H   -0.000000  -0.000109  -0.000006   0.000008  -0.000005
    18  C    0.000001  -0.000022  -0.000000   0.000000   0.000000
    19  H    0.000000   0.000000   0.000000  -0.000000  -0.000000
    20  H   -0.000000  -0.000019   0.000000   0.000000  -0.000000
    21  H   -0.000000   0.000001  -0.000000   0.000000   0.000000
    22  C    0.382040  -0.046582   0.001677  -0.008458   0.002154
    23  H   -0.015805   0.010173  -0.003412  -0.001745   0.000430
    24  H   -0.010468  -0.007894  -0.000315   0.000346   0.000175
    25  H    0.494140   0.002281   0.000252   0.000080  -0.000030
    26  C    0.002281   5.196899   0.420409   0.436096   0.386461
    27  H    0.000252   0.420409   0.507765  -0.032795  -0.020137
    28  H    0.000080   0.436096  -0.032795   0.492524  -0.017219
    29  H   -0.000030   0.386461  -0.020137  -0.017219   0.519665
 Mulliken charges:
               1
     1  O   -0.361030
     2  O   -0.402393
     3  N   -0.207084
     4  H    0.287567
     5  C   -0.138270
     6  C    0.247242
     7  C    0.281975
     8  C    0.200265
     9  C   -0.299355
    10  H    0.167081
    11  H    0.161521
    12  C   -0.146592
    13  C    0.134088
    14  C   -0.500152
    15  H    0.137002
    16  H    0.206257
    17  H    0.165646
    18  C   -0.448451
    19  H    0.163400
    20  H    0.150754
    21  H    0.167216
    22  C   -0.458922
    23  H    0.145774
    24  H    0.158977
    25  H    0.160568
    26  C   -0.477891
    27  H    0.172036
    28  H    0.183748
    29  H    0.149023
 Sum of Mulliken charges =  -0.00000
 Mulliken charges with hydrogens summed into heavy atoms:
               1
     1  O   -0.361030
     2  O   -0.402393
     3  N    0.080484
     5  C   -0.138270
     6  C    0.247242
     7  C    0.281975
     8  C    0.200265
     9  C    0.029247
    12  C   -0.146592
    13  C    0.134088
    14  C    0.008753
    18  C    0.032918
    22  C    0.006397
    26  C    0.026915
 Electronic spatial extent (au):  <R**2>=           3227.9063
 Charge=              0.0000 electrons
 Dipole moment (field-independent basis, Debye):
    X=              3.9633    Y=              7.1567    Z=             -0.0632  Tot=              8.1810
 Quadrupole moment (field-independent basis, Debye-Ang):
   XX=            -98.1085   YY=            -78.9671   ZZ=            -84.2899
   XY=             13.5283   XZ=              0.3979   YZ=              0.1111
 Traceless Quadrupole moment (field-independent basis, Debye-Ang):
   XX=            -10.9867   YY=              8.1547   ZZ=              2.8320
   XY=             13.5283   XZ=              0.3979   YZ=              0.1111
 Octapole moment (field-independent basis, Debye-Ang**2):
  XXX=            111.0949  YYY=             62.4756  ZZZ=              1.0970  XYY=            -37.3879
  XXY=             26.1752  XXZ=             -2.0210  XZZ=              0.0790  YZZ=             -1.5830
  YYZ=             -0.0218  XYZ=             -0.1573
 Hexadecapole moment (field-independent basis, Debye-Ang**3):
 XXXX=          -3151.2414 YYYY=          -1289.1260 ZZZZ=           -123.0368 XXXY=             49.7475
 XXXZ=             12.4961 YYYX=             94.9456 YYYZ=             -0.6404 ZZZX=             -2.2942
 ZZZY=              0.0481 XXYY=           -686.9547 XXZZ=           -481.3402 YYZZ=           -236.1824
 XXYZ=              2.4017 YYXZ=             -2.1090 ZZXY=              3.8671
 N-N= 8.991178300587D+02 E-N=-3.274287461265D+03  KE= 6.306706615578D+02
 No NMR shielding tensors so no spin-rotation constants.
 Leave Link  601 at Fri Jan 23 22:44:28 2026, MaxMem=  2147483648 cpu:               1.8 elap:               0.1
 (Enter /data/home/wyx/g16/l9999.exe)
 1\1\GINC-CN013\SP\RCAM-B3LYP\TZVP\C11H15N1O2\WYX\23-Jan-2026\0\\#p CAM
 -B3LYP TZVP em=gd3bj scrf=(Solvent=TetraHydroFuran,NonEquilibrium=Read
 ) Geom=Check Guess=Read\\Title Card Required\\0,1\O,0,2.798035,-1.5720
 28,0.417829\O,0,-3.437111,-1.653321,-0.43864\N,0,-0.654499,1.524434,-0
 .120601\H,0,-0.973501,2.477794,-0.161363\C,0,-1.241474,-0.768716,-0.18
 3694\C,0,0.674573,1.312704,0.087494\C,0,-1.618978,0.538403,-0.244897\C
 ,0,-2.17453,-1.826255,-0.297965\C,0,0.209314,-1.133434,0.005091\H,0,0.
 317558,-1.77306,0.884487\H,0,0.554957,-1.732344,-0.841891\C,0,1.144524
 ,0.0414,0.15485\C,0,2.52047,-0.373637,0.370227\C,0,-2.991841,1.075036,
 -0.42639\H,0,-3.006357,1.873184,-1.173932\H,0,-3.703838,0.322532,-0.76
 0528\H,0,-3.386173,1.481203,0.509033\C,0,-1.810302,-3.280677,-0.270984
 \H,0,-2.239637,-3.858895,-1.091914\H,0,-0.735758,-3.443892,-0.310817\H
 ,0,-2.154384,-3.749835,0.655524\C,0,3.656826,0.601779,0.538556\H,0,3.7
 60292,1.279296,-0.306625\H,0,3.554519,1.206571,1.438632\H,0,4.563556,0
 .007354,0.621762\C,0,1.44429,2.58998,0.212239\H,0,1.975773,2.662621,1.
 15755\H,0,2.168686,2.715323,-0.590069\H,0,0.785009,3.45648,0.167035\\V
 ersion=ES64L-G16RevA.03\State=1-A\HF=-633.3144267\RMSD=3.986e-09\Dipol
 e=0.478752,3.1826563,0.0365409\Quadrupole=-12.777488,10.9082259,1.8692
 621,2.9052536,-1.8876812,0.5792806\PG=C01 [X(C11H15N1O2)]\\@


 A COMPLEXITY IS MERELY A DISARRANGEMENT OF SIMPLICITIES.

                                    -- G. O. ABELL IN "EXPLORATION OF THE UNIVERSE"
 Job cpu time:       0 days  0 hours 13 minutes 36.7 seconds.
 Elapsed time:       0 days  0 hours  0 minutes 51.8 seconds.
 File lengths (MBytes):  RWF=    345 Int=      0 D2E=      0 Chk=     67 Scr=      1
 Normal termination of Gaussian 16 at Fri Jan 23 22:44:28 2026.
