 Entering Gaussian System, Link 0=g16
 Input=DDL-S1-cLR-gs-6.gjf
 Output=DDL-S1-cLR-gs-6.log
 Initial command:
 /data/home/wyx/g16/l1.exe "/scr/tmp/wyx/13109/Gau-1702601.inp" -scrdir="/scr/tmp/wyx/13109/"
 Entering Link 1 = /data/home/wyx/g16/l1.exe PID=   1702602.
  
 Copyright (c) 1988,1990,1992,1993,1995,1998,2003,2009,2016,
            Gaussian, Inc.  All Rights Reserved.
  
 This is part of the Gaussian(R) 16 program.  It is based on
 the Gaussian(R) 09 system (copyright 2009, Gaussian, Inc.),
 the Gaussian(R) 03 system (copyright 2003, Gaussian, Inc.),
 the Gaussian(R) 98 system (copyright 1998, Gaussian, Inc.),
 the Gaussian(R) 94 system (copyright 1995, Gaussian, Inc.),
 the Gaussian 92(TM) system (copyright 1992, Gaussian, Inc.),
 the Gaussian 90(TM) system (copyright 1990, Gaussian, Inc.),
 the Gaussian 88(TM) system (copyright 1988, Gaussian, Inc.),
 the Gaussian 86(TM) system (copyright 1986, Carnegie Mellon
 University), and the Gaussian 82(TM) system (copyright 1983,
 Carnegie Mellon University). Gaussian is a federally registered
 trademark of Gaussian, Inc.
  
 This software contains proprietary and confidential information,
 including trade secrets, belonging to Gaussian, Inc.
  
 This software is provided under written license and may be
 used, copied, transmitted, or stored only in accord with that
 written license.
  
 The following legend is applicable only to US Government
 contracts under FAR:
  
                    RESTRICTED RIGHTS LEGEND
  
 Use, reproduction and disclosure by the US Government is
 subject to restrictions as set forth in subparagraphs (a)
 and (c) of the Commercial Computer Software - Restricted
 Rights clause in FAR 52.227-19.
  
 Gaussian, Inc.
 340 Quinnipiac St., Bldg. 40, Wallingford CT 06492
  
  
 ---------------------------------------------------------------
 Warning -- This program may not be used in any manner that
 competes with the business of Gaussian, Inc. or will provide
 assistance to any competitor of Gaussian, Inc.  The licensee
 of this program is prohibited from giving any competitor of
 Gaussian, Inc. access to this program.  By using this program,
 the user acknowledges that Gaussian, Inc. is engaged in the
 business of creating and licensing software in the field of
 computational chemistry and represents and warrants to the
 licensee that it is not a competitor of Gaussian, Inc. and that
 it will not use this program in any manner prohibited above.
 ---------------------------------------------------------------
  

 Cite this work as:
 Gaussian 16, Revision A.03,
 M. J. Frisch, G. W. Trucks, H. B. Schlegel, G. E. Scuseria, 
 M. A. Robb, J. R. Cheeseman, G. Scalmani, V. Barone, 
 G. A. Petersson, H. Nakatsuji, X. Li, M. Caricato, A. V. Marenich, 
 J. Bloino, B. G. Janesko, R. Gomperts, B. Mennucci, H. P. Hratchian, 
 J. V. Ortiz, A. F. Izmaylov, J. L. Sonnenberg, D. Williams-Young, 
 F. Ding, F. Lipparini, F. Egidi, J. Goings, B. Peng, A. Petrone, 
 T. Henderson, D. Ranasinghe, V. G. Zakrzewski, J. Gao, N. Rega, 
 G. Zheng, W. Liang, M. Hada, M. Ehara, K. Toyota, R. Fukuda, 
 J. Hasegawa, M. Ishida, T. Nakajima, Y. Honda, O. Kitao, H. Nakai, 
 T. Vreven, K. Throssell, J. A. Montgomery, Jr., J. E. Peralta, 
 F. Ogliaro, M. J. Bearpark, J. J. Heyd, E. N. Brothers, K. N. Kudin, 
 V. N. Staroverov, T. A. Keith, R. Kobayashi, J. Normand, 
 K. Raghavachari, A. P. Rendell, J. C. Burant, S. S. Iyengar, 
 J. Tomasi, M. Cossi, J. M. Millam, M. Klene, C. Adamo, R. Cammi, 
 J. W. Ochterski, R. L. Martin, K. Morokuma, O. Farkas, 
 J. B. Foresman, and D. J. Fox, Gaussian, Inc., Wallingford CT, 2016.
 
 ******************************************
 Gaussian 16:  ES64L-G16RevA.03 25-Dec-2016
                23-Jan-2026 
 ******************************************
 %nprocshared=16
 Will use up to   16 processors via shared memory.
 %mem=16GB
 %oldchk=DDL-S1-cLR-6.chk
 %chk=DDL-S1-cLR-gs-6.chk
 Copying data from "DDL-S1-cLR-6.chk" to current chk file "DDL-S1-cLR-gs-6.chk"
 IOpt=  2 FromEx=T IUOpen= 4 IOptOp= 5 NList=   0 IFRang= 0 IUIn= 4 IUOut= 2.
 ----------------------------------------------------------------------
 #p CAM-B3LYP TZVP em=gd3bj scrf=(Solvent=TetraHydroFuran,NonEquilibriu
 m=Read) Geom=Check Guess=Read
 ----------------------------------------------------------------------
 1/29=2,38=1,172=1/1;
 2/12=2,40=1/2;
 3/5=19,7=101,11=2,14=-4,25=1,30=1,70=6002201,72=20,74=-40,116=-2,124=41/1,2,3;
 4/5=1/1;
 5/5=2,38=6,53=20/2;
 6/7=2,8=2,9=2,10=2,28=1/1;
 99/5=1,9=1/99;
 Leave Link    1 at Fri Jan 23 22:46:19 2026, MaxMem=  2147483648 cpu:               0.8 elap:               0.1
 (Enter /data/home/wyx/g16/l101.exe)
 -------------------
 Title Card Required
 -------------------
 Structure from the checkpoint file:  "DDL-S1-cLR-gs-6.chk"
 Charge =  0 Multiplicity = 1
 Z-Matrix found in chk file.
 O,0,2.801652,-1.576247,0.37424
 O,0,-3.444919,-1.650135,-0.345325
 N,0,-0.649824,1.523349,-0.165338
 H,0,-0.967504,2.477091,-0.206537
 C,0,-1.242198,-0.764675,-0.190616
 C,0,0.67903,1.310344,0.053458
 C,0,-1.617567,0.53965,-0.254032
 C,0,-2.187546,-1.82399,-0.264223
 C,0,0.213322,-1.130384,-0.058809
 H,0,0.346963,-1.809359,0.78582
 H,0,0.540087,-1.684075,-0.944209
 C,0,1.145473,0.040392,0.125838
 C,0,2.517422,-0.379101,0.362302
 C,0,-2.994568,1.075846,-0.403102
 H,0,-3.011839,1.928055,-1.087779
 H,0,-3.701328,0.348882,-0.797621
 H,0,-3.39656,1.405749,0.558009
 C,0,-1.80273,-3.27243,-0.260862
 H,0,-2.346136,-3.887441,-0.980705
 H,0,-0.747596,-3.439197,-0.470265
 H,0,-1.981172,-3.717793,0.722885
 C,0,3.640052,0.594542,0.605705
 H,0,3.814164,1.254356,-0.242419
 H,0,3.477075,1.218102,1.483071
 H,0,4.533252,-0.005019,0.764951
 C,0,1.446157,2.58722,0.183218
 H,0,1.897091,2.700666,1.166588
 H,0,2.235181,2.678103,-0.559499
 H,0,0.804564,3.457499,0.045253
 Recover connectivity data from disk.
 ITRead=  0  0  0  0  0  0  0  0  0  0  0  0  0  0  0  0  0  0  0  0
 ITRead=  0  0  0  0  0  0  0  0  0
 MicOpt= -1 -1 -1 -1 -1 -1 -1 -1 -1 -1 -1 -1 -1 -1 -1 -1 -1 -1 -1 -1
 MicOpt= -1 -1 -1 -1 -1 -1 -1 -1 -1
 NAtoms=     29 NQM=       29 NQMF=       0 NMMI=      0 NMMIF=      0
                NMic=       0 NMicF=      0.
                    Isotopes and Nuclear Properties:
 (Nuclear quadrupole moments (NQMom) in fm**2, nuclear magnetic moments (NMagM)
  in nuclear magnetons)

  Atom         1           2           3           4           5           6           7           8           9          10
 IAtWgt=          16          16          14           1          12          12          12          12          12           1
 AtmWgt=  15.9949146  15.9949146  14.0030740   1.0078250  12.0000000  12.0000000  12.0000000  12.0000000  12.0000000   1.0078250
 NucSpn=           0           0           2           1           0           0           0           0           0           1
 AtZEff=   5.6000000   5.6000000   4.5500000   1.0000000   3.6000000   3.6000000   3.6000000   3.6000000   3.6000000   1.0000000
 NQMom=    0.0000000   0.0000000   2.0440000   0.0000000   0.0000000   0.0000000   0.0000000   0.0000000   0.0000000   0.0000000
 NMagM=    0.0000000   0.0000000   0.4037610   2.7928460   0.0000000   0.0000000   0.0000000   0.0000000   0.0000000   2.7928460
 AtZNuc=   8.0000000   8.0000000   7.0000000   1.0000000   6.0000000   6.0000000   6.0000000   6.0000000   6.0000000   1.0000000

  Atom        11          12          13          14          15          16          17          18          19          20
 IAtWgt=           1          12          12          12           1           1           1          12           1           1
 AtmWgt=   1.0078250  12.0000000  12.0000000  12.0000000   1.0078250   1.0078250   1.0078250  12.0000000   1.0078250   1.0078250
 NucSpn=           1           0           0           0           1           1           1           0           1           1
 AtZEff=   1.0000000   3.6000000   3.6000000   3.6000000   1.0000000   1.0000000   1.0000000   3.6000000   1.0000000   1.0000000
 NQMom=    0.0000000   0.0000000   0.0000000   0.0000000   0.0000000   0.0000000   0.0000000   0.0000000   0.0000000   0.0000000
 NMagM=    2.7928460   0.0000000   0.0000000   0.0000000   2.7928460   2.7928460   2.7928460   0.0000000   2.7928460   2.7928460
 AtZNuc=   1.0000000   6.0000000   6.0000000   6.0000000   1.0000000   1.0000000   1.0000000   6.0000000   1.0000000   1.0000000

  Atom        21          22          23          24          25          26          27          28          29
 IAtWgt=           1          12           1           1           1          12           1           1           1
 AtmWgt=   1.0078250  12.0000000   1.0078250   1.0078250   1.0078250  12.0000000   1.0078250   1.0078250   1.0078250
 NucSpn=           1           0           1           1           1           0           1           1           1
 AtZEff=   1.0000000   3.6000000   1.0000000   1.0000000   1.0000000   3.6000000   1.0000000   1.0000000   1.0000000
 NQMom=    0.0000000   0.0000000   0.0000000   0.0000000   0.0000000   0.0000000   0.0000000   0.0000000   0.0000000
 NMagM=    2.7928460   0.0000000   2.7928460   2.7928460   2.7928460   0.0000000   2.7928460   2.7928460   2.7928460
 AtZNuc=   1.0000000   6.0000000   1.0000000   1.0000000   1.0000000   6.0000000   1.0000000   1.0000000   1.0000000
 Leave Link  101 at Fri Jan 23 22:46:22 2026, MaxMem=  2147483648 cpu:               0.9 elap:               0.1
 (Enter /data/home/wyx/g16/l202.exe)
                          Input orientation:                          
 ---------------------------------------------------------------------
 Center     Atomic      Atomic             Coordinates (Angstroms)
 Number     Number       Type             X           Y           Z
 ---------------------------------------------------------------------
      1          8           0        2.801652   -1.576247    0.374240
      2          8           0       -3.444919   -1.650135   -0.345325
      3          7           0       -0.649824    1.523349   -0.165338
      4          1           0       -0.967504    2.477091   -0.206537
      5          6           0       -1.242198   -0.764675   -0.190616
      6          6           0        0.679030    1.310344    0.053458
      7          6           0       -1.617567    0.539650   -0.254032
      8          6           0       -2.187546   -1.823990   -0.264223
      9          6           0        0.213322   -1.130384   -0.058809
     10          1           0        0.346963   -1.809359    0.785820
     11          1           0        0.540087   -1.684075   -0.944209
     12          6           0        1.145473    0.040392    0.125838
     13          6           0        2.517422   -0.379101    0.362302
     14          6           0       -2.994568    1.075846   -0.403102
     15          1           0       -3.011839    1.928055   -1.087779
     16          1           0       -3.701328    0.348882   -0.797621
     17          1           0       -3.396560    1.405749    0.558009
     18          6           0       -1.802730   -3.272430   -0.260862
     19          1           0       -2.346136   -3.887441   -0.980705
     20          1           0       -0.747596   -3.439197   -0.470265
     21          1           0       -1.981172   -3.717793    0.722885
     22          6           0        3.640052    0.594542    0.605705
     23          1           0        3.814164    1.254356   -0.242419
     24          1           0        3.477075    1.218102    1.483071
     25          1           0        4.533252   -0.005019    0.764951
     26          6           0        1.446157    2.587220    0.183218
     27          1           0        1.897091    2.700666    1.166588
     28          1           0        2.235181    2.678103   -0.559499
     29          1           0        0.804564    3.457499    0.045253
 ---------------------------------------------------------------------
                    Distance matrix (angstroms):
                    1          2          3          4          5
     1  O    0.000000
     2  O    6.288313   0.000000
     3  N    4.670260   4.232724   0.000000
     4  H    5.565374   4.815687   1.006102   0.000000
     5  C    4.162984   2.379066   2.363599   3.253422   0.000000
     6  C    3.597337   5.092192   1.363487   2.034692   2.838379
     7  C    4.939761   2.853543   1.382771   2.044142   1.358745
     8  C    5.035981   1.271924   3.684976   4.471144   1.421706
     9  C    2.661912   3.706071   2.792610   3.798690   1.506537
    10  H    2.499847   3.960203   3.606276   4.591977   2.137808
    11  H    2.620040   4.029899   3.508575   4.486902   2.142368
    12  C    2.327693   4.914425   2.346708   3.242321   2.539537
    13  C    1.230483   6.137245   3.732180   4.541599   3.819572
    14  C    6.421372   2.763535   2.398878   2.472067   2.550190
    15  H    6.943652   3.679978   2.567839   2.292888   3.344746
    16  H    6.882451   2.065523   3.330290   3.514605   2.766909
    17  H    6.880691   3.186970   2.842819   2.762719   3.148405
    18  C    4.947800   2.309926   4.933337   5.810124   2.570596
    19  H    5.803207   2.572269   5.728782   6.557990   3.405083
    20  H    4.096454   3.239121   4.972867   5.926245   2.734210
    21  H    5.251969   2.749334   5.480054   6.345702   3.178281
    22  C    2.338550   7.492653   4.456481   5.043144   5.130104
    23  H    3.068837   7.819267   4.472749   4.935658   5.444811
    24  H    3.081248   7.712575   4.454405   4.918751   5.385552
    25  H    2.370623   8.221334   5.483213   6.112526   5.903051
    26  C    4.382729   6.492854   2.376226   2.447406   4.313027
    27  H    4.442750   7.053540   3.105942   3.184551   4.868853
    28  H    4.392295   7.144442   3.132423   3.228340   4.907235
    29  H    5.425421   6.655718   2.429101   2.040790   4.698045
                    6          7          8          9         10
     6  C    0.000000
     7  C    2.441900   0.000000
     8  C    4.259370   2.431414   0.000000
     9  C    2.487296   2.485816   2.507479   0.000000
    10  H    3.221672   3.233963   2.743454   1.091909   0.000000
    11  H    3.159302   3.174393   2.814594   1.094204   1.745277
    12  C    1.354838   2.833364   3.838891   1.507885   2.120088
    13  C    2.515809   4.280433   4.961548   2.459804   2.633609
    14  C    3.709280   1.485214   3.013241   3.908522   4.572064
    15  H    3.912353   2.137007   3.928810   4.562290   5.362853
    16  H    4.564678   2.161930   2.701374   4.249536   4.853241
    17  H    4.107811   2.138774   3.545278   4.454625   4.939917
    18  C    5.221087   3.816580   1.498690   2.948500   2.803088
    19  H    6.102302   4.545107   2.190052   3.873252   3.832991
    20  H    4.986751   4.078582   2.173661   2.534418   2.330704
    21  H    5.727737   4.383195   2.145568   3.481599   3.011029
    22  C    3.095965   5.327731   6.369221   3.893511   4.081129
    23  H    3.149562   5.478562   6.745162   4.322819   4.739737
    24  H    3.143463   5.425237   6.662979   4.306375   4.410134
    25  H    4.134178   6.258400   7.038251   4.539474   4.558629
    26  C    1.495237   3.710813   5.732606   3.924161   4.571790
    27  H    2.157713   4.363596   6.261309   4.360461   4.784162
    28  H    2.160576   4.417008   6.317954   4.340873   5.050996
    29  H    2.150837   3.803963   6.078044   4.626993   5.338317
                   11         12         13         14         15
    11  H    0.000000
    12  C    2.117848   0.000000
    13  C    2.705510   1.454006   0.000000
    14  C    4.517051   4.300219   5.751934   0.000000
    15  H    5.067965   4.724339   6.164287   1.093317   0.000000
    16  H    4.705742   4.943624   6.367749   1.087948   1.747391
    17  H    5.225023   4.762461   6.180548   1.092780   1.769020
    18  C    2.911808   4.451542   5.236736   4.510899   5.402849
    19  H    3.631313   5.370628   6.145430   5.038681   5.854453
    20  H    2.227825   4.005819   4.551670   5.043710   5.857945
    21  H    3.643070   4.925071   5.613754   5.027305   6.018005
    22  C    4.147784   2.600054   1.505830   6.728115   6.992410
    23  H    4.454937   2.954866   2.171499   6.812967   6.911065
    24  H    4.789595   2.943714   2.174423   6.742407   7.015647
    25  H    4.656804   3.447836   2.089410   7.694199   8.006109
    26  C    4.509547   2.565158   3.158914   4.727374   4.682271
    27  H    5.052017   2.953836   3.242939   5.388162   5.456802
    28  H    4.695737   2.935076   3.205600   5.471925   5.326619
    29  H    5.242592   3.435016   4.213538   4.506295   4.264727
                   16         17         18         19         20
    16  H    0.000000
    17  H    1.745733   0.000000
    18  C    4.123916   5.009611   0.000000
    19  H    4.451572   5.611496   1.091651   0.000000
    20  H    4.814690   5.616748   1.088563   1.736894   0.000000
    21  H    4.669981   5.318006   1.094508   1.750485   1.738658
    22  C    7.478338   7.083378   6.732629   7.644561   6.056419
    23  H    7.590175   7.256593   7.213988   8.058067   6.549123
    24  H    7.581990   6.938142   7.147204   8.126903   6.584360
    25  H    8.388992   8.056985   7.202287   8.089901   6.419244
    26  C    5.698140   4.998825   6.714758   7.593250   6.446495
    27  H    6.382108   5.483605   7.169670   8.125207   6.882701
    28  H    6.381545   5.880835   7.197413   8.016997   6.806341
    29  H    5.538682   4.703407   7.223824   8.057769   7.087974
                   21         22         23         24         25
    21  H    0.000000
    22  C    7.085769   0.000000
    23  H    7.696752   1.088570   0.000000
    24  H    7.398203   1.088650   1.758482   0.000000
    25  H    7.498278   1.087492   1.765760   1.768398   0.000000
    26  C    7.196597   2.993733   2.750482   2.772856   4.072870
    27  H    7.512284   2.790746   2.784292   2.189636   3.798867
    28  H    7.767215   2.769944   2.149601   2.801070   3.772856
    29  H    7.726857   4.068245   3.740894   3.771543   5.139077
                   26         27         28         29
    26  C    0.000000
    27  H    1.087763   0.000000
    28  H    1.087404   1.759031   0.000000
    29  H    1.089982   1.738909   1.737771   0.000000
 Stoichiometry    C11H15NO2
 Framework group  C1[X(C11H15NO2)]
 Deg. of freedom    81
 Full point group                 C1      NOp   1
 RotChk:  IX=0 Diff= 1.21D-15
 Largest Abelian subgroup         C1      NOp   1
 Largest concise Abelian subgroup C1      NOp   1
                         Standard orientation:                         
 ---------------------------------------------------------------------
 Center     Atomic      Atomic             Coordinates (Angstroms)
 Number     Number       Type             X           Y           Z
 ---------------------------------------------------------------------
      1          8           0        2.255085   -2.314228   -0.020190
      2          8           0       -3.666647   -0.203292    0.120938
      3          7           0        0.054675    1.804931   -0.065481
      4          1           0        0.085124    2.810541   -0.057565
      5          6           0       -1.292830   -0.136448   -0.022169
      6          6           0        1.243378    1.137895   -0.031668
      7          6           0       -1.197172    1.218919   -0.026430
      8          6           0       -2.548192   -0.801853    0.028346
      9          6           0       -0.050383   -0.985569   -0.092695
     10          1           0       -0.055009   -1.712618    0.721948
     11          1           0       -0.050694   -1.570365   -1.017517
     12          6           0        1.245416   -0.216942   -0.030794
     13          6           0        2.404764   -1.093347    0.013484
     14          6           0       -2.309682    2.201913    0.017201
     15          1           0       -2.116595    3.043110   -0.653952
     16          1           0       -3.268565    1.783260   -0.280967
     17          1           0       -2.447355    2.598643    1.026071
     18          6           0       -2.692659   -2.292463   -0.028972
     19          1           0       -3.502003   -2.645033   -0.671124
     20          1           0       -1.796405   -2.799735   -0.381636
     21          1           0       -2.888685   -2.700695    0.967455
     22          6           0        3.816615   -0.578024    0.106446
     23          1           0        4.100157    0.025688   -0.753856
     24          1           0        3.992365    0.016548    1.001296
     25          1           0        4.458814   -1.455053    0.138714
     26          6           0        2.415689    2.065515   -0.000980
     27          1           0        2.998387    1.965537    0.912089
     28          1           0        3.086629    1.919203   -0.844116
     29          1           0        2.103929    3.109030   -0.045080
 ---------------------------------------------------------------------
 Rotational constants (GHZ):           1.1017234           0.4839296           0.3400608
 Leave Link  202 at Fri Jan 23 22:46:23 2026, MaxMem=  2147483648 cpu:               0.0 elap:               0.0
 (Enter /data/home/wyx/g16/l301.exe)
 Standard basis: TZVP (5D, 7F)
 Ernie: Thresh=  0.10000D-02 Tol=  0.10000D-05 Strict=F.
 There are   370 symmetry adapted cartesian basis functions of A   symmetry.
 There are   356 symmetry adapted basis functions of A   symmetry.
   356 basis functions,   610 primitive gaussians,   370 cartesian basis functions
    52 alpha electrons       52 beta electrons
       nuclear repulsion energy       899.6910010133 Hartrees.
 IExCor=20419 DFT=T Ex+Corr=CAM-B3LYP ExCW=0 ScaHFX=  1.000000
 ScaDFX=  1.000000  1.000000  1.000000  0.810000 ScalE2=  1.000000  1.000000
 IRadAn=      5 IRanWt=     -1 IRanGd=            0 ICorTp=0 IEmpDi=141
 HFx  wShort=  0.000000 wLong=  0.330000 cFull=  0.190000 cShort=  0.000000 cLong=  0.460000
 DFx  wShort=  0.000000 wLong=  0.330000 cFull=  0.190000 cShort=  0.000000 cLong=  0.460000
 NAtoms=   29 NActive=   29 NUniq=   29 SFac= 1.00D+00 NAtFMM=   60 NAOKFM=F Big=F
 Integral buffers will be    131072 words long.
 Raffenetti 2 integral format.
 Two-electron integral symmetry is turned on.
 R6Disp:  Grimme-D3(BJ) Dispersion energy=       -0.0261106777 Hartrees.
 Nuclear repulsion after empirical dispersion term =      899.6648903356 Hartrees.
 ------------------------------------------------------------------------------
 Polarizable Continuum Model (PCM)
 =================================
 Model                : PCM.
 Atomic radii         : UFF (Universal Force Field).
 Polarization charges : Total charges.
 Charge compensation  : None.
 Solution method      : On-the-fly selection.
 Cavity type          : Scaled VdW (van der Waals Surface) (Alpha=1.100).
 Cavity algorithm     : GePol (No added spheres)
                        Default sphere list used, NSphG=   29.
                        Lebedev-Laikov grids with approx.  5.0 points / Ang**2.
                        Smoothing algorithm: York/Karplus (Gamma=1.0000).
                        Polarization charges: spherical gaussians, with
                                              point-specific exponents (IZeta= 3).
                        Self-potential: point-specific (ISelfS= 7).
                        Self-field    : sphere-specific E.n sum rule (ISelfD= 2).
 Solvent              : TetraHydroFuran, Eps=   7.425700 Eps(inf)=   1.974025
 ------------------------------------------------------------------------------
 GePol: Number of generator spheres                  =      29
 GePol: Total number of spheres                      =      29
 GePol: Number of exposed spheres                    =      29 (100.00%)
 GePol: Number of points                             =    2101
 GePol: Average weight of points                     =       0.13
 GePol: Minimum weight of points                     =   0.29D-09
 GePol: Maximum weight of points                     =    0.20577
 GePol: Number of points with low weight             =     134
 GePol: Fraction of low-weight points (<1% of avg)   =       6.38%
 GePol: Cavity surface area                          =    268.297 Ang**2
 GePol: Cavity volume                                =    285.959 Ang**3
 Leave Link  301 at Fri Jan 23 22:46:23 2026, MaxMem=  2147483648 cpu:               0.6 elap:               0.0
 (Enter /data/home/wyx/g16/l302.exe)
 NPDir=0 NMtPBC=     1 NCelOv=     1 NCel=       1 NClECP=     1 NCelD=      1
         NCelK=      1 NCelE2=     1 NClLst=     1 CellRange=     0.0.
 One-electron integrals computed using PRISM.
 One-electron integral symmetry used in STVInt
 NBasis=   356 RedAO= T EigKep=  3.49D-05  NBF=   356
 NBsUse=   356 1.00D-06 EigRej= -1.00D+00 NBFU=   356
 Precomputing XC quadrature grid using
 IXCGrd= 4 IRadAn=           5 IRanWt=          -1 IRanGd=           0 AccXCQ= 0.00D+00.
 Generated NRdTot=       0 NPtTot=           0 NUsed=           0 NTot=          32
 NSgBfM=   366   366   366   366   366 MxSgAt=    29 MxSgA2=    29.
 Leave Link  302 at Fri Jan 23 22:46:23 2026, MaxMem=  2147483648 cpu:               3.1 elap:               0.2
 (Enter /data/home/wyx/g16/l303.exe)
 DipDrv:  MaxL=1.
 Leave Link  303 at Fri Jan 23 22:46:23 2026, MaxMem=  2147483648 cpu:               0.6 elap:               0.0
 (Enter /data/home/wyx/g16/l401.exe)
 Initial guess from the checkpoint file:  "DDL-S1-cLR-gs-6.chk"
 B after Tr=     0.000000    0.000000   -0.000000
         Rot=    1.000000   -0.000000   -0.000000    0.000000 Ang=   0.00 deg.
 Guess basis will be translated and rotated to current coordinates.
 JPrj=2 DoOrth=T DoCkMO=T.
 Leave Link  401 at Fri Jan 23 22:46:24 2026, MaxMem=  2147483648 cpu:               2.2 elap:               0.2
 (Enter /data/home/wyx/g16/l502.exe)
 Integral symmetry usage will be decided dynamically.
 Closed shell SCF:
 Using DIIS extrapolation, IDIIS=  1040.
 NGot=  2147483648 LenX=  2147200095 LenY=  2147062754
 Requested convergence on RMS density matrix=1.00D-08 within 128 cycles.
 Requested convergence on MAX density matrix=1.00D-06.
 Requested convergence on             energy=1.00D-06.
 No special actions if energy rises.
 Fock matrices will be formed incrementally for  20 cycles.

 Cycle   1  Pass 1  IDiag  1:
 FoFJK:  IHMeth= 1 ICntrl=       0 DoSepK=T KAlg= 0 I1Cent=           0 FoldK=F
 IRaf=         1 NMat=       1 IRICut=       1 DoRegI=T DoRafI=F ISym2E= 0 IDoP0=0 IntGTp=1.
 FoFCou: FMM=F IPFlag=           0 FMFlag=      100000 FMFlg1=           0
         NFxFlg=           0 DoJE=T BraDBF=F KetDBF=F FulRan=T
         wScrn=  0.000000 ICntrl=       500 IOpCl=  0 I1Cent=           0 NGrid=           0
         NMat0=    1 NMatS0=      1 NMatT0=    0 NMatD0=    1 NMtDS0=    0 NMtDT0=    0
 Symmetry not used in FoFCou.
 Inv3:  Mode=1 IEnd=    13242603.
 Iteration    1 A*A^-1 deviation from unit magnitude is 2.66D-15 for    735.
 Iteration    1 A*A^-1 deviation from orthogonality  is 1.47D-15 for   1509   1270.
 Iteration    1 A^-1*A deviation from unit magnitude is 2.66D-15 for    215.
 Iteration    1 A^-1*A deviation from orthogonality  is 6.05D-14 for   1372   1348.
 NEqPCM:  Using non-equilibrium solvation (IEInf=1, Eps=   7.4257, EpsInf=   1.9740)
 Inv3:  Mode=1 IEnd=    13242603.
 Iteration    1 A*A^-1 deviation from unit magnitude is 3.22D-15 for    214.
 Iteration    1 A*A^-1 deviation from orthogonality  is 1.69D-15 for   1782    225.
 Iteration    1 A^-1*A deviation from unit magnitude is 3.22D-15 for    214.
 Iteration    1 A^-1*A deviation from orthogonality  is 1.75D-15 for   1752    508.
 E= -633.317549217457    
 DIIS: error= 2.41D-04 at cycle   1 NSaved=   1.
 NSaved= 1 IEnMin= 1 EnMin= -633.317549217457     IErMin= 1 ErrMin= 2.41D-04
 ErrMax= 2.41D-04  0.00D+00 EMaxC= 1.00D-01 BMatC= 1.23D-05 BMatP= 1.23D-05
 IDIUse=3 WtCom= 9.98D-01 WtEn= 2.41D-03
 Coeff-Com:  0.100D+01
 Coeff-En:   0.100D+01
 Coeff:      0.100D+01
 Gap=     0.228 Goal=   None    Shift=    0.000
 RMSDP=1.30D-04 MaxDP=8.50D-03              OVMax= 3.98D-03

 Cycle   2  Pass 1  IDiag  1:
 RMSU=  1.29D-04    CP:  9.99D-01
 E= -633.317571488719     Delta-E=       -0.000022271261 Rises=F Damp=F
 DIIS: error= 1.58D-04 at cycle   2 NSaved=   2.
 NSaved= 2 IEnMin= 2 EnMin= -633.317571488719     IErMin= 2 ErrMin= 1.58D-04
 ErrMax= 1.58D-04  0.00D+00 EMaxC= 1.00D-01 BMatC= 1.02D-05 BMatP= 1.23D-05
 IDIUse=3 WtCom= 9.98D-01 WtEn= 1.58D-03
 Coeff-Com:  0.468D+00 0.532D+00
 Coeff-En:   0.000D+00 0.100D+01
 Coeff:      0.467D+00 0.533D+00
 Gap=     0.229 Goal=   None    Shift=    0.000
 RMSDP=4.40D-05 MaxDP=2.76D-03 DE=-2.23D-05 OVMax= 9.47D-04

 Cycle   3  Pass 1  IDiag  1:
 RMSU=  3.70D-05    CP:  1.00D+00  8.76D-01
 E= -633.317579875420     Delta-E=       -0.000008386702 Rises=F Damp=F
 DIIS: error= 8.22D-05 at cycle   3 NSaved=   3.
 NSaved= 3 IEnMin= 3 EnMin= -633.317579875420     IErMin= 3 ErrMin= 8.22D-05
 ErrMax= 8.22D-05  0.00D+00 EMaxC= 1.00D-01 BMatC= 1.70D-06 BMatP= 1.02D-05
 IDIUse=1 WtCom= 1.00D+00 WtEn= 0.00D+00
 Coeff-Com:  0.904D-01 0.268D+00 0.641D+00
 Coeff:      0.904D-01 0.268D+00 0.641D+00
 Gap=     0.229 Goal=   None    Shift=    0.000
 RMSDP=9.92D-06 MaxDP=4.54D-04 DE=-8.39D-06 OVMax= 5.91D-04

 Cycle   4  Pass 1  IDiag  1:
 RMSU=  9.40D-06    CP:  1.00D+00  8.64D-01  1.03D+00
 E= -633.317581216570     Delta-E=       -0.000001341150 Rises=F Damp=F
 DIIS: error= 2.43D-05 at cycle   4 NSaved=   4.
 NSaved= 4 IEnMin= 4 EnMin= -633.317581216570     IErMin= 4 ErrMin= 2.43D-05
 ErrMax= 2.43D-05  0.00D+00 EMaxC= 1.00D-01 BMatC= 1.82D-07 BMatP= 1.70D-06
 IDIUse=1 WtCom= 1.00D+00 WtEn= 0.00D+00
 Coeff-Com: -0.575D-02 0.381D-01 0.257D+00 0.711D+00
 Coeff:     -0.575D-02 0.381D-01 0.257D+00 0.711D+00
 Gap=     0.229 Goal=   None    Shift=    0.000
 RMSDP=7.39D-06 MaxDP=4.63D-04 DE=-1.34D-06 OVMax= 2.93D-04

 Cycle   5  Pass 1  IDiag  1:
 RMSU=  3.41D-06    CP:  1.00D+00  8.60D-01  1.19D+00  9.38D-01
 E= -633.317581408945     Delta-E=       -0.000000192375 Rises=F Damp=F
 DIIS: error= 1.03D-05 at cycle   5 NSaved=   5.
 NSaved= 5 IEnMin= 5 EnMin= -633.317581408945     IErMin= 5 ErrMin= 1.03D-05
 ErrMax= 1.03D-05  0.00D+00 EMaxC= 1.00D-01 BMatC= 3.47D-08 BMatP= 1.82D-07
 IDIUse=1 WtCom= 1.00D+00 WtEn= 0.00D+00
 Coeff-Com: -0.130D-01-0.300D-01 0.147D-01 0.322D+00 0.706D+00
 Coeff:     -0.130D-01-0.300D-01 0.147D-01 0.322D+00 0.706D+00
 Gap=     0.229 Goal=   None    Shift=    0.000
 RMSDP=2.22D-06 MaxDP=8.17D-05 DE=-1.92D-07 OVMax= 1.38D-04

 Cycle   6  Pass 1  IDiag  1:
 RMSU=  1.19D-06    CP:  1.00D+00  8.55D-01  1.23D+00  1.03D+00  1.12D+00
 E= -633.317581460682     Delta-E=       -0.000000051737 Rises=F Damp=F
 DIIS: error= 7.03D-06 at cycle   6 NSaved=   6.
 NSaved= 6 IEnMin= 6 EnMin= -633.317581460682     IErMin= 6 ErrMin= 7.03D-06
 ErrMax= 7.03D-06  0.00D+00 EMaxC= 1.00D-01 BMatC= 3.92D-09 BMatP= 3.47D-08
 IDIUse=1 WtCom= 1.00D+00 WtEn= 0.00D+00
 Coeff-Com: -0.233D-02-0.175D-01-0.171D-01 0.147D-01 0.198D+00 0.824D+00
 Coeff:     -0.233D-02-0.175D-01-0.171D-01 0.147D-01 0.198D+00 0.824D+00
 Gap=     0.229 Goal=   None    Shift=    0.000
 RMSDP=1.34D-06 MaxDP=6.04D-05 DE=-5.17D-08 OVMax= 9.59D-05

 Cycle   7  Pass 1  IDiag  1:
 RMSU=  4.94D-07    CP:  1.00D+00  8.52D-01  1.25D+00  1.07D+00  1.24D+00
                    CP:  1.28D+00
 E= -633.317581470253     Delta-E=       -0.000000009571 Rises=F Damp=F
 DIIS: error= 3.19D-06 at cycle   7 NSaved=   7.
 NSaved= 7 IEnMin= 7 EnMin= -633.317581470253     IErMin= 7 ErrMin= 3.19D-06
 ErrMax= 3.19D-06  0.00D+00 EMaxC= 1.00D-01 BMatC= 1.82D-09 BMatP= 3.92D-09
 IDIUse=1 WtCom= 1.00D+00 WtEn= 0.00D+00
 Coeff-Com:  0.198D-02-0.454D-02-0.818D-02-0.662D-01-0.857D-01 0.434D+00
 Coeff-Com:  0.729D+00
 Coeff:      0.198D-02-0.454D-02-0.818D-02-0.662D-01-0.857D-01 0.434D+00
 Coeff:      0.729D+00
 Gap=     0.229 Goal=   None    Shift=    0.000
 RMSDP=5.62D-07 MaxDP=2.63D-05 DE=-9.57D-09 OVMax= 5.43D-05

 Cycle   8  Pass 1  IDiag  1:
 RMSU=  1.87D-07    CP:  1.00D+00  8.50D-01  1.26D+00  1.08D+00  1.30D+00
                    CP:  1.48D+00  1.12D+00
 E= -633.317581473713     Delta-E=       -0.000000003460 Rises=F Damp=F
 DIIS: error= 1.11D-06 at cycle   8 NSaved=   8.
 NSaved= 8 IEnMin= 8 EnMin= -633.317581473713     IErMin= 8 ErrMin= 1.11D-06
 ErrMax= 1.11D-06  0.00D+00 EMaxC= 1.00D-01 BMatC= 1.86D-10 BMatP= 1.82D-09
 IDIUse=1 WtCom= 1.00D+00 WtEn= 0.00D+00
 Coeff-Com:  0.109D-02 0.339D-03 0.183D-02-0.216D-01-0.735D-01-0.937D-02
 Coeff-Com:  0.218D+00 0.883D+00
 Coeff:      0.109D-02 0.339D-03 0.183D-02-0.216D-01-0.735D-01-0.937D-02
 Coeff:      0.218D+00 0.883D+00
 Gap=     0.229 Goal=   None    Shift=    0.000
 RMSDP=2.72D-07 MaxDP=1.14D-05 DE=-3.46D-09 OVMax= 2.37D-05

 Cycle   9  Pass 1  IDiag  1:
 RMSU=  8.08D-08    CP:  1.00D+00  8.49D-01  1.27D+00  1.08D+00  1.31D+00
                    CP:  1.58D+00  1.35D+00  1.23D+00
 E= -633.317581474172     Delta-E=       -0.000000000459 Rises=F Damp=F
 DIIS: error= 3.62D-07 at cycle   9 NSaved=   9.
 NSaved= 9 IEnMin= 9 EnMin= -633.317581474172     IErMin= 9 ErrMin= 3.62D-07
 ErrMax= 3.62D-07  0.00D+00 EMaxC= 1.00D-01 BMatC= 2.50D-11 BMatP= 1.86D-10
 IDIUse=1 WtCom= 1.00D+00 WtEn= 0.00D+00
 Coeff-Com:  0.181D-03 0.496D-03 0.197D-02 0.190D-02-0.181D-01-0.631D-01
 Coeff-Com: -0.881D-02 0.371D+00 0.715D+00
 Coeff:      0.181D-03 0.496D-03 0.197D-02 0.190D-02-0.181D-01-0.631D-01
 Coeff:     -0.881D-02 0.371D+00 0.715D+00
 Gap=     0.229 Goal=   None    Shift=    0.000
 RMSDP=4.93D-08 MaxDP=2.05D-06 DE=-4.59D-10 OVMax= 6.64D-06

 Cycle  10  Pass 1  IDiag  1:
 RMSU=  2.78D-08    CP:  1.00D+00  8.49D-01  1.27D+00  1.08D+00  1.31D+00
                    CP:  1.60D+00  1.39D+00  1.33D+00  1.01D+00
 E= -633.317581474217     Delta-E=       -0.000000000045 Rises=F Damp=F
 DIIS: error= 1.29D-07 at cycle  10 NSaved=  10.
 NSaved=10 IEnMin=10 EnMin= -633.317581474217     IErMin=10 ErrMin= 1.29D-07
 ErrMax= 1.29D-07  0.00D+00 EMaxC= 1.00D-01 BMatC= 5.42D-12 BMatP= 2.50D-11
 IDIUse=1 WtCom= 1.00D+00 WtEn= 0.00D+00
 Coeff-Com: -0.460D-04 0.271D-03 0.618D-03 0.371D-02-0.446D-03-0.312D-01
 Coeff-Com: -0.293D-01 0.586D-01 0.348D+00 0.650D+00
 Coeff:     -0.460D-04 0.271D-03 0.618D-03 0.371D-02-0.446D-03-0.312D-01
 Coeff:     -0.293D-01 0.586D-01 0.348D+00 0.650D+00
 Gap=     0.229 Goal=   None    Shift=    0.000
 RMSDP=3.35D-08 MaxDP=2.40D-06 DE=-4.46D-11 OVMax= 1.80D-06

 Cycle  11  Pass 1  IDiag  1:
 RMSU=  1.54D-08    CP:  1.00D+00  8.49D-01  1.27D+00  1.08D+00  1.31D+00
                    CP:  1.61D+00  1.43D+00  1.36D+00  1.19D+00  9.86D-01
 E= -633.317581474221     Delta-E=       -0.000000000004 Rises=F Damp=F
 DIIS: error= 5.05D-08 at cycle  11 NSaved=  11.
 NSaved=11 IEnMin=11 EnMin= -633.317581474221     IErMin=11 ErrMin= 5.05D-08
 ErrMax= 5.05D-08  0.00D+00 EMaxC= 1.00D-01 BMatC= 9.36D-13 BMatP= 5.42D-12
 IDIUse=1 WtCom= 1.00D+00 WtEn= 0.00D+00
 Coeff-Com: -0.579D-04 0.665D-04-0.204D-03 0.161D-02 0.389D-02-0.182D-02
 Coeff-Com: -0.113D-01-0.543D-01 0.406D-01 0.305D+00 0.716D+00
 Coeff:     -0.579D-04 0.665D-04-0.204D-03 0.161D-02 0.389D-02-0.182D-02
 Coeff:     -0.113D-01-0.543D-01 0.406D-01 0.305D+00 0.716D+00
 Gap=     0.229 Goal=   None    Shift=    0.000
 RMSDP=1.09D-08 MaxDP=9.09D-07 DE=-4.21D-12 OVMax= 7.91D-07

 Cycle  12  Pass 1  IDiag  1:
 RMSU=  4.07D-09    CP:  1.00D+00  8.49D-01  1.27D+00  1.08D+00  1.30D+00
                    CP:  1.61D+00  1.43D+00  1.37D+00  1.24D+00  1.11D+00
                    CP:  9.66D-01
 E= -633.317581474221     Delta-E=       -0.000000000000 Rises=F Damp=F
 DIIS: error= 1.75D-08 at cycle  12 NSaved=  12.
 NSaved=12 IEnMin=12 EnMin= -633.317581474221     IErMin=12 ErrMin= 1.75D-08
 ErrMax= 1.75D-08  0.00D+00 EMaxC= 1.00D-01 BMatC= 1.22D-13 BMatP= 9.36D-13
 IDIUse=1 WtCom= 1.00D+00 WtEn= 0.00D+00
 Coeff-Com: -0.181D-04 0.894D-05-0.160D-03 0.184D-03 0.141D-02 0.302D-02
 Coeff-Com:  0.634D-03-0.272D-01-0.229D-01 0.140D-01 0.285D+00 0.746D+00
 Coeff:     -0.181D-04 0.894D-05-0.160D-03 0.184D-03 0.141D-02 0.302D-02
 Coeff:      0.634D-03-0.272D-01-0.229D-01 0.140D-01 0.285D+00 0.746D+00
 Gap=     0.229 Goal=   None    Shift=    0.000
 RMSDP=4.70D-09 MaxDP=4.27D-07 DE=-4.55D-13 OVMax= 2.76D-07

 Error on total polarization charges =  0.01007
 SCF Done:  E(RCAM-B3LYP) =  -633.317581474     A.U. after   12 cycles
            NFock= 12  Conv=0.47D-08     -V/T= 2.0042
 KE= 6.307000471778D+02 PE=-3.275296365843D+03 EE= 1.111613846855D+03
 Leave Link  502 at Fri Jan 23 22:47:13 2026, MaxMem=  2147483648 cpu:             771.0 elap:              48.9
 (Enter /data/home/wyx/g16/l601.exe)
 Copying SCF densities to generalized density rwf, IOpCl= 0 IROHF=0.

 **********************************************************************

            Population analysis using the SCF density.

 **********************************************************************

 Orbital symmetries:
       Occupied  (A) (A) (A) (A) (A) (A) (A) (A) (A) (A) (A) (A)
                 (A) (A) (A) (A) (A) (A) (A) (A) (A) (A) (A) (A)
                 (A) (A) (A) (A) (A) (A) (A) (A) (A) (A) (A) (A)
                 (A) (A) (A) (A) (A) (A) (A) (A) (A) (A) (A) (A)
                 (A) (A) (A) (A)
       Virtual   (A) (A) (A) (A) (A) (A) (A) (A) (A) (A) (A) (A)
                 (A) (A) (A) (A) (A) (A) (A) (A) (A) (A) (A) (A)
                 (A) (A) (A) (A) (A) (A) (A) (A) (A) (A) (A) (A)
                 (A) (A) (A) (A) (A) (A) (A) (A) (A) (A) (A) (A)
                 (A) (A) (A) (A) (A) (A) (A) (A) (A) (A) (A) (A)
                 (A) (A) (A) (A) (A) (A) (A) (A) (A) (A) (A) (A)
                 (A) (A) (A) (A) (A) (A) (A) (A) (A) (A) (A) (A)
                 (A) (A) (A) (A) (A) (A) (A) (A) (A) (A) (A) (A)
                 (A) (A) (A) (A) (A) (A) (A) (A) (A) (A) (A) (A)
                 (A) (A) (A) (A) (A) (A) (A) (A) (A) (A) (A) (A)
                 (A) (A) (A) (A) (A) (A) (A) (A) (A) (A) (A) (A)
                 (A) (A) (A) (A) (A) (A) (A) (A) (A) (A) (A) (A)
                 (A) (A) (A) (A) (A) (A) (A) (A) (A) (A) (A) (A)
                 (A) (A) (A) (A) (A) (A) (A) (A) (A) (A) (A) (A)
                 (A) (A) (A) (A) (A) (A) (A) (A) (A) (A) (A) (A)
                 (A) (A) (A) (A) (A) (A) (A) (A) (A) (A) (A) (A)
                 (A) (A) (A) (A) (A) (A) (A) (A) (A) (A) (A) (A)
                 (A) (A) (A) (A) (A) (A) (A) (A) (A) (A) (A) (A)
                 (A) (A) (A) (A) (A) (A) (A) (A) (A) (A) (A) (A)
                 (A) (A) (A) (A) (A) (A) (A) (A) (A) (A) (A) (A)
                 (A) (A) (A) (A) (A) (A) (A) (A) (A) (A) (A) (A)
                 (A) (A) (A) (A) (A) (A) (A) (A) (A) (A) (A) (A)
                 (A) (A) (A) (A) (A) (A) (A) (A) (A) (A) (A) (A)
                 (A) (A) (A) (A) (A) (A) (A) (A) (A) (A) (A) (A)
                 (A) (A) (A) (A) (A) (A) (A) (A) (A) (A) (A) (A)
                 (A) (A) (A) (A)
 The electronic state is 1-A.
 Alpha  occ. eigenvalues --  -19.17576 -19.16593 -14.44343 -10.33186 -10.33084
 Alpha  occ. eigenvalues --  -10.32252 -10.32224 -10.25926 -10.25006 -10.24941
 Alpha  occ. eigenvalues --  -10.24765 -10.24471 -10.23948 -10.23803  -1.11611
 Alpha  occ. eigenvalues --   -1.09241  -1.07761  -0.91549  -0.90555  -0.83874
 Alpha  occ. eigenvalues --   -0.82495  -0.81484  -0.78776  -0.74270  -0.71636
 Alpha  occ. eigenvalues --   -0.69049  -0.62113  -0.58491  -0.56916  -0.55111
 Alpha  occ. eigenvalues --   -0.54727  -0.54132  -0.52412  -0.51871  -0.50601
 Alpha  occ. eigenvalues --   -0.49448  -0.49232  -0.49060  -0.48425  -0.48149
 Alpha  occ. eigenvalues --   -0.46674  -0.45201  -0.44571  -0.43730  -0.42800
 Alpha  occ. eigenvalues --   -0.42320  -0.41529  -0.40818  -0.33007  -0.32021
 Alpha  occ. eigenvalues --   -0.30759  -0.26085
 Alpha virt. eigenvalues --   -0.03208   0.02187   0.06433   0.08360   0.08481
 Alpha virt. eigenvalues --    0.10000   0.10726   0.11781   0.12766   0.13237
 Alpha virt. eigenvalues --    0.14334   0.15247   0.15757   0.16501   0.16934
 Alpha virt. eigenvalues --    0.17503   0.17648   0.17690   0.18748   0.19362
 Alpha virt. eigenvalues --    0.20086   0.21002   0.22945   0.23393   0.24421
 Alpha virt. eigenvalues --    0.24553   0.24979   0.25865   0.26435   0.26756
 Alpha virt. eigenvalues --    0.27146   0.27429   0.28826   0.29405   0.29890
 Alpha virt. eigenvalues --    0.31159   0.31221   0.33740   0.34247   0.34814
 Alpha virt. eigenvalues --    0.35293   0.35715   0.36718   0.37385   0.37696
 Alpha virt. eigenvalues --    0.40202   0.41079   0.41749   0.42835   0.43278
 Alpha virt. eigenvalues --    0.44501   0.45543   0.45805   0.46252   0.46539
 Alpha virt. eigenvalues --    0.47028   0.47924   0.48165   0.48693   0.48856
 Alpha virt. eigenvalues --    0.50192   0.51024   0.51189   0.51568   0.51882
 Alpha virt. eigenvalues --    0.52345   0.52899   0.52934   0.53795   0.53973
 Alpha virt. eigenvalues --    0.55089   0.55891   0.56319   0.57121   0.57552
 Alpha virt. eigenvalues --    0.58217   0.59277   0.61261   0.62829   0.62976
 Alpha virt. eigenvalues --    0.63692   0.64678   0.66052   0.67833   0.68151
 Alpha virt. eigenvalues --    0.68857   0.70761   0.71206   0.71921   0.72588
 Alpha virt. eigenvalues --    0.73646   0.75699   0.77680   0.78968   0.79663
 Alpha virt. eigenvalues --    0.82153   0.82430   0.84309   0.87801   0.89745
 Alpha virt. eigenvalues --    0.93288   0.95838   0.98378   1.03691   1.19643
 Alpha virt. eigenvalues --    1.23020   1.23404   1.24853   1.29821   1.30657
 Alpha virt. eigenvalues --    1.32607   1.33792   1.34044   1.35521   1.36608
 Alpha virt. eigenvalues --    1.37175   1.37599   1.39192   1.39493   1.39879
 Alpha virt. eigenvalues --    1.40236   1.40699   1.41197   1.41474   1.42211
 Alpha virt. eigenvalues --    1.43087   1.43858   1.44532   1.45168   1.46033
 Alpha virt. eigenvalues --    1.48442   1.49871   1.50614   1.51073   1.51669
 Alpha virt. eigenvalues --    1.52334   1.52954   1.56467   1.56909   1.57173
 Alpha virt. eigenvalues --    1.58289   1.59634   1.60451   1.60997   1.61929
 Alpha virt. eigenvalues --    1.62261   1.62708   1.64170   1.64789   1.64869
 Alpha virt. eigenvalues --    1.65588   1.65876   1.66006   1.67168   1.67736
 Alpha virt. eigenvalues --    1.69425   1.69678   1.71074   1.71831   1.72721
 Alpha virt. eigenvalues --    1.73925   1.75202   1.75433   1.76120   1.80461
 Alpha virt. eigenvalues --    1.81434   1.82970   1.83498   1.83898   1.86101
 Alpha virt. eigenvalues --    1.86364   1.86580   1.89150   1.90438   1.90935
 Alpha virt. eigenvalues --    1.91842   1.93428   1.96718   1.98160   2.01418
 Alpha virt. eigenvalues --    2.02250   2.05231   2.05729   2.07605   2.09626
 Alpha virt. eigenvalues --    2.10700   2.13633   2.15269   2.18346   2.19835
 Alpha virt. eigenvalues --    2.20213   2.23345   2.24759   2.25517   2.26215
 Alpha virt. eigenvalues --    2.26672   2.29297   2.30594   2.31748   2.33440
 Alpha virt. eigenvalues --    2.35386   2.35906   2.36910   2.37906   2.40148
 Alpha virt. eigenvalues --    2.40945   2.41893   2.43770   2.44949   2.46498
 Alpha virt. eigenvalues --    2.46760   2.47978   2.49455   2.50415   2.51079
 Alpha virt. eigenvalues --    2.53348   2.53558   2.54774   2.56132   2.56357
 Alpha virt. eigenvalues --    2.56506   2.59858   2.61130   2.62990   2.63582
 Alpha virt. eigenvalues --    2.64652   2.65202   2.66089   2.67342   2.67858
 Alpha virt. eigenvalues --    2.69457   2.71992   2.73914   2.74386   2.75006
 Alpha virt. eigenvalues --    2.76171   2.76481   2.78014   2.78512   2.79912
 Alpha virt. eigenvalues --    2.80551   2.82134   2.83645   2.84583   2.85648
 Alpha virt. eigenvalues --    2.85877   2.87839   2.89308   2.89990   2.94003
 Alpha virt. eigenvalues --    2.97181   2.98751   2.99186   3.05096   3.09229
 Alpha virt. eigenvalues --    3.09831   3.11701   3.14339   3.20812   3.21125
 Alpha virt. eigenvalues --    3.21687   3.22804   3.24585   3.26022   3.26461
 Alpha virt. eigenvalues --    3.30863   3.31919   3.34349   3.36465   3.38626
 Alpha virt. eigenvalues --    3.39135   3.39758   3.39979   3.41126   3.41564
 Alpha virt. eigenvalues --    3.41760   3.43803   3.46111   3.47630   3.49817
 Alpha virt. eigenvalues --    3.50289   3.54450   3.56932   3.59269   3.61059
 Alpha virt. eigenvalues --    3.64635   3.92822   4.01228   4.31388   4.37153
 Alpha virt. eigenvalues --   21.65007  21.77477  22.06289  22.10295  22.12672
 Alpha virt. eigenvalues --   22.13542  22.17482  22.20338  22.21847  22.28328
 Alpha virt. eigenvalues --   22.32083  31.93027  43.64695  43.66798
          Condensed to atoms (all electrons):
               1          2          3          4          5          6
     1  O    7.921768   0.000000  -0.000200   0.000017   0.015937   0.015848
     2  O    0.000000   8.079168   0.000570   0.000018  -0.178828   0.001794
     3  N   -0.000200   0.000570   6.339877   0.369701  -0.105263   0.377957
     4  H    0.000017   0.000018   0.369701   0.401452   0.012426  -0.038658
     5  C    0.015937  -0.178828  -0.105263   0.012426   7.161134  -0.043795
     6  C    0.015848   0.001794   0.377957  -0.038658  -0.043795   5.495280
     7  C    0.000123  -0.017583   0.366838  -0.045350   0.382869  -0.160533
     8  C   -0.000408   0.624411   0.003920  -0.001164  -0.468220   0.047641
     9  C    0.003233   0.025157   0.021650   0.001057  -0.683673  -0.066783
    10  H    0.008498  -0.000244  -0.000638  -0.000002  -0.107137   0.012575
    11  H    0.004972  -0.000059   0.001351   0.000019  -0.064489   0.008527
    12  C   -0.249703  -0.004094  -0.098447   0.019559   0.213882  -0.073030
    13  C    0.753523  -0.000001  -0.000564   0.000518   0.065094   0.072975
    14  C   -0.000011  -0.062170  -0.048158   0.000089  -0.019520  -0.002640
    15  H    0.000000   0.004814   0.004417  -0.000224   0.007937   0.004868
    16  H    0.000000   0.025638   0.003393   0.000746   0.008185  -0.000333
    17  H   -0.000000   0.001472  -0.003219   0.000526  -0.016698  -0.000261
    18  C   -0.000297  -0.091721  -0.000298   0.000016  -0.142782  -0.002137
    19  H    0.000002   0.001780   0.000009  -0.000001   0.007587   0.000039
    20  H    0.000775   0.006936   0.000084   0.000001   0.076694  -0.001428
    21  H    0.000010  -0.001441   0.000011  -0.000001  -0.012254   0.000110
    22  C   -0.131772   0.000000  -0.000123   0.000120   0.000580  -0.003252
    23  H    0.003066   0.000000   0.000152  -0.000031  -0.000221  -0.001208
    24  H    0.003408   0.000000   0.000154  -0.000025  -0.000191  -0.007145
    25  H    0.011442  -0.000000   0.000010  -0.000003  -0.000031  -0.002607
    26  C    0.000766   0.000010  -0.026962  -0.012505   0.001815   0.248454
    27  H   -0.000047  -0.000000  -0.002741   0.000707   0.000476  -0.041486
    28  H   -0.000039  -0.000000  -0.001621   0.000758   0.000370  -0.043109
    29  H    0.000013   0.000000   0.005336   0.002618  -0.000380  -0.050681
               7          8          9         10         11         12
     1  O    0.000123  -0.000408   0.003233   0.008498   0.004972  -0.249703
     2  O   -0.017583   0.624411   0.025157  -0.000244  -0.000059  -0.004094
     3  N    0.366838   0.003920   0.021650  -0.000638   0.001351  -0.098447
     4  H   -0.045350  -0.001164   0.001057  -0.000002   0.000019   0.019559
     5  C    0.382869  -0.468220  -0.683673  -0.107137  -0.064489   0.213882
     6  C   -0.160533   0.047641  -0.066783   0.012575   0.008527  -0.073030
     7  C    5.523552  -0.285917  -0.251237   0.012251   0.000148   0.049902
     8  C   -0.285917   5.720552   0.237737  -0.007001   0.002470  -0.091270
     9  C   -0.251237   0.237737   6.392578   0.529272   0.437045  -0.166320
    10  H    0.012251  -0.007001   0.529272   0.515115  -0.038283  -0.081516
    11  H    0.000148   0.002470   0.437045  -0.038283   0.538832  -0.032374
    12  C    0.049902  -0.091270  -0.166320  -0.081516  -0.032374   7.471319
    13  C    0.026926  -0.010703  -0.199310  -0.005529  -0.008372  -0.473632
    14  C    0.223686  -0.076809   0.015952   0.000319  -0.000851   0.005419
    15  H   -0.067415   0.006645  -0.000417  -0.000017   0.000098  -0.001242
    16  H   -0.049748  -0.021939   0.002274  -0.000060   0.000059  -0.000440
    17  H   -0.015925   0.005643  -0.000673   0.000072  -0.000027  -0.000053
    18  C    0.018031   0.299130  -0.014227  -0.002993  -0.012435   0.010660
    19  H   -0.000314  -0.033102  -0.001996   0.000441   0.000408  -0.000134
    20  H    0.005899  -0.127518  -0.017554  -0.006448  -0.000103   0.005748
    21  H   -0.000876  -0.009978  -0.001852   0.000173   0.000442  -0.001136
    22  C    0.001110  -0.000043   0.017650   0.000964   0.001013  -0.351576
    23  H   -0.000055   0.000005  -0.001486  -0.000148   0.000132   0.022161
    24  H   -0.000026   0.000002  -0.000115   0.000099  -0.000142   0.028943
    25  H    0.000012  -0.000002   0.000033  -0.000089  -0.000036   0.028779
    26  C    0.006833   0.000885   0.016234   0.000053  -0.000322  -0.103485
    27  H   -0.001428  -0.000008   0.000271   0.000024  -0.000003  -0.003377
    28  H   -0.001120  -0.000005  -0.000603  -0.000001   0.000017  -0.005428
    29  H    0.003794   0.000025  -0.000702   0.000007   0.000012   0.019841
              13         14         15         16         17         18
     1  O    0.753523  -0.000011   0.000000   0.000000  -0.000000  -0.000297
     2  O   -0.000001  -0.062170   0.004814   0.025638   0.001472  -0.091721
     3  N   -0.000564  -0.048158   0.004417   0.003393  -0.003219  -0.000298
     4  H    0.000518   0.000089  -0.000224   0.000746   0.000526   0.000016
     5  C    0.065094  -0.019520   0.007937   0.008185  -0.016698  -0.142782
     6  C    0.072975  -0.002640   0.004868  -0.000333  -0.000261  -0.002137
     7  C    0.026926   0.223686  -0.067415  -0.049748  -0.015925   0.018031
     8  C   -0.010703  -0.076809   0.006645  -0.021939   0.005643   0.299130
     9  C   -0.199310   0.015952  -0.000417   0.002274  -0.000673  -0.014227
    10  H   -0.005529   0.000319  -0.000017  -0.000060   0.000072  -0.002993
    11  H   -0.008372  -0.000851   0.000098   0.000059  -0.000027  -0.012435
    12  C   -0.473632   0.005419  -0.001242  -0.000440  -0.000053   0.010660
    13  C    5.494728  -0.000006  -0.000030   0.000004  -0.000022   0.000898
    14  C   -0.000006   5.252256   0.386722   0.419131   0.397705  -0.001676
    15  H   -0.000030   0.386722   0.571550  -0.023759  -0.030050   0.000144
    16  H    0.000004   0.419131  -0.023759   0.462361  -0.017057   0.000884
    17  H   -0.000022   0.397705  -0.030050  -0.017057   0.508746   0.000051
    18  C    0.000898  -0.001676   0.000144   0.000884   0.000051   5.187909
    19  H   -0.000015  -0.000008   0.000002   0.000068  -0.000011   0.406195
    20  H    0.002020   0.000385  -0.000019  -0.000131  -0.000005   0.405988
    21  H   -0.000049  -0.000224  -0.000006   0.000016   0.000019   0.397248
    22  C    0.348226   0.000017   0.000001   0.000000  -0.000001   0.000012
    23  H   -0.049549  -0.000000   0.000000  -0.000000  -0.000000  -0.000001
    24  H   -0.054150   0.000001  -0.000000   0.000000   0.000000   0.000001
    25  H   -0.051094   0.000000   0.000000  -0.000000  -0.000000   0.000000
    26  C   -0.043867  -0.000438  -0.000093   0.000031  -0.000092  -0.000018
    27  H   -0.000100  -0.000063   0.000015   0.000001  -0.000008  -0.000000
    28  H   -0.000080   0.000026  -0.000017  -0.000002   0.000006   0.000000
    29  H   -0.000262   0.000413   0.000056  -0.000002  -0.000004   0.000000
              19         20         21         22         23         24
     1  O    0.000002   0.000775   0.000010  -0.131772   0.003066   0.003408
     2  O    0.001780   0.006936  -0.001441   0.000000   0.000000   0.000000
     3  N    0.000009   0.000084   0.000011  -0.000123   0.000152   0.000154
     4  H   -0.000001   0.000001  -0.000001   0.000120  -0.000031  -0.000025
     5  C    0.007587   0.076694  -0.012254   0.000580  -0.000221  -0.000191
     6  C    0.000039  -0.001428   0.000110  -0.003252  -0.001208  -0.007145
     7  C   -0.000314   0.005899  -0.000876   0.001110  -0.000055  -0.000026
     8  C   -0.033102  -0.127518  -0.009978  -0.000043   0.000005   0.000002
     9  C   -0.001996  -0.017554  -0.001852   0.017650  -0.001486  -0.000115
    10  H    0.000441  -0.006448   0.000173   0.000964  -0.000148   0.000099
    11  H    0.000408  -0.000103   0.000442   0.001013   0.000132  -0.000142
    12  C   -0.000134   0.005748  -0.001136  -0.351576   0.022161   0.028943
    13  C   -0.000015   0.002020  -0.000049   0.348226  -0.049549  -0.054150
    14  C   -0.000008   0.000385  -0.000224   0.000017  -0.000000   0.000001
    15  H    0.000002  -0.000019  -0.000006   0.000001   0.000000  -0.000000
    16  H    0.000068  -0.000131   0.000016   0.000000  -0.000000   0.000000
    17  H   -0.000011  -0.000005   0.000019  -0.000001  -0.000000   0.000000
    18  C    0.406195   0.405988   0.397248   0.000012  -0.000001   0.000001
    19  H    0.506802  -0.029155  -0.016187  -0.000000   0.000000   0.000000
    20  H   -0.029155   0.542500  -0.020313   0.000058  -0.000001  -0.000001
    21  H   -0.016187  -0.020313   0.497732  -0.000001   0.000000   0.000000
    22  C   -0.000000   0.000058  -0.000001   5.467042   0.386593   0.390083
    23  H    0.000000  -0.000001   0.000000   0.386593   0.538376  -0.034285
    24  H    0.000000  -0.000001   0.000000   0.390083  -0.034285   0.536057
    25  H   -0.000000  -0.000000  -0.000000   0.381594  -0.013090  -0.012983
    26  C    0.000000  -0.000018   0.000001  -0.046489   0.001783  -0.000794
    27  H    0.000000   0.000000  -0.000000  -0.003646  -0.001357  -0.000506
    28  H   -0.000000   0.000000   0.000000  -0.004056  -0.001282  -0.001107
    29  H    0.000000  -0.000000   0.000000   0.002237   0.000296   0.000234
              25         26         27         28         29
     1  O    0.011442   0.000766  -0.000047  -0.000039   0.000013
     2  O   -0.000000   0.000010  -0.000000  -0.000000   0.000000
     3  N    0.000010  -0.026962  -0.002741  -0.001621   0.005336
     4  H   -0.000003  -0.012505   0.000707   0.000758   0.002618
     5  C   -0.000031   0.001815   0.000476   0.000370  -0.000380
     6  C   -0.002607   0.248454  -0.041486  -0.043109  -0.050681
     7  C    0.000012   0.006833  -0.001428  -0.001120   0.003794
     8  C   -0.000002   0.000885  -0.000008  -0.000005   0.000025
     9  C    0.000033   0.016234   0.000271  -0.000603  -0.000702
    10  H   -0.000089   0.000053   0.000024  -0.000001   0.000007
    11  H   -0.000036  -0.000322  -0.000003   0.000017   0.000012
    12  C    0.028779  -0.103485  -0.003377  -0.005428   0.019841
    13  C   -0.051094  -0.043867  -0.000100  -0.000080  -0.000262
    14  C    0.000000  -0.000438  -0.000063   0.000026   0.000413
    15  H    0.000000  -0.000093   0.000015  -0.000017   0.000056
    16  H   -0.000000   0.000031   0.000001  -0.000002  -0.000002
    17  H   -0.000000  -0.000092  -0.000008   0.000006  -0.000004
    18  C    0.000000  -0.000018  -0.000000   0.000000   0.000000
    19  H   -0.000000   0.000000   0.000000  -0.000000   0.000000
    20  H   -0.000000  -0.000018   0.000000   0.000000  -0.000000
    21  H   -0.000000   0.000001  -0.000000   0.000000   0.000000
    22  C    0.381594  -0.046489  -0.003646  -0.004056   0.002237
    23  H   -0.013090   0.001783  -0.001357  -0.001282   0.000296
    24  H   -0.012983  -0.000794  -0.000506  -0.001107   0.000234
    25  H    0.496141   0.002458   0.000126   0.000129  -0.000027
    26  C    0.002458   5.187491   0.427189   0.431301   0.385973
    27  H    0.000126   0.427189   0.501634  -0.033542  -0.018145
    28  H    0.000129   0.431301  -0.033542   0.502688  -0.018985
    29  H   -0.000027   0.385973  -0.018145  -0.018985   0.518001
 Mulliken charges:
               1
     1  O   -0.360923
     2  O   -0.415627
     3  N   -0.207198
     4  H    0.287615
     5  C   -0.111505
     6  C    0.253016
     7  C    0.275551
     8  C    0.185023
     9  C   -0.293193
    10  H    0.170244
    11  H    0.161950
    12  C   -0.138958
    13  C    0.132424
    14  C   -0.489544
    15  H    0.136019
    16  H    0.190677
    17  H    0.169869
    18  C   -0.458584
    19  H    0.157592
    20  H    0.155609
    21  H    0.168554
    22  C   -0.456341
    23  H    0.150151
    24  H    0.152489
    25  H    0.159236
    26  C   -0.476192
    27  H    0.176015
    28  H    0.175700
    29  H    0.150330
 Sum of Mulliken charges =  -0.00000
 Mulliken charges with hydrogens summed into heavy atoms:
               1
     1  O   -0.360923
     2  O   -0.415627
     3  N    0.080418
     5  C   -0.111505
     6  C    0.253016
     7  C    0.275551
     8  C    0.185023
     9  C    0.039001
    12  C   -0.138958
    13  C    0.132424
    14  C    0.007020
    18  C    0.023171
    22  C    0.005535
    26  C    0.025853
 Electronic spatial extent (au):  <R**2>=           3223.2492
 Charge=             -0.0000 electrons
 Dipole moment (field-independent basis, Debye):
    X=              4.4360    Y=              7.2591    Z=             -0.1430  Tot=              8.5084
 Quadrupole moment (field-independent basis, Debye-Ang):
   XX=           -100.1490   YY=            -78.7099   ZZ=            -84.2555
   XY=             13.2108   XZ=              1.3211   YZ=             -0.1769
 Traceless Quadrupole moment (field-independent basis, Debye-Ang):
   XX=            -12.4442   YY=              8.9949   ZZ=              3.4493
   XY=             13.2108   XZ=              1.3211   YZ=             -0.1769
 Octapole moment (field-independent basis, Debye-Ang**2):
  XXX=            118.2257  YYY=             62.8987  ZZZ=              1.5884  XYY=            -36.3011
  XXY=             27.9003  XXZ=             -4.4469  XZZ=              0.7353  YZZ=             -1.5402
  YYZ=              0.5079  XYZ=             -0.8660
 Hexadecapole moment (field-independent basis, Debye-Ang**3):
 XXXX=          -3179.0547 YYYY=          -1284.6559 ZZZZ=           -124.3405 XXXY=             44.5300
 XXXZ=             24.6670 YYYX=             94.0297 YYYZ=             -5.0971 ZZZX=             -3.3206
 ZZZY=              0.8932 XXYY=           -690.7241 XXZZ=           -482.8561 YYZZ=           -236.6326
 XXYZ=              1.6977 YYXZ=             -0.8777 ZZXY=              2.8391
 N-N= 8.996648903356D+02 E-N=-3.275296363289D+03  KE= 6.307000471778D+02
 No NMR shielding tensors so no spin-rotation constants.
 Leave Link  601 at Fri Jan 23 22:47:13 2026, MaxMem=  2147483648 cpu:               1.8 elap:               0.1
 (Enter /data/home/wyx/g16/l9999.exe)
 1\1\GINC-CN013\SP\RCAM-B3LYP\TZVP\C11H15N1O2\WYX\23-Jan-2026\0\\#p CAM
 -B3LYP TZVP em=gd3bj scrf=(Solvent=TetraHydroFuran,NonEquilibrium=Read
 ) Geom=Check Guess=Read\\Title Card Required\\0,1\O,0,2.801652,-1.5762
 47,0.37424\O,0,-3.444919,-1.650135,-0.345325\N,0,-0.649824,1.523349,-0
 .165338\H,0,-0.967504,2.477091,-0.206537\C,0,-1.242198,-0.764675,-0.19
 0616\C,0,0.67903,1.310344,0.053458\C,0,-1.617567,0.53965,-0.254032\C,0
 ,-2.187546,-1.82399,-0.264223\C,0,0.213322,-1.130384,-0.058809\H,0,0.3
 46963,-1.809359,0.78582\H,0,0.540087,-1.684075,-0.944209\C,0,1.145473,
 0.040392,0.125838\C,0,2.517422,-0.379101,0.362302\C,0,-2.994568,1.0758
 46,-0.403102\H,0,-3.011839,1.928055,-1.087779\H,0,-3.701328,0.348882,-
 0.797621\H,0,-3.39656,1.405749,0.558009\C,0,-1.80273,-3.27243,-0.26086
 2\H,0,-2.346136,-3.887441,-0.980705\H,0,-0.747596,-3.439197,-0.470265\
 H,0,-1.981172,-3.717793,0.722885\C,0,3.640052,0.594542,0.605705\H,0,3.
 814164,1.254356,-0.242419\H,0,3.477075,1.218102,1.483071\H,0,4.533252,
 -0.005019,0.764951\C,0,1.446157,2.58722,0.183218\H,0,1.897091,2.700666
 ,1.166588\H,0,2.235181,2.678103,-0.559499\H,0,0.804564,3.457499,0.0452
 53\\Version=ES64L-G16RevA.03\State=1-A\HF=-633.3175815\RMSD=4.704e-09\
 Dipole=0.650104,3.2837051,0.0146268\Quadrupole=-13.6792278,11.162996,2
 .5162318,2.2315706,-1.2881692,0.4795823\PG=C01 [X(C11H15N1O2)]\\@


 O WAD SOME POWER THE GIFTIE GIE US       
 TO SEE OURSELS AS OTHERS SEE US.....     
 IT WOULD FRAE MONIE A BLUNDER FREE US,   
                     AND FOOLISH NOTION...
 WHAT AIRS IN DRESS AND GAIT WAD LEA'E US,
                     AND EV'N DEVOTION....
                                          
              (ROBERT BURNS 'TO A LOUSE') 
 Job cpu time:       0 days  0 hours 13 minutes  1.3 seconds.
 Elapsed time:       0 days  0 hours  0 minutes 49.7 seconds.
 File lengths (MBytes):  RWF=    339 Int=      0 D2E=      0 Chk=     67 Scr=      1
 Normal termination of Gaussian 16 at Fri Jan 23 22:47:14 2026.
