 Entering Gaussian System, Link 0=g16
 Input=DDL-S2-cLR-gs-13.gjf
 Output=DDL-S2-cLR-gs-13.log
 Initial command:
 /data/home/wyx/g16/l1.exe "/scr/tmp/wyx/13109/Gau-1705017.inp" -scrdir="/scr/tmp/wyx/13109/"
 Entering Link 1 = /data/home/wyx/g16/l1.exe PID=   1705018.
  
 Copyright (c) 1988,1990,1992,1993,1995,1998,2003,2009,2016,
            Gaussian, Inc.  All Rights Reserved.
  
 This is part of the Gaussian(R) 16 program.  It is based on
 the Gaussian(R) 09 system (copyright 2009, Gaussian, Inc.),
 the Gaussian(R) 03 system (copyright 2003, Gaussian, Inc.),
 the Gaussian(R) 98 system (copyright 1998, Gaussian, Inc.),
 the Gaussian(R) 94 system (copyright 1995, Gaussian, Inc.),
 the Gaussian 92(TM) system (copyright 1992, Gaussian, Inc.),
 the Gaussian 90(TM) system (copyright 1990, Gaussian, Inc.),
 the Gaussian 88(TM) system (copyright 1988, Gaussian, Inc.),
 the Gaussian 86(TM) system (copyright 1986, Carnegie Mellon
 University), and the Gaussian 82(TM) system (copyright 1983,
 Carnegie Mellon University). Gaussian is a federally registered
 trademark of Gaussian, Inc.
  
 This software contains proprietary and confidential information,
 including trade secrets, belonging to Gaussian, Inc.
  
 This software is provided under written license and may be
 used, copied, transmitted, or stored only in accord with that
 written license.
  
 The following legend is applicable only to US Government
 contracts under FAR:
  
                    RESTRICTED RIGHTS LEGEND
  
 Use, reproduction and disclosure by the US Government is
 subject to restrictions as set forth in subparagraphs (a)
 and (c) of the Commercial Computer Software - Restricted
 Rights clause in FAR 52.227-19.
  
 Gaussian, Inc.
 340 Quinnipiac St., Bldg. 40, Wallingford CT 06492
  
  
 ---------------------------------------------------------------
 Warning -- This program may not be used in any manner that
 competes with the business of Gaussian, Inc. or will provide
 assistance to any competitor of Gaussian, Inc.  The licensee
 of this program is prohibited from giving any competitor of
 Gaussian, Inc. access to this program.  By using this program,
 the user acknowledges that Gaussian, Inc. is engaged in the
 business of creating and licensing software in the field of
 computational chemistry and represents and warrants to the
 licensee that it is not a competitor of Gaussian, Inc. and that
 it will not use this program in any manner prohibited above.
 ---------------------------------------------------------------
  

 Cite this work as:
 Gaussian 16, Revision A.03,
 M. J. Frisch, G. W. Trucks, H. B. Schlegel, G. E. Scuseria, 
 M. A. Robb, J. R. Cheeseman, G. Scalmani, V. Barone, 
 G. A. Petersson, H. Nakatsuji, X. Li, M. Caricato, A. V. Marenich, 
 J. Bloino, B. G. Janesko, R. Gomperts, B. Mennucci, H. P. Hratchian, 
 J. V. Ortiz, A. F. Izmaylov, J. L. Sonnenberg, D. Williams-Young, 
 F. Ding, F. Lipparini, F. Egidi, J. Goings, B. Peng, A. Petrone, 
 T. Henderson, D. Ranasinghe, V. G. Zakrzewski, J. Gao, N. Rega, 
 G. Zheng, W. Liang, M. Hada, M. Ehara, K. Toyota, R. Fukuda, 
 J. Hasegawa, M. Ishida, T. Nakajima, Y. Honda, O. Kitao, H. Nakai, 
 T. Vreven, K. Throssell, J. A. Montgomery, Jr., J. E. Peralta, 
 F. Ogliaro, M. J. Bearpark, J. J. Heyd, E. N. Brothers, K. N. Kudin, 
 V. N. Staroverov, T. A. Keith, R. Kobayashi, J. Normand, 
 K. Raghavachari, A. P. Rendell, J. C. Burant, S. S. Iyengar, 
 J. Tomasi, M. Cossi, J. M. Millam, M. Klene, C. Adamo, R. Cammi, 
 J. W. Ochterski, R. L. Martin, K. Morokuma, O. Farkas, 
 J. B. Foresman, and D. J. Fox, Gaussian, Inc., Wallingford CT, 2016.
 
 ******************************************
 Gaussian 16:  ES64L-G16RevA.03 25-Dec-2016
                23-Jan-2026 
 ******************************************
 %nprocshared=16
 Will use up to   16 processors via shared memory.
 %mem=16GB
 %oldchk=DDL-S2-cLR-13.chk
 %chk=DDL-S2-cLR-gs-13.chk
 Copying data from "DDL-S2-cLR-13.chk" to current chk file "DDL-S2-cLR-gs-13.chk"
 IOpt=  2 FromEx=T IUOpen= 4 IOptOp= 5 NList=   0 IFRang= 0 IUIn= 4 IUOut= 2.
 ----------------------------------------------------------------------
 #p CAM-B3LYP TZVP em=gd3bj scrf=(Solvent=TetraHydroFuran,NonEquilibriu
 m=Read) Geom=Check Guess=Read
 ----------------------------------------------------------------------
 1/29=2,38=1,172=1/1;
 2/12=2,40=1/2;
 3/5=19,7=101,11=2,14=-4,25=1,30=1,70=6002201,72=20,74=-40,116=-2,124=41/1,2,3;
 4/5=1/1;
 5/5=2,38=6,53=20/2;
 6/7=2,8=2,9=2,10=2,28=1/1;
 99/5=1,9=1/99;
 Leave Link    1 at Fri Jan 23 23:00:04 2026, MaxMem=  2147483648 cpu:               0.8 elap:               0.1
 (Enter /data/home/wyx/g16/l101.exe)
 -------------------
 Title Card Required
 -------------------
 Structure from the checkpoint file:  "DDL-S2-cLR-gs-13.chk"
 Charge =  0 Multiplicity = 1
 Z-Matrix found in chk file.
 O,0,2.823309,-1.571917,0.226312
 O,0,-3.43691,-1.628622,-0.025317
 N,0,-0.636108,1.514788,-0.322093
 H,0,-0.94669,2.470928,-0.369045
 C,0,-1.239446,-0.757451,-0.21453
 C,0,0.695881,1.299398,-0.064709
 C,0,-1.61105,0.541021,-0.285275
 C,0,-2.219268,-1.823338,-0.141202
 C,0,0.222365,-1.121029,-0.284076
 H,0,0.443052,-1.92529,0.415621
 H,0,0.468655,-1.522421,-1.274644
 C,0,1.149267,0.029813,0.023014
 C,0,2.512405,-0.389892,0.337086
 C,0,-3.000206,1.079376,-0.321017
 H,0,-3.015643,2.082621,-0.749928
 H,0,-3.672431,0.455635,-0.90385
 H,0,-3.42129,1.131777,0.683783
 C,0,-1.758574,-3.251268,-0.215546
 H,0,-2.571994,-3.932686,-0.458416
 H,0,-0.970756,-3.403459,-0.95433
 H,0,-1.345091,-3.576004,0.743372
 C,0,3.566886,0.563926,0.836195
 H,0,3.981588,1.156312,0.020017
 H,0,3.206157,1.249899,1.598725
 H,0,4.367587,-0.044502,1.250077
 C,0,1.457849,2.578016,0.084068
 H,0,1.609332,2.834429,1.132945
 H,0,2.42735,2.551775,-0.400645
 H,0,0.913772,3.408164,-0.366591
 Recover connectivity data from disk.
 ITRead=  0  0  0  0  0  0  0  0  0  0  0  0  0  0  0  0  0  0  0  0
 ITRead=  0  0  0  0  0  0  0  0  0
 MicOpt= -1 -1 -1 -1 -1 -1 -1 -1 -1 -1 -1 -1 -1 -1 -1 -1 -1 -1 -1 -1
 MicOpt= -1 -1 -1 -1 -1 -1 -1 -1 -1
 NAtoms=     29 NQM=       29 NQMF=       0 NMMI=      0 NMMIF=      0
                NMic=       0 NMicF=      0.
                    Isotopes and Nuclear Properties:
 (Nuclear quadrupole moments (NQMom) in fm**2, nuclear magnetic moments (NMagM)
  in nuclear magnetons)

  Atom         1           2           3           4           5           6           7           8           9          10
 IAtWgt=          16          16          14           1          12          12          12          12          12           1
 AtmWgt=  15.9949146  15.9949146  14.0030740   1.0078250  12.0000000  12.0000000  12.0000000  12.0000000  12.0000000   1.0078250
 NucSpn=           0           0           2           1           0           0           0           0           0           1
 AtZEff=   5.6000000   5.6000000   4.5500000   1.0000000   3.6000000   3.6000000   3.6000000   3.6000000   3.6000000   1.0000000
 NQMom=    0.0000000   0.0000000   2.0440000   0.0000000   0.0000000   0.0000000   0.0000000   0.0000000   0.0000000   0.0000000
 NMagM=    0.0000000   0.0000000   0.4037610   2.7928460   0.0000000   0.0000000   0.0000000   0.0000000   0.0000000   2.7928460
 AtZNuc=   8.0000000   8.0000000   7.0000000   1.0000000   6.0000000   6.0000000   6.0000000   6.0000000   6.0000000   1.0000000

  Atom        11          12          13          14          15          16          17          18          19          20
 IAtWgt=           1          12          12          12           1           1           1          12           1           1
 AtmWgt=   1.0078250  12.0000000  12.0000000  12.0000000   1.0078250   1.0078250   1.0078250  12.0000000   1.0078250   1.0078250
 NucSpn=           1           0           0           0           1           1           1           0           1           1
 AtZEff=   1.0000000   3.6000000   3.6000000   3.6000000   1.0000000   1.0000000   1.0000000   3.6000000   1.0000000   1.0000000
 NQMom=    0.0000000   0.0000000   0.0000000   0.0000000   0.0000000   0.0000000   0.0000000   0.0000000   0.0000000   0.0000000
 NMagM=    2.7928460   0.0000000   0.0000000   0.0000000   2.7928460   2.7928460   2.7928460   0.0000000   2.7928460   2.7928460
 AtZNuc=   1.0000000   6.0000000   6.0000000   6.0000000   1.0000000   1.0000000   1.0000000   6.0000000   1.0000000   1.0000000

  Atom        21          22          23          24          25          26          27          28          29
 IAtWgt=           1          12           1           1           1          12           1           1           1
 AtmWgt=   1.0078250  12.0000000   1.0078250   1.0078250   1.0078250  12.0000000   1.0078250   1.0078250   1.0078250
 NucSpn=           1           0           1           1           1           0           1           1           1
 AtZEff=   1.0000000   3.6000000   1.0000000   1.0000000   1.0000000   3.6000000   1.0000000   1.0000000   1.0000000
 NQMom=    0.0000000   0.0000000   0.0000000   0.0000000   0.0000000   0.0000000   0.0000000   0.0000000   0.0000000
 NMagM=    2.7928460   0.0000000   2.7928460   2.7928460   2.7928460   0.0000000   2.7928460   2.7928460   2.7928460
 AtZNuc=   1.0000000   6.0000000   1.0000000   1.0000000   1.0000000   6.0000000   1.0000000   1.0000000   1.0000000
 Leave Link  101 at Fri Jan 23 23:00:08 2026, MaxMem=  2147483648 cpu:               0.9 elap:               0.1
 (Enter /data/home/wyx/g16/l202.exe)
                          Input orientation:                          
 ---------------------------------------------------------------------
 Center     Atomic      Atomic             Coordinates (Angstroms)
 Number     Number       Type             X           Y           Z
 ---------------------------------------------------------------------
      1          8           0        2.823309   -1.571917    0.226312
      2          8           0       -3.436910   -1.628622   -0.025317
      3          7           0       -0.636108    1.514788   -0.322093
      4          1           0       -0.946690    2.470928   -0.369045
      5          6           0       -1.239446   -0.757451   -0.214530
      6          6           0        0.695881    1.299398   -0.064709
      7          6           0       -1.611050    0.541021   -0.285275
      8          6           0       -2.219268   -1.823338   -0.141202
      9          6           0        0.222365   -1.121029   -0.284076
     10          1           0        0.443052   -1.925290    0.415621
     11          1           0        0.468655   -1.522421   -1.274644
     12          6           0        1.149267    0.029813    0.023014
     13          6           0        2.512405   -0.389892    0.337086
     14          6           0       -3.000206    1.079376   -0.321017
     15          1           0       -3.015643    2.082621   -0.749928
     16          1           0       -3.672431    0.455635   -0.903850
     17          1           0       -3.421290    1.131777    0.683783
     18          6           0       -1.758574   -3.251268   -0.215546
     19          1           0       -2.571994   -3.932686   -0.458416
     20          1           0       -0.970756   -3.403459   -0.954330
     21          1           0       -1.345091   -3.576004    0.743372
     22          6           0        3.566886    0.563926    0.836195
     23          1           0        3.981588    1.156312    0.020017
     24          1           0        3.206157    1.249899    1.598725
     25          1           0        4.367587   -0.044502    1.250077
     26          6           0        1.457849    2.578016    0.084068
     27          1           0        1.609332    2.834429    1.132945
     28          1           0        2.427350    2.551775   -0.400645
     29          1           0        0.913772    3.408164   -0.366591
 ---------------------------------------------------------------------
                    Distance matrix (angstroms):
                    1          2          3          4          5
     1  O    0.000000
     2  O    6.265531   0.000000
     3  N    4.668625   4.220615   0.000000
     4  H    5.559851   4.808914   1.006414   0.000000
     5  C    4.166974   2.371411   2.353435   3.245306   0.000000
     6  C    3.585400   5.065058   1.373621   2.040378   2.828173
     7  C    4.938600   2.847577   1.378437   2.042776   1.352451
     8  C    5.062199   1.238546   3.698946   4.484650   1.449670
     9  C    2.688625   3.703363   2.772355   3.778368   1.507951
    10  H    2.413780   3.916190   3.680074   4.676945   2.142834
    11  H    2.792797   4.101894   3.369346   4.332453   2.150960
    12  C    2.325787   4.877065   2.347725   3.241263   2.526294
    13  C    1.227239   6.087704   3.738376   4.544035   3.809956
    14  C    6.422013   2.758877   2.403860   2.481059   2.546674
    15  H    6.957158   3.804714   2.483478   2.139257   3.392276
    16  H    6.898034   2.274075   3.267951   3.431776   2.804667
    17  H    6.820136   2.850065   2.985921   3.004233   3.022680
    18  C    4.899909   2.342217   4.897609   5.781543   2.547277
    19  H    5.928860   2.498873   5.782838   6.607259   3.452142
    20  H    4.375316   3.177267   4.969997   5.903521   2.760590
    21  H    4.653953   2.959542   5.249194   6.161297   2.978754
    22  C    2.342368   7.389359   4.462166   5.045952   5.094201
    23  H    2.971094   7.924142   4.644207   5.115419   5.565671
    24  H    3.161129   7.419820   4.303802   4.754910   5.203915
    25  H    2.401226   8.065125   5.471752   6.098400   5.838852
    26  C    4.371116   6.454954   2.383291   2.449201   4.299989
    27  H    4.659572   6.835565   2.983385   2.986864   4.778371
    28  H    4.189832   7.211528   3.235164   3.375156   4.942773
    29  H    5.366477   6.664392   2.447239   2.083203   4.691675
                    6          7          8          9         10
     6  C    0.000000
     7  C    2.438384   0.000000
     8  C    4.272637   2.445584   0.000000
     9  C    2.476046   2.474636   2.544646   0.000000
    10  H    3.270054   3.285313   2.721836   1.088630   0.000000
    11  H    3.078675   3.092219   2.932605   1.096813   1.737802
    12  C    1.350963   2.824133   3.848138   1.509268   2.115492
    13  C    2.512946   4.272799   4.967117   2.482879   2.577952
    14  C    3.711491   1.490254   3.011303   3.902321   4.628896
    15  H    3.854656   2.136660   4.032527   4.578765   5.420740
    16  H    4.527499   2.153884   2.808386   4.247284   4.934269
    17  H    4.188011   2.136594   3.295172   4.391823   4.934644
    18  C    5.172588   3.795798   1.502248   2.909765   2.646459
    19  H    6.181320   4.579022   2.162034   3.967903   3.726135
    20  H    5.068133   4.051732   2.171806   2.661252   2.461829
    21  H    5.346785   4.251911   2.149068   3.088603   2.455551
    22  C    3.097615   5.298041   6.335133   3.908951   4.016394
    23  H    3.289912   5.634659   6.881491   4.405736   4.708929
    24  H    3.011802   5.220867   6.473590   4.250795   4.372220
    25  H    4.125064   6.200342   6.963230   4.549220   4.431214
    26  C    1.495859   3.701878   5.739674   3.917255   4.628121
    27  H    2.150602   4.200230   6.162501   4.424621   4.952745
    28  H    2.163166   4.512773   6.387486   4.285445   4.964659
    29  H    2.141379   3.821236   6.102078   4.582406   5.411023
                   11         12         13         14         15
    11  H    0.000000
    12  C    2.134615   0.000000
    13  C    2.838522   1.460458   0.000000
    14  C    4.439792   4.293957   5.742885   0.000000
    15  H    5.041030   4.707222   6.152580   1.091194   0.000000
    16  H    4.604214   4.928405   6.364514   1.086570   1.761291
    17  H    5.100184   4.747729   6.135504   1.090725   1.767535
    18  C    3.011835   4.390665   5.170506   4.506357   5.506011
    19  H    3.964991   5.457193   6.247826   5.032197   6.038685
    20  H    2.390148   4.151753   4.783487   4.961407   5.858363
    21  H    3.402832   4.443271   5.019627   5.054196   6.086109
    22  C    4.290399   2.606036   1.506920   6.688163   6.939158
    23  H    4.603526   3.048123   2.156334   6.990542   7.100148
    24  H    4.841066   2.863961   2.182187   6.498725   6.702268
    25  H    4.874437   3.445111   2.096318   7.616811   7.939569
    26  C    4.431499   2.567545   3.159839   4.720622   4.577455
    27  H    5.106836   3.051144   3.441682   5.142184   5.049834
    28  H    4.604284   2.858894   3.033956   5.624292   5.474329
    29  H    5.033225   3.408886   4.180433   4.554619   4.164650
                   16         17         18         19         20
    16  H    0.000000
    17  H    1.743794   0.000000
    18  C    4.228208   4.773311   0.000000
    19  H    4.546068   5.260676   1.088563   0.000000
    20  H    4.711072   5.408964   1.090698   1.757832   0.000000
    21  H    4.938012   5.145615   1.093593   1.754083   1.747023
    22  C    7.446287   7.012866   6.634937   7.718898   6.287791
    23  H    7.741349   7.432617   7.240974   8.311211   6.801954
    24  H    7.362656   6.691347   6.942668   8.029822   6.754142
    25  H    8.338551   7.897527   7.068327   8.136013   6.681310
    26  C    5.639172   5.124184   6.664510   7.676143   6.538688
    27  H    6.140376   5.329909   7.084979   8.112322   7.065750
    28  H    6.469494   6.115470   7.157620   8.188102   6.878845
    29  H    5.480815   5.007793   7.177206   8.126935   7.091903
                   21         22         23         24         25
    21  H    0.000000
    22  C    6.424574   0.000000
    23  H    7.161813   1.090434   0.000000
    24  H    6.688410   1.087261   1.761355   0.000000
    25  H    6.735202   1.087476   1.761816   1.773682   0.000000
    26  C    6.794344   3.011692   2.897344   2.667332   4.087022
    27  H    7.069231   3.012518   3.111637   2.297289   3.988726
    28  H    7.286272   2.603816   2.130711   2.509761   3.637315
    29  H    7.423819   4.071289   3.825153   3.711550   5.144255
                   26         27         28         29
    26  C    0.000000
    27  H    1.090338   0.000000
    28  H    1.084236   1.760950   0.000000
    29  H    1.090073   1.749738   1.739391   0.000000
 Stoichiometry    C11H15NO2
 Framework group  C1[X(C11H15NO2)]
 Deg. of freedom    81
 Full point group                 C1      NOp   1
 RotChk:  IX=0 Diff= 3.31D-16
 Largest Abelian subgroup         C1      NOp   1
 Largest concise Abelian subgroup C1      NOp   1
                         Standard orientation:                         
 ---------------------------------------------------------------------
 Center     Atomic      Atomic             Coordinates (Angstroms)
 Number     Number       Type             X           Y           Z
 ---------------------------------------------------------------------
      1          8           0        2.275730   -2.292871   -0.133382
      2          8           0       -3.619138   -0.229449    0.366314
      3          7           0        0.035612    1.802577   -0.205759
      4          1           0        0.065794    2.808504   -0.197400
      5          6           0       -1.289808   -0.137309   -0.068794
      6          6           0        1.234173    1.137855   -0.113959
      7          6           0       -1.202683    1.212331   -0.070388
      8          6           0       -2.560121   -0.814644    0.101695
      9          6           0       -0.055194   -0.965942   -0.319821
     10          1           0       -0.048175   -1.836832    0.333337
     11          1           0       -0.067155   -1.368437   -1.340043
     12          6           0        1.235093   -0.213077   -0.104781
     13          6           0        2.399270   -1.083639    0.035766
     14          6           0       -2.321156    2.187002    0.070659
     15          1           0       -2.039871    3.160307   -0.334630
     16          1           0       -3.223507    1.860195   -0.438845
     17          1           0       -2.589739    2.319263    1.119492
     18          6           0       -2.623512   -2.307477   -0.053811
     19          1           0       -3.641203   -2.660855   -0.210004
     20          1           0       -2.017927   -2.672161   -0.884409
     21          1           0       -2.245594   -2.807350    0.842432
     22          6           0        3.762156   -0.570004    0.422458
     23          1           0        4.264267   -0.104893   -0.426425
     24          1           0        3.739752    0.151719    1.235323
     25          1           0        4.347270   -1.434934    0.726007
     26          6           0        2.396988    2.075431   -0.033920
     27          1           0        2.737455    2.204670    0.993804
     28          1           0        3.242227    1.753385   -0.631770
     29          1           0        2.123161    3.064776   -0.400629
 ---------------------------------------------------------------------
 Rotational constants (GHZ):           1.0892909           0.4885504           0.3445927
 Leave Link  202 at Fri Jan 23 23:00:08 2026, MaxMem=  2147483648 cpu:               0.0 elap:               0.0
 (Enter /data/home/wyx/g16/l301.exe)
 Standard basis: TZVP (5D, 7F)
 Ernie: Thresh=  0.10000D-02 Tol=  0.10000D-05 Strict=F.
 There are   370 symmetry adapted cartesian basis functions of A   symmetry.
 There are   356 symmetry adapted basis functions of A   symmetry.
   356 basis functions,   610 primitive gaussians,   370 cartesian basis functions
    52 alpha electrons       52 beta electrons
       nuclear repulsion energy       900.7893226350 Hartrees.
 IExCor=20419 DFT=T Ex+Corr=CAM-B3LYP ExCW=0 ScaHFX=  1.000000
 ScaDFX=  1.000000  1.000000  1.000000  0.810000 ScalE2=  1.000000  1.000000
 IRadAn=      5 IRanWt=     -1 IRanGd=            0 ICorTp=0 IEmpDi=141
 HFx  wShort=  0.000000 wLong=  0.330000 cFull=  0.190000 cShort=  0.000000 cLong=  0.460000
 DFx  wShort=  0.000000 wLong=  0.330000 cFull=  0.190000 cShort=  0.000000 cLong=  0.460000
 NAtoms=   29 NActive=   29 NUniq=   29 SFac= 1.00D+00 NAtFMM=   60 NAOKFM=F Big=F
 Integral buffers will be    131072 words long.
 Raffenetti 2 integral format.
 Two-electron integral symmetry is turned on.
 R6Disp:  Grimme-D3(BJ) Dispersion energy=       -0.0261833944 Hartrees.
 Nuclear repulsion after empirical dispersion term =      900.7631392405 Hartrees.
 ------------------------------------------------------------------------------
 Polarizable Continuum Model (PCM)
 =================================
 Model                : PCM.
 Atomic radii         : UFF (Universal Force Field).
 Polarization charges : Total charges.
 Charge compensation  : None.
 Solution method      : On-the-fly selection.
 Cavity type          : Scaled VdW (van der Waals Surface) (Alpha=1.100).
 Cavity algorithm     : GePol (No added spheres)
                        Default sphere list used, NSphG=   29.
                        Lebedev-Laikov grids with approx.  5.0 points / Ang**2.
                        Smoothing algorithm: York/Karplus (Gamma=1.0000).
                        Polarization charges: spherical gaussians, with
                                              point-specific exponents (IZeta= 3).
                        Self-potential: point-specific (ISelfS= 7).
                        Self-field    : sphere-specific E.n sum rule (ISelfD= 2).
 Solvent              : TetraHydroFuran, Eps=   7.425700 Eps(inf)=   1.974025
 ------------------------------------------------------------------------------
 GePol: Number of generator spheres                  =      29
 GePol: Total number of spheres                      =      29
 GePol: Number of exposed spheres                    =      29 (100.00%)
 GePol: Number of points                             =    2113
 GePol: Average weight of points                     =       0.13
 GePol: Minimum weight of points                     =   0.33D-08
 GePol: Maximum weight of points                     =    0.20577
 GePol: Number of points with low weight             =     146
 GePol: Fraction of low-weight points (<1% of avg)   =       6.91%
 GePol: Cavity surface area                          =    268.186 Ang**2
 GePol: Cavity volume                                =    286.052 Ang**3
 Leave Link  301 at Fri Jan 23 23:00:08 2026, MaxMem=  2147483648 cpu:               0.6 elap:               0.0
 (Enter /data/home/wyx/g16/l302.exe)
 NPDir=0 NMtPBC=     1 NCelOv=     1 NCel=       1 NClECP=     1 NCelD=      1
         NCelK=      1 NCelE2=     1 NClLst=     1 CellRange=     0.0.
 One-electron integrals computed using PRISM.
 One-electron integral symmetry used in STVInt
 NBasis=   356 RedAO= T EigKep=  4.32D-05  NBF=   356
 NBsUse=   356 1.00D-06 EigRej= -1.00D+00 NBFU=   356
 Precomputing XC quadrature grid using
 IXCGrd= 4 IRadAn=           5 IRanWt=          -1 IRanGd=           0 AccXCQ= 0.00D+00.
 Generated NRdTot=       0 NPtTot=           0 NUsed=           0 NTot=          32
 NSgBfM=   366   366   366   366   366 MxSgAt=    29 MxSgA2=    29.
 Leave Link  302 at Fri Jan 23 23:00:08 2026, MaxMem=  2147483648 cpu:               3.1 elap:               0.2
 (Enter /data/home/wyx/g16/l303.exe)
 DipDrv:  MaxL=1.
 Leave Link  303 at Fri Jan 23 23:00:09 2026, MaxMem=  2147483648 cpu:               0.6 elap:               0.0
 (Enter /data/home/wyx/g16/l401.exe)
 Initial guess from the checkpoint file:  "DDL-S2-cLR-gs-13.chk"
 B after Tr=     0.000000   -0.000000   -0.000000
         Rot=    1.000000    0.000000   -0.000000   -0.000000 Ang=   0.00 deg.
 Guess basis will be translated and rotated to current coordinates.
 JPrj=2 DoOrth=T DoCkMO=T.
 Leave Link  401 at Fri Jan 23 23:00:09 2026, MaxMem=  2147483648 cpu:               2.2 elap:               0.2
 (Enter /data/home/wyx/g16/l502.exe)
 Integral symmetry usage will be decided dynamically.
 Closed shell SCF:
 Using DIIS extrapolation, IDIIS=  1040.
 NGot=  2147483648 LenX=  2147200095 LenY=  2147062754
 Requested convergence on RMS density matrix=1.00D-08 within 128 cycles.
 Requested convergence on MAX density matrix=1.00D-06.
 Requested convergence on             energy=1.00D-06.
 No special actions if energy rises.
 Fock matrices will be formed incrementally for  20 cycles.

 Cycle   1  Pass 1  IDiag  1:
 FoFJK:  IHMeth= 1 ICntrl=       0 DoSepK=T KAlg= 0 I1Cent=           0 FoldK=F
 IRaf=         1 NMat=       1 IRICut=       1 DoRegI=T DoRafI=F ISym2E= 0 IDoP0=0 IntGTp=1.
 FoFCou: FMM=F IPFlag=           0 FMFlag=      100000 FMFlg1=           0
         NFxFlg=           0 DoJE=T BraDBF=F KetDBF=F FulRan=T
         wScrn=  0.000000 ICntrl=       500 IOpCl=  0 I1Cent=           0 NGrid=           0
         NMat0=    1 NMatS0=      1 NMatT0=    0 NMatD0=    1 NMtDS0=    0 NMtDT0=    0
 Symmetry not used in FoFCou.
 Inv3:  Mode=1 IEnd=    13394307.
 Iteration    1 A*A^-1 deviation from unit magnitude is 3.11D-15 for      8.
 Iteration    1 A*A^-1 deviation from orthogonality  is 1.67D-15 for   2033   1568.
 Iteration    1 A^-1*A deviation from unit magnitude is 3.11D-15 for      8.
 Iteration    1 A^-1*A deviation from orthogonality  is 1.72D-15 for   1762    742.
 NEqPCM:  Using non-equilibrium solvation (IEInf=1, Eps=   7.4257, EpsInf=   1.9740)
 Inv3:  Mode=1 IEnd=    13394307.
 Iteration    1 A*A^-1 deviation from unit magnitude is 3.11D-15 for    710.
 Iteration    1 A*A^-1 deviation from orthogonality  is 1.63D-15 for    825    324.
 Iteration    1 A^-1*A deviation from unit magnitude is 3.00D-15 for   1603.
 Iteration    1 A^-1*A deviation from orthogonality  is 2.06D-15 for   1515   1278.
 E= -633.325703247126    
 DIIS: error= 4.76D-04 at cycle   1 NSaved=   1.
 NSaved= 1 IEnMin= 1 EnMin= -633.325703247126     IErMin= 1 ErrMin= 4.76D-04
 ErrMax= 4.76D-04  0.00D+00 EMaxC= 1.00D-01 BMatC= 4.77D-05 BMatP= 4.77D-05
 IDIUse=3 WtCom= 9.95D-01 WtEn= 4.76D-03
 Coeff-Com:  0.100D+01
 Coeff-En:   0.100D+01
 Coeff:      0.100D+01
 Gap=     0.239 Goal=   None    Shift=    0.000
 RMSDP=2.70D-04 MaxDP=1.59D-02              OVMax= 7.54D-03

 Cycle   2  Pass 1  IDiag  1:
 RMSU=  2.68D-04    CP:  1.00D+00
 E= -633.325789708920     Delta-E=       -0.000086461794 Rises=F Damp=F
 DIIS: error= 3.55D-04 at cycle   2 NSaved=   2.
 NSaved= 2 IEnMin= 2 EnMin= -633.325789708920     IErMin= 2 ErrMin= 3.55D-04
 ErrMax= 3.55D-04  0.00D+00 EMaxC= 1.00D-01 BMatC= 4.76D-05 BMatP= 4.77D-05
 IDIUse=3 WtCom= 9.96D-01 WtEn= 3.55D-03
 Coeff-Com:  0.500D+00 0.500D+00
 Coeff-En:   0.000D+00 0.100D+01
 Coeff:      0.498D+00 0.502D+00
 Gap=     0.238 Goal=   None    Shift=    0.000
 RMSDP=7.94D-05 MaxDP=4.36D-03 DE=-8.65D-05 OVMax= 1.87D-03

 Cycle   3  Pass 1  IDiag  1:
 RMSU=  7.41D-05    CP:  1.00D+00  9.75D-01
 E= -633.325825967633     Delta-E=       -0.000036258713 Rises=F Damp=F
 DIIS: error= 1.29D-04 at cycle   3 NSaved=   3.
 NSaved= 3 IEnMin= 3 EnMin= -633.325825967633     IErMin= 3 ErrMin= 1.29D-04
 ErrMax= 1.29D-04  0.00D+00 EMaxC= 1.00D-01 BMatC= 6.08D-06 BMatP= 4.76D-05
 IDIUse=3 WtCom= 9.99D-01 WtEn= 1.29D-03
 EnCoef did     1 forward-backward iterations
 Coeff-Com:  0.628D-01 0.241D+00 0.696D+00
 Coeff-En:   0.000D+00 0.117D-02 0.999D+00
 Coeff:      0.628D-01 0.241D+00 0.696D+00
 Gap=     0.238 Goal=   None    Shift=    0.000
 RMSDP=2.15D-05 MaxDP=1.05D-03 DE=-3.63D-05 OVMax= 1.07D-03

 Cycle   4  Pass 1  IDiag  1:
 RMSU=  1.54D-05    CP:  1.00D+00  9.95D-01  1.19D+00
 E= -633.325831129004     Delta-E=       -0.000005161371 Rises=F Damp=F
 DIIS: error= 4.21D-05 at cycle   4 NSaved=   4.
 NSaved= 4 IEnMin= 4 EnMin= -633.325831129004     IErMin= 4 ErrMin= 4.21D-05
 ErrMax= 4.21D-05  0.00D+00 EMaxC= 1.00D-01 BMatC= 4.49D-07 BMatP= 6.08D-06
 IDIUse=1 WtCom= 1.00D+00 WtEn= 0.00D+00
 Coeff-Com: -0.141D-01 0.190D-01 0.204D+00 0.791D+00
 Coeff:     -0.141D-01 0.190D-01 0.204D+00 0.791D+00
 Gap=     0.238 Goal=   None    Shift=    0.000
 RMSDP=1.42D-05 MaxDP=8.01D-04 DE=-5.16D-06 OVMax= 6.61D-04

 Cycle   5  Pass 1  IDiag  1:
 RMSU=  7.12D-06    CP:  1.00D+00  1.01D+00  1.34D+00  1.09D+00
 E= -633.325831774906     Delta-E=       -0.000000645902 Rises=F Damp=F
 DIIS: error= 1.48D-05 at cycle   5 NSaved=   5.
 NSaved= 5 IEnMin= 5 EnMin= -633.325831774906     IErMin= 5 ErrMin= 1.48D-05
 ErrMax= 1.48D-05  0.00D+00 EMaxC= 1.00D-01 BMatC= 1.28D-07 BMatP= 4.49D-07
 IDIUse=1 WtCom= 1.00D+00 WtEn= 0.00D+00
 Coeff-Com: -0.134D-01-0.289D-01-0.436D-02 0.365D+00 0.682D+00
 Coeff:     -0.134D-01-0.289D-01-0.436D-02 0.365D+00 0.682D+00
 Gap=     0.238 Goal=   None    Shift=    0.000
 RMSDP=5.47D-06 MaxDP=2.53D-04 DE=-6.46D-07 OVMax= 2.42D-04

 Cycle   6  Pass 1  IDiag  1:
 RMSU=  2.27D-06    CP:  1.00D+00  1.01D+00  1.40D+00  1.25D+00  1.08D+00
 E= -633.325831967556     Delta-E=       -0.000000192650 Rises=F Damp=F
 DIIS: error= 1.08D-05 at cycle   6 NSaved=   6.
 NSaved= 6 IEnMin= 6 EnMin= -633.325831967556     IErMin= 6 ErrMin= 1.08D-05
 ErrMax= 1.08D-05  0.00D+00 EMaxC= 1.00D-01 BMatC= 1.34D-08 BMatP= 1.28D-07
 IDIUse=1 WtCom= 1.00D+00 WtEn= 0.00D+00
 Coeff-Com: -0.904D-03-0.150D-01-0.245D-01 0.450D-02 0.184D+00 0.852D+00
 Coeff:     -0.904D-03-0.150D-01-0.245D-01 0.450D-02 0.184D+00 0.852D+00
 Gap=     0.238 Goal=   None    Shift=    0.000
 RMSDP=2.49D-06 MaxDP=9.46D-05 DE=-1.93D-07 OVMax= 1.93D-04

 Cycle   7  Pass 1  IDiag  1:
 RMSU=  1.06D-06    CP:  1.00D+00  1.00D+00  1.42D+00  1.32D+00  1.19D+00
                    CP:  1.22D+00
 E= -633.325832004656     Delta-E=       -0.000000037100 Rises=F Damp=F
 DIIS: error= 4.15D-06 at cycle   7 NSaved=   7.
 NSaved= 7 IEnMin= 7 EnMin= -633.325832004656     IErMin= 7 ErrMin= 4.15D-06
 ErrMax= 4.15D-06  0.00D+00 EMaxC= 1.00D-01 BMatC= 6.22D-09 BMatP= 1.34D-08
 IDIUse=1 WtCom= 1.00D+00 WtEn= 0.00D+00
 Coeff-Com:  0.231D-02-0.335D-02-0.766D-02-0.693D-01-0.834D-01 0.430D+00
 Coeff-Com:  0.732D+00
 Coeff:      0.231D-02-0.335D-02-0.766D-02-0.693D-01-0.834D-01 0.430D+00
 Coeff:      0.732D+00
 Gap=     0.238 Goal=   None    Shift=    0.000
 RMSDP=1.07D-06 MaxDP=4.87D-05 DE=-3.71D-08 OVMax= 9.74D-05

 Cycle   8  Pass 1  IDiag  1:
 RMSU=  3.79D-07    CP:  1.00D+00  1.00D+00  1.43D+00  1.34D+00  1.24D+00
                    CP:  1.43D+00  1.11D+00
 E= -633.325832016110     Delta-E=       -0.000000011454 Rises=F Damp=F
 DIIS: error= 1.37D-06 at cycle   8 NSaved=   8.
 NSaved= 8 IEnMin= 8 EnMin= -633.325832016110     IErMin= 8 ErrMin= 1.37D-06
 ErrMax= 1.37D-06  0.00D+00 EMaxC= 1.00D-01 BMatC= 6.14D-10 BMatP= 6.22D-09
 IDIUse=1 WtCom= 1.00D+00 WtEn= 0.00D+00
 Coeff-Com:  0.945D-03 0.378D-03 0.218D-02-0.224D-01-0.720D-01 0.735D-02
 Coeff-Com:  0.239D+00 0.844D+00
 Coeff:      0.945D-03 0.378D-03 0.218D-02-0.224D-01-0.720D-01 0.735D-02
 Coeff:      0.239D+00 0.844D+00
 Gap=     0.238 Goal=   None    Shift=    0.000
 RMSDP=4.45D-07 MaxDP=1.50D-05 DE=-1.15D-08 OVMax= 3.81D-05

 Cycle   9  Pass 1  IDiag  1:
 RMSU=  1.19D-07    CP:  1.00D+00  1.00D+00  1.43D+00  1.35D+00  1.25D+00
                    CP:  1.54D+00  1.30D+00  1.17D+00
 E= -633.325832017478     Delta-E=       -0.000000001368 Rises=F Damp=F
 DIIS: error= 5.30D-07 at cycle   9 NSaved=   9.
 NSaved= 9 IEnMin= 9 EnMin= -633.325832017478     IErMin= 9 ErrMin= 5.30D-07
 ErrMax= 5.30D-07  0.00D+00 EMaxC= 1.00D-01 BMatC= 6.45D-11 BMatP= 6.14D-10
 IDIUse=1 WtCom= 1.00D+00 WtEn= 0.00D+00
 Coeff-Com:  0.440D-04 0.469D-03 0.182D-02 0.290D-02-0.162D-01-0.552D-01
 Coeff-Com: -0.266D-02 0.316D+00 0.753D+00
 Coeff:      0.440D-04 0.469D-03 0.182D-02 0.290D-02-0.162D-01-0.552D-01
 Coeff:     -0.266D-02 0.316D+00 0.753D+00
 Gap=     0.238 Goal=   None    Shift=    0.000
 RMSDP=1.16D-07 MaxDP=4.15D-06 DE=-1.37D-09 OVMax= 1.13D-05

 Cycle  10  Pass 1  IDiag  1:
 RMSU=  4.78D-08    CP:  1.00D+00  1.00D+00  1.43D+00  1.36D+00  1.24D+00
                    CP:  1.56D+00  1.36D+00  1.25D+00  1.04D+00
 E= -633.325832017600     Delta-E=       -0.000000000122 Rises=F Damp=F
 DIIS: error= 1.25D-07 at cycle  10 NSaved=  10.
 NSaved=10 IEnMin=10 EnMin= -633.325832017600     IErMin=10 ErrMin= 1.25D-07
 ErrMax= 1.25D-07  0.00D+00 EMaxC= 1.00D-01 BMatC= 1.11D-11 BMatP= 6.45D-11
 IDIUse=1 WtCom= 1.00D+00 WtEn= 0.00D+00
 Coeff-Com: -0.781D-04 0.228D-03 0.138D-03 0.332D-02 0.190D-02-0.206D-01
 Coeff-Com: -0.247D-01-0.392D-02 0.261D+00 0.783D+00
 Coeff:     -0.781D-04 0.228D-03 0.138D-03 0.332D-02 0.190D-02-0.206D-01
 Coeff:     -0.247D-01-0.392D-02 0.261D+00 0.783D+00
 Gap=     0.238 Goal=   None    Shift=    0.000
 RMSDP=5.15D-08 MaxDP=2.64D-06 DE=-1.22D-10 OVMax= 2.98D-06

 Cycle  11  Pass 1  IDiag  1:
 RMSU=  1.71D-08    CP:  1.00D+00  1.00D+00  1.43D+00  1.36D+00  1.24D+00
                    CP:  1.57D+00  1.38D+00  1.29D+00  1.16D+00  1.18D+00
 E= -633.325832017621     Delta-E=       -0.000000000020 Rises=F Damp=F
 DIIS: error= 5.45D-08 at cycle  11 NSaved=  11.
 NSaved=11 IEnMin=11 EnMin= -633.325832017621     IErMin=11 ErrMin= 5.45D-08
 ErrMax= 5.45D-08  0.00D+00 EMaxC= 1.00D-01 BMatC= 1.53D-12 BMatP= 1.11D-11
 IDIUse=1 WtCom= 1.00D+00 WtEn= 0.00D+00
 Coeff-Com: -0.339D-04 0.635D-04-0.236D-03 0.958D-03 0.303D-02 0.695D-03
 Coeff-Com: -0.599D-02-0.461D-01 0.880D-02 0.275D+00 0.764D+00
 Coeff:     -0.339D-04 0.635D-04-0.236D-03 0.958D-03 0.303D-02 0.695D-03
 Coeff:     -0.599D-02-0.461D-01 0.880D-02 0.275D+00 0.764D+00
 Gap=     0.238 Goal=   None    Shift=    0.000
 RMSDP=1.70D-08 MaxDP=8.72D-07 DE=-2.03D-11 OVMax= 8.45D-07

 Cycle  12  Pass 1  IDiag  1:
 RMSU=  5.98D-09    CP:  1.00D+00  1.00D+00  1.43D+00  1.36D+00  1.24D+00
                    CP:  1.57D+00  1.38D+00  1.29D+00  1.20D+00  1.27D+00
                    CP:  1.02D+00
 E= -633.325832017623     Delta-E=       -0.000000000002 Rises=F Damp=F
 DIIS: error= 2.29D-08 at cycle  12 NSaved=  12.
 NSaved=12 IEnMin=12 EnMin= -633.325832017623     IErMin=12 ErrMin= 2.29D-08
 ErrMax= 2.29D-08  0.00D+00 EMaxC= 1.00D-01 BMatC= 2.14D-13 BMatP= 1.53D-12
 IDIUse=1 WtCom= 1.00D+00 WtEn= 0.00D+00
 Coeff-Com: -0.672D-05 0.985D-05-0.989D-04-0.602D-04 0.791D-03 0.209D-02
 Coeff-Com:  0.922D-03-0.171D-01-0.289D-01-0.308D-01 0.273D+00 0.800D+00
 Coeff:     -0.672D-05 0.985D-05-0.989D-04-0.602D-04 0.791D-03 0.209D-02
 Coeff:      0.922D-03-0.171D-01-0.289D-01-0.308D-01 0.273D+00 0.800D+00
 Gap=     0.238 Goal=   None    Shift=    0.000
 RMSDP=8.16D-09 MaxDP=4.29D-07 DE=-1.93D-12 OVMax= 3.77D-07

 Error on total polarization charges =  0.00905
 SCF Done:  E(RCAM-B3LYP) =  -633.325832018     A.U. after   12 cycles
            NFock= 12  Conv=0.82D-08     -V/T= 2.0041
 KE= 6.307403863919D+02 PE=-3.277681774514D+03 EE= 1.112852416864D+03
 Leave Link  502 at Fri Jan 23 23:00:57 2026, MaxMem=  2147483648 cpu:             753.6 elap:              47.7
 (Enter /data/home/wyx/g16/l601.exe)
 Copying SCF densities to generalized density rwf, IOpCl= 0 IROHF=0.

 **********************************************************************

            Population analysis using the SCF density.

 **********************************************************************

 Orbital symmetries:
       Occupied  (A) (A) (A) (A) (A) (A) (A) (A) (A) (A) (A) (A)
                 (A) (A) (A) (A) (A) (A) (A) (A) (A) (A) (A) (A)
                 (A) (A) (A) (A) (A) (A) (A) (A) (A) (A) (A) (A)
                 (A) (A) (A) (A) (A) (A) (A) (A) (A) (A) (A) (A)
                 (A) (A) (A) (A)
       Virtual   (A) (A) (A) (A) (A) (A) (A) (A) (A) (A) (A) (A)
                 (A) (A) (A) (A) (A) (A) (A) (A) (A) (A) (A) (A)
                 (A) (A) (A) (A) (A) (A) (A) (A) (A) (A) (A) (A)
                 (A) (A) (A) (A) (A) (A) (A) (A) (A) (A) (A) (A)
                 (A) (A) (A) (A) (A) (A) (A) (A) (A) (A) (A) (A)
                 (A) (A) (A) (A) (A) (A) (A) (A) (A) (A) (A) (A)
                 (A) (A) (A) (A) (A) (A) (A) (A) (A) (A) (A) (A)
                 (A) (A) (A) (A) (A) (A) (A) (A) (A) (A) (A) (A)
                 (A) (A) (A) (A) (A) (A) (A) (A) (A) (A) (A) (A)
                 (A) (A) (A) (A) (A) (A) (A) (A) (A) (A) (A) (A)
                 (A) (A) (A) (A) (A) (A) (A) (A) (A) (A) (A) (A)
                 (A) (A) (A) (A) (A) (A) (A) (A) (A) (A) (A) (A)
                 (A) (A) (A) (A) (A) (A) (A) (A) (A) (A) (A) (A)
                 (A) (A) (A) (A) (A) (A) (A) (A) (A) (A) (A) (A)
                 (A) (A) (A) (A) (A) (A) (A) (A) (A) (A) (A) (A)
                 (A) (A) (A) (A) (A) (A) (A) (A) (A) (A) (A) (A)
                 (A) (A) (A) (A) (A) (A) (A) (A) (A) (A) (A) (A)
                 (A) (A) (A) (A) (A) (A) (A) (A) (A) (A) (A) (A)
                 (A) (A) (A) (A) (A) (A) (A) (A) (A) (A) (A) (A)
                 (A) (A) (A) (A) (A) (A) (A) (A) (A) (A) (A) (A)
                 (A) (A) (A) (A) (A) (A) (A) (A) (A) (A) (A) (A)
                 (A) (A) (A) (A) (A) (A) (A) (A) (A) (A) (A) (A)
                 (A) (A) (A) (A) (A) (A) (A) (A) (A) (A) (A) (A)
                 (A) (A) (A) (A) (A) (A) (A) (A) (A) (A) (A) (A)
                 (A) (A) (A) (A) (A) (A) (A) (A) (A) (A) (A) (A)
                 (A) (A) (A) (A)
 The electronic state is 1-A.
 Alpha  occ. eigenvalues --  -19.18103 -19.16823 -14.44381 -10.33624 -10.32808
 Alpha  occ. eigenvalues --  -10.32389 -10.31647 -10.26289 -10.25288 -10.25000
 Alpha  occ. eigenvalues --  -10.24723 -10.24721 -10.24443 -10.23401  -1.12257
 Alpha  occ. eigenvalues --   -1.10534  -1.07831  -0.91585  -0.90560  -0.83933
 Alpha  occ. eigenvalues --   -0.82624  -0.81722  -0.78614  -0.74370  -0.71437
 Alpha  occ. eigenvalues --   -0.68880  -0.61895  -0.58510  -0.57033  -0.55375
 Alpha  occ. eigenvalues --   -0.54831  -0.54018  -0.52598  -0.52026  -0.50865
 Alpha  occ. eigenvalues --   -0.49994  -0.49379  -0.49172  -0.48501  -0.48330
 Alpha  occ. eigenvalues --   -0.46881  -0.45119  -0.44901  -0.43775  -0.43240
 Alpha  occ. eigenvalues --   -0.42597  -0.41991  -0.41366  -0.33130  -0.32442
 Alpha  occ. eigenvalues --   -0.30834  -0.26369
 Alpha virt. eigenvalues --   -0.02558   0.02323   0.06047   0.07962   0.08328
 Alpha virt. eigenvalues --    0.09750   0.10705   0.11986   0.12536   0.13423
 Alpha virt. eigenvalues --    0.13943   0.14823   0.15482   0.16461   0.16976
 Alpha virt. eigenvalues --    0.17449   0.17571   0.17911   0.18095   0.19353
 Alpha virt. eigenvalues --    0.19726   0.21955   0.22577   0.23258   0.23447
 Alpha virt. eigenvalues --    0.24133   0.24614   0.25506   0.26068   0.26516
 Alpha virt. eigenvalues --    0.26962   0.27317   0.28357   0.29028   0.30132
 Alpha virt. eigenvalues --    0.31125   0.31875   0.32370   0.33405   0.34272
 Alpha virt. eigenvalues --    0.35258   0.35707   0.36733   0.38092   0.38847
 Alpha virt. eigenvalues --    0.39554   0.40900   0.41621   0.42108   0.42589
 Alpha virt. eigenvalues --    0.44018   0.44516   0.45465   0.45893   0.46488
 Alpha virt. eigenvalues --    0.46999   0.48033   0.48401   0.48552   0.48688
 Alpha virt. eigenvalues --    0.49458   0.49968   0.50851   0.51218   0.51550
 Alpha virt. eigenvalues --    0.52792   0.53093   0.53529   0.54103   0.54290
 Alpha virt. eigenvalues --    0.54472   0.55587   0.55810   0.56723   0.57931
 Alpha virt. eigenvalues --    0.58208   0.58953   0.60516   0.61473   0.62071
 Alpha virt. eigenvalues --    0.63205   0.65606   0.65820   0.66884   0.67957
 Alpha virt. eigenvalues --    0.69642   0.70440   0.71550   0.72402   0.72938
 Alpha virt. eigenvalues --    0.73613   0.74815   0.75035   0.76232   0.77128
 Alpha virt. eigenvalues --    0.78942   0.80051   0.83086   0.84680   0.85459
 Alpha virt. eigenvalues --    0.88995   0.91940   0.95587   1.00291   1.23947
 Alpha virt. eigenvalues --    1.25590   1.26738   1.28212   1.29265   1.31504
 Alpha virt. eigenvalues --    1.32375   1.32687   1.33679   1.35340   1.35605
 Alpha virt. eigenvalues --    1.36887   1.37322   1.37881   1.38753   1.39583
 Alpha virt. eigenvalues --    1.39818   1.40442   1.41177   1.41302   1.41751
 Alpha virt. eigenvalues --    1.43288   1.43876   1.44157   1.45063   1.47236
 Alpha virt. eigenvalues --    1.47602   1.49132   1.49635   1.50461   1.51326
 Alpha virt. eigenvalues --    1.52041   1.52667   1.53156   1.54811   1.57523
 Alpha virt. eigenvalues --    1.58273   1.60069   1.60542   1.61242   1.62114
 Alpha virt. eigenvalues --    1.62569   1.63515   1.64302   1.65831   1.66016
 Alpha virt. eigenvalues --    1.66611   1.66975   1.67881   1.68533   1.68825
 Alpha virt. eigenvalues --    1.69055   1.69774   1.70791   1.71774   1.72908
 Alpha virt. eigenvalues --    1.73377   1.74625   1.76121   1.76794   1.78446
 Alpha virt. eigenvalues --    1.80347   1.82508   1.83818   1.85113   1.86335
 Alpha virt. eigenvalues --    1.87100   1.87901   1.88274   1.89131   1.90257
 Alpha virt. eigenvalues --    1.91085   1.93831   1.95101   1.97921   1.99653
 Alpha virt. eigenvalues --    2.00927   2.04029   2.04416   2.06324   2.09241
 Alpha virt. eigenvalues --    2.10817   2.13100   2.14612   2.17373   2.19195
 Alpha virt. eigenvalues --    2.20484   2.21437   2.22073   2.23314   2.25841
 Alpha virt. eigenvalues --    2.26746   2.28058   2.29552   2.30875   2.32349
 Alpha virt. eigenvalues --    2.34057   2.34705   2.35769   2.37638   2.38310
 Alpha virt. eigenvalues --    2.38760   2.41018   2.41741   2.44442   2.44704
 Alpha virt. eigenvalues --    2.45530   2.48397   2.49892   2.50493   2.52209
 Alpha virt. eigenvalues --    2.52439   2.52595   2.54423   2.56316   2.57740
 Alpha virt. eigenvalues --    2.58547   2.60788   2.60887   2.61452   2.62639
 Alpha virt. eigenvalues --    2.63691   2.65583   2.66455   2.66942   2.69383
 Alpha virt. eigenvalues --    2.70723   2.71740   2.73328   2.74112   2.74517
 Alpha virt. eigenvalues --    2.75513   2.76842   2.77725   2.77965   2.79479
 Alpha virt. eigenvalues --    2.80933   2.81294   2.82551   2.83814   2.84761
 Alpha virt. eigenvalues --    2.85912   2.86058   2.87973   2.90405   2.92926
 Alpha virt. eigenvalues --    2.97271   2.99361   3.00048   3.04703   3.10194
 Alpha virt. eigenvalues --    3.11687   3.13186   3.15802   3.18450   3.18766
 Alpha virt. eigenvalues --    3.20997   3.22551   3.24949   3.26021   3.26616
 Alpha virt. eigenvalues --    3.27322   3.29994   3.33238   3.35204   3.36653
 Alpha virt. eigenvalues --    3.37288   3.39026   3.40120   3.40241   3.41846
 Alpha virt. eigenvalues --    3.42887   3.44098   3.45875   3.46069   3.47571
 Alpha virt. eigenvalues --    3.49976   3.51308   3.54224   3.57579   3.59315
 Alpha virt. eigenvalues --    3.60703   3.90518   3.99654   4.34768   4.35555
 Alpha virt. eigenvalues --   21.63330  21.78061  22.08036  22.10473  22.11552
 Alpha virt. eigenvalues --   22.13679  22.15703  22.18448  22.21209  22.26239
 Alpha virt. eigenvalues --   22.31192  31.92898  43.62851  43.65437
          Condensed to atoms (all electrons):
               1          2          3          4          5          6
     1  O    7.929659   0.000000  -0.000216   0.000017   0.014968   0.017108
     2  O    0.000000   7.977874   0.000537   0.000041  -0.186964   0.001124
     3  N   -0.000216   0.000537   6.403126   0.375547  -0.119169   0.340994
     4  H    0.000017   0.000041   0.375547   0.409981   0.015271  -0.046005
     5  C    0.014968  -0.186964  -0.119169   0.015271   7.015531  -0.059659
     6  C    0.017108   0.001124   0.340994  -0.046005  -0.059659   5.624021
     7  C   -0.000300  -0.030389   0.369236  -0.043344   0.380772  -0.105856
     8  C   -0.000269   0.689471   0.004578  -0.000644  -0.276658   0.030076
     9  C   -0.018737   0.019396   0.016411  -0.000002  -0.540017  -0.106488
    10  H    0.014130  -0.000124  -0.001320   0.000016  -0.115211   0.023802
    11  H    0.003472   0.000089   0.003246   0.000005  -0.030029  -0.010034
    12  C   -0.226125  -0.002558  -0.095096   0.016028   0.168670  -0.185378
    13  C    0.728349  -0.000015   0.000419   0.000417   0.071458   0.154833
    14  C   -0.000006  -0.020184  -0.038319  -0.005292  -0.064085   0.003928
    15  H   -0.000000   0.004644   0.003391   0.000674   0.018190   0.006733
    16  H    0.000000   0.005827   0.002803   0.000745  -0.009392  -0.000587
    17  H   -0.000000   0.000388  -0.003683   0.000867  -0.009308  -0.001679
    18  C   -0.000145  -0.105820  -0.000428   0.000020  -0.250758  -0.000210
    19  H   -0.000003   0.007772   0.000002  -0.000001   0.018012   0.000032
    20  H    0.000161   0.004333   0.000116   0.000001   0.052634  -0.001244
    21  H    0.000017   0.000717   0.000014  -0.000001  -0.000406   0.000226
    22  C   -0.118014   0.000000  -0.000021   0.000119   0.003362  -0.002853
    23  H    0.001866  -0.000000   0.000014  -0.000021  -0.000126   0.010539
    24  H    0.004255  -0.000000   0.000003  -0.000044  -0.000377  -0.030350
    25  H    0.009528   0.000000   0.000024  -0.000002  -0.000117  -0.001484
    26  C    0.000866   0.000004  -0.030641  -0.007783  -0.000287   0.194380
    27  H   -0.000035  -0.000000  -0.003056   0.000483   0.000472  -0.037169
    28  H   -0.000151  -0.000000   0.002024   0.000921  -0.000001  -0.039897
    29  H    0.000020  -0.000000   0.001474   0.001305  -0.000458  -0.052347
               7          8          9         10         11         12
     1  O   -0.000300  -0.000269  -0.018737   0.014130   0.003472  -0.226125
     2  O   -0.030389   0.689471   0.019396  -0.000124   0.000089  -0.002558
     3  N    0.369236   0.004578   0.016411  -0.001320   0.003246  -0.095096
     4  H   -0.043344  -0.000644  -0.000002   0.000016   0.000005   0.016028
     5  C    0.380772  -0.276658  -0.540017  -0.115211  -0.030029   0.168670
     6  C   -0.105856   0.030076  -0.106488   0.023802  -0.010034  -0.185378
     7  C    5.468371  -0.209738  -0.179748   0.018104  -0.005923   0.005857
     8  C   -0.209738   5.400768   0.123792  -0.008802  -0.001856  -0.043441
     9  C   -0.179748   0.123792   6.304932   0.541525   0.393850  -0.051938
    10  H    0.018104  -0.008802   0.541525   0.496618  -0.032776  -0.106336
    11  H   -0.005923  -0.001856   0.393850  -0.032776   0.547786  -0.019147
    12  C    0.005857  -0.043441  -0.051938  -0.106336  -0.019147   7.402392
    13  C    0.013533  -0.006431  -0.245431  -0.001885  -0.002714  -0.419146
    14  C    0.236382  -0.042924   0.014300   0.000503  -0.001363  -0.003079
    15  H   -0.077819   0.005969  -0.000463  -0.000005   0.000100  -0.001090
    16  H   -0.028045  -0.010357   0.000015  -0.000055   0.000152  -0.000217
    17  H   -0.016539   0.000336   0.000186   0.000055  -0.000058   0.000631
    18  C    0.004383   0.325211   0.005008   0.004458  -0.009958  -0.000855
    19  H    0.000301  -0.044225  -0.000963   0.000473   0.000083  -0.000221
    20  H    0.002079  -0.082657  -0.011878  -0.005138   0.001618   0.007646
    21  H    0.000289  -0.018777  -0.006202  -0.001358   0.000743  -0.003304
    22  C    0.000108  -0.000018   0.004927   0.001144   0.001495  -0.294620
    23  H    0.000013   0.000004  -0.002054  -0.000129   0.000153  -0.004244
    24  H   -0.000031  -0.000006   0.002783  -0.000026  -0.000132   0.059126
    25  H    0.000012   0.000002   0.000025  -0.000124  -0.000037   0.025454
    26  C    0.003702   0.000518   0.019899   0.000061  -0.000593  -0.083125
    27  H   -0.001004  -0.000010  -0.000023   0.000038  -0.000012  -0.017417
    28  H   -0.000731  -0.000002  -0.000888   0.000005  -0.000071  -0.006470
    29  H    0.003887   0.000002  -0.000552  -0.000007   0.000073   0.023858
              13         14         15         16         17         18
     1  O    0.728349  -0.000006  -0.000000   0.000000  -0.000000  -0.000145
     2  O   -0.000015  -0.020184   0.004644   0.005827   0.000388  -0.105820
     3  N    0.000419  -0.038319   0.003391   0.002803  -0.003683  -0.000428
     4  H    0.000417  -0.005292   0.000674   0.000745   0.000867   0.000020
     5  C    0.071458  -0.064085   0.018190  -0.009392  -0.009308  -0.250758
     6  C    0.154833   0.003928   0.006733  -0.000587  -0.001679  -0.000210
     7  C    0.013533   0.236382  -0.077819  -0.028045  -0.016539   0.004383
     8  C   -0.006431  -0.042924   0.005969  -0.010357   0.000336   0.325211
     9  C   -0.245431   0.014300  -0.000463   0.000015   0.000186   0.005008
    10  H   -0.001885   0.000503  -0.000005  -0.000055   0.000055   0.004458
    11  H   -0.002714  -0.001363   0.000100   0.000152  -0.000058  -0.009958
    12  C   -0.419146  -0.003079  -0.001090  -0.000217   0.000631  -0.000855
    13  C    5.449580  -0.000079  -0.000016  -0.000000  -0.000021   0.000667
    14  C   -0.000079   5.124157   0.383094   0.424305   0.403600   0.001490
    15  H   -0.000016   0.383094   0.591077  -0.029579  -0.028735   0.000260
    16  H   -0.000000   0.424305  -0.029579   0.488435  -0.021251   0.000037
    17  H   -0.000021   0.403600  -0.028735  -0.021251   0.506941  -0.000102
    18  C    0.000667   0.001490   0.000260   0.000037  -0.000102   5.313381
    19  H   -0.000015  -0.000021  -0.000004   0.000063  -0.000014   0.396421
    20  H    0.000712   0.000165  -0.000018  -0.000070   0.000003   0.387393
    21  H   -0.000084  -0.000310  -0.000006   0.000029   0.000007   0.391091
    22  C    0.307696  -0.000012   0.000003  -0.000000  -0.000000   0.000023
    23  H   -0.028486  -0.000001   0.000000   0.000000  -0.000000  -0.000002
    24  H   -0.079855  -0.000001  -0.000000   0.000000   0.000000   0.000003
    25  H   -0.046432   0.000000   0.000000  -0.000000  -0.000000  -0.000001
    26  C   -0.049623   0.001387  -0.000175   0.000050  -0.000148   0.000015
    27  H    0.005814  -0.000102   0.000013   0.000002  -0.000013  -0.000001
    28  H   -0.005419   0.000103  -0.000018  -0.000001   0.000003  -0.000000
    29  H   -0.000475  -0.000284   0.000137  -0.000002   0.000002   0.000000
              19         20         21         22         23         24
     1  O   -0.000003   0.000161   0.000017  -0.118014   0.001866   0.004255
     2  O    0.007772   0.004333   0.000717   0.000000  -0.000000  -0.000000
     3  N    0.000002   0.000116   0.000014  -0.000021   0.000014   0.000003
     4  H   -0.000001   0.000001  -0.000001   0.000119  -0.000021  -0.000044
     5  C    0.018012   0.052634  -0.000406   0.003362  -0.000126  -0.000377
     6  C    0.000032  -0.001244   0.000226  -0.002853   0.010539  -0.030350
     7  C    0.000301   0.002079   0.000289   0.000108   0.000013  -0.000031
     8  C   -0.044225  -0.082657  -0.018777  -0.000018   0.000004  -0.000006
     9  C   -0.000963  -0.011878  -0.006202   0.004927  -0.002054   0.002783
    10  H    0.000473  -0.005138  -0.001358   0.001144  -0.000129  -0.000026
    11  H    0.000083   0.001618   0.000743   0.001495   0.000153  -0.000132
    12  C   -0.000221   0.007646  -0.003304  -0.294620  -0.004244   0.059126
    13  C   -0.000015   0.000712  -0.000084   0.307696  -0.028486  -0.079855
    14  C   -0.000021   0.000165  -0.000310  -0.000012  -0.000001  -0.000001
    15  H   -0.000004  -0.000018  -0.000006   0.000003   0.000000  -0.000000
    16  H    0.000063  -0.000070   0.000029  -0.000000   0.000000   0.000000
    17  H   -0.000014   0.000003   0.000007  -0.000000  -0.000000   0.000000
    18  C    0.396421   0.387393   0.391091   0.000023  -0.000002   0.000003
    19  H    0.494220  -0.026153  -0.008817  -0.000000   0.000000   0.000000
    20  H   -0.026153   0.547335  -0.025341   0.000021  -0.000000  -0.000000
    21  H   -0.008817  -0.025341   0.502310  -0.000009   0.000000  -0.000000
    22  C   -0.000000   0.000021  -0.000009   5.447637   0.399242   0.389344
    23  H    0.000000  -0.000000   0.000000   0.399242   0.502318  -0.029851
    24  H    0.000000  -0.000000  -0.000000   0.389344  -0.029851   0.546937
    25  H   -0.000000  -0.000000  -0.000000   0.384862  -0.007477  -0.020724
    26  C    0.000000  -0.000016   0.000004  -0.037095  -0.015275   0.016405
    27  H    0.000000  -0.000000  -0.000000  -0.011277   0.001365  -0.001503
    28  H   -0.000000  -0.000000   0.000000   0.008916  -0.000710  -0.007970
    29  H    0.000000   0.000000  -0.000000   0.002020   0.000217   0.000614
              25         26         27         28         29
     1  O    0.009528   0.000866  -0.000035  -0.000151   0.000020
     2  O    0.000000   0.000004  -0.000000  -0.000000  -0.000000
     3  N    0.000024  -0.030641  -0.003056   0.002024   0.001474
     4  H   -0.000002  -0.007783   0.000483   0.000921   0.001305
     5  C   -0.000117  -0.000287   0.000472  -0.000001  -0.000458
     6  C   -0.001484   0.194380  -0.037169  -0.039897  -0.052347
     7  C    0.000012   0.003702  -0.001004  -0.000731   0.003887
     8  C    0.000002   0.000518  -0.000010  -0.000002   0.000002
     9  C    0.000025   0.019899  -0.000023  -0.000888  -0.000552
    10  H   -0.000124   0.000061   0.000038   0.000005  -0.000007
    11  H   -0.000037  -0.000593  -0.000012  -0.000071   0.000073
    12  C    0.025454  -0.083125  -0.017417  -0.006470   0.023858
    13  C   -0.046432  -0.049623   0.005814  -0.005419  -0.000475
    14  C    0.000000   0.001387  -0.000102   0.000103  -0.000284
    15  H    0.000000  -0.000175   0.000013  -0.000018   0.000137
    16  H   -0.000000   0.000050   0.000002  -0.000001  -0.000002
    17  H   -0.000000  -0.000148  -0.000013   0.000003   0.000002
    18  C   -0.000001   0.000015  -0.000001  -0.000000   0.000000
    19  H   -0.000000   0.000000   0.000000  -0.000000   0.000000
    20  H   -0.000000  -0.000016  -0.000000  -0.000000   0.000000
    21  H   -0.000000   0.000004  -0.000000   0.000000  -0.000000
    22  C    0.384862  -0.037095  -0.011277   0.008916   0.002020
    23  H   -0.007477  -0.015275   0.001365  -0.000710   0.000217
    24  H   -0.020724   0.016405  -0.001503  -0.007970   0.000614
    25  H    0.493394   0.001915   0.000086   0.000657  -0.000041
    26  C    0.001915   5.241330   0.433096   0.420847   0.390039
    27  H    0.000086   0.433096   0.480882  -0.027518  -0.017768
    28  H    0.000657   0.420847  -0.027518   0.515265  -0.026601
    29  H   -0.000041   0.390039  -0.017768  -0.026601   0.522954
 Mulliken charges:
               1
     1  O   -0.360413
     2  O   -0.366162
     3  N   -0.232009
     4  H    0.280677
     5  C   -0.096318
     6  C    0.273445
     7  C    0.192438
     8  C    0.166090
     9  C   -0.281667
    10  H    0.172364
    11  H    0.161838
    12  C   -0.145855
    13  C    0.152648
    14  C   -0.417354
    15  H    0.123644
    16  H    0.177094
    17  H    0.168531
    18  C   -0.461581
    19  H    0.163057
    20  H    0.148301
    21  H    0.169169
    22  C   -0.487000
    23  H    0.172644
    24  H    0.151400
    25  H    0.160481
    26  C   -0.499758
    27  H    0.194656
    28  H    0.167706
    29  H    0.151933
 Sum of Mulliken charges =  -0.00000
 Mulliken charges with hydrogens summed into heavy atoms:
               1
     1  O   -0.360413
     2  O   -0.366162
     3  N    0.048667
     5  C   -0.096318
     6  C    0.273445
     7  C    0.192438
     8  C    0.166090
     9  C    0.052535
    12  C   -0.145855
    13  C    0.152648
    14  C    0.051916
    18  C    0.018946
    22  C   -0.002475
    26  C    0.014537
 Electronic spatial extent (au):  <R**2>=           3194.5477
 Charge=             -0.0000 electrons
 Dipole moment (field-independent basis, Debye):
    X=              3.5806    Y=              6.8904    Z=             -0.2458  Tot=              7.7691
 Quadrupole moment (field-independent basis, Debye-Ang):
   XX=            -96.4977   YY=            -78.9038   ZZ=            -84.7899
   XY=             12.8411   XZ=              4.1863   YZ=             -1.0678
 Traceless Quadrupole moment (field-independent basis, Debye-Ang):
   XX=             -9.7672   YY=              7.8267   ZZ=              1.9405
   XY=             12.8411   XZ=              4.1863   YZ=             -1.0678
 Octapole moment (field-independent basis, Debye-Ang**2):
  XXX=            100.9231  YYY=             59.8954  ZZZ=              2.3574  XYY=            -35.5425
  XXY=             27.5286  XXZ=             -9.1335  XZZ=              1.7744  YZZ=             -1.6575
  YYZ=              2.5455  XYZ=             -3.6736
 Hexadecapole moment (field-independent basis, Debye-Ang**3):
 XXXX=          -3035.1004 YYYY=          -1278.7769 ZZZZ=           -145.2487 XXXY=             43.1462
 XXXZ=             52.2892 YYYX=             91.1237 YYYZ=            -18.1632 ZZZX=             -3.8962
 ZZZY=              5.0625 XXYY=           -685.0526 XXZZ=           -485.3165 YYZZ=           -240.8239
 XXYZ=             -3.4866 YYXZ=              3.8734 ZZXY=             -0.6329
 N-N= 9.007631392405D+02 E-N=-3.277681775348D+03  KE= 6.307403863919D+02
 No NMR shielding tensors so no spin-rotation constants.
 Leave Link  601 at Fri Jan 23 23:00:57 2026, MaxMem=  2147483648 cpu:               1.8 elap:               0.1
 (Enter /data/home/wyx/g16/l9999.exe)
 1\1\GINC-CN013\SP\RCAM-B3LYP\TZVP\C11H15N1O2\WYX\23-Jan-2026\0\\#p CAM
 -B3LYP TZVP em=gd3bj scrf=(Solvent=TetraHydroFuran,NonEquilibrium=Read
 ) Geom=Check Guess=Read\\Title Card Required\\0,1\O,0,2.823309,-1.5719
 17,0.226312\O,0,-3.43691,-1.628622,-0.025317\N,0,-0.636108,1.514788,-0
 .322093\H,0,-0.94669,2.470928,-0.369045\C,0,-1.239446,-0.757451,-0.214
 53\C,0,0.695881,1.299398,-0.064709\C,0,-1.61105,0.541021,-0.285275\C,0
 ,-2.219268,-1.823338,-0.141202\C,0,0.222365,-1.121029,-0.284076\H,0,0.
 443052,-1.92529,0.415621\H,0,0.468655,-1.522421,-1.274644\C,0,1.149267
 ,0.029813,0.023014\C,0,2.512405,-0.389892,0.337086\C,0,-3.000206,1.079
 376,-0.321017\H,0,-3.015643,2.082621,-0.749928\H,0,-3.672431,0.455635,
 -0.90385\H,0,-3.42129,1.131777,0.683783\C,0,-1.758574,-3.251268,-0.215
 546\H,0,-2.571994,-3.932686,-0.458416\H,0,-0.970756,-3.403459,-0.95433
 \H,0,-1.345091,-3.576004,0.743372\C,0,3.566886,0.563926,0.836195\H,0,3
 .981588,1.156312,0.020017\H,0,3.206157,1.249899,1.598725\H,0,4.367587,
 -0.044502,1.250077\C,0,1.457849,2.578016,0.084068\H,0,1.609332,2.83442
 9,1.132945\H,0,2.42735,2.551775,-0.400645\H,0,0.913772,3.408164,-0.366
 591\\Version=ES64L-G16RevA.03\State=1-A\HF=-633.325832\RMSD=8.158e-09\
 Dipole=0.4174416,3.0261753,-0.1035457\Quadrupole=-12.4129952,10.422804
 4,1.9901908,3.1674439,1.4653641,0.5298612\PG=C01 [X(C11H15N1O2)]\\@


 THE ONLY TROUBLE WITH A SURE THING IS THE UNCERTAINTY.
     -- FROM A TEABAG (BELONGING TO W.H.?)
 Job cpu time:       0 days  0 hours 12 minutes 43.9 seconds.
 Elapsed time:       0 days  0 hours  0 minutes 48.5 seconds.
 File lengths (MBytes):  RWF=    343 Int=      0 D2E=      0 Chk=     67 Scr=      1
 Normal termination of Gaussian 16 at Fri Jan 23 23:00:58 2026.
