 Entering Gaussian System, Link 0=g16
 Input=DDL-LR-Eq-8.gjf
 Output=DDL-LR-Eq-8.log
 Initial command:
 /data/home/wyx/g16/l1.exe "/scr/tmp/wyx/13109/Gau-1686023.inp" -scrdir="/scr/tmp/wyx/13109/"
 Entering Link 1 = /data/home/wyx/g16/l1.exe PID=   1686024.
  
 Copyright (c) 1988,1990,1992,1993,1995,1998,2003,2009,2016,
            Gaussian, Inc.  All Rights Reserved.
  
 This is part of the Gaussian(R) 16 program.  It is based on
 the Gaussian(R) 09 system (copyright 2009, Gaussian, Inc.),
 the Gaussian(R) 03 system (copyright 2003, Gaussian, Inc.),
 the Gaussian(R) 98 system (copyright 1998, Gaussian, Inc.),
 the Gaussian(R) 94 system (copyright 1995, Gaussian, Inc.),
 the Gaussian 92(TM) system (copyright 1992, Gaussian, Inc.),
 the Gaussian 90(TM) system (copyright 1990, Gaussian, Inc.),
 the Gaussian 88(TM) system (copyright 1988, Gaussian, Inc.),
 the Gaussian 86(TM) system (copyright 1986, Carnegie Mellon
 University), and the Gaussian 82(TM) system (copyright 1983,
 Carnegie Mellon University). Gaussian is a federally registered
 trademark of Gaussian, Inc.
  
 This software contains proprietary and confidential information,
 including trade secrets, belonging to Gaussian, Inc.
  
 This software is provided under written license and may be
 used, copied, transmitted, or stored only in accord with that
 written license.
  
 The following legend is applicable only to US Government
 contracts under FAR:
  
                    RESTRICTED RIGHTS LEGEND
  
 Use, reproduction and disclosure by the US Government is
 subject to restrictions as set forth in subparagraphs (a)
 and (c) of the Commercial Computer Software - Restricted
 Rights clause in FAR 52.227-19.
  
 Gaussian, Inc.
 340 Quinnipiac St., Bldg. 40, Wallingford CT 06492
  
  
 ---------------------------------------------------------------
 Warning -- This program may not be used in any manner that
 competes with the business of Gaussian, Inc. or will provide
 assistance to any competitor of Gaussian, Inc.  The licensee
 of this program is prohibited from giving any competitor of
 Gaussian, Inc. access to this program.  By using this program,
 the user acknowledges that Gaussian, Inc. is engaged in the
 business of creating and licensing software in the field of
 computational chemistry and represents and warrants to the
 licensee that it is not a competitor of Gaussian, Inc. and that
 it will not use this program in any manner prohibited above.
 ---------------------------------------------------------------
  

 Cite this work as:
 Gaussian 16, Revision A.03,
 M. J. Frisch, G. W. Trucks, H. B. Schlegel, G. E. Scuseria, 
 M. A. Robb, J. R. Cheeseman, G. Scalmani, V. Barone, 
 G. A. Petersson, H. Nakatsuji, X. Li, M. Caricato, A. V. Marenich, 
 J. Bloino, B. G. Janesko, R. Gomperts, B. Mennucci, H. P. Hratchian, 
 J. V. Ortiz, A. F. Izmaylov, J. L. Sonnenberg, D. Williams-Young, 
 F. Ding, F. Lipparini, F. Egidi, J. Goings, B. Peng, A. Petrone, 
 T. Henderson, D. Ranasinghe, V. G. Zakrzewski, J. Gao, N. Rega, 
 G. Zheng, W. Liang, M. Hada, M. Ehara, K. Toyota, R. Fukuda, 
 J. Hasegawa, M. Ishida, T. Nakajima, Y. Honda, O. Kitao, H. Nakai, 
 T. Vreven, K. Throssell, J. A. Montgomery, Jr., J. E. Peralta, 
 F. Ogliaro, M. J. Bearpark, J. J. Heyd, E. N. Brothers, K. N. Kudin, 
 V. N. Staroverov, T. A. Keith, R. Kobayashi, J. Normand, 
 K. Raghavachari, A. P. Rendell, J. C. Burant, S. S. Iyengar, 
 J. Tomasi, M. Cossi, J. M. Millam, M. Klene, C. Adamo, R. Cammi, 
 J. W. Ochterski, R. L. Martin, K. Morokuma, O. Farkas, 
 J. B. Foresman, and D. J. Fox, Gaussian, Inc., Wallingford CT, 2016.
 
 ******************************************
 Gaussian 16:  ES64L-G16RevA.03 25-Dec-2016
                23-Jan-2026 
 ******************************************
 %nprocshared=16
 Will use up to   16 processors via shared memory.
 %mem=16GB
 %oldchk=DDL-LR-8.chk
 %chk=DDL-LR-Eq-8.chk
 Copying data from "DDL-LR-8.chk" to current chk file "DDL-LR-Eq-8.chk"
 IOpt=  2 FromEx=T IUOpen= 4 IOptOp= 5 NList=   0 IFRang= 0 IUIn= 4 IUOut= 2.
 ----------------------------------------------------------------------
 #p CAM-B3LYP TZVP em=gd3bj td(Eqsolv,nstates=6,root=1) scrf=(Solvent=T
 etraHydroFuran) Geom=Check Guess=Read
 ----------------------------------------------------------------------
 1/29=2,38=1,172=1/1;
 2/12=2,40=1/2;
 3/5=19,7=101,11=9,14=-4,25=1,30=1,70=2201,72=20,74=-40,116=-2,124=41/1,2,3,8;
 4/5=1/1;
 5/5=2,38=6,53=20/2;
 8/6=1,10=1,107=1,108=6/1;
 9/8=1,41=6,42=1,70=2,73=2/14;
 6/7=2,8=2,9=2,10=2/1;
 99/5=1,9=1/99;
 Leave Link    1 at Fri Jan 23 15:55:03 2026, MaxMem=  2147483648 cpu:               0.7 elap:               0.1
 (Enter /data/home/wyx/g16/l101.exe)
 -------------------
 Title Card Required
 -------------------
 Structure from the checkpoint file:  "DDL-LR-Eq-8.chk"
 Charge =  0 Multiplicity = 1
 Z-Matrix found in chk file.
 O,0,2.806315,-1.578061,0.331845
 O,0,-3.448266,-1.645141,-0.254192
 N,0,-0.645482,1.521607,-0.209486
 H,0,-0.961305,2.47595,-0.251416
 C,0,-1.242303,-0.761573,-0.197304
 C,0,0.683636,1.307594,0.020234
 C,0,-1.615939,0.540512,-0.263171
 C,0,-2.199001,-1.822689,-0.230343
 C,0,0.216573,-1.127758,-0.121764
 H,0,0.374887,-1.84467,0.685213
 H,0,0.523066,-1.637411,-1.041146
 C,0,1.146351,0.038364,0.097458
 C,0,2.51516,-0.383483,0.354657
 C,0,-2.996812,1.076549,-0.380659
 H,0,-3.015801,1.978019,-0.998143
 H,0,-3.695842,0.376515,-0.832338
 H,0,-3.405481,1.329278,0.60014
 C,0,-1.793233,-3.265365,-0.249152
 H,0,-2.438811,-3.91066,-0.84678
 H,0,-0.785454,-3.430225,-0.62873
 H,0,-1.796285,-3.680729,0.76361
 C,0,3.621661,0.586744,0.671518
 H,0,3.865367,1.228164,-0.174188
 H,0,3.400113,1.228668,1.521781
 H,0,4.495665,-0.016778,0.905243
 C,0,1.448622,2.584541,0.155174
 H,0,1.816605,2.738746,1.167988
 H,0,2.296707,2.641499,-0.521662
 H,0,0.829289,3.451792,-0.074384
 Recover connectivity data from disk.
 ITRead=  0  0  0  0  0  0  0  0  0  0  0  0  0  0  0  0  0  0  0  0
 ITRead=  0  0  0  0  0  0  0  0  0
 MicOpt= -1 -1 -1 -1 -1 -1 -1 -1 -1 -1 -1 -1 -1 -1 -1 -1 -1 -1 -1 -1
 MicOpt= -1 -1 -1 -1 -1 -1 -1 -1 -1
 NAtoms=     29 NQM=       29 NQMF=       0 NMMI=      0 NMMIF=      0
                NMic=       0 NMicF=      0.
                    Isotopes and Nuclear Properties:
 (Nuclear quadrupole moments (NQMom) in fm**2, nuclear magnetic moments (NMagM)
  in nuclear magnetons)

  Atom         1           2           3           4           5           6           7           8           9          10
 IAtWgt=          16          16          14           1          12          12          12          12          12           1
 AtmWgt=  15.9949146  15.9949146  14.0030740   1.0078250  12.0000000  12.0000000  12.0000000  12.0000000  12.0000000   1.0078250
 NucSpn=           0           0           2           1           0           0           0           0           0           1
 AtZEff=   5.6000000   5.6000000   4.5500000   1.0000000   3.6000000   3.6000000   3.6000000   3.6000000   3.6000000   1.0000000
 NQMom=    0.0000000   0.0000000   2.0440000   0.0000000   0.0000000   0.0000000   0.0000000   0.0000000   0.0000000   0.0000000
 NMagM=    0.0000000   0.0000000   0.4037610   2.7928460   0.0000000   0.0000000   0.0000000   0.0000000   0.0000000   2.7928460
 AtZNuc=   8.0000000   8.0000000   7.0000000   1.0000000   6.0000000   6.0000000   6.0000000   6.0000000   6.0000000   1.0000000

  Atom        11          12          13          14          15          16          17          18          19          20
 IAtWgt=           1          12          12          12           1           1           1          12           1           1
 AtmWgt=   1.0078250  12.0000000  12.0000000  12.0000000   1.0078250   1.0078250   1.0078250  12.0000000   1.0078250   1.0078250
 NucSpn=           1           0           0           0           1           1           1           0           1           1
 AtZEff=   1.0000000   3.6000000   3.6000000   3.6000000   1.0000000   1.0000000   1.0000000   3.6000000   1.0000000   1.0000000
 NQMom=    0.0000000   0.0000000   0.0000000   0.0000000   0.0000000   0.0000000   0.0000000   0.0000000   0.0000000   0.0000000
 NMagM=    2.7928460   0.0000000   0.0000000   0.0000000   2.7928460   2.7928460   2.7928460   0.0000000   2.7928460   2.7928460
 AtZNuc=   1.0000000   6.0000000   6.0000000   6.0000000   1.0000000   1.0000000   1.0000000   6.0000000   1.0000000   1.0000000

  Atom        21          22          23          24          25          26          27          28          29
 IAtWgt=           1          12           1           1           1          12           1           1           1
 AtmWgt=   1.0078250  12.0000000   1.0078250   1.0078250   1.0078250  12.0000000   1.0078250   1.0078250   1.0078250
 NucSpn=           1           0           1           1           1           0           1           1           1
 AtZEff=   1.0000000   3.6000000   1.0000000   1.0000000   1.0000000   3.6000000   1.0000000   1.0000000   1.0000000
 NQMom=    0.0000000   0.0000000   0.0000000   0.0000000   0.0000000   0.0000000   0.0000000   0.0000000   0.0000000
 NMagM=    2.7928460   0.0000000   2.7928460   2.7928460   2.7928460   0.0000000   2.7928460   2.7928460   2.7928460
 AtZNuc=   1.0000000   6.0000000   1.0000000   1.0000000   1.0000000   6.0000000   1.0000000   1.0000000   1.0000000
 Leave Link  101 at Fri Jan 23 15:55:05 2026, MaxMem=  2147483648 cpu:               0.9 elap:               0.1
 (Enter /data/home/wyx/g16/l202.exe)
                          Input orientation:                          
 ---------------------------------------------------------------------
 Center     Atomic      Atomic             Coordinates (Angstroms)
 Number     Number       Type             X           Y           Z
 ---------------------------------------------------------------------
      1          8           0        2.806315   -1.578061    0.331845
      2          8           0       -3.448266   -1.645141   -0.254192
      3          7           0       -0.645482    1.521607   -0.209486
      4          1           0       -0.961305    2.475950   -0.251416
      5          6           0       -1.242303   -0.761573   -0.197304
      6          6           0        0.683636    1.307594    0.020234
      7          6           0       -1.615939    0.540512   -0.263171
      8          6           0       -2.199001   -1.822689   -0.230343
      9          6           0        0.216573   -1.127758   -0.121764
     10          1           0        0.374887   -1.844670    0.685213
     11          1           0        0.523066   -1.637411   -1.041146
     12          6           0        1.146351    0.038364    0.097458
     13          6           0        2.515160   -0.383483    0.354657
     14          6           0       -2.996812    1.076549   -0.380659
     15          1           0       -3.015801    1.978019   -0.998143
     16          1           0       -3.695842    0.376515   -0.832338
     17          1           0       -3.405481    1.329278    0.600140
     18          6           0       -1.793233   -3.265365   -0.249152
     19          1           0       -2.438811   -3.910660   -0.846780
     20          1           0       -0.785454   -3.430225   -0.628730
     21          1           0       -1.796285   -3.680729    0.763610
     22          6           0        3.621661    0.586744    0.671518
     23          1           0        3.865367    1.228164   -0.174188
     24          1           0        3.400113    1.228668    1.521781
     25          1           0        4.495665   -0.016778    0.905243
     26          6           0        1.448622    2.584541    0.155174
     27          1           0        1.816605    2.738746    1.167988
     28          1           0        2.296707    2.641499   -0.521662
     29          1           0        0.829289    3.451792   -0.074384
 ---------------------------------------------------------------------
                    Distance matrix (angstroms):
                    1          2          3          4          5
     1  O    0.000000
     2  O    6.282334   0.000000
     3  N    4.670748   4.229171   0.000000
     4  H    5.565084   4.813354   1.006118   0.000000
     5  C    4.163887   2.377015   2.359927   3.250145   0.000000
     6  C    3.595813   5.085919   1.365697   2.035849   2.835139
     7  C    4.939507   2.852119   1.381020   2.043185   1.356233
     8  C    5.042726   1.262044   3.687570   4.473325   1.429101
     9  C    2.667452   3.703548   2.787466   3.793536   1.506027
    10  H    2.471395   3.941928   3.629526   4.618489   2.137110
    11  H    2.664930   4.048560   3.469374   4.443734   2.143756
    12  C    2.328787   4.905951   2.346250   3.241258   2.536228
    13  C    1.229759   6.125759   3.733267   4.541970   3.816561
    14  C    6.421129   2.761775   2.399194   2.473523   2.547668
    15  H    6.950655   3.723946   2.539430   2.241984   3.360358
    16  H    6.888667   2.117225   3.317209   3.496111   2.778195
    17  H    6.863746   3.094977   2.882721   2.830901   3.112381
    18  C    4.933598   2.316093   4.922805   5.801276   2.564213
    19  H    5.860164   2.550046   5.756014   6.582269   3.430772
    20  H    4.153796   3.227595   4.971519   5.920827   2.741631
    21  H    5.078539   2.812220   5.416231   6.295408   3.122775
    22  C    2.338065   7.471420   4.456304   5.042270   5.121617
    23  H    3.041802   7.858213   4.520521   4.985950   5.481595
    24  H    3.105845   7.636305   4.410208   4.870514   5.335573
    25  H    2.370716   8.191575   5.480934   6.109834   5.890213
    26  C    4.381986   6.483618   2.376568   2.446396   4.308340
    27  H    4.507048   6.997137   3.072578   3.130584   4.844912
    28  H    4.335073   7.172973   3.163556   3.273390   4.920437
    29  H    5.419693   6.656466   2.432862   2.046909   4.696706
                    6          7          8          9         10
     6  C    0.000000
     7  C    2.440651   0.000000
     8  C    4.262752   2.434288   0.000000
     9  C    2.483798   2.482181   2.515893   0.000000
    10  H    3.236401   3.248371   2.731964   1.090980   0.000000
    11  H    3.134544   3.150228   2.846292   1.094965   1.745058
    12  C    1.353149   2.830627   3.842181   1.507444   2.118119
    13  C    2.515166   4.278020   4.963552   2.462605   2.612490
    14  C    3.709420   1.485917   3.010760   3.905360   4.586715
    15  H    3.895176   2.136872   3.962583   4.567508   5.379907
    16  H    4.557808   2.162601   2.727532   4.251440   4.879289
    17  H    4.130089   2.137737   3.475657   4.435927   4.936838
    18  C    5.207629   3.810030   1.498771   2.936820   2.755387
    19  H    6.142602   4.564061   2.190234   3.914238   3.812114
    20  H    5.002630   4.073094   2.177384   2.561723   2.363646
    21  H    5.620141   4.348066   2.145329   3.369443   2.844512
    22  C    3.094477   5.320548   6.363869   3.894026   4.056292
    23  H    3.188655   5.524989   6.788771   4.343595   4.729094
    24  H    3.104854   5.368463   6.612926   4.288229   4.392863
    25  H    4.131436   6.247197   7.026338   4.538684   4.513359
    26  C    1.494659   3.707371   5.733886   3.921199   4.588220
    27  H    2.156190   4.320047   6.235953   4.378746   4.829009
    28  H    2.162164   4.448569   6.342336   4.323676   5.027490
    29  H    2.151221   3.806617   6.083996   4.620600   5.369914
                   11         12         13         14         15
    11  H    0.000000
    12  C    2.119699   0.000000
    13  C    2.736611   1.455247   0.000000
    14  C    4.493480   4.297932   5.749280   0.000000
    15  H    5.059324   4.720817   6.164275   1.092838   0.000000
    16  H    4.679603   4.942236   6.368917   1.087522   1.747788
    17  H    5.189272   4.757975   6.168290   1.092176   1.768396
    18  C    2.939852   4.435754   5.218436   4.507562   5.435875
    19  H    3.738737   5.416619   6.198892   5.039929   5.918815
    20  H    2.257541   4.036128   4.598232   5.026197   5.861742
    21  H    3.579341   4.789000   5.443127   5.038086   6.050820
    22  C    4.181073   2.599505   1.505352   6.719462   6.984219
    23  H    4.487105   2.980346   2.167981   6.866958   6.970772
    24  H    4.802125   2.919754   2.178153   6.675557   6.933650
    25  H    4.711308   3.445789   2.088066   7.680242   8.001513
    26  C    4.484720   2.564706   3.160137   4.724726   4.650708
    27  H    5.069938   2.981164   3.301182   5.322611   5.350045
    28  H    4.660980   2.912549   3.156925   5.521802   5.374940
    29  H    5.189257   3.432426   4.211362   4.513827   4.220196
                   16         17         18         19         20
    16  H    0.000000
    17  H    1.744723   0.000000
    18  C    4.150098   4.942811   0.000000
    19  H    4.467685   5.521320   1.091025   0.000000
    20  H    4.796153   5.570236   1.089439   1.735498   0.000000
    21  H    4.755691   5.264637   1.094634   1.749018   1.738719
    22  C    7.473395   7.066624   6.708759   7.698129   6.103224
    23  H    7.637431   7.312663   7.226145   8.161039   6.598283
    24  H    7.524667   6.868454   7.092488   8.131163   6.621854
    25  H    8.382998   8.020789   7.171902   8.143639   6.472628
    26  C    5.684722   5.033487   6.700336   7.635685   6.463978
    27  H    6.322065   5.438679   7.147627   8.147543   6.932179
    28  H    6.413838   5.957794   7.189778   8.090836   6.810067
    29  H    5.523462   4.784697   7.213069   8.092143   7.090617
                   21         22         23         24         25
    21  H    0.000000
    22  C    6.897387   0.000000
    23  H    7.551887   1.089050   0.000000
    24  H    7.188849   1.088162   1.758628   0.000000
    25  H    7.282392   1.087543   1.764179   1.769601   0.000000
    26  C    7.081894   2.996649   2.790859   2.741227   4.076020
    27  H    7.377408   2.852336   2.877624   2.216529   3.852182
    28  H    7.640358   2.720515   2.139848   2.718319   3.733351
    29  H    7.646485   4.069670   3.764605   3.754885   5.141299
                   26         27         28         29
    26  C    0.000000
    27  H    1.088569   0.000000
    28  H    1.086554   1.759225   0.000000
    29  H    1.090135   1.739746   1.734920   0.000000
 Stoichiometry    C11H15NO2
 Framework group  C1[X(C11H15NO2)]
 Deg. of freedom    81
 Full point group                 C1      NOp   1
 RotChk:  IX=0 Diff= 5.83D-16
 Largest Abelian subgroup         C1      NOp   1
 Largest concise Abelian subgroup C1      NOp   1
                         Standard orientation:                         
 ---------------------------------------------------------------------
 Center     Atomic      Atomic             Coordinates (Angstroms)
 Number     Number       Type             X           Y           Z
 ---------------------------------------------------------------------
      1          8           0        2.258811   -2.310761   -0.052545
      2          8           0       -3.656829   -0.209995    0.191802
      3          7           0        0.049937    1.804330   -0.105306
      4          1           0        0.080167    2.809955   -0.096533
      5          6           0       -1.291831   -0.135769   -0.035085
      6          6           0        1.240984    1.137992   -0.055036
      7          6           0       -1.198330    1.217231   -0.039259
      8          6           0       -2.552404   -0.803776    0.048886
      9          6           0       -0.051139   -0.980839   -0.156148
     10          1           0       -0.053612   -1.751224    0.616341
     11          1           0       -0.052795   -1.514031   -1.112522
     12          6           0        1.243104   -0.215150   -0.051070
     13          6           0        2.402710   -1.091565    0.019317
     14          6           0       -2.312885    2.197391    0.031462
     15          1           0       -2.094158    3.083271   -0.569927
     16          1           0       -3.259635    1.803039   -0.330279
     17          1           0       -2.487554    2.520961    1.059880
     18          6           0       -2.674736   -2.295111   -0.036386
     19          1           0       -3.570484   -2.648430   -0.549354
     20          1           0       -1.839456   -2.772890   -0.547180
     21          1           0       -2.698500   -2.738576    0.964113
     22          6           0        3.805657   -0.575247    0.196069
     23          1           0        4.151598   -0.010668   -0.668573
     24          1           0        3.923661    0.056863    1.073913
     25          1           0        4.439188   -1.452235    0.306878
     26          6           0        2.409892    2.068420   -0.010737
     27          1           0        2.927997    2.033043    0.945976
     28          1           0        3.137141    1.869311   -0.793082
     29          1           0        2.104899    3.105894   -0.148655
 ---------------------------------------------------------------------
 Rotational constants (GHZ):           1.0996506           0.4851880           0.3410648
 Leave Link  202 at Fri Jan 23 15:55:05 2026, MaxMem=  2147483648 cpu:               0.0 elap:               0.0
 (Enter /data/home/wyx/g16/l301.exe)
 Standard basis: TZVP (5D, 7F)
 Ernie: Thresh=  0.10000D-02 Tol=  0.10000D-05 Strict=F.
 There are   370 symmetry adapted cartesian basis functions of A   symmetry.
 There are   356 symmetry adapted basis functions of A   symmetry.
   356 basis functions,   610 primitive gaussians,   370 cartesian basis functions
    52 alpha electrons       52 beta electrons
       nuclear repulsion energy       900.1224605872 Hartrees.
 IExCor=20419 DFT=T Ex+Corr=CAM-B3LYP ExCW=0 ScaHFX=  1.000000
 ScaDFX=  1.000000  1.000000  1.000000  0.810000 ScalE2=  1.000000  1.000000
 IRadAn=      5 IRanWt=     -1 IRanGd=            0 ICorTp=0 IEmpDi=141
 HFx  wShort=  0.000000 wLong=  0.330000 cFull=  0.190000 cShort=  0.000000 cLong=  0.460000
 DFx  wShort=  0.000000 wLong=  0.330000 cFull=  0.190000 cShort=  0.000000 cLong=  0.460000
 NAtoms=   29 NActive=   29 NUniq=   29 SFac= 1.00D+00 NAtFMM=   60 NAOKFM=F Big=F
 Integral buffers will be    131072 words long.
 Raffenetti 1 integral format.
 Two-electron integral symmetry is turned on.
 R6Disp:  Grimme-D3(BJ) Dispersion energy=       -0.0261308638 Hartrees.
 Nuclear repulsion after empirical dispersion term =      900.0963297234 Hartrees.
 ------------------------------------------------------------------------------
 Polarizable Continuum Model (PCM)
 =================================
 Model                : PCM.
 Atomic radii         : UFF (Universal Force Field).
 Polarization charges : Total charges.
 Charge compensation  : None.
 Solution method      : On-the-fly selection.
 Cavity type          : Scaled VdW (van der Waals Surface) (Alpha=1.100).
 Cavity algorithm     : GePol (No added spheres)
                        Default sphere list used, NSphG=   29.
                        Lebedev-Laikov grids with approx.  5.0 points / Ang**2.
                        Smoothing algorithm: York/Karplus (Gamma=1.0000).
                        Polarization charges: spherical gaussians, with
                                              point-specific exponents (IZeta= 3).
                        Self-potential: point-specific (ISelfS= 7).
                        Self-field    : sphere-specific E.n sum rule (ISelfD= 2).
 Solvent              : TetraHydroFuran, Eps=   7.425700 Eps(inf)=   1.974025
 ------------------------------------------------------------------------------
 GePol: Number of generator spheres                  =      29
 GePol: Total number of spheres                      =      29
 GePol: Number of exposed spheres                    =      29 (100.00%)
 GePol: Number of points                             =    2100
 GePol: Average weight of points                     =       0.13
 GePol: Minimum weight of points                     =   0.42D-08
 GePol: Maximum weight of points                     =    0.20577
 GePol: Number of points with low weight             =     118
 GePol: Fraction of low-weight points (<1% of avg)   =       5.62%
 GePol: Cavity surface area                          =    268.705 Ang**2
 GePol: Cavity volume                                =    286.350 Ang**3
 Leave Link  301 at Fri Jan 23 15:55:05 2026, MaxMem=  2147483648 cpu:               0.6 elap:               0.0
 (Enter /data/home/wyx/g16/l302.exe)
 NPDir=0 NMtPBC=     1 NCelOv=     1 NCel=       1 NClECP=     1 NCelD=      1
         NCelK=      1 NCelE2=     1 NClLst=     1 CellRange=     0.0.
 One-electron integrals computed using PRISM.
 One-electron integral symmetry used in STVInt
 NBasis=   356 RedAO= T EigKep=  3.71D-05  NBF=   356
 NBsUse=   356 1.00D-06 EigRej= -1.00D+00 NBFU=   356
 Precomputing XC quadrature grid using
 IXCGrd= 4 IRadAn=           5 IRanWt=          -1 IRanGd=           0 AccXCQ= 0.00D+00.
 Generated NRdTot=       0 NPtTot=           0 NUsed=           0 NTot=          32
 NSgBfM=   366   366   366   366   366 MxSgAt=    29 MxSgA2=    29.
 Leave Link  302 at Fri Jan 23 15:55:06 2026, MaxMem=  2147483648 cpu:               3.1 elap:               0.2
 (Enter /data/home/wyx/g16/l303.exe)
 DipDrv:  MaxL=1.
 Leave Link  303 at Fri Jan 23 15:55:06 2026, MaxMem=  2147483648 cpu:               0.6 elap:               0.0
 (Enter /data/home/wyx/g16/l308.exe)
 Leave Link  308 at Fri Jan 23 15:55:06 2026, MaxMem=  2147483648 cpu:               0.7 elap:               0.1
 (Enter /data/home/wyx/g16/l401.exe)
 Initial guess from the checkpoint file:  "DDL-LR-Eq-8.chk"
 B after Tr=     0.000000   -0.000000   -0.000000
         Rot=    1.000000   -0.000000    0.000000   -0.000000 Ang=   0.00 deg.
 Guess basis will be translated and rotated to current coordinates.
 JPrj=2 DoOrth=T DoCkMO=T.
 Leave Link  401 at Fri Jan 23 15:55:06 2026, MaxMem=  2147483648 cpu:               2.2 elap:               0.2
 (Enter /data/home/wyx/g16/l502.exe)
 Integral symmetry usage will be decided dynamically.
 Closed shell SCF:
 Using DIIS extrapolation, IDIIS=  1040.
 NGot=  2147483648 LenX=  2147200095 LenY=  2147062754
 Requested convergence on RMS density matrix=1.00D-08 within 128 cycles.
 Requested convergence on MAX density matrix=1.00D-06.
 Requested convergence on             energy=1.00D-06.
 No special actions if energy rises.
 Fock matrices will be formed incrementally for  20 cycles.

 Cycle   1  Pass 1  IDiag  1:
 FoFJK:  IHMeth= 1 ICntrl=       0 DoSepK=T KAlg= 0 I1Cent=           0 FoldK=F
 IRaf=         1 NMat=       1 IRICut=       1 DoRegI=T DoRafI=F ISym2E= 0 IDoP0=0 IntGTp=1.
 FoFCou: FMM=F IPFlag=           0 FMFlag=      100000 FMFlg1=           0
         NFxFlg=           0 DoJE=T BraDBF=F KetDBF=F FulRan=T
         wScrn=  0.000000 ICntrl=       500 IOpCl=  0 I1Cent=           0 NGrid=           0
         NMat0=    1 NMatS0=      1 NMatT0=    0 NMatD0=    1 NMtDS0=    0 NMtDT0=    0
 Symmetry not used in FoFCou.
 Inv3:  Mode=1 IEnd=    13230000.
 Iteration    1 A*A^-1 deviation from unit magnitude is 3.66D-15 for   1090.
 Iteration    1 A*A^-1 deviation from orthogonality  is 2.44D-15 for   1755    662.
 Iteration    1 A^-1*A deviation from unit magnitude is 3.55D-15 for   1090.
 Iteration    1 A^-1*A deviation from orthogonality  is 2.79D-15 for   1785   1755.
 E= -633.320489227371    
 DIIS: error= 5.51D-09 at cycle   1 NSaved=   1.
 NSaved= 1 IEnMin= 1 EnMin= -633.320489227371     IErMin= 1 ErrMin= 5.51D-09
 ErrMax= 5.51D-09  0.00D+00 EMaxC= 1.00D-01 BMatC= 1.70D-14 BMatP= 1.70D-14
 IDIUse=1 WtCom= 1.00D+00 WtEn= 0.00D+00
 Coeff-Com:  0.100D+01
 Coeff:      0.100D+01
 Gap=     0.232 Goal=   None    Shift=    0.000
 RMSDP=1.70D-09 MaxDP=9.75D-08              OVMax= 1.18D-07

 Error on total polarization charges =  0.01464
 SCF Done:  E(RCAM-B3LYP) =  -633.320489227     A.U. after    1 cycles
            NFock=  1  Conv=0.17D-08     -V/T= 2.0041
 KE= 6.307240881278D+02 PE=-3.276232583645D+03 EE= 1.112091676567D+03
 Leave Link  502 at Fri Jan 23 15:55:12 2026, MaxMem=  2147483648 cpu:              85.4 elap:               5.6
 (Enter /data/home/wyx/g16/l801.exe)
 DoSCS=F DFT=T ScalE2(SS,OS)=  1.000000  1.000000
 ExpMin= 9.52D-02 ExpMax= 2.70D+04 ExpMxC= 9.22D+02 IAcc=3 IRadAn=         5 AccDes= 0.00D+00
 HarFok:  IExCor=  205 AccDes= 0.00D+00 IRadAn=         5 IDoV=-2 UseB2=F ITyADJ=14
 ICtDFT= 12500011 ScaDFX=  1.000000  1.000000  1.000000  1.000000
 Largest valence mixing into a core orbital is  5.65D-05
 Largest core mixing into a valence orbital is  1.12D-05
 Range of M.O.s used for correlation:    15   356
 NBasis=   356 NAE=    52 NBE=    52 NFC=    14 NFV=     0
 NROrb=    342 NOA=    38 NOB=    38 NVA=   304 NVB=   304

 **** Warning!!: The largest alpha MO coefficient is  0.42342718D+02

 Leave Link  801 at Fri Jan 23 15:55:13 2026, MaxMem=  2147483648 cpu:               1.0 elap:               0.1
 (Enter /data/home/wyx/g16/l914.exe)
 RHF ground state
 Two-electron integrals replicated using symmetry.
 MDV=  2147483648 DFT=T DoStab=F Mixed=T DoRPA=T DoScal=F NonHer=T
 NEqPCM:  Using equilibrium solvation (IEInf=0, Eps=   7.4257, EpsInf=   1.9740)
 Making orbital integer symmetry assigments:
 Orbital symmetries:
       Occupied  (A) (A) (A) (A) (A) (A) (A) (A) (A) (A) (A) (A)
                 (A) (A) (A) (A) (A) (A) (A) (A) (A) (A) (A) (A)
                 (A) (A) (A) (A) (A) (A) (A) (A) (A) (A) (A) (A)
                 (A) (A) (A) (A) (A) (A) (A) (A) (A) (A) (A) (A)
                 (A) (A) (A) (A)
       Virtual   (A) (A) (A) (A) (A) (A) (A) (A) (A) (A) (A) (A)
                 (A) (A) (A) (A) (A) (A) (A) (A) (A) (A) (A) (A)
                 (A) (A) (A) (A) (A) (A) (A) (A) (A) (A) (A) (A)
                 (A) (A) (A) (A) (A) (A) (A) (A) (A) (A) (A) (A)
                 (A) (A) (A) (A) (A) (A) (A) (A) (A) (A) (A) (A)
                 (A) (A) (A) (A) (A) (A) (A) (A) (A) (A) (A) (A)
                 (A) (A) (A) (A) (A) (A) (A) (A) (A) (A) (A) (A)
                 (A) (A) (A) (A) (A) (A) (A) (A) (A) (A) (A) (A)
                 (A) (A) (A) (A) (A) (A) (A) (A) (A) (A) (A) (A)
                 (A) (A) (A) (A) (A) (A) (A) (A) (A) (A) (A) (A)
                 (A) (A) (A) (A) (A) (A) (A) (A) (A) (A) (A) (A)
                 (A) (A) (A) (A) (A) (A) (A) (A) (A) (A) (A) (A)
                 (A) (A) (A) (A) (A) (A) (A) (A) (A) (A) (A) (A)
                 (A) (A) (A) (A) (A) (A) (A) (A) (A) (A) (A) (A)
                 (A) (A) (A) (A) (A) (A) (A) (A) (A) (A) (A) (A)
                 (A) (A) (A) (A) (A) (A) (A) (A) (A) (A) (A) (A)
                 (A) (A) (A) (A) (A) (A) (A) (A) (A) (A) (A) (A)
                 (A) (A) (A) (A) (A) (A) (A) (A) (A) (A) (A) (A)
                 (A) (A) (A) (A) (A) (A) (A) (A) (A) (A) (A) (A)
                 (A) (A) (A) (A) (A) (A) (A) (A) (A) (A) (A) (A)
                 (A) (A) (A) (A) (A) (A) (A) (A) (A) (A) (A) (A)
                 (A) (A) (A) (A) (A) (A) (A) (A) (A) (A) (A) (A)
                 (A) (A) (A) (A) (A) (A) (A) (A) (A) (A) (A) (A)
                 (A) (A) (A) (A) (A) (A) (A) (A) (A) (A) (A) (A)
                 (A) (A) (A) (A) (A) (A) (A) (A) (A) (A) (A) (A)
                 (A) (A) (A) (A)
    24 initial guesses have been made.
 Convergence on wavefunction:    0.001000000000000
 Davidson Disk Diagonalization:  ConvIn= 1.00D-03 SkipCon=T Conv= 1.00D-03.
 Max sub-space:  2000 roots to seek:    24 dimension of matrix:        23104
 Iteration     1 Dimension    24 NMult     0 NNew     24
 CISAX will form    24 AO SS matrices at one time.
 NMat=    24 NSing=    24 JSym2X= 0.
 FoFJK:  IHMeth= 1 ICntrl=       0 DoSepK=T KAlg= 0 I1Cent=           0 FoldK=F
 IRaf=         1 NMat=      48 IRICut=       1 DoRegI=T DoRafI=F ISym2E= 0 IDoP0=3 IntGTp=3.
 FoFCou: FMM=F IPFlag=           0 FMFlag=      100000 FMFlg1=           0
         NFxFlg=           0 DoJE=F BraDBF=F KetDBF=F FulRan=T
         wScrn=  0.000000 ICntrl=       500 IOpCl=  0 I1Cent=           0 NGrid=           0
         NMat0=   24 NMatS0=     24 NMatT0=    0 NMatD0=   24 NMtDS0=    0 NMtDT0=    0
 Symmetry not used in FoFCou.
 New state      3 was old state      4
 New state      4 was old state      3
 New state      5 was old state      6
 New state      6 was old state      5
 Excitation Energies [eV] at current iteration:
 Root      1 :     3.722404649376022
 Root      2 :     3.916092940881477
 Root      3 :     4.479389242878856
 Root      4 :     5.502256452194008
 Root      5 :     6.180248915518686
 Root      6 :     6.288720752053898
 Root      7 :     6.697150274615222
 Root      8 :     6.766507492551312
 Root      9 :     6.776344230952768
 Root     10 :     7.086744273879585
 Root     11 :     7.302263064849313
 Root     12 :     7.379433339393914
 Root     13 :     7.481128284119078
 Root     14 :     7.632099198689174
 Root     15 :     7.723137408755036
 Root     16 :     7.913886116676689
 Root     17 :     8.196627264882558
 Root     18 :     8.231062691178513
 Root     19 :     8.325343816020967
 Root     20 :     8.441113556629551
 Root     21 :     8.612559090872907
 Root     22 :     8.678880507577666
 Root     23 :     8.826532568834258
 Root     24 :     9.079662306609531
 Iteration     2 Dimension    36 NMult    24 NNew     12
 CISAX will form    12 AO SS matrices at one time.
 NMat=    12 NSing=    12 JSym2X= 0.
 Root      1 not converged, maximum delta is    0.107848350768249
 Root      2 not converged, maximum delta is    0.101991353982517
 Root      3 not converged, maximum delta is    0.098212984845714
 Root      4 not converged, maximum delta is    0.381041495954419
 New state      5 was old state      6
 Root      5 not converged, maximum delta is    0.343869832361706
 New state      6 was old state      5
 Root      6 not converged, maximum delta is    0.174135534652188
 Excitation Energies [eV] at current iteration:
 Root      1 :     3.303477489381095   Change is   -0.418927159994927
 Root      2 :     3.686335763931395   Change is   -0.229757176950082
 Root      3 :     4.230028352014342   Change is   -0.249360890864514
 Root      4 :     5.086213790167993   Change is   -0.416042662026015
 Root      5 :     5.553728578438387   Change is   -0.734992173615511
 Root      6 :     6.062720261419386   Change is   -0.117528654099301
 Iteration     3 Dimension    48 NMult    36 NNew     12
 CISAX will form    12 AO SS matrices at one time.
 NMat=    12 NSing=    12 JSym2X= 0.
 Root      1 not converged, maximum delta is    0.008222376364346
 Root      2 not converged, maximum delta is    0.010384041089209
 Root      3 not converged, maximum delta is    0.018008702935795
 Root      4 not converged, maximum delta is    0.017037289232866
 Root      5 not converged, maximum delta is    0.016645652507702
 Root      6 not converged, maximum delta is    0.010628551027622
 Excitation Energies [eV] at current iteration:
 Root      1 :     3.288765631382585   Change is   -0.014711857998510
 Root      2 :     3.675848216276321   Change is   -0.010487547655075
 Root      3 :     4.217120668924457   Change is   -0.012907683089886
 Root      4 :     5.063809014353429   Change is   -0.022404775814564
 Root      5 :     5.535442452096527   Change is   -0.018286126341860
 Root      6 :     6.056915372488608   Change is   -0.005804888930778
 Iteration     4 Dimension    60 NMult    48 NNew     12
 CISAX will form    12 AO SS matrices at one time.
 NMat=    12 NSing=    12 JSym2X= 0.
 Root      1 not converged, maximum delta is    0.002199432823662
 Root      2 not converged, maximum delta is    0.001811998193045
 Root      3 not converged, maximum delta is    0.001935236457638
 Root      4 not converged, maximum delta is    0.003171892615187
 Root      5 not converged, maximum delta is    0.003445874659183
 Root      6 not converged, maximum delta is    0.002935220638449
 Excitation Energies [eV] at current iteration:
 Root      1 :     3.287541261412242   Change is   -0.001224369970343
 Root      2 :     3.675089528056613   Change is   -0.000758688219707
 Root      3 :     4.216655820396641   Change is   -0.000464848527815
 Root      4 :     5.061249951231025   Change is   -0.002559063122405
 Root      5 :     5.533165865907740   Change is   -0.002276586188788
 Root      6 :     6.056548246223139   Change is   -0.000367126265469
 Iteration     5 Dimension    72 NMult    60 NNew     12
 CISAX will form    12 AO SS matrices at one time.
 NMat=    12 NSing=    12 JSym2X= 0.
 Root      1 has converged.
 Root      2 has converged.
 Root      3 has converged.
 Root      4 has converged.
 Root      5 has converged.
 Root      6 has converged.
 Excitation Energies [eV] at current iteration:
 Root      1 :     3.287480500666711   Change is   -0.000060760745531
 Root      2 :     3.675057748830029   Change is   -0.000031779226584
 Root      3 :     4.216626142956144   Change is   -0.000029677440498
 Root      4 :     5.061082502288295   Change is   -0.000167448942729
 Root      5 :     5.532997413400183   Change is   -0.000168452507556
 Root      6 :     6.056519162065340   Change is   -0.000029084157798
 Convergence achieved on expansion vectors.
 ***********************************************************************
 Excited states from <AA,BB:AA,BB> singles matrix:
 ***********************************************************************
 
 1PDM for each excited state written to RWF  633
 Ground to excited state transition densities written to RWF  633
 Ground to excited state transition electric dipole moments (Au):
       state          X           Y           Z        Dip. S.      Osc.
         1         1.6739     -0.1042     -0.0250      2.8133      0.2266
         2        -0.2339      0.0445      0.0452      0.0587      0.0053
         3        -0.0076     -0.0583      0.0390      0.0050      0.0005
         4        -0.0533     -1.7880      0.0642      3.2040      0.3973
         5         0.2600      1.3955     -0.0042      2.0149      0.2731
         6         0.0104      0.1241      0.0304      0.0164      0.0024
 Ground to excited state transition velocity dipole moments (Au):
       state          X           Y           Z        Dip. S.      Osc.
         1        -0.1955      0.0105      0.0029      0.0384      0.2116
         2         0.0314     -0.0053     -0.0042      0.0010      0.0051
         3         0.0009      0.0088     -0.0027      0.0001      0.0004
         4         0.0146      0.3154     -0.0095      0.0998      0.3576
         5        -0.0508     -0.2794      0.0012      0.0806      0.2644
         6        -0.0036     -0.0252     -0.0267      0.0014      0.0041
 Ground to excited state transition magnetic dipole moments (Au):
       state          X           Y           Z
         1         0.0749     -0.0196      1.4553
         2         0.7691     -0.2735     -0.3445
         3        -0.0235      0.9551      0.0449
         4         0.0508     -0.0450      0.3612
         5        -0.1443      0.0627     -0.2520
         6        -0.0303     -0.0032     -0.0119
 Ground to excited state transition velocity quadrupole moments (Au):
       state          XX          YY          ZZ          XY          XZ          YZ
         1         0.3210     -0.1374     -0.0089      0.5155     -0.0307     -0.0047
         2        -0.0512     -0.0056      0.0003     -0.0901      0.0379      0.0520
         3        -0.0140      0.0091     -0.0114      0.0154     -0.0811      0.0030
         4        -1.4328      0.3128      0.0297      0.2182      0.0399     -0.0105
         5         0.6249     -0.3838     -0.0369     -0.0385     -0.0251     -0.0562
         6        -0.1125     -0.0796      0.0693     -0.0054      0.0143      0.0498
 <0|del|b> * <b|rxdel|0> + <0|del|b> * <b|delr+rdel|0>
 Rotatory Strengths (R) in cgs (10**-40 erg-esu-cm/Gauss)
       state          XX          YY          ZZ    R(velocity)    E-M Angle
         1        17.0223    -32.1811    -47.1144    -20.7577       92.14
         2         9.1255     70.4068     62.2929     47.2750       18.10
         3        20.4042     -0.2246     17.4689     12.5495       21.01
         4       -61.3470     -1.4701     -1.3505    -21.3892       98.36
         5       -43.2928     17.2519    -10.5058    -12.1822       97.15
         6         1.4378      0.1612      0.0173      0.5388       65.08
 1/2[<0|r|b>*<b|rxdel|0> + (<0|rxdel|b>*<b|r|0>)*]
 Rotatory Strengths (R) in cgs (10**-40 erg-esu-cm/Gauss)
       state          XX          YY          ZZ     R(length)
         1       -88.6398     -1.4433     25.7776    -21.4352
         2       127.2073      8.6062     11.0099     48.9411
         3        -0.1261     39.3577     -1.2375     12.6647
         4         1.9150    -56.8592    -16.4023    -23.7822
         5        26.5324    -61.9062     -0.7544    -12.0427
         6         0.2223      0.2792      0.2562      0.2526
  1/2[<0|del|b>*<b|r|0> + (<0|r|b>*<b|del|0>)*] (Au)
       state          X           Y           Z        Dip. S.   Osc.(frdel)
         1        -0.3273     -0.0011     -0.0001      0.3285      0.2190
         2        -0.0074     -0.0002     -0.0002      0.0078      0.0052
         3        -0.0000     -0.0005     -0.0001      0.0006      0.0004
         4        -0.0008     -0.5639     -0.0006      0.5653      0.3768
         5        -0.0132     -0.3899     -0.0000      0.4031      0.2687
         6        -0.0000     -0.0031     -0.0008      0.0040      0.0027

 Excitation energies and oscillator strengths:
 
 Excited State   1:      Singlet-A      3.2875 eV  377.14 nm  f=0.2266  <S**2>=0.000
      52 -> 53         0.69734
 This state for optimization and/or second-order correction.
 Total Energy, E(TD-HF/TD-DFT) =  -633.199676542    
 Copying the excited state density for this state as the 1-particle RhoCI density.
 
 Excited State   2:      Singlet-A      3.6751 eV  337.37 nm  f=0.0053  <S**2>=0.000
      51 -> 53         0.60495
      51 -> 54        -0.31027
 
 Excited State   3:      Singlet-A      4.2166 eV  294.04 nm  f=0.0005  <S**2>=0.000
      50 -> 53         0.54104
      50 -> 54         0.39508
      50 -> 58         0.12383
      51 -> 54         0.11868
 
 Excited State   4:      Singlet-A      5.0611 eV  244.98 nm  f=0.3973  <S**2>=0.000
      49 -> 53        -0.10058
      52 -> 54         0.69273
 
 Excited State   5:      Singlet-A      5.5330 eV  224.08 nm  f=0.2731  <S**2>=0.000
      49 -> 53         0.68495
      52 -> 54         0.10145
 
 Excited State   6:      Singlet-A      6.0565 eV  204.71 nm  f=0.0024  <S**2>=0.000
      52 -> 55         0.65974
      52 -> 56         0.10651
      52 -> 57         0.12480
      52 -> 62        -0.10154
 SavETr:  write IOETrn=   770 NScale= 10 NData=  16 NLR=1 NState=    6 LETran=     118.
 Leave Link  914 at Fri Jan 23 15:57:04 2026, MaxMem=  2147483648 cpu:            1772.9 elap:             111.1
 (Enter /data/home/wyx/g16/l601.exe)
 Copying SCF densities to generalized density rwf, IOpCl= 0 IROHF=0.

 **********************************************************************

            Population analysis using the SCF density.

 **********************************************************************

 Orbital symmetries:
       Occupied  (A) (A) (A) (A) (A) (A) (A) (A) (A) (A) (A) (A)
                 (A) (A) (A) (A) (A) (A) (A) (A) (A) (A) (A) (A)
                 (A) (A) (A) (A) (A) (A) (A) (A) (A) (A) (A) (A)
                 (A) (A) (A) (A) (A) (A) (A) (A) (A) (A) (A) (A)
                 (A) (A) (A) (A)
       Virtual   (A) (A) (A) (A) (A) (A) (A) (A) (A) (A) (A) (A)
                 (A) (A) (A) (A) (A) (A) (A) (A) (A) (A) (A) (A)
                 (A) (A) (A) (A) (A) (A) (A) (A) (A) (A) (A) (A)
                 (A) (A) (A) (A) (A) (A) (A) (A) (A) (A) (A) (A)
                 (A) (A) (A) (A) (A) (A) (A) (A) (A) (A) (A) (A)
                 (A) (A) (A) (A) (A) (A) (A) (A) (A) (A) (A) (A)
                 (A) (A) (A) (A) (A) (A) (A) (A) (A) (A) (A) (A)
                 (A) (A) (A) (A) (A) (A) (A) (A) (A) (A) (A) (A)
                 (A) (A) (A) (A) (A) (A) (A) (A) (A) (A) (A) (A)
                 (A) (A) (A) (A) (A) (A) (A) (A) (A) (A) (A) (A)
                 (A) (A) (A) (A) (A) (A) (A) (A) (A) (A) (A) (A)
                 (A) (A) (A) (A) (A) (A) (A) (A) (A) (A) (A) (A)
                 (A) (A) (A) (A) (A) (A) (A) (A) (A) (A) (A) (A)
                 (A) (A) (A) (A) (A) (A) (A) (A) (A) (A) (A) (A)
                 (A) (A) (A) (A) (A) (A) (A) (A) (A) (A) (A) (A)
                 (A) (A) (A) (A) (A) (A) (A) (A) (A) (A) (A) (A)
                 (A) (A) (A) (A) (A) (A) (A) (A) (A) (A) (A) (A)
                 (A) (A) (A) (A) (A) (A) (A) (A) (A) (A) (A) (A)
                 (A) (A) (A) (A) (A) (A) (A) (A) (A) (A) (A) (A)
                 (A) (A) (A) (A) (A) (A) (A) (A) (A) (A) (A) (A)
                 (A) (A) (A) (A) (A) (A) (A) (A) (A) (A) (A) (A)
                 (A) (A) (A) (A) (A) (A) (A) (A) (A) (A) (A) (A)
                 (A) (A) (A) (A) (A) (A) (A) (A) (A) (A) (A) (A)
                 (A) (A) (A) (A) (A) (A) (A) (A) (A) (A) (A) (A)
                 (A) (A) (A) (A) (A) (A) (A) (A) (A) (A) (A) (A)
                 (A) (A) (A) (A)
 The electronic state is 1-A.
 Alpha  occ. eigenvalues --  -19.17743 -19.16692 -14.44405 -10.33237 -10.33121
 Alpha  occ. eigenvalues --  -10.32350 -10.32083 -10.26030 -10.25070 -10.24965
 Alpha  occ. eigenvalues --  -10.24907 -10.24543 -10.24031 -10.23706  -1.11801
 Alpha  occ. eigenvalues --   -1.09643  -1.07877  -0.91612  -0.90652  -0.83899
 Alpha  occ. eigenvalues --   -0.82567  -0.81555  -0.78760  -0.74384  -0.71632
 Alpha  occ. eigenvalues --   -0.69058  -0.62129  -0.58568  -0.56995  -0.55237
 Alpha  occ. eigenvalues --   -0.54827  -0.54126  -0.52502  -0.51932  -0.50676
 Alpha  occ. eigenvalues --   -0.49609  -0.49255  -0.49142  -0.48465  -0.48223
 Alpha  occ. eigenvalues --   -0.46730  -0.45113  -0.44699  -0.43815  -0.42965
 Alpha  occ. eigenvalues --   -0.42407  -0.41675  -0.40970  -0.33112  -0.32165
 Alpha  occ. eigenvalues --   -0.30831  -0.26210
 Alpha virt. eigenvalues --   -0.03025   0.02198   0.06292   0.08170   0.08446
 Alpha virt. eigenvalues --    0.09901   0.10657   0.11879   0.12698   0.13320
 Alpha virt. eigenvalues --    0.14047   0.15143   0.15644   0.16651   0.16847
 Alpha virt. eigenvalues --    0.17540   0.17628   0.17755   0.18576   0.19323
 Alpha virt. eigenvalues --    0.19972   0.21242   0.22948   0.23314   0.24196
 Alpha virt. eigenvalues --    0.24442   0.24836   0.25885   0.26303   0.26561
 Alpha virt. eigenvalues --    0.27294   0.27454   0.28365   0.29566   0.29817
 Alpha virt. eigenvalues --    0.31095   0.31450   0.33417   0.33590   0.34759
 Alpha virt. eigenvalues --    0.35270   0.35601   0.36686   0.37496   0.38054
 Alpha virt. eigenvalues --    0.39971   0.41053   0.41763   0.42512   0.43309
 Alpha virt. eigenvalues --    0.44199   0.45507   0.45715   0.46165   0.46546
 Alpha virt. eigenvalues --    0.46756   0.47998   0.48229   0.48733   0.48969
 Alpha virt. eigenvalues --    0.50024   0.50787   0.51165   0.51348   0.51823
 Alpha virt. eigenvalues --    0.52311   0.52880   0.53101   0.53912   0.54119
 Alpha virt. eigenvalues --    0.54765   0.55727   0.56092   0.57175   0.57227
 Alpha virt. eigenvalues --    0.58161   0.59492   0.60446   0.62326   0.63128
 Alpha virt. eigenvalues --    0.63397   0.64724   0.66077   0.68005   0.68317
 Alpha virt. eigenvalues --    0.69563   0.70454   0.71276   0.71829   0.72956
 Alpha virt. eigenvalues --    0.73634   0.75208   0.77204   0.78561   0.79378
 Alpha virt. eigenvalues --    0.81342   0.81485   0.82965   0.86543   0.88589
 Alpha virt. eigenvalues --    0.91886   0.93532   0.96944   1.02803   1.20713
 Alpha virt. eigenvalues --    1.24199   1.24529   1.26144   1.29799   1.30413
 Alpha virt. eigenvalues --    1.32736   1.33400   1.33915   1.35602   1.36340
 Alpha virt. eigenvalues --    1.36849   1.37465   1.38847   1.39317   1.39663
 Alpha virt. eigenvalues --    1.39820   1.40784   1.41227   1.41455   1.42260
 Alpha virt. eigenvalues --    1.43004   1.44071   1.44405   1.44881   1.46440
 Alpha virt. eigenvalues --    1.48163   1.49795   1.50218   1.50966   1.51666
 Alpha virt. eigenvalues --    1.52263   1.52598   1.54834   1.56263   1.57818
 Alpha virt. eigenvalues --    1.58618   1.59217   1.60639   1.61107   1.61648
 Alpha virt. eigenvalues --    1.62469   1.62966   1.64275   1.64841   1.65392
 Alpha virt. eigenvalues --    1.65862   1.66145   1.66528   1.67604   1.68003
 Alpha virt. eigenvalues --    1.69242   1.69969   1.71153   1.72156   1.73018
 Alpha virt. eigenvalues --    1.74236   1.75008   1.75721   1.76119   1.79861
 Alpha virt. eigenvalues --    1.81183   1.82705   1.83555   1.83809   1.86195
 Alpha virt. eigenvalues --    1.86637   1.86975   1.88625   1.90145   1.90553
 Alpha virt. eigenvalues --    1.91749   1.93385   1.96203   1.97991   2.00912
 Alpha virt. eigenvalues --    2.01880   2.05014   2.05265   2.07117   2.09556
 Alpha virt. eigenvalues --    2.10503   2.13433   2.15207   2.18440   2.19434
 Alpha virt. eigenvalues --    2.19887   2.22905   2.24322   2.24929   2.25690
 Alpha virt. eigenvalues --    2.26774   2.29153   2.30532   2.31459   2.33455
 Alpha virt. eigenvalues --    2.34912   2.35545   2.36715   2.37731   2.39740
 Alpha virt. eigenvalues --    2.41377   2.41627   2.42916   2.44970   2.45862
 Alpha virt. eigenvalues --    2.46172   2.48224   2.49552   2.50283   2.51325
 Alpha virt. eigenvalues --    2.53025   2.53482   2.54624   2.55958   2.56181
 Alpha virt. eigenvalues --    2.56729   2.60249   2.60850   2.62701   2.63379
 Alpha virt. eigenvalues --    2.64773   2.65209   2.66437   2.67275   2.68913
 Alpha virt. eigenvalues --    2.69184   2.72717   2.73550   2.74476   2.74812
 Alpha virt. eigenvalues --    2.76351   2.76433   2.77949   2.78227   2.79681
 Alpha virt. eigenvalues --    2.80398   2.81855   2.83476   2.84692   2.85258
 Alpha virt. eigenvalues --    2.85885   2.86707   2.88801   2.89930   2.93852
 Alpha virt. eigenvalues --    2.97270   2.98755   2.98973   3.05423   3.09313
 Alpha virt. eigenvalues --    3.09863   3.11499   3.14047   3.20267   3.20976
 Alpha virt. eigenvalues --    3.22369   3.22742   3.24201   3.25795   3.26328
 Alpha virt. eigenvalues --    3.30008   3.32085   3.33551   3.36135   3.38331
 Alpha virt. eigenvalues --    3.39113   3.39412   3.39789   3.41162   3.41584
 Alpha virt. eigenvalues --    3.42119   3.43347   3.46060   3.47678   3.49300
 Alpha virt. eigenvalues --    3.49828   3.53985   3.56217   3.58771   3.60522
 Alpha virt. eigenvalues --    3.63569   3.92254   4.00898   4.32404   4.36715
 Alpha virt. eigenvalues --   21.64613  21.77560  22.06744  22.10230  22.12399
 Alpha virt. eigenvalues --   22.13420  22.17194  22.19863  22.21706  22.27944
 Alpha virt. eigenvalues --   22.31830  31.92900  43.64004  43.66261
          Condensed to atoms (all electrons):
               1          2          3          4          5          6
     1  O    7.922398   0.000000  -0.000198   0.000017   0.015855   0.015847
     2  O    0.000000   8.054171   0.000536   0.000029  -0.178112   0.001675
     3  N   -0.000198   0.000536   6.359299   0.371556  -0.111248   0.367940
     4  H    0.000017   0.000029   0.371556   0.404302   0.013220  -0.040354
     5  C    0.015855  -0.178112  -0.111248   0.013220   7.143171  -0.046686
     6  C    0.015847   0.001675   0.367940  -0.040354  -0.046686   5.523174
     7  C   -0.000001  -0.024400   0.370510  -0.045435   0.392357  -0.152518
     8  C   -0.000430   0.642950   0.003777  -0.000978  -0.432912   0.044109
     9  C   -0.000603   0.023854   0.019751   0.000687  -0.666372  -0.069896
    10  H    0.009800  -0.000233  -0.000993   0.000003  -0.116323   0.016970
    11  H    0.004360   0.000000   0.002045   0.000020  -0.051067   0.002095
    12  C   -0.244041  -0.003697  -0.097298   0.018799   0.199255  -0.094665
    13  C    0.749035  -0.000006  -0.000134   0.000496   0.067755   0.082710
    14  C   -0.000010  -0.050747  -0.046294  -0.001320  -0.038033  -0.002091
    15  H    0.000000   0.004874   0.004808   0.000103   0.013176   0.005519
    16  H    0.000000   0.018708   0.003357   0.000740   0.002812  -0.000399
    17  H   -0.000000   0.001098  -0.003745   0.000657  -0.015685  -0.000681
    18  C   -0.000227  -0.096465  -0.000304   0.000018  -0.169937  -0.001672
    19  H   -0.000000   0.003631   0.000007  -0.000001   0.011972   0.000033
    20  H    0.000559   0.006426   0.000096   0.000001   0.071468  -0.001446
    21  H    0.000012  -0.000882   0.000012  -0.000001  -0.010519   0.000138
    22  C   -0.130103   0.000000  -0.000118   0.000123   0.001494  -0.003459
    23  H    0.002812   0.000000   0.000129  -0.000026  -0.000203   0.004573
    24  H    0.003635   0.000000   0.000125  -0.000031  -0.000238  -0.014709
    25  H    0.011089  -0.000000   0.000011  -0.000003  -0.000052  -0.002328
    26  C    0.000792   0.000009  -0.027538  -0.011541   0.000886   0.243411
    27  H   -0.000039  -0.000000  -0.003136   0.000627   0.000488  -0.041616
    28  H   -0.000061  -0.000000  -0.000715   0.000817   0.000267  -0.040428
    29  H    0.000014   0.000000   0.004472   0.002385  -0.000394  -0.051374
               7          8          9         10         11         12
     1  O   -0.000001  -0.000430  -0.000603   0.009800   0.004360  -0.244041
     2  O   -0.024400   0.642950   0.023854  -0.000233   0.000000  -0.003697
     3  N    0.370510   0.003777   0.019751  -0.000993   0.002045  -0.097298
     4  H   -0.045435  -0.000978   0.000687   0.000003   0.000020   0.018799
     5  C    0.392357  -0.432912  -0.666372  -0.116323  -0.051067   0.199255
     6  C   -0.152518   0.044109  -0.069896   0.016970   0.002095  -0.094665
     7  C    5.513286  -0.281825  -0.232445   0.014799  -0.003066   0.043105
     8  C   -0.281825   5.647925   0.217486  -0.007876   0.001894  -0.078794
     9  C   -0.232445   0.217486   6.391284   0.545240   0.417330  -0.158397
    10  H    0.014799  -0.007876   0.545240   0.509509  -0.037258  -0.094541
    11  H   -0.003066   0.001894   0.417330  -0.037258   0.545897  -0.023253
    12  C    0.043105  -0.078794  -0.158397  -0.094541  -0.023253   7.465054
    13  C    0.023530  -0.009930  -0.208051  -0.004215  -0.007787  -0.450909
    14  C    0.231969  -0.067700   0.015020   0.000455  -0.001070   0.003614
    15  H   -0.072985   0.006457  -0.000545  -0.000014   0.000109  -0.001203
    16  H   -0.041831  -0.018618   0.001689  -0.000063   0.000086  -0.000397
    17  H   -0.014855   0.004713  -0.000455   0.000066  -0.000036   0.000082
    18  C    0.012995   0.317077  -0.007072  -0.001105  -0.012251   0.008064
    19  H    0.000038  -0.037582  -0.002152   0.000454   0.000353  -0.000163
    20  H    0.005361  -0.117214  -0.016849  -0.006518   0.000820   0.006648
    21  H   -0.000812  -0.010248  -0.002595  -0.000015   0.000431  -0.001649
    22  C    0.000801  -0.000029   0.013800   0.000870   0.001323  -0.341151
    23  H   -0.000036   0.000005  -0.001953  -0.000143   0.000149   0.012775
    24  H   -0.000027   0.000001   0.000932   0.000069  -0.000147   0.038178
    25  H    0.000012  -0.000001  -0.000053  -0.000092  -0.000039   0.028468
    26  C    0.006491   0.000812   0.017596   0.000105  -0.000435  -0.102649
    27  H   -0.001365  -0.000013   0.000271   0.000029  -0.000004  -0.007581
    28  H   -0.000966  -0.000004  -0.000727   0.000003  -0.000007  -0.004345
    29  H    0.003837   0.000020  -0.000668   0.000001   0.000025   0.020952
              13         14         15         16         17         18
     1  O    0.749035  -0.000010   0.000000   0.000000  -0.000000  -0.000227
     2  O   -0.000006  -0.050747   0.004874   0.018708   0.001098  -0.096465
     3  N   -0.000134  -0.046294   0.004808   0.003357  -0.003745  -0.000304
     4  H    0.000496  -0.001320   0.000103   0.000740   0.000657   0.000018
     5  C    0.067755  -0.038033   0.013176   0.002812  -0.015685  -0.169937
     6  C    0.082710  -0.002091   0.005519  -0.000399  -0.000681  -0.001672
     7  C    0.023530   0.231969  -0.072985  -0.041831  -0.014855   0.012995
     8  C   -0.009930  -0.067700   0.006457  -0.018618   0.004713   0.317077
     9  C   -0.208051   0.015020  -0.000545   0.001689  -0.000455  -0.007072
    10  H   -0.004215   0.000455  -0.000014  -0.000063   0.000066  -0.001105
    11  H   -0.007787  -0.001070   0.000109   0.000086  -0.000036  -0.012251
    12  C   -0.450909   0.003614  -0.001203  -0.000397   0.000082   0.008064
    13  C    5.473190  -0.000022  -0.000028   0.000002  -0.000021   0.000893
    14  C   -0.000022   5.221396   0.383909   0.420308   0.400065  -0.000577
    15  H   -0.000028   0.383909   0.580032  -0.026056  -0.029417   0.000157
    16  H    0.000002   0.420308  -0.026056   0.470731  -0.018335   0.000621
    17  H   -0.000021   0.400065  -0.029417  -0.018335   0.504403   0.000026
    18  C    0.000893  -0.000577   0.000157   0.000621   0.000026   5.211825
    19  H   -0.000015  -0.000015  -0.000001   0.000085  -0.000013   0.404069
    20  H    0.001640   0.000327  -0.000019  -0.000111  -0.000003   0.400705
    21  H   -0.000065  -0.000256  -0.000005   0.000020   0.000017   0.394298
    22  C    0.343704   0.000011   0.000002  -0.000000  -0.000001   0.000015
    23  H   -0.042978  -0.000001   0.000000  -0.000000  -0.000000  -0.000001
    24  H   -0.059992   0.000001  -0.000000   0.000000   0.000000   0.000001
    25  H   -0.050987   0.000000   0.000000  -0.000000  -0.000000   0.000000
    26  C   -0.043742   0.000132  -0.000159   0.000037  -0.000093  -0.000011
    27  H    0.002382  -0.000081   0.000017   0.000001  -0.000010  -0.000000
    28  H   -0.002427   0.000057  -0.000018  -0.000002   0.000005   0.000000
    29  H   -0.000295   0.000178   0.000074  -0.000001  -0.000002   0.000000
              19         20         21         22         23         24
     1  O   -0.000000   0.000559   0.000012  -0.130103   0.002812   0.003635
     2  O    0.003631   0.006426  -0.000882   0.000000   0.000000   0.000000
     3  N    0.000007   0.000096   0.000012  -0.000118   0.000129   0.000125
     4  H   -0.000001   0.000001  -0.000001   0.000123  -0.000026  -0.000031
     5  C    0.011972   0.071468  -0.010519   0.001494  -0.000203  -0.000238
     6  C    0.000033  -0.001446   0.000138  -0.003459   0.004573  -0.014709
     7  C    0.000038   0.005361  -0.000812   0.000801  -0.000036  -0.000027
     8  C   -0.037582  -0.117214  -0.010248  -0.000029   0.000005   0.000001
     9  C   -0.002152  -0.016849  -0.002595   0.013800  -0.001953   0.000932
    10  H    0.000454  -0.006518  -0.000015   0.000870  -0.000143   0.000069
    11  H    0.000353   0.000820   0.000431   0.001323   0.000149  -0.000147
    12  C   -0.000163   0.006648  -0.001649  -0.341151   0.012775   0.038178
    13  C   -0.000015   0.001640  -0.000065   0.343704  -0.042978  -0.059992
    14  C   -0.000015   0.000327  -0.000256   0.000011  -0.000001   0.000001
    15  H   -0.000001  -0.000019  -0.000005   0.000002   0.000000  -0.000000
    16  H    0.000085  -0.000111   0.000020  -0.000000  -0.000000   0.000000
    17  H   -0.000013  -0.000003   0.000017  -0.000001  -0.000000   0.000000
    18  C    0.404069   0.400705   0.394298   0.000015  -0.000001   0.000001
    19  H    0.504644  -0.030133  -0.013425  -0.000000   0.000000   0.000000
    20  H   -0.030133   0.546922  -0.020852   0.000046  -0.000001  -0.000001
    21  H   -0.013425  -0.020852   0.493889  -0.000002   0.000000  -0.000000
    22  C   -0.000000   0.000046  -0.000002   5.463306   0.392353   0.385410
    23  H    0.000000  -0.000001   0.000000   0.392353   0.525876  -0.033653
    24  H    0.000000  -0.000001  -0.000000   0.385410  -0.033653   0.544115
    25  H   -0.000000  -0.000000  -0.000000   0.382484  -0.010578  -0.015668
    26  C    0.000000  -0.000018   0.000002  -0.045878  -0.005771   0.006622
    27  H    0.000000   0.000000  -0.000000  -0.007878   0.000139  -0.000814
    28  H   -0.000000   0.000000   0.000000   0.001014  -0.000899  -0.002982
    29  H    0.000000  -0.000000   0.000000   0.002234   0.000218   0.000338
              25         26         27         28         29
     1  O    0.011089   0.000792  -0.000039  -0.000061   0.000014
     2  O   -0.000000   0.000009  -0.000000  -0.000000   0.000000
     3  N    0.000011  -0.027538  -0.003136  -0.000715   0.004472
     4  H   -0.000003  -0.011541   0.000627   0.000817   0.002385
     5  C   -0.000052   0.000886   0.000488   0.000267  -0.000394
     6  C   -0.002328   0.243411  -0.041616  -0.040428  -0.051374
     7  C    0.000012   0.006491  -0.001365  -0.000966   0.003837
     8  C   -0.000001   0.000812  -0.000013  -0.000004   0.000020
     9  C   -0.000053   0.017596   0.000271  -0.000727  -0.000668
    10  H   -0.000092   0.000105   0.000029   0.000003   0.000001
    11  H   -0.000039  -0.000435  -0.000004  -0.000007   0.000025
    12  C    0.028468  -0.102649  -0.007581  -0.004345   0.020952
    13  C   -0.050987  -0.043742   0.002382  -0.002427  -0.000295
    14  C    0.000000   0.000132  -0.000081   0.000057   0.000178
    15  H    0.000000  -0.000159   0.000017  -0.000018   0.000074
    16  H   -0.000000   0.000037   0.000001  -0.000002  -0.000001
    17  H   -0.000000  -0.000093  -0.000010   0.000005  -0.000002
    18  C    0.000000  -0.000011  -0.000000   0.000000   0.000000
    19  H   -0.000000   0.000000   0.000000  -0.000000   0.000000
    20  H   -0.000000  -0.000018   0.000000   0.000000  -0.000000
    21  H   -0.000000   0.000002  -0.000000   0.000000   0.000000
    22  C    0.382484  -0.045878  -0.007878   0.001014   0.002234
    23  H   -0.010578  -0.005771   0.000139  -0.000899   0.000218
    24  H   -0.015668   0.006622  -0.000814  -0.002982   0.000338
    25  H    0.495214   0.002402   0.000069   0.000235  -0.000028
    26  C    0.002402   5.191691   0.432780   0.424979   0.386568
    27  H    0.000069   0.432780   0.491869  -0.032421  -0.017028
    28  H    0.000235   0.424979  -0.032421   0.509035  -0.021406
    29  H   -0.000028   0.386568  -0.017028  -0.021406   0.519757
 Mulliken charges:
               1
     1  O   -0.360511
     2  O   -0.403419
     3  N   -0.216714
     4  H    0.285092
     5  C   -0.096396
     6  C    0.256129
     7  C    0.253475
     8  C    0.176928
     9  C   -0.296108
    10  H    0.171015
    11  H    0.159483
    12  C   -0.140262
    13  C    0.136269
    14  C   -0.469227
    15  H    0.131212
    16  H    0.186617
    17  H    0.172220
    18  C   -0.461142
    19  H    0.158214
    20  H    0.152145
    21  H    0.172507
    22  C   -0.460369
    23  H    0.157212
    24  H    0.148833
    25  H    0.159844
    26  C   -0.477480
    27  H    0.183313
    28  H    0.170996
    29  H    0.150125
 Sum of Mulliken charges =  -0.00000
 Mulliken charges with hydrogens summed into heavy atoms:
               1
     1  O   -0.360511
     2  O   -0.403419
     3  N    0.068378
     5  C   -0.096396
     6  C    0.256129
     7  C    0.253475
     8  C    0.176928
     9  C    0.034390
    12  C   -0.140262
    13  C    0.136269
    14  C    0.020821
    18  C    0.021724
    22  C    0.005519
    26  C    0.026954
 Electronic spatial extent (au):  <R**2>=           3215.8625
 Charge=              0.0000 electrons
 Dipole moment (field-independent basis, Debye):
    X=              4.2138    Y=              7.1825    Z=             -0.1764  Tot=              8.3292
 Quadrupole moment (field-independent basis, Debye-Ang):
   XX=            -98.9772   YY=            -78.7315   ZZ=            -84.3570
   XY=             13.1420   XZ=              2.1712   YZ=             -0.4598
 Traceless Quadrupole moment (field-independent basis, Debye-Ang):
   XX=            -11.6220   YY=              8.6238   ZZ=              2.9982
   XY=             13.1420   XZ=              2.1712   YZ=             -0.4598
 Octapole moment (field-independent basis, Debye-Ang**2):
  XXX=            114.1512  YYY=             62.0601  ZZZ=              2.0305  XYY=            -36.3727
  XXY=             28.1016  XXZ=             -6.3457  XZZ=              1.0167  YZZ=             -1.5900
  YYZ=              1.1868  XYZ=             -1.5994
 Hexadecapole moment (field-independent basis, Debye-Ang**3):
 XXXX=          -3141.1616 YYYY=          -1282.7917 ZZZZ=           -127.8643 XXXY=             44.2920
 XXXZ=             34.6791 YYYX=             94.1821 YYYZ=             -9.3548 ZZZX=             -4.0258
 ZZZY=              1.9190 XXYY=           -687.3562 XXZZ=           -483.0773 YYZZ=           -237.5158
 XXYZ=              0.7523 YYXZ=              0.3805 ZZXY=              1.9107
 N-N= 9.000963297234D+02 E-N=-3.276232583964D+03  KE= 6.307240881278D+02
 Leave Link  601 at Fri Jan 23 15:57:05 2026, MaxMem=  2147483648 cpu:               0.7 elap:               0.1
 (Enter /data/home/wyx/g16/l9999.exe)
 Electronic transition elements 
                 1             2             3             4             5 
      1  -0.633200D+03 -0.633185D+03 -0.633166D+03 -0.633134D+03 -0.633117D+03
      2   0.159682D+01 -0.238847D+00  0.765246D-02  0.551433D+00 -0.233153D+00
      3   0.479527D+00 -0.385188D-01 -0.569552D-01 -0.169598D+01  0.139936D+01
      4   0.183063D+00  0.141244D-01  0.408933D-01  0.153720D+00 -0.481009D-01
      5  -0.185958D+00  0.316293D-01 -0.179801D-02 -0.927013D-01  0.478242D-01
      6  -0.575992D-01  0.584305D-02  0.853372D-02  0.300916D+00 -0.279735D+00
      7  -0.213275D-01 -0.106464D-03 -0.305262D-02 -0.246896D-01  0.101577D-01
      8  -0.115768D+00  0.854543D+00 -0.353385D+00  0.149332D-01 -0.122444D+00
      9   0.206093D-01  0.557084D-02  0.888719D+00 -0.214057D-01  0.680565D-02
     10   0.145257D+01 -0.233812D+00 -0.992479D-02  0.366593D+00 -0.270618D+00
     11  -0.580547D-01  0.750361D-02 -0.812824D-03 -0.135364D+01  0.521658D+00
     12   0.250705D+00 -0.682448D-01  0.158469D-01  0.246387D+00 -0.289746D+00
     13  -0.180040D-01  0.421759D-02 -0.313285D-01  0.170299D-01 -0.277088D-01
     14   0.538505D+00 -0.907393D-01  0.688104D-02 -0.395467D+00  0.302497D+00
     15  -0.386356D-01  0.195029D-01 -0.758603D-01 -0.139610D+00  0.674051D-01
     16   0.541904D-01  0.509630D-01 -0.247692D-01 -0.506899D-01 -0.193762D-01
                 6 
      1  -0.633098D+03
      2  -0.366619D-01
      3   0.120318D+00
      4   0.247107D-01
      5   0.872848D-02
      6  -0.251711D-01
      7  -0.255423D-01
      8  -0.255465D-01
      9  -0.135480D-01
     10  -0.152959D-01
     11  -0.101093D+00
     12  -0.861133D-01
     13   0.644067D-01
     14  -0.217103D-01
     15  -0.261747D-01
     16   0.506867D-01
 1\1\GINC-CN013\SP\RCAM-B3LYP TD-FC\TZVP\C11H15N1O2\WYX\23-Jan-2026\0\\
 #p CAM-B3LYP TZVP em=gd3bj td(Eqsolv,nstates=6,root=1) scrf=(Solvent=T
 etraHydroFuran) Geom=Check Guess=Read\\Title Card Required\\0,1\O,0,2.
 806315,-1.578061,0.331845\O,0,-3.448266,-1.645141,-0.254192\N,0,-0.645
 482,1.521607,-0.209486\H,0,-0.961305,2.47595,-0.251416\C,0,-1.242303,-
 0.761573,-0.197304\C,0,0.683636,1.307594,0.020234\C,0,-1.615939,0.5405
 12,-0.263171\C,0,-2.199001,-1.822689,-0.230343\C,0,0.216573,-1.127758,
 -0.121764\H,0,0.374887,-1.84467,0.685213\H,0,0.523066,-1.637411,-1.041
 146\C,0,1.146351,0.038364,0.097458\C,0,2.51516,-0.383483,0.354657\C,0,
 -2.996812,1.076549,-0.380659\H,0,-3.015801,1.978019,-0.998143\H,0,-3.6
 95842,0.376515,-0.832338\H,0,-3.405481,1.329278,0.60014\C,0,-1.793233,
 -3.265365,-0.249152\H,0,-2.438811,-3.91066,-0.84678\H,0,-0.785454,-3.4
 30225,-0.62873\H,0,-1.796285,-3.680729,0.76361\C,0,3.621661,0.586744,0
 .671518\H,0,3.865367,1.228164,-0.174188\H,0,3.400113,1.228668,1.521781
 \H,0,4.495665,-0.016778,0.905243\C,0,1.448622,2.584541,0.155174\H,0,1.
 816605,2.738746,1.167988\H,0,2.296707,2.641499,-0.521662\H,0,0.829289,
 3.451792,-0.074384\\Version=ES64L-G16RevA.03\State=1-A\HF=-633.3204892
 \RMSD=1.697e-09\PG=C01 [X(C11H15N1O2)]\\@


 ONLY THE DAY DAWNS TO WHICH YOU ARE AWAKE.

                                 -- THOREAU
 Job cpu time:       0 days  0 hours 31 minutes  9.2 seconds.
 Elapsed time:       0 days  0 hours  1 minutes 57.6 seconds.
 File lengths (MBytes):  RWF=    734 Int=      0 D2E=      0 Chk=     67 Scr=      1
 Normal termination of Gaussian 16 at Fri Jan 23 15:57:07 2026.
