 Entering Gaussian System, Link 0=g16
 Input=DDL-LR-Eq-2.gjf
 Output=DDL-LR-Eq-2.log
 Initial command:
 /data/home/wyx/g16/l1.exe "/scr/tmp/wyx/13109/Gau-1683329.inp" -scrdir="/scr/tmp/wyx/13109/"
 Entering Link 1 = /data/home/wyx/g16/l1.exe PID=   1683330.
  
 Copyright (c) 1988,1990,1992,1993,1995,1998,2003,2009,2016,
            Gaussian, Inc.  All Rights Reserved.
  
 This is part of the Gaussian(R) 16 program.  It is based on
 the Gaussian(R) 09 system (copyright 2009, Gaussian, Inc.),
 the Gaussian(R) 03 system (copyright 2003, Gaussian, Inc.),
 the Gaussian(R) 98 system (copyright 1998, Gaussian, Inc.),
 the Gaussian(R) 94 system (copyright 1995, Gaussian, Inc.),
 the Gaussian 92(TM) system (copyright 1992, Gaussian, Inc.),
 the Gaussian 90(TM) system (copyright 1990, Gaussian, Inc.),
 the Gaussian 88(TM) system (copyright 1988, Gaussian, Inc.),
 the Gaussian 86(TM) system (copyright 1986, Carnegie Mellon
 University), and the Gaussian 82(TM) system (copyright 1983,
 Carnegie Mellon University). Gaussian is a federally registered
 trademark of Gaussian, Inc.
  
 This software contains proprietary and confidential information,
 including trade secrets, belonging to Gaussian, Inc.
  
 This software is provided under written license and may be
 used, copied, transmitted, or stored only in accord with that
 written license.
  
 The following legend is applicable only to US Government
 contracts under FAR:
  
                    RESTRICTED RIGHTS LEGEND
  
 Use, reproduction and disclosure by the US Government is
 subject to restrictions as set forth in subparagraphs (a)
 and (c) of the Commercial Computer Software - Restricted
 Rights clause in FAR 52.227-19.
  
 Gaussian, Inc.
 340 Quinnipiac St., Bldg. 40, Wallingford CT 06492
  
  
 ---------------------------------------------------------------
 Warning -- This program may not be used in any manner that
 competes with the business of Gaussian, Inc. or will provide
 assistance to any competitor of Gaussian, Inc.  The licensee
 of this program is prohibited from giving any competitor of
 Gaussian, Inc. access to this program.  By using this program,
 the user acknowledges that Gaussian, Inc. is engaged in the
 business of creating and licensing software in the field of
 computational chemistry and represents and warrants to the
 licensee that it is not a competitor of Gaussian, Inc. and that
 it will not use this program in any manner prohibited above.
 ---------------------------------------------------------------
  

 Cite this work as:
 Gaussian 16, Revision A.03,
 M. J. Frisch, G. W. Trucks, H. B. Schlegel, G. E. Scuseria, 
 M. A. Robb, J. R. Cheeseman, G. Scalmani, V. Barone, 
 G. A. Petersson, H. Nakatsuji, X. Li, M. Caricato, A. V. Marenich, 
 J. Bloino, B. G. Janesko, R. Gomperts, B. Mennucci, H. P. Hratchian, 
 J. V. Ortiz, A. F. Izmaylov, J. L. Sonnenberg, D. Williams-Young, 
 F. Ding, F. Lipparini, F. Egidi, J. Goings, B. Peng, A. Petrone, 
 T. Henderson, D. Ranasinghe, V. G. Zakrzewski, J. Gao, N. Rega, 
 G. Zheng, W. Liang, M. Hada, M. Ehara, K. Toyota, R. Fukuda, 
 J. Hasegawa, M. Ishida, T. Nakajima, Y. Honda, O. Kitao, H. Nakai, 
 T. Vreven, K. Throssell, J. A. Montgomery, Jr., J. E. Peralta, 
 F. Ogliaro, M. J. Bearpark, J. J. Heyd, E. N. Brothers, K. N. Kudin, 
 V. N. Staroverov, T. A. Keith, R. Kobayashi, J. Normand, 
 K. Raghavachari, A. P. Rendell, J. C. Burant, S. S. Iyengar, 
 J. Tomasi, M. Cossi, J. M. Millam, M. Klene, C. Adamo, R. Cammi, 
 J. W. Ochterski, R. L. Martin, K. Morokuma, O. Farkas, 
 J. B. Foresman, and D. J. Fox, Gaussian, Inc., Wallingford CT, 2016.
 
 ******************************************
 Gaussian 16:  ES64L-G16RevA.03 25-Dec-2016
                23-Jan-2026 
 ******************************************
 %nprocshared=16
 Will use up to   16 processors via shared memory.
 %mem=16GB
 %oldchk=DDL-LR-2.chk
 %chk=DDL-LR-Eq-2.chk
 Copying data from "DDL-LR-2.chk" to current chk file "DDL-LR-Eq-2.chk"
 IOpt=  2 FromEx=T IUOpen= 4 IOptOp= 5 NList=   0 IFRang= 0 IUIn= 4 IUOut= 2.
 ----------------------------------------------------------------------
 #p CAM-B3LYP TZVP em=gd3bj td(Eqsolv,nstates=6,root=1) scrf=(Solvent=T
 etraHydroFuran) Geom=Check Guess=Read
 ----------------------------------------------------------------------
 1/29=2,38=1,172=1/1;
 2/12=2,40=1/2;
 3/5=19,7=101,11=9,14=-4,25=1,30=1,70=2201,72=20,74=-40,116=-2,124=41/1,2,3,8;
 4/5=1/1;
 5/5=2,38=6,53=20/2;
 8/6=1,10=1,107=1,108=6/1;
 9/8=1,41=6,42=1,70=2,73=2/14;
 6/7=2,8=2,9=2,10=2/1;
 99/5=1,9=1/99;
 Leave Link    1 at Fri Jan 23 15:22:19 2026, MaxMem=  2147483648 cpu:               1.2 elap:               0.2
 (Enter /data/home/wyx/g16/l101.exe)
 -------------------
 Title Card Required
 -------------------
 Structure from the checkpoint file:  "DDL-LR-Eq-2.chk"
 Charge =  0 Multiplicity = 1
 Z-Matrix found in chk file.
 O,0,2.795308,-1.565315,0.463013
 O,0,-3.424701,-1.654191,-0.534626
 N,0,-0.659517,1.524773,-0.074715
 H,0,-0.979176,2.478028,-0.114855
 C,0,-1.240182,-0.773853,-0.176353
 C,0,0.670305,1.314751,0.122953
 C,0,-1.620178,0.536803,-0.23592
 C,0,-2.160037,-1.829739,-0.331926
 C,0,0.204387,-1.136947,0.071119
 H,0,0.285831,-1.736138,0.982334
 H,0,0.568149,-1.781461,-0.73265
 C,0,1.143487,0.041391,0.185375
 C,0,2.524526,-0.367001,0.378304
 C,0,-2.988745,1.073889,-0.451395
 H,0,-2.999897,1.813288,-1.257431
 H,0,-3.702706,0.297015,-0.72219
 H,0,-3.374115,1.5555,0.452092
 C,0,-1.816725,-3.29121,-0.279572
 H,0,-2.129137,-3.827268,-1.178606
 H,0,-0.747333,-3.443423,-0.161436
 H,0,-2.308885,-3.774663,0.568561
 C,0,3.672173,0.608547,0.46949
 H,0,3.703898,1.302937,-0.367246
 H,0,3.632631,1.194142,1.387788
 H,0,4.586884,0.020836,0.475404
 C,0,1.443181,2.593015,0.242867
 H,0,2.052124,2.624459,1.141545
 H,0,2.097674,2.753037,-0.612571
 H,0,0.770776,3.4488,0.290648
 Recover connectivity data from disk.
 ITRead=  0  0  0  0  0  0  0  0  0  0  0  0  0  0  0  0  0  0  0  0
 ITRead=  0  0  0  0  0  0  0  0  0
 MicOpt= -1 -1 -1 -1 -1 -1 -1 -1 -1 -1 -1 -1 -1 -1 -1 -1 -1 -1 -1 -1
 MicOpt= -1 -1 -1 -1 -1 -1 -1 -1 -1
 NAtoms=     29 NQM=       29 NQMF=       0 NMMI=      0 NMMIF=      0
                NMic=       0 NMicF=      0.
                    Isotopes and Nuclear Properties:
 (Nuclear quadrupole moments (NQMom) in fm**2, nuclear magnetic moments (NMagM)
  in nuclear magnetons)

  Atom         1           2           3           4           5           6           7           8           9          10
 IAtWgt=          16          16          14           1          12          12          12          12          12           1
 AtmWgt=  15.9949146  15.9949146  14.0030740   1.0078250  12.0000000  12.0000000  12.0000000  12.0000000  12.0000000   1.0078250
 NucSpn=           0           0           2           1           0           0           0           0           0           1
 AtZEff=   5.6000000   5.6000000   4.5500000   1.0000000   3.6000000   3.6000000   3.6000000   3.6000000   3.6000000   1.0000000
 NQMom=    0.0000000   0.0000000   2.0440000   0.0000000   0.0000000   0.0000000   0.0000000   0.0000000   0.0000000   0.0000000
 NMagM=    0.0000000   0.0000000   0.4037610   2.7928460   0.0000000   0.0000000   0.0000000   0.0000000   0.0000000   2.7928460
 AtZNuc=   8.0000000   8.0000000   7.0000000   1.0000000   6.0000000   6.0000000   6.0000000   6.0000000   6.0000000   1.0000000

  Atom        11          12          13          14          15          16          17          18          19          20
 IAtWgt=           1          12          12          12           1           1           1          12           1           1
 AtmWgt=   1.0078250  12.0000000  12.0000000  12.0000000   1.0078250   1.0078250   1.0078250  12.0000000   1.0078250   1.0078250
 NucSpn=           1           0           0           0           1           1           1           0           1           1
 AtZEff=   1.0000000   3.6000000   3.6000000   3.6000000   1.0000000   1.0000000   1.0000000   3.6000000   1.0000000   1.0000000
 NQMom=    0.0000000   0.0000000   0.0000000   0.0000000   0.0000000   0.0000000   0.0000000   0.0000000   0.0000000   0.0000000
 NMagM=    2.7928460   0.0000000   0.0000000   0.0000000   2.7928460   2.7928460   2.7928460   0.0000000   2.7928460   2.7928460
 AtZNuc=   1.0000000   6.0000000   6.0000000   6.0000000   1.0000000   1.0000000   1.0000000   6.0000000   1.0000000   1.0000000

  Atom        21          22          23          24          25          26          27          28          29
 IAtWgt=           1          12           1           1           1          12           1           1           1
 AtmWgt=   1.0078250  12.0000000   1.0078250   1.0078250   1.0078250  12.0000000   1.0078250   1.0078250   1.0078250
 NucSpn=           1           0           1           1           1           0           1           1           1
 AtZEff=   1.0000000   3.6000000   1.0000000   1.0000000   1.0000000   3.6000000   1.0000000   1.0000000   1.0000000
 NQMom=    0.0000000   0.0000000   0.0000000   0.0000000   0.0000000   0.0000000   0.0000000   0.0000000   0.0000000
 NMagM=    2.7928460   0.0000000   2.7928460   2.7928460   2.7928460   0.0000000   2.7928460   2.7928460   2.7928460
 AtZNuc=   1.0000000   6.0000000   1.0000000   1.0000000   1.0000000   6.0000000   1.0000000   1.0000000   1.0000000
 Leave Link  101 at Fri Jan 23 15:22:22 2026, MaxMem=  2147483648 cpu:               0.9 elap:               0.1
 (Enter /data/home/wyx/g16/l202.exe)
                          Input orientation:                          
 ---------------------------------------------------------------------
 Center     Atomic      Atomic             Coordinates (Angstroms)
 Number     Number       Type             X           Y           Z
 ---------------------------------------------------------------------
      1          8           0        2.795308   -1.565315    0.463013
      2          8           0       -3.424701   -1.654191   -0.534626
      3          7           0       -0.659517    1.524773   -0.074715
      4          1           0       -0.979176    2.478028   -0.114855
      5          6           0       -1.240182   -0.773853   -0.176353
      6          6           0        0.670305    1.314751    0.122953
      7          6           0       -1.620178    0.536803   -0.235920
      8          6           0       -2.160037   -1.829739   -0.331926
      9          6           0        0.204387   -1.136947    0.071119
     10          1           0        0.285831   -1.736138    0.982334
     11          1           0        0.568149   -1.781461   -0.732650
     12          6           0        1.143487    0.041391    0.185375
     13          6           0        2.524526   -0.367001    0.378304
     14          6           0       -2.988745    1.073889   -0.451395
     15          1           0       -2.999897    1.813288   -1.257431
     16          1           0       -3.702706    0.297015   -0.722190
     17          1           0       -3.374115    1.555500    0.452092
     18          6           0       -1.816725   -3.291210   -0.279572
     19          1           0       -2.129137   -3.827268   -1.178606
     20          1           0       -0.747333   -3.443423   -0.161436
     21          1           0       -2.308885   -3.774663    0.568561
     22          6           0        3.672173    0.608547    0.469490
     23          1           0        3.703898    1.302937   -0.367246
     24          1           0        3.632631    1.194142    1.387788
     25          1           0        4.586884    0.020836    0.475404
     26          6           0        1.443181    2.593015    0.242867
     27          1           0        2.052124    2.624459    1.141545
     28          1           0        2.097674    2.753037   -0.612571
     29          1           0        0.770776    3.448800    0.290648
 ---------------------------------------------------------------------
                    Distance matrix (angstroms):
                    1          2          3          4          5
     1  O    0.000000
     2  O    6.300134   0.000000
     3  N    4.666220   4.238346   0.000000
     4  H    5.561410   4.819962   1.006225   0.000000
     5  C    4.161776   2.382326   2.373012   3.262918   0.000000
     6  C    3.595283   5.100598   1.360738   2.032376   2.846368
     7  C    4.940033   2.854117   1.387423   2.047900   1.365930
     8  C    5.025663   1.292780   3.683812   4.471958   1.408982
     9  C    2.655175   3.715474   2.802205   3.808340   1.509920
    10  H    2.568336   4.009480   3.555921   4.534673   2.144123
    11  H    2.537039   3.999783   3.587649   4.573744   2.143549
    12  C    2.321013   4.925621   2.349232   3.245464   2.545063
    13  C    1.231444   6.154966   3.731242   4.540190   3.827035
    14  C    6.423146   2.763947   2.402184   2.474517   2.558764
    15  H    6.925264   3.567396   2.638074   2.414679   3.310381
    16  H    6.862737   1.979816   3.344789   3.541651   2.740205
    17  H    6.913855   3.358316   2.765414   2.628349   3.220947
    18  C    4.980060   2.308781   4.957297   5.832043   2.584597
    19  H    5.662288   2.610644   5.658860   6.496979   3.334381
    20  H    4.058021   3.241747   4.969729   5.926171   2.714724
    21  H    5.562836   2.637891   5.587329   6.428945   3.271373
    22  C    2.344058   7.516239   4.460848   5.046926   5.143868
    23  H    3.121175   7.719427   4.378833   4.834845   5.365950
    24  H    3.028353   7.849498   4.546511   5.017476   5.483051
    25  H    2.392859   8.246901   5.485361   6.112873   5.917011
    26  C    4.378175   6.506883   2.379777   2.451326   4.325735
    27  H    4.308937   7.149266   3.168848   3.284625   4.911686
    28  H    4.504635   7.065859   3.065946   3.128955   4.875502
    29  H    5.410156   6.657599   2.425100   2.041853   4.700302
                    6          7          8          9         10
     6  C    0.000000
     7  C    2.445466   0.000000
     8  C    4.255064   2.429236   0.000000
     9  C    2.496115   2.494945   2.496579   0.000000
    10  H    3.192848   3.206754   2.778185   1.093607   0.000000
    11  H    3.213879   3.226432   2.757881   1.092596   1.738657
    12  C    1.359869   2.839149   3.831710   1.511107   2.128456
    13  C    2.516273   4.286339   4.958746   2.463783   2.692795
    14  C    3.711676   1.485889   3.021934   3.918789   4.546942
    15  H    3.952769   2.139281   3.851437   4.553720   5.330195
    16  H    4.568728   2.151948   2.656166   4.236858   4.790359
    17  H    4.064926   2.141821   3.680830   4.494451   4.950883
    18  C    5.249973   3.833304   1.502166   2.974681   2.903687
    19  H    5.997607   4.493641   2.169780   3.774251   3.856755
    20  H    4.973007   4.075488   2.151459   2.505930   2.300100
    21  H    5.914074   4.439622   2.148432   3.677163   3.325559
    22  C    3.103228   5.339638   6.371984   3.902690   4.150647
    23  H    3.072966   5.380520   6.648356   4.288563   4.768703
    24  H    3.223310   5.537195   6.756943   4.349764   4.466767
    25  H    4.139810   6.268957   7.042539   4.550845   4.673649
    26  C    1.498558   3.720405   5.733613   3.934047   4.541788
    27  H    2.159233   4.443143   6.305022   4.325288   4.707435
    28  H    2.155700   4.344650   6.261685   4.379948   5.096978
    29  H    2.142984   3.804427   6.069616   4.625804   5.253302
                   11         12         13         14         15
    11  H    0.000000
    12  C    2.120512   0.000000
    13  C    2.657504   1.453022   0.000000
    14  C    4.569860   4.306608   5.758535   0.000000
    15  H    5.092010   4.731695   6.160239   1.093860   0.000000
    16  H    4.749776   4.937064   6.358492   1.089313   1.754852
    17  H    5.299091   4.772043   6.204468   1.093960   1.768887
    18  C    2.858714   4.481658   5.275439   4.522968   5.330291
    19  H    3.414609   5.247574   6.004498   5.028827   5.707916
    20  H    2.195198   3.979875   4.523356   5.051150   5.823080
    21  H    3.734077   5.160230   5.916943   5.001098   5.919201
    22  C    4.097834   2.607037   1.509007   6.740356   6.996440
    23  H    4.413610   2.907334   2.176110   6.697090   6.781870
    24  H    4.768807   2.995074   2.164283   6.873112   7.167353
    25  H    4.567045   3.455651   2.100754   7.704416   7.985916
    26  C    4.566547   2.569807   3.154258   4.736213   4.753926
    27  H    5.012676   2.900366   3.123225   5.509273   5.651195
    28  H    4.787018   2.983323   3.301314   5.358841   5.223428
    29  H    5.333275   3.429349   4.200436   4.508307   4.391973
                   16         17         18         19         20
    16  H    0.000000
    17  H    1.752340   0.000000
    18  C    4.077768   5.143092   0.000000
    19  H    4.437809   5.760498   1.092347   0.000000
    20  H    4.799953   5.680284   1.086611   1.758225   0.000000
    21  H    4.493032   5.436811   1.093288   1.757176   1.755295
    22  C    7.477031   7.109655   6.774747   7.486513   6.028977
    23  H    7.483024   7.129753   7.182698   7.810352   6.510280
    24  H    7.685312   7.078177   7.252169   8.062190   6.564388
    25  H    8.380203   8.107604   7.248851   7.915086   6.392224
    26  C    5.716914   4.932196   6.747150   7.483453   6.434314
    27  H    6.481402   5.573337   7.209903   8.030618   6.808371
    28  H    6.299878   5.701585   7.208768   7.841348   6.833279
    29  H    5.565216   4.559690   7.242102   7.969277   7.071900
                   21         22         23         24         25
    21  H    0.000000
    22  C    7.415888   0.000000
    23  H    7.925359   1.087801   0.000000
    24  H    7.788567   1.089842   1.759846   0.000000
    25  H    7.871856   1.087261   1.770171   1.766265   0.000000
    26  C    7.398067   2.992971   2.673459   2.839257   4.068544
    27  H    7.765016   2.672100   2.598313   2.145797   3.694266
    28  H    7.963900   2.872062   2.177827   2.964403   3.852892
    29  H    7.857478   4.064127   3.693340   3.804920   5.133006
                   26         27         28         29
    26  C    0.000000
    27  H    1.086012   0.000000
    28  H    1.088918   1.759412   0.000000
    29  H    1.089394   1.745112   1.749442   0.000000
 Stoichiometry    C11H15NO2
 Framework group  C1[X(C11H15NO2)]
 Deg. of freedom    81
 Full point group                 C1      NOp   1
 RotChk:  IX=0 Diff= 1.26D-15
 Largest Abelian subgroup         C1      NOp   1
 Largest concise Abelian subgroup C1      NOp   1
                         Standard orientation:                         
 ---------------------------------------------------------------------
 Center     Atomic      Atomic             Coordinates (Angstroms)
 Number     Number       Type             X           Y           Z
 ---------------------------------------------------------------------
      1          8           0        2.253001   -2.314869    0.045482
      2          8           0       -3.676962   -0.188407   -0.027943
      3          7           0        0.062887    1.805350    0.017165
      4          1           0        0.095682    2.811022    0.023257
      5          6           0       -1.295341   -0.140477    0.004638
      6          6           0        1.248200    1.137037    0.017682
      7          6           0       -1.195732    1.221808   -0.000056
      8          6           0       -2.539213   -0.802070   -0.012923
      9          6           0       -0.050575   -0.994481    0.037753
     10          1           0       -0.059670   -1.629793    0.927849
     11          1           0       -0.050599   -1.683810   -0.809945
     12          6           0        1.248381   -0.222817    0.011472
     13          6           0        2.410889   -1.094435    0.000018
     14          6           0       -2.304651    2.210747   -0.012888
     15          1           0       -2.166758    2.947652   -0.809434
     16          1           0       -3.275828    1.744761   -0.174987
     17          1           0       -2.368037    2.750002    0.936814
     18          6           0       -2.726701   -2.292486   -0.009798
     19          1           0       -3.328112   -2.640702   -0.852574
     20          1           0       -1.773297   -2.812241   -0.049781
     21          1           0       -3.235187   -2.617098    0.901985
     22          6           0        3.828688   -0.583913   -0.079462
     23          1           0        3.986272    0.097506   -0.912617
     24          1           0        4.124141   -0.068091    0.833988
     25          1           0        4.470567   -1.452132   -0.207218
     26          6           0        2.429029    2.059699    0.021285
     27          1           0        3.128026    1.832442    0.820772
     28          1           0        2.973403    2.025446   -0.921172
     29          1           0        2.113030    3.092127    0.166255
 ---------------------------------------------------------------------
 Rotational constants (GHZ):           1.1024108           0.4813357           0.3386227
 Leave Link  202 at Fri Jan 23 15:22:22 2026, MaxMem=  2147483648 cpu:               0.0 elap:               0.0
 (Enter /data/home/wyx/g16/l301.exe)
 Standard basis: TZVP (5D, 7F)
 Ernie: Thresh=  0.10000D-02 Tol=  0.10000D-05 Strict=F.
 There are   370 symmetry adapted cartesian basis functions of A   symmetry.
 There are   356 symmetry adapted basis functions of A   symmetry.
   356 basis functions,   610 primitive gaussians,   370 cartesian basis functions
    52 alpha electrons       52 beta electrons
       nuclear repulsion energy       898.4121943935 Hartrees.
 IExCor=20419 DFT=T Ex+Corr=CAM-B3LYP ExCW=0 ScaHFX=  1.000000
 ScaDFX=  1.000000  1.000000  1.000000  0.810000 ScalE2=  1.000000  1.000000
 IRadAn=      5 IRanWt=     -1 IRanGd=            0 ICorTp=0 IEmpDi=141
 HFx  wShort=  0.000000 wLong=  0.330000 cFull=  0.190000 cShort=  0.000000 cLong=  0.460000
 DFx  wShort=  0.000000 wLong=  0.330000 cFull=  0.190000 cShort=  0.000000 cLong=  0.460000
 NAtoms=   29 NActive=   29 NUniq=   29 SFac= 1.00D+00 NAtFMM=   60 NAOKFM=F Big=F
 Integral buffers will be    131072 words long.
 Raffenetti 1 integral format.
 Two-electron integral symmetry is turned on.
 R6Disp:  Grimme-D3(BJ) Dispersion energy=       -0.0260684374 Hartrees.
 Nuclear repulsion after empirical dispersion term =      898.3861259561 Hartrees.
 ------------------------------------------------------------------------------
 Polarizable Continuum Model (PCM)
 =================================
 Model                : PCM.
 Atomic radii         : UFF (Universal Force Field).
 Polarization charges : Total charges.
 Charge compensation  : None.
 Solution method      : On-the-fly selection.
 Cavity type          : Scaled VdW (van der Waals Surface) (Alpha=1.100).
 Cavity algorithm     : GePol (No added spheres)
                        Default sphere list used, NSphG=   29.
                        Lebedev-Laikov grids with approx.  5.0 points / Ang**2.
                        Smoothing algorithm: York/Karplus (Gamma=1.0000).
                        Polarization charges: spherical gaussians, with
                                              point-specific exponents (IZeta= 3).
                        Self-potential: point-specific (ISelfS= 7).
                        Self-field    : sphere-specific E.n sum rule (ISelfD= 2).
 Solvent              : TetraHydroFuran, Eps=   7.425700 Eps(inf)=   1.974025
 ------------------------------------------------------------------------------
 GePol: Number of generator spheres                  =      29
 GePol: Total number of spheres                      =      29
 GePol: Number of exposed spheres                    =      29 (100.00%)
 GePol: Number of points                             =    2105
 GePol: Average weight of points                     =       0.13
 GePol: Minimum weight of points                     =   0.21D-10
 GePol: Maximum weight of points                     =    0.20577
 GePol: Number of points with low weight             =     132
 GePol: Fraction of low-weight points (<1% of avg)   =       6.27%
 GePol: Cavity surface area                          =    268.974 Ang**2
 GePol: Cavity volume                                =    286.265 Ang**3
 Leave Link  301 at Fri Jan 23 15:22:22 2026, MaxMem=  2147483648 cpu:               0.6 elap:               0.0
 (Enter /data/home/wyx/g16/l302.exe)
 NPDir=0 NMtPBC=     1 NCelOv=     1 NCel=       1 NClECP=     1 NCelD=      1
         NCelK=      1 NCelE2=     1 NClLst=     1 CellRange=     0.0.
 One-electron integrals computed using PRISM.
 One-electron integral symmetry used in STVInt
 NBasis=   356 RedAO= T EigKep=  3.39D-05  NBF=   356
 NBsUse=   356 1.00D-06 EigRej= -1.00D+00 NBFU=   356
 Precomputing XC quadrature grid using
 IXCGrd= 4 IRadAn=           5 IRanWt=          -1 IRanGd=           0 AccXCQ= 0.00D+00.
 Generated NRdTot=       0 NPtTot=           0 NUsed=           0 NTot=          32
 NSgBfM=   366   366   366   366   366 MxSgAt=    29 MxSgA2=    29.
 Leave Link  302 at Fri Jan 23 15:22:23 2026, MaxMem=  2147483648 cpu:               3.1 elap:               0.2
 (Enter /data/home/wyx/g16/l303.exe)
 DipDrv:  MaxL=1.
 Leave Link  303 at Fri Jan 23 15:22:23 2026, MaxMem=  2147483648 cpu:               0.6 elap:               0.1
 (Enter /data/home/wyx/g16/l308.exe)
 Leave Link  308 at Fri Jan 23 15:22:23 2026, MaxMem=  2147483648 cpu:               0.7 elap:               0.1
 (Enter /data/home/wyx/g16/l401.exe)
 Initial guess from the checkpoint file:  "DDL-LR-Eq-2.chk"
 B after Tr=     0.000000   -0.000000   -0.000000
         Rot=    1.000000    0.000000    0.000000   -0.000000 Ang=   0.00 deg.
 Guess basis will be translated and rotated to current coordinates.
 JPrj=2 DoOrth=T DoCkMO=T.
 Leave Link  401 at Fri Jan 23 15:22:24 2026, MaxMem=  2147483648 cpu:               2.2 elap:               0.2
 (Enter /data/home/wyx/g16/l502.exe)
 Integral symmetry usage will be decided dynamically.
 Closed shell SCF:
 Using DIIS extrapolation, IDIIS=  1040.
 NGot=  2147483648 LenX=  2147200095 LenY=  2147062754
 Requested convergence on RMS density matrix=1.00D-08 within 128 cycles.
 Requested convergence on MAX density matrix=1.00D-06.
 Requested convergence on             energy=1.00D-06.
 No special actions if energy rises.
 Fock matrices will be formed incrementally for  20 cycles.

 Cycle   1  Pass 1  IDiag  1:
 FoFJK:  IHMeth= 1 ICntrl=       0 DoSepK=T KAlg= 0 I1Cent=           0 FoldK=F
 IRaf=         1 NMat=       1 IRICut=       1 DoRegI=T DoRafI=F ISym2E= 0 IDoP0=0 IntGTp=1.
 FoFCou: FMM=F IPFlag=           0 FMFlag=      100000 FMFlg1=           0
         NFxFlg=           0 DoJE=T BraDBF=F KetDBF=F FulRan=T
         wScrn=  0.000000 ICntrl=       500 IOpCl=  0 I1Cent=           0 NGrid=           0
         NMat0=    1 NMatS0=      1 NMatT0=    0 NMatD0=    1 NMtDS0=    0 NMtDT0=    0
 Symmetry not used in FoFCou.
 Inv3:  Mode=1 IEnd=    13293075.
 Iteration    1 A*A^-1 deviation from unit magnitude is 3.11D-15 for    154.
 Iteration    1 A*A^-1 deviation from orthogonality  is 2.06D-15 for    748    233.
 Iteration    1 A^-1*A deviation from unit magnitude is 3.33D-15 for    154.
 Iteration    1 A^-1*A deviation from orthogonality  is 2.29D-14 for   1699   1670.
 E= -633.313869072165    
 DIIS: error= 7.97D-09 at cycle   1 NSaved=   1.
 NSaved= 1 IEnMin= 1 EnMin= -633.313869072165     IErMin= 1 ErrMin= 7.97D-09
 ErrMax= 7.97D-09  0.00D+00 EMaxC= 1.00D-01 BMatC= 2.30D-14 BMatP= 2.30D-14
 IDIUse=1 WtCom= 1.00D+00 WtEn= 0.00D+00
 Coeff-Com:  0.100D+01
 Coeff:      0.100D+01
 Gap=     0.226 Goal=   None    Shift=    0.000
 RMSDP=2.07D-09 MaxDP=1.25D-07              OVMax= 8.44D-08

 Error on total polarization charges =  0.01447
 SCF Done:  E(RCAM-B3LYP) =  -633.313869072     A.U. after    1 cycles
            NFock=  1  Conv=0.21D-08     -V/T= 2.0043
 KE= 6.306140371487D+02 PE=-3.272703292896D+03 EE= 1.110389260719D+03
 Leave Link  502 at Fri Jan 23 15:22:34 2026, MaxMem=  2147483648 cpu:             163.6 elap:              10.8
 (Enter /data/home/wyx/g16/l801.exe)
 DoSCS=F DFT=T ScalE2(SS,OS)=  1.000000  1.000000
 ExpMin= 9.52D-02 ExpMax= 2.70D+04 ExpMxC= 9.22D+02 IAcc=3 IRadAn=         5 AccDes= 0.00D+00
 HarFok:  IExCor=  205 AccDes= 0.00D+00 IRadAn=         5 IDoV=-2 UseB2=F ITyADJ=14
 ICtDFT= 12500011 ScaDFX=  1.000000  1.000000  1.000000  1.000000
 Largest valence mixing into a core orbital is  5.63D-05
 Largest core mixing into a valence orbital is  1.21D-05
 Range of M.O.s used for correlation:    15   356
 NBasis=   356 NAE=    52 NBE=    52 NFC=    14 NFV=     0
 NROrb=    342 NOA=    38 NOB=    38 NVA=   304 NVB=   304

 **** Warning!!: The largest alpha MO coefficient is  0.42049941D+02

 Leave Link  801 at Fri Jan 23 15:22:36 2026, MaxMem=  2147483648 cpu:               1.0 elap:               0.1
 (Enter /data/home/wyx/g16/l914.exe)
 RHF ground state
 Two-electron integrals replicated using symmetry.
 MDV=  2147483648 DFT=T DoStab=F Mixed=T DoRPA=T DoScal=F NonHer=T
 NEqPCM:  Using equilibrium solvation (IEInf=0, Eps=   7.4257, EpsInf=   1.9740)
 Making orbital integer symmetry assigments:
 Orbital symmetries:
       Occupied  (A) (A) (A) (A) (A) (A) (A) (A) (A) (A) (A) (A)
                 (A) (A) (A) (A) (A) (A) (A) (A) (A) (A) (A) (A)
                 (A) (A) (A) (A) (A) (A) (A) (A) (A) (A) (A) (A)
                 (A) (A) (A) (A) (A) (A) (A) (A) (A) (A) (A) (A)
                 (A) (A) (A) (A)
       Virtual   (A) (A) (A) (A) (A) (A) (A) (A) (A) (A) (A) (A)
                 (A) (A) (A) (A) (A) (A) (A) (A) (A) (A) (A) (A)
                 (A) (A) (A) (A) (A) (A) (A) (A) (A) (A) (A) (A)
                 (A) (A) (A) (A) (A) (A) (A) (A) (A) (A) (A) (A)
                 (A) (A) (A) (A) (A) (A) (A) (A) (A) (A) (A) (A)
                 (A) (A) (A) (A) (A) (A) (A) (A) (A) (A) (A) (A)
                 (A) (A) (A) (A) (A) (A) (A) (A) (A) (A) (A) (A)
                 (A) (A) (A) (A) (A) (A) (A) (A) (A) (A) (A) (A)
                 (A) (A) (A) (A) (A) (A) (A) (A) (A) (A) (A) (A)
                 (A) (A) (A) (A) (A) (A) (A) (A) (A) (A) (A) (A)
                 (A) (A) (A) (A) (A) (A) (A) (A) (A) (A) (A) (A)
                 (A) (A) (A) (A) (A) (A) (A) (A) (A) (A) (A) (A)
                 (A) (A) (A) (A) (A) (A) (A) (A) (A) (A) (A) (A)
                 (A) (A) (A) (A) (A) (A) (A) (A) (A) (A) (A) (A)
                 (A) (A) (A) (A) (A) (A) (A) (A) (A) (A) (A) (A)
                 (A) (A) (A) (A) (A) (A) (A) (A) (A) (A) (A) (A)
                 (A) (A) (A) (A) (A) (A) (A) (A) (A) (A) (A) (A)
                 (A) (A) (A) (A) (A) (A) (A) (A) (A) (A) (A) (A)
                 (A) (A) (A) (A) (A) (A) (A) (A) (A) (A) (A) (A)
                 (A) (A) (A) (A) (A) (A) (A) (A) (A) (A) (A) (A)
                 (A) (A) (A) (A) (A) (A) (A) (A) (A) (A) (A) (A)
                 (A) (A) (A) (A) (A) (A) (A) (A) (A) (A) (A) (A)
                 (A) (A) (A) (A) (A) (A) (A) (A) (A) (A) (A) (A)
                 (A) (A) (A) (A) (A) (A) (A) (A) (A) (A) (A) (A)
                 (A) (A) (A) (A) (A) (A) (A) (A) (A) (A) (A) (A)
                 (A) (A) (A) (A)
    24 initial guesses have been made.
 Convergence on wavefunction:    0.001000000000000
 Davidson Disk Diagonalization:  ConvIn= 1.00D-03 SkipCon=T Conv= 1.00D-03.
 Max sub-space:  2000 roots to seek:    24 dimension of matrix:        23104
 Iteration     1 Dimension    24 NMult     0 NNew     24
 CISAX will form    24 AO SS matrices at one time.
 NMat=    24 NSing=    24 JSym2X= 0.
 FoFJK:  IHMeth= 1 ICntrl=       0 DoSepK=T KAlg= 0 I1Cent=           0 FoldK=F
 IRaf=         1 NMat=      48 IRICut=       1 DoRegI=T DoRafI=F ISym2E= 0 IDoP0=3 IntGTp=3.
 FoFCou: FMM=F IPFlag=           0 FMFlag=      100000 FMFlg1=           0
         NFxFlg=           0 DoJE=F BraDBF=F KetDBF=F FulRan=T
         wScrn=  0.000000 ICntrl=       500 IOpCl=  0 I1Cent=           0 NGrid=           0
         NMat0=   24 NMatS0=     24 NMatT0=    0 NMatD0=   24 NMtDS0=    0 NMtDT0=    0
 Symmetry not used in FoFCou.
 New state      1 was old state      2
 New state      2 was old state      1
 New state      3 was old state      4
 New state      4 was old state      3
 New state      6 was old state      7
 Excitation Energies [eV] at current iteration:
 Root      1 :     3.569475003755097
 Root      2 :     3.617959637846869
 Root      3 :     4.430495083493987
 Root      4 :     5.426426745846864
 Root      5 :     6.152993400752929
 Root      6 :     6.252176483077514
 Root      7 :     6.521388151118467
 Root      8 :     6.615391911862243
 Root      9 :     6.843103697783957
 Root     10 :     7.065023696239382
 Root     11 :     7.124651594033662
 Root     12 :     7.245170624160726
 Root     13 :     7.483384635779574
 Root     14 :     7.626931359178291
 Root     15 :     7.655897058555535
 Root     16 :     7.674693587926526
 Root     17 :     7.743297916242042
 Root     18 :     8.162524746270893
 Root     19 :     8.243326270488307
 Root     20 :     8.273318084605714
 Root     21 :     8.364915774243897
 Root     22 :     8.509550706683441
 Root     23 :     8.663523982183271
 Root     24 :     8.978624160656898
 Iteration     2 Dimension    36 NMult    24 NNew     12
 CISAX will form    12 AO SS matrices at one time.
 NMat=    12 NSing=    12 JSym2X= 0.
 New state      1 was old state      2
 Root      1 not converged, maximum delta is    0.237675514885431
 New state      2 was old state      1
 Root      2 not converged, maximum delta is    0.238210456577532
 Root      3 not converged, maximum delta is    0.095078613995517
 Root      4 not converged, maximum delta is    0.451148262403179
 Root      5 not converged, maximum delta is    0.430211234811835
 Root      6 not converged, maximum delta is    0.076246438935741
 Excitation Energies [eV] at current iteration:
 Root      1 :     3.180403225115908   Change is   -0.437556412730961
 Root      2 :     3.373051360361214   Change is   -0.196423643393883
 Root      3 :     4.196029390633315   Change is   -0.234465692860672
 Root      4 :     5.028427129841754   Change is   -0.397999616005111
 Root      5 :     5.367878834551082   Change is   -0.785114566201847
 Root      6 :     6.100874093863901   Change is   -0.151302389213613
 Iteration     3 Dimension    48 NMult    36 NNew     12
 CISAX will form    12 AO SS matrices at one time.
 NMat=    12 NSing=    12 JSym2X= 0.
 Root      1 not converged, maximum delta is    0.007512749412121
 Root      2 not converged, maximum delta is    0.012289497749506
 Root      3 not converged, maximum delta is    0.018471161470196
 Root      4 not converged, maximum delta is    0.022183902858930
 Root      5 not converged, maximum delta is    0.021572881620537
 Root      6 not converged, maximum delta is    0.014954166377434
 Excitation Energies [eV] at current iteration:
 Root      1 :     3.165734309822853   Change is   -0.014668915293056
 Root      2 :     3.365236614025298   Change is   -0.007814746335916
 Root      3 :     4.183402338014648   Change is   -0.012627052618667
 Root      4 :     5.003710586394359   Change is   -0.024716543447395
 Root      5 :     5.350887298763406   Change is   -0.016991535787676
 Root      6 :     6.093312548765110   Change is   -0.007561545098792
 Iteration     4 Dimension    60 NMult    48 NNew     12
 CISAX will form    12 AO SS matrices at one time.
 NMat=    12 NSing=    12 JSym2X= 0.
 Root      1 not converged, maximum delta is    0.002253089402057
 Root      2 not converged, maximum delta is    0.001787512672960
 Root      3 not converged, maximum delta is    0.001872405791013
 Root      4 not converged, maximum delta is    0.003440832217315
 Root      5 not converged, maximum delta is    0.003743196781325
 Root      6 not converged, maximum delta is    0.003239600123061
 Excitation Energies [eV] at current iteration:
 Root      1 :     3.164517614084928   Change is   -0.001216695737925
 Root      2 :     3.364868186638958   Change is   -0.000368427386340
 Root      3 :     4.182966393238718   Change is   -0.000435944775931
 Root      4 :     5.000571299308429   Change is   -0.003139287085929
 Root      5 :     5.348432169354020   Change is   -0.002455129409385
 Root      6 :     6.092799737005278   Change is   -0.000512811759831
 Iteration     5 Dimension    72 NMult    60 NNew     12
 CISAX will form    12 AO SS matrices at one time.
 NMat=    12 NSing=    12 JSym2X= 0.
 Root      1 has converged.
 Root      2 has converged.
 Root      3 has converged.
 Root      4 has converged.
 Root      5 not converged, maximum delta is    0.001091891837766
 Root      6 has converged.
 Excitation Energies [eV] at current iteration:
 Root      1 :     3.164459197745764   Change is   -0.000058416339164
 Root      2 :     3.364847118950908   Change is   -0.000021067688050
 Root      3 :     4.182943012187034   Change is   -0.000023381051682
 Root      4 :     5.000389588577058   Change is   -0.000181710731372
 Root      5 :     5.348266412960428   Change is   -0.000165756393592
 Root      6 :     6.092764589938062   Change is   -0.000035147067216
 Iteration     6 Dimension    74 NMult    72 NNew      2
 CISAX will form     2 AO SS matrices at one time.
 NMat=     2 NSing=     2 JSym2X= 0.
 Root      1 has converged.
 Root      2 has converged.
 Root      3 has converged.
 Root      4 has converged.
 Root      5 has converged.
 Root      6 has converged.
 Excitation Energies [eV] at current iteration:
 Root      1 :     3.164458578223955   Change is   -0.000000619521810
 Root      2 :     3.364847086488434   Change is   -0.000000032462474
 Root      3 :     4.182942942137513   Change is   -0.000000070049521
 Root      4 :     5.000380543936338   Change is   -0.000009044640720
 Root      5 :     5.348252102879912   Change is   -0.000014310080517
 Root      6 :     6.092764550910057   Change is   -0.000000039028005
 Convergence achieved on expansion vectors.
 ***********************************************************************
 Excited states from <AA,BB:AA,BB> singles matrix:
 ***********************************************************************
 
 1PDM for each excited state written to RWF  633
 Ground to excited state transition densities written to RWF  633
 Ground to excited state transition electric dipole moments (Au):
       state          X           Y           Z        Dip. S.      Osc.
         1         1.7348     -0.0429      0.0128      3.0115      0.2335
         2         0.1258     -0.0259     -0.0410      0.0182      0.0015
         3        -0.0045      0.0227      0.0368      0.0019      0.0002
         4         0.0030      1.8526      0.0076      3.4321      0.4205
         5         0.3431      1.2062      0.0086      1.5726      0.2061
         6        -0.0236      0.0150      0.0221      0.0013      0.0002
 Ground to excited state transition velocity dipole moments (Au):
       state          X           Y           Z        Dip. S.      Osc.
         1        -0.1970      0.0040     -0.0016      0.0388      0.2226
         2        -0.0157      0.0033      0.0040      0.0003      0.0015
         3         0.0003     -0.0032     -0.0021      0.0000      0.0001
         4        -0.0067     -0.3217     -0.0011      0.1036      0.3757
         5        -0.0630     -0.2348     -0.0019      0.0591      0.2005
         6         0.0049     -0.0031     -0.0246      0.0006      0.0019
 Ground to excited state transition magnetic dipole moments (Au):
       state          X           Y           Z
         1         0.0247     -0.0126      1.4126
         2        -0.7176      0.2735      0.1309
         3        -0.0026      0.9323     -0.0133
         4        -0.0093     -0.0159     -0.5289
         5         0.0023     -0.0196     -0.2820
         6        -0.0511     -0.0043     -0.0182
 Ground to excited state transition velocity quadrupole moments (Au):
       state          XX          YY          ZZ          XY          XZ          YZ
         1         0.4128     -0.1567     -0.0141      0.4906      0.0085      0.0017
         2         0.0346     -0.0016     -0.0018      0.0339     -0.0391     -0.0226
         3        -0.0063      0.0041      0.0021     -0.0095     -0.0787      0.0043
         4         1.4821     -0.3436     -0.0397     -0.2883      0.0178     -0.0103
         5         0.6394     -0.4517     -0.0295      0.0634      0.0264     -0.0103
         6         0.0356      0.0307     -0.0218     -0.0170      0.0154      0.0320
 <0|del|b> * <b|rxdel|0> + <0|del|b> * <b|delr+rdel|0>
 Rotatory Strengths (R) in cgs (10**-40 erg-esu-cm/Gauss)
       state          XX          YY          ZZ    R(velocity)    E-M Angle
         1        -9.2548    -20.1276    -13.8222    -14.4015       91.46
         2         4.7914     34.2787     33.3445     24.1382        9.86
         3        -7.3298      0.0196     -6.2866     -4.5323      145.75
         4        22.5497      0.7625     -1.1945      7.3726       88.07
         5        20.1651      2.0638     -4.3141      5.9716       85.85
         6         1.4623     -0.1002     -0.6922      0.2233       81.12
 1/2[<0|r|b>*<b|rxdel|0> + (<0|rxdel|b>*<b|r|0>)*]
 Rotatory Strengths (R) in cgs (10**-40 erg-esu-cm/Gauss)
       state          XX          YY          ZZ     R(length)
         1       -30.2499     -0.3810    -12.7591    -14.4633
         2        63.8479      5.0011      3.7992     24.2161
         3        -0.0082    -14.9606      0.3469     -4.8740
         4         0.0198     20.7814      2.8492      7.8835
         5        -0.5521     16.7105      1.7247      5.9611
         6        -0.8520      0.0459      0.2849     -0.1737
  1/2[<0|del|b>*<b|r|0> + (<0|r|b>*<b|del|0>)*] (Au)
       state          X           Y           Z        Dip. S.   Osc.(frdel)
         1        -0.3418     -0.0002     -0.0000      0.3420      0.2280
         2        -0.0020     -0.0001     -0.0002      0.0022      0.0015
         3        -0.0000     -0.0001     -0.0001      0.0002      0.0001
         4        -0.0000     -0.5960     -0.0000      0.5960      0.3974
         5        -0.0216     -0.2832     -0.0000      0.3049      0.2032
         6        -0.0001     -0.0000     -0.0005      0.0007      0.0005

 Excitation energies and oscillator strengths:
 
 Excited State   1:      Singlet-A      3.1645 eV  391.80 nm  f=0.2335  <S**2>=0.000
      52 -> 53         0.69914
 This state for optimization and/or second-order correction.
 Total Energy, E(TD-HF/TD-DFT) =  -633.197577359    
 Copying the excited state density for this state as the 1-particle RhoCI density.
 
 Excited State   2:      Singlet-A      3.3648 eV  368.47 nm  f=0.0015  <S**2>=0.000
      51 -> 53         0.63201
      51 -> 54         0.27317
 
 Excited State   3:      Singlet-A      4.1829 eV  296.40 nm  f=0.0002  <S**2>=0.000
      50 -> 53         0.52875
      50 -> 54        -0.42880
      50 -> 58         0.12113
 
 Excited State   4:      Singlet-A      5.0004 eV  247.95 nm  f=0.4205  <S**2>=0.000
      49 -> 53         0.14143
      52 -> 54         0.68562
 
 Excited State   5:      Singlet-A      5.3483 eV  231.82 nm  f=0.2061  <S**2>=0.000
      49 -> 53         0.68293
      52 -> 54        -0.14243
 
 Excited State   6:      Singlet-A      6.0928 eV  203.49 nm  f=0.0002  <S**2>=0.000
      52 -> 55         0.66070
      52 -> 57         0.15077
      52 -> 61        -0.11359
 SavETr:  write IOETrn=   770 NScale= 10 NData=  16 NLR=1 NState=    6 LETran=     118.
 Leave Link  914 at Fri Jan 23 15:24:43 2026, MaxMem=  2147483648 cpu:            2024.3 elap:             126.8
 (Enter /data/home/wyx/g16/l601.exe)
 Copying SCF densities to generalized density rwf, IOpCl= 0 IROHF=0.

 **********************************************************************

            Population analysis using the SCF density.

 **********************************************************************

 Orbital symmetries:
       Occupied  (A) (A) (A) (A) (A) (A) (A) (A) (A) (A) (A) (A)
                 (A) (A) (A) (A) (A) (A) (A) (A) (A) (A) (A) (A)
                 (A) (A) (A) (A) (A) (A) (A) (A) (A) (A) (A) (A)
                 (A) (A) (A) (A) (A) (A) (A) (A) (A) (A) (A) (A)
                 (A) (A) (A) (A)
       Virtual   (A) (A) (A) (A) (A) (A) (A) (A) (A) (A) (A) (A)
                 (A) (A) (A) (A) (A) (A) (A) (A) (A) (A) (A) (A)
                 (A) (A) (A) (A) (A) (A) (A) (A) (A) (A) (A) (A)
                 (A) (A) (A) (A) (A) (A) (A) (A) (A) (A) (A) (A)
                 (A) (A) (A) (A) (A) (A) (A) (A) (A) (A) (A) (A)
                 (A) (A) (A) (A) (A) (A) (A) (A) (A) (A) (A) (A)
                 (A) (A) (A) (A) (A) (A) (A) (A) (A) (A) (A) (A)
                 (A) (A) (A) (A) (A) (A) (A) (A) (A) (A) (A) (A)
                 (A) (A) (A) (A) (A) (A) (A) (A) (A) (A) (A) (A)
                 (A) (A) (A) (A) (A) (A) (A) (A) (A) (A) (A) (A)
                 (A) (A) (A) (A) (A) (A) (A) (A) (A) (A) (A) (A)
                 (A) (A) (A) (A) (A) (A) (A) (A) (A) (A) (A) (A)
                 (A) (A) (A) (A) (A) (A) (A) (A) (A) (A) (A) (A)
                 (A) (A) (A) (A) (A) (A) (A) (A) (A) (A) (A) (A)
                 (A) (A) (A) (A) (A) (A) (A) (A) (A) (A) (A) (A)
                 (A) (A) (A) (A) (A) (A) (A) (A) (A) (A) (A) (A)
                 (A) (A) (A) (A) (A) (A) (A) (A) (A) (A) (A) (A)
                 (A) (A) (A) (A) (A) (A) (A) (A) (A) (A) (A) (A)
                 (A) (A) (A) (A) (A) (A) (A) (A) (A) (A) (A) (A)
                 (A) (A) (A) (A) (A) (A) (A) (A) (A) (A) (A) (A)
                 (A) (A) (A) (A) (A) (A) (A) (A) (A) (A) (A) (A)
                 (A) (A) (A) (A) (A) (A) (A) (A) (A) (A) (A) (A)
                 (A) (A) (A) (A) (A) (A) (A) (A) (A) (A) (A) (A)
                 (A) (A) (A) (A) (A) (A) (A) (A) (A) (A) (A) (A)
                 (A) (A) (A) (A) (A) (A) (A) (A) (A) (A) (A) (A)
                 (A) (A) (A) (A)
 The electronic state is 1-A.
 Alpha  occ. eigenvalues --  -19.17674 -19.16278 -14.44673 -10.33240 -10.33201
 Alpha  occ. eigenvalues --  -10.32669 -10.32541 -10.26141 -10.25352 -10.25216
 Alpha  occ. eigenvalues --  -10.25105 -10.24271 -10.24130 -10.23844  -1.11683
 Alpha  occ. eigenvalues --   -1.08484  -1.07625  -0.91650  -0.90691  -0.83944
 Alpha  occ. eigenvalues --   -0.82568  -0.81546  -0.78830  -0.74468  -0.71796
 Alpha  occ. eigenvalues --   -0.69286  -0.62178  -0.58554  -0.56982  -0.55243
 Alpha  occ. eigenvalues --   -0.54854  -0.54137  -0.52375  -0.51877  -0.50690
 Alpha  occ. eigenvalues --   -0.49505  -0.49336  -0.48996  -0.48518  -0.48154
 Alpha  occ. eigenvalues --   -0.46610  -0.45514  -0.44581  -0.43885  -0.42984
 Alpha  occ. eigenvalues --   -0.42429  -0.41521  -0.40434  -0.32998  -0.32119
 Alpha  occ. eigenvalues --   -0.30429  -0.26294
 Alpha virt. eigenvalues --   -0.03680   0.01897   0.06291   0.08255   0.08509
 Alpha virt. eigenvalues --    0.09933   0.10920   0.11240   0.12690   0.13030
 Alpha virt. eigenvalues --    0.14671   0.15141   0.15336   0.16483   0.17148
 Alpha virt. eigenvalues --    0.17388   0.17619   0.17642   0.18764   0.19526
 Alpha virt. eigenvalues --    0.19934   0.20325   0.22492   0.23152   0.24230
 Alpha virt. eigenvalues --    0.24622   0.25072   0.25432   0.26024   0.26515
 Alpha virt. eigenvalues --    0.27297   0.27542   0.28643   0.29220   0.29794
 Alpha virt. eigenvalues --    0.30770   0.31110   0.33576   0.34217   0.34743
 Alpha virt. eigenvalues --    0.35502   0.36028   0.36652   0.36894   0.37508
 Alpha virt. eigenvalues --    0.40091   0.40888   0.41334   0.42543   0.42821
 Alpha virt. eigenvalues --    0.44385   0.45174   0.45485   0.46293   0.46486
 Alpha virt. eigenvalues --    0.47564   0.47791   0.48108   0.48671   0.48924
 Alpha virt. eigenvalues --    0.49821   0.50250   0.50922   0.51371   0.51771
 Alpha virt. eigenvalues --    0.52013   0.52951   0.53238   0.53633   0.53918
 Alpha virt. eigenvalues --    0.54980   0.55663   0.56080   0.57509   0.57820
 Alpha virt. eigenvalues --    0.58147   0.59032   0.61724   0.62600   0.62970
 Alpha virt. eigenvalues --    0.63627   0.65066   0.65522   0.66579   0.67614
 Alpha virt. eigenvalues --    0.68693   0.69265   0.71115   0.71708   0.71830
 Alpha virt. eigenvalues --    0.73529   0.75919   0.77775   0.78036   0.79514
 Alpha virt. eigenvalues --    0.81396   0.82816   0.85051   0.88772   0.92342
 Alpha virt. eigenvalues --    0.94784   0.95904   1.00634   1.03796   1.19408
 Alpha virt. eigenvalues --    1.20933   1.22398   1.25923   1.29922   1.31073
 Alpha virt. eigenvalues --    1.31766   1.33529   1.34123   1.35277   1.36610
 Alpha virt. eigenvalues --    1.37662   1.38385   1.39277   1.39515   1.39812
 Alpha virt. eigenvalues --    1.40267   1.40764   1.40990   1.41297   1.42097
 Alpha virt. eigenvalues --    1.42360   1.43270   1.44371   1.44865   1.45803
 Alpha virt. eigenvalues --    1.48480   1.49705   1.50492   1.50836   1.51280
 Alpha virt. eigenvalues --    1.51917   1.53117   1.55138   1.57603   1.58107
 Alpha virt. eigenvalues --    1.59076   1.59588   1.59934   1.61358   1.61872
 Alpha virt. eigenvalues --    1.62413   1.62632   1.63804   1.64114   1.64682
 Alpha virt. eigenvalues --    1.64836   1.65829   1.65905   1.66559   1.67684
 Alpha virt. eigenvalues --    1.68142   1.69031   1.69791   1.71627   1.72144
 Alpha virt. eigenvalues --    1.72424   1.74667   1.75518   1.76130   1.80596
 Alpha virt. eigenvalues --    1.81809   1.82863   1.83998   1.84107   1.85685
 Alpha virt. eigenvalues --    1.85969   1.86362   1.89803   1.90250   1.91042
 Alpha virt. eigenvalues --    1.91554   1.92986   1.97073   1.98216   2.01571
 Alpha virt. eigenvalues --    2.02504   2.04897   2.06376   2.08096   2.09735
 Alpha virt. eigenvalues --    2.10285   2.13668   2.14988   2.18572   2.20080
 Alpha virt. eigenvalues --    2.20153   2.23518   2.24951   2.25174   2.26187
 Alpha virt. eigenvalues --    2.27457   2.29274   2.30269   2.31802   2.32935
 Alpha virt. eigenvalues --    2.35047   2.35078   2.36064   2.38331   2.39208
 Alpha virt. eigenvalues --    2.40155   2.42183   2.42983   2.44242   2.46281
 Alpha virt. eigenvalues --    2.47188   2.47953   2.49232   2.50359   2.50655
 Alpha virt. eigenvalues --    2.52772   2.54282   2.55566   2.55986   2.56940
 Alpha virt. eigenvalues --    2.57412   2.58623   2.61652   2.62702   2.63499
 Alpha virt. eigenvalues --    2.64188   2.64598   2.65478   2.65929   2.68017
 Alpha virt. eigenvalues --    2.69025   2.71157   2.73035   2.74488   2.75573
 Alpha virt. eigenvalues --    2.76326   2.77102   2.77281   2.78264   2.79376
 Alpha virt. eigenvalues --    2.80768   2.81570   2.83359   2.84522   2.84546
 Alpha virt. eigenvalues --    2.85874   2.88776   2.89438   2.90778   2.93442
 Alpha virt. eigenvalues --    2.97494   2.99086   2.99414   3.04137   3.08576
 Alpha virt. eigenvalues --    3.11326   3.12601   3.14632   3.18804   3.21031
 Alpha virt. eigenvalues --    3.21608   3.22148   3.25716   3.25976   3.26443
 Alpha virt. eigenvalues --    3.30845   3.31171   3.32986   3.36176   3.38121
 Alpha virt. eigenvalues --    3.38796   3.39531   3.40352   3.40531   3.41169
 Alpha virt. eigenvalues --    3.42074   3.44398   3.45148   3.47032   3.49693
 Alpha virt. eigenvalues --    3.51245   3.54369   3.55378   3.58254   3.60389
 Alpha virt. eigenvalues --    3.64042   3.92736   4.00574   4.29333   4.36758
 Alpha virt. eigenvalues --   21.64922  21.76612  22.05436  22.10262  22.12453
 Alpha virt. eigenvalues --   22.13276  22.16634  22.19983  22.21072  22.27543
 Alpha virt. eigenvalues --   22.31707  31.92799  43.64958  43.67998
          Condensed to atoms (all electrons):
               1          2          3          4          5          6
     1  O    7.925338   0.000000  -0.000214   0.000018   0.017438   0.016927
     2  O    0.000000   8.106722   0.000742   0.000011  -0.183401   0.001855
     3  N   -0.000214   0.000742   6.341599   0.369355  -0.093737   0.387900
     4  H    0.000018   0.000011   0.369355   0.400380   0.011209  -0.039735
     5  C    0.017438  -0.183401  -0.093737   0.011209   7.194240  -0.040125
     6  C    0.016927   0.001855   0.387900  -0.039735  -0.040125   5.552895
     7  C    0.000205  -0.000965   0.347780  -0.044424   0.340618  -0.163936
     8  C   -0.000287   0.597965   0.004310  -0.001342  -0.487791   0.049287
     9  C    0.005176   0.026215   0.022385   0.001207  -0.694320  -0.081429
    10  H    0.006717  -0.000176   0.000684   0.000003  -0.073697   0.000954
    11  H    0.007047  -0.000135  -0.000018   0.000012  -0.096840   0.019596
    12  C   -0.254913  -0.004369  -0.105994   0.019041   0.221786  -0.127800
    13  C    0.745401   0.000005  -0.000894   0.000561   0.063636   0.098251
    14  C   -0.000014  -0.084755  -0.049132   0.002014   0.027207  -0.003095
    15  H    0.000000   0.004147   0.002042  -0.000368  -0.003691   0.003597
    16  H    0.000000   0.041565   0.003428   0.000703   0.013248  -0.000180
    17  H    0.000000   0.002550  -0.001508   0.000276  -0.015615   0.000646
    18  C   -0.000348  -0.084776  -0.000302   0.000012  -0.128197  -0.002461
    19  H    0.000005  -0.000593   0.000010  -0.000001  -0.000934   0.000061
    20  H    0.000977   0.007501   0.000061   0.000001   0.081421  -0.001377
    21  H    0.000004  -0.001606   0.000010  -0.000001  -0.007642   0.000062
    22  C   -0.125361   0.000000   0.000128   0.000115  -0.000101  -0.004616
    23  H    0.003543   0.000000   0.000111  -0.000044  -0.000284  -0.017148
    24  H    0.002722   0.000000   0.000146  -0.000018  -0.000117   0.004886
    25  H    0.010887  -0.000000   0.000015  -0.000003  -0.000038  -0.002078
    26  C    0.000795   0.000011  -0.026896  -0.011940   0.002620   0.224273
    27  H   -0.000084  -0.000000  -0.001059   0.000846   0.000449  -0.037249
    28  H   -0.000025  -0.000000  -0.002685   0.000639   0.000458  -0.041977
    29  H    0.000015   0.000000   0.004503   0.002606  -0.000505  -0.053499
               7          8          9         10         11         12
     1  O    0.000205  -0.000287   0.005176   0.006717   0.007047  -0.254913
     2  O   -0.000965   0.597965   0.026215  -0.000176  -0.000135  -0.004369
     3  N    0.347780   0.004310   0.022385   0.000684  -0.000018  -0.105994
     4  H   -0.044424  -0.001342   0.001207   0.000003   0.000012   0.019041
     5  C    0.340618  -0.487791  -0.694320  -0.073697  -0.096840   0.221786
     6  C   -0.163936   0.049287  -0.081429   0.000954   0.019596  -0.127800
     7  C    5.541870  -0.250323  -0.278447   0.004786   0.007656   0.062153
     8  C   -0.250323   5.761296   0.238022  -0.006057   0.002323  -0.101232
     9  C   -0.278447   0.238022   6.462676   0.472322   0.492696  -0.175776
    10  H    0.004786  -0.006057   0.472322   0.533912  -0.041523  -0.046825
    11  H    0.007656   0.002323   0.492696  -0.041523   0.531005  -0.066296
    12  C    0.062153  -0.101232  -0.175776  -0.046825  -0.066296   7.554730
    13  C    0.028341  -0.010483  -0.197627  -0.007535  -0.006188  -0.508886
    14  C    0.193248  -0.094509   0.019474  -0.000117  -0.000360   0.006180
    15  H   -0.050896   0.007143  -0.000069  -0.000026   0.000073  -0.001316
    16  H   -0.059650  -0.027525   0.002638  -0.000040   0.000015  -0.000414
    17  H   -0.023608   0.006715  -0.001021   0.000094  -0.000016  -0.000234
    18  C    0.027331   0.277155  -0.023650  -0.005297  -0.012051   0.012689
    19  H   -0.001110  -0.023053  -0.001449   0.000313   0.000416  -0.000254
    20  H    0.005825  -0.143396  -0.016688  -0.005396  -0.002430   0.005747
    21  H   -0.000927  -0.018421  -0.001708   0.000460   0.000476  -0.000462
    22  C    0.001383  -0.000052   0.020747   0.001304   0.000169  -0.332094
    23  H   -0.000058   0.000003   0.000261  -0.000155   0.000088   0.041995
    24  H   -0.000030   0.000002  -0.001834   0.000145  -0.000127   0.010795
    25  H    0.000011  -0.000001  -0.000038  -0.000079  -0.000030   0.026673
    26  C    0.005106   0.000915   0.016860  -0.000188  -0.000022  -0.098041
    27  H   -0.001303  -0.000001  -0.000215  -0.000008   0.000009  -0.001126
    28  H   -0.001249  -0.000006  -0.000481  -0.000005   0.000039  -0.013052
    29  H    0.003719   0.000023  -0.000622   0.000026  -0.000005   0.022991
              13         14         15         16         17         18
     1  O    0.745401  -0.000014   0.000000   0.000000   0.000000  -0.000348
     2  O    0.000005  -0.084755   0.004147   0.041565   0.002550  -0.084776
     3  N   -0.000894  -0.049132   0.002042   0.003428  -0.001508  -0.000302
     4  H    0.000561   0.002014  -0.000368   0.000703   0.000276   0.000012
     5  C    0.063636   0.027207  -0.003691   0.013248  -0.015615  -0.128197
     6  C    0.098251  -0.003095   0.003597  -0.000180   0.000646  -0.002461
     7  C    0.028341   0.193248  -0.050896  -0.059650  -0.023608   0.027331
     8  C   -0.010483  -0.094509   0.007143  -0.027525   0.006715   0.277155
     9  C   -0.197627   0.019474  -0.000069   0.002638  -0.001021  -0.023650
    10  H   -0.007535  -0.000117  -0.000026  -0.000040   0.000094  -0.005297
    11  H   -0.006188  -0.000360   0.000073   0.000015  -0.000016  -0.012051
    12  C   -0.508886   0.006180  -0.001316  -0.000414  -0.000234   0.012689
    13  C    5.517808  -0.000045  -0.000030   0.000006  -0.000022   0.000845
    14  C   -0.000045   5.309984   0.390043   0.413409   0.393515  -0.004285
    15  H   -0.000030   0.390043   0.552802  -0.016912  -0.032185   0.000142
    16  H    0.000006   0.413409  -0.016912   0.437878  -0.013530   0.001589
    17  H   -0.000022   0.393515  -0.032185  -0.013530   0.520191   0.000099
    18  C    0.000845  -0.004285   0.000142   0.001589   0.000099   5.167516
    19  H   -0.000018   0.000008   0.000006   0.000009  -0.000009   0.405394
    20  H    0.002303   0.000545  -0.000016  -0.000198  -0.000012   0.411995
    21  H   -0.000029  -0.000115  -0.000007   0.000009   0.000016   0.406768
    22  C    0.336400   0.000023  -0.000001   0.000000  -0.000000   0.000013
    23  H   -0.065660   0.000001   0.000000  -0.000000  -0.000000  -0.000000
    24  H   -0.044197   0.000001  -0.000000  -0.000000   0.000000  -0.000000
    25  H   -0.047626   0.000000  -0.000000  -0.000000   0.000000   0.000000
    26  C   -0.045832  -0.000914   0.000073   0.000018  -0.000134  -0.000023
    27  H   -0.005107  -0.000026   0.000010   0.000000  -0.000005  -0.000000
    28  H    0.004378  -0.000034  -0.000016  -0.000001   0.000009  -0.000000
    29  H   -0.000375   0.000654   0.000030  -0.000001  -0.000009   0.000001
              19         20         21         22         23         24
     1  O    0.000005   0.000977   0.000004  -0.125361   0.003543   0.002722
     2  O   -0.000593   0.007501  -0.001606   0.000000   0.000000   0.000000
     3  N    0.000010   0.000061   0.000010   0.000128   0.000111   0.000146
     4  H   -0.000001   0.000001  -0.000001   0.000115  -0.000044  -0.000018
     5  C   -0.000934   0.081421  -0.007642  -0.000101  -0.000284  -0.000117
     6  C    0.000061  -0.001377   0.000062  -0.004616  -0.017148   0.004886
     7  C   -0.001110   0.005825  -0.000927   0.001383  -0.000058  -0.000030
     8  C   -0.023053  -0.143396  -0.018421  -0.000052   0.000003   0.000002
     9  C   -0.001449  -0.016688  -0.001708   0.020747   0.000261  -0.001834
    10  H    0.000313  -0.005396   0.000460   0.001304  -0.000155   0.000145
    11  H    0.000416  -0.002430   0.000476   0.000169   0.000088  -0.000127
    12  C   -0.000254   0.005747  -0.000462  -0.332094   0.041995   0.010795
    13  C   -0.000018   0.002303  -0.000029   0.336400  -0.065660  -0.044197
    14  C    0.000008   0.000545  -0.000115   0.000023   0.000001   0.000001
    15  H    0.000006  -0.000016  -0.000007  -0.000001   0.000000  -0.000000
    16  H    0.000009  -0.000198   0.000009   0.000000  -0.000000  -0.000000
    17  H   -0.000009  -0.000012   0.000016  -0.000000  -0.000000   0.000000
    18  C    0.405394   0.411995   0.406768   0.000013  -0.000000  -0.000000
    19  H    0.501147  -0.024148  -0.018171  -0.000000   0.000000  -0.000000
    20  H   -0.024148   0.548373  -0.022321   0.000064  -0.000001  -0.000002
    21  H   -0.018171  -0.022321   0.498357  -0.000000   0.000000   0.000000
    22  C   -0.000000   0.000064  -0.000000   5.451334   0.381617   0.402016
    23  H    0.000000  -0.000001   0.000000   0.381617   0.552754  -0.032972
    24  H   -0.000000  -0.000002   0.000000   0.402016  -0.032972   0.513410
    25  H    0.000000  -0.000000  -0.000000   0.382286  -0.018386  -0.008855
    26  C    0.000000  -0.000017   0.000000  -0.043991   0.016658  -0.012955
    27  H    0.000000   0.000000  -0.000000   0.006756  -0.005703  -0.000462
    28  H   -0.000000   0.000000   0.000000  -0.011281  -0.002223   0.001204
    29  H   -0.000000  -0.000000   0.000000   0.001979   0.000580   0.000158
              25         26         27         28         29
     1  O    0.010887   0.000795  -0.000084  -0.000025   0.000015
     2  O   -0.000000   0.000011  -0.000000  -0.000000   0.000000
     3  N    0.000015  -0.026896  -0.001059  -0.002685   0.004503
     4  H   -0.000003  -0.011940   0.000846   0.000639   0.002606
     5  C   -0.000038   0.002620   0.000449   0.000458  -0.000505
     6  C   -0.002078   0.224273  -0.037249  -0.041977  -0.053499
     7  C    0.000011   0.005106  -0.001303  -0.001249   0.003719
     8  C   -0.000001   0.000915  -0.000001  -0.000006   0.000023
     9  C   -0.000038   0.016860  -0.000215  -0.000481  -0.000622
    10  H   -0.000079  -0.000188  -0.000008  -0.000005   0.000026
    11  H   -0.000030  -0.000022   0.000009   0.000039  -0.000005
    12  C    0.026673  -0.098041  -0.001126  -0.013052   0.022991
    13  C   -0.047626  -0.045832  -0.005107   0.004378  -0.000375
    14  C    0.000000  -0.000914  -0.000026  -0.000034   0.000654
    15  H   -0.000000   0.000073   0.000010  -0.000016   0.000030
    16  H   -0.000000   0.000018   0.000000  -0.000001  -0.000001
    17  H    0.000000  -0.000134  -0.000005   0.000009  -0.000009
    18  C    0.000000  -0.000023  -0.000000  -0.000000   0.000001
    19  H    0.000000   0.000000   0.000000  -0.000000  -0.000000
    20  H   -0.000000  -0.000017   0.000000   0.000000  -0.000000
    21  H   -0.000000   0.000000  -0.000000   0.000000   0.000000
    22  C    0.382286  -0.043991   0.006756  -0.011281   0.001979
    23  H   -0.018386   0.016658  -0.005703  -0.002223   0.000580
    24  H   -0.008855  -0.012955  -0.000462   0.001204   0.000158
    25  H    0.494481   0.002008   0.000428   0.000085  -0.000036
    26  C    0.002008   5.216707   0.415567   0.438794   0.386057
    27  H    0.000428   0.415567   0.511758  -0.031385  -0.022028
    28  H    0.000085   0.438794  -0.031385   0.484146  -0.016240
    29  H   -0.000036   0.386057  -0.022028  -0.016240   0.522268
 Mulliken charges:
               1
     1  O   -0.361973
     2  O   -0.428512
     3  N   -0.202770
     4  H    0.288866
     5  C   -0.147300
     6  C    0.255511
     7  C    0.306893
     8  C    0.219319
     9  C   -0.305305
    10  H    0.165404
    11  H    0.164423
    12  C   -0.145694
    13  C    0.142619
    14  C   -0.518905
    15  H    0.145425
    16  H    0.203936
    17  H    0.163799
    18  C   -0.450157
    19  H    0.162370
    20  H    0.151189
    21  H    0.165247
    22  C   -0.468836
    23  H    0.145024
    24  H    0.166083
    25  H    0.160295
    26  C   -0.485511
    27  H    0.169939
    28  H    0.190909
    29  H    0.147711
 Sum of Mulliken charges =  -0.00000
 Mulliken charges with hydrogens summed into heavy atoms:
               1
     1  O   -0.361973
     2  O   -0.428512
     3  N    0.086096
     5  C   -0.147300
     6  C    0.255511
     7  C    0.306893
     8  C    0.219319
     9  C    0.024522
    12  C   -0.145694
    13  C    0.142619
    14  C   -0.005745
    18  C    0.028649
    22  C    0.002567
    26  C    0.023048
 Electronic spatial extent (au):  <R**2>=           3234.7059
 Charge=              0.0000 electrons
 Dipole moment (field-independent basis, Debye):
    X=              4.4842    Y=              7.2701    Z=             -0.0073  Tot=              8.5418
 Quadrupole moment (field-independent basis, Debye-Ang):
   XX=            -99.7282   YY=            -78.8799   ZZ=            -84.2484
   XY=             13.4109   XZ=             -0.5391   YZ=              0.4033
 Traceless Quadrupole moment (field-independent basis, Debye-Ang):
   XX=            -12.1094   YY=              8.7389   ZZ=              3.3705
   XY=             13.4109   XZ=             -0.5391   YZ=              0.4033
 Octapole moment (field-independent basis, Debye-Ang**2):
  XXX=            120.7979  YYY=             63.9532  ZZZ=              0.4422  XYY=            -36.5514
  XXY=             25.9658  XXZ=              0.4342  XZZ=              0.2621  YZZ=             -1.3637
  YYZ=             -0.6574  XYZ=              0.5842
 Hexadecapole moment (field-independent basis, Debye-Ang**3):
 XXXX=          -3190.3491 YYYY=          -1289.9663 ZZZZ=           -123.3200 XXXY=             48.4259
 XXXZ=             -0.9943 YYYX=             91.7580 YYYZ=              3.7129 ZZZX=             -0.9710
 ZZZY=             -0.7042 XXYY=           -691.3439 XXZZ=           -483.1365 YYZZ=           -235.3267
 XXYZ=              2.9198 YYXZ=             -3.2037 ZZXY=              3.9875
 N-N= 8.983861259561D+02 E-N=-3.272703293124D+03  KE= 6.306140371487D+02
 Leave Link  601 at Fri Jan 23 15:24:44 2026, MaxMem=  2147483648 cpu:               0.7 elap:               0.1
 (Enter /data/home/wyx/g16/l9999.exe)
 Electronic transition elements 
                 1             2             3             4             5 
      1  -0.633198D+03 -0.633190D+03 -0.633160D+03 -0.633130D+03 -0.633117D+03
      2   0.161985D+01  0.131538D+00 -0.174852D-01 -0.641488D+00 -0.102213D+00
      3   0.568372D+00  0.199728D-01  0.196138D-01  0.173588D+01  0.124985D+01
      4   0.254051D+00 -0.219389D-01  0.346257D-01 -0.854232D-01 -0.491702D-02
      5  -0.183662D+00 -0.162368D-01  0.169013D-02  0.105632D+00  0.234824D-01
      6  -0.653368D-01 -0.244481D-02 -0.289065D-02 -0.303635D+00 -0.241994D+00
      7  -0.289135D-01  0.160344D-02 -0.186971D-02  0.142015D-01  0.132281D-02
      8  -0.180223D+00 -0.778850D+00 -0.324068D+00  0.745706D-01  0.503098D-01
      9  -0.479321D-02  0.422430D-02  0.872150D+00 -0.174781D-01 -0.172110D-01
     10   0.140136D+01  0.167354D-01 -0.605296D-01 -0.523654D+00 -0.277603D+00
     11   0.172381D-01  0.160357D-01  0.230941D-01  0.140872D+01  0.444424D+00
     12   0.235683D+00  0.251483D-01 -0.336682D-02 -0.308303D+00 -0.275786D+00
     13  -0.110273D-01 -0.996211D-02 -0.198420D-01 -0.165600D-02 -0.104501D-01
     14   0.550182D+00  0.421764D-01 -0.694258D-02  0.378809D+00  0.401887D+00
     15   0.127255D-01 -0.259655D-01 -0.720805D-01  0.235726D+00  0.991991D-01
     16   0.865751D-01 -0.289085D-01 -0.248241D-01  0.524396D-01  0.589314D-01
                 6 
      1  -0.633090D+03
      2  -0.302903D-01
      3   0.579276D-02
      4   0.178690D-01
      5   0.918519D-02
      6  -0.117174D-02
      7  -0.234631D-01
      8  -0.431934D-01
      9  -0.219569D-01
     10  -0.248529D-01
     11   0.437905D-01
     12   0.200148D-01
     13  -0.193206D-01
     14  -0.162624D-01
     15   0.129338D-01
     16   0.333540D-01
 1\1\GINC-CN013\SP\RCAM-B3LYP TD-FC\TZVP\C11H15N1O2\WYX\23-Jan-2026\0\\
 #p CAM-B3LYP TZVP em=gd3bj td(Eqsolv,nstates=6,root=1) scrf=(Solvent=T
 etraHydroFuran) Geom=Check Guess=Read\\Title Card Required\\0,1\O,0,2.
 795308,-1.565315,0.463013\O,0,-3.424701,-1.654191,-0.534626\N,0,-0.659
 517,1.524773,-0.074715\H,0,-0.979176,2.478028,-0.114855\C,0,-1.240182,
 -0.773853,-0.176353\C,0,0.670305,1.314751,0.122953\C,0,-1.620178,0.536
 803,-0.23592\C,0,-2.160037,-1.829739,-0.331926\C,0,0.204387,-1.136947,
 0.071119\H,0,0.285831,-1.736138,0.982334\H,0,0.568149,-1.781461,-0.732
 65\C,0,1.143487,0.041391,0.185375\C,0,2.524526,-0.367001,0.378304\C,0,
 -2.988745,1.073889,-0.451395\H,0,-2.999897,1.813288,-1.257431\H,0,-3.7
 02706,0.297015,-0.72219\H,0,-3.374115,1.5555,0.452092\C,0,-1.816725,-3
 .29121,-0.279572\H,0,-2.129137,-3.827268,-1.178606\H,0,-0.747333,-3.44
 3423,-0.161436\H,0,-2.308885,-3.774663,0.568561\C,0,3.672173,0.608547,
 0.46949\H,0,3.703898,1.302937,-0.367246\H,0,3.632631,1.194142,1.387788
 \H,0,4.586884,0.020836,0.475404\C,0,1.443181,2.593015,0.242867\H,0,2.0
 52124,2.624459,1.141545\H,0,2.097674,2.753037,-0.612571\H,0,0.770776,3
 .4488,0.290648\\Version=ES64L-G16RevA.03\State=1-A\HF=-633.3138691\RMS
 D=2.075e-09\PG=C01 [X(C11H15N1O2)]\\@


 TO BEHOLD HARMS OF OUR OWN HANDS DOING,
 WHERE NONE BESIDE US WROUGHT,
 CAUSES SHARP RUING...

                                         SOPHOCLES
 Job cpu time:       0 days  0 hours 36 minutes 39.3 seconds.
 Elapsed time:       0 days  0 hours  2 minutes 18.6 seconds.
 File lengths (MBytes):  RWF=    735 Int=      0 D2E=      0 Chk=     67 Scr=      1
 Normal termination of Gaussian 16 at Fri Jan 23 15:24:46 2026.
