 Entering Gaussian System, Link 0=g16
 Input=DDL-S1-cLR-10.gjf
 Output=DDL-S1-cLR-10.log
 Initial command:
 /data/home/wyx/g16/l1.exe "/scr/tmp/wyx/13109/Gau-1696534.inp" -scrdir="/scr/tmp/wyx/13109/"
 Entering Link 1 = /data/home/wyx/g16/l1.exe PID=   1696535.
  
 Copyright (c) 1988,1990,1992,1993,1995,1998,2003,2009,2016,
            Gaussian, Inc.  All Rights Reserved.
  
 This is part of the Gaussian(R) 16 program.  It is based on
 the Gaussian(R) 09 system (copyright 2009, Gaussian, Inc.),
 the Gaussian(R) 03 system (copyright 2003, Gaussian, Inc.),
 the Gaussian(R) 98 system (copyright 1998, Gaussian, Inc.),
 the Gaussian(R) 94 system (copyright 1995, Gaussian, Inc.),
 the Gaussian 92(TM) system (copyright 1992, Gaussian, Inc.),
 the Gaussian 90(TM) system (copyright 1990, Gaussian, Inc.),
 the Gaussian 88(TM) system (copyright 1988, Gaussian, Inc.),
 the Gaussian 86(TM) system (copyright 1986, Carnegie Mellon
 University), and the Gaussian 82(TM) system (copyright 1983,
 Carnegie Mellon University). Gaussian is a federally registered
 trademark of Gaussian, Inc.
  
 This software contains proprietary and confidential information,
 including trade secrets, belonging to Gaussian, Inc.
  
 This software is provided under written license and may be
 used, copied, transmitted, or stored only in accord with that
 written license.
  
 The following legend is applicable only to US Government
 contracts under FAR:
  
                    RESTRICTED RIGHTS LEGEND
  
 Use, reproduction and disclosure by the US Government is
 subject to restrictions as set forth in subparagraphs (a)
 and (c) of the Commercial Computer Software - Restricted
 Rights clause in FAR 52.227-19.
  
 Gaussian, Inc.
 340 Quinnipiac St., Bldg. 40, Wallingford CT 06492
  
  
 ---------------------------------------------------------------
 Warning -- This program may not be used in any manner that
 competes with the business of Gaussian, Inc. or will provide
 assistance to any competitor of Gaussian, Inc.  The licensee
 of this program is prohibited from giving any competitor of
 Gaussian, Inc. access to this program.  By using this program,
 the user acknowledges that Gaussian, Inc. is engaged in the
 business of creating and licensing software in the field of
 computational chemistry and represents and warrants to the
 licensee that it is not a competitor of Gaussian, Inc. and that
 it will not use this program in any manner prohibited above.
 ---------------------------------------------------------------
  

 Cite this work as:
 Gaussian 16, Revision A.03,
 M. J. Frisch, G. W. Trucks, H. B. Schlegel, G. E. Scuseria, 
 M. A. Robb, J. R. Cheeseman, G. Scalmani, V. Barone, 
 G. A. Petersson, H. Nakatsuji, X. Li, M. Caricato, A. V. Marenich, 
 J. Bloino, B. G. Janesko, R. Gomperts, B. Mennucci, H. P. Hratchian, 
 J. V. Ortiz, A. F. Izmaylov, J. L. Sonnenberg, D. Williams-Young, 
 F. Ding, F. Lipparini, F. Egidi, J. Goings, B. Peng, A. Petrone, 
 T. Henderson, D. Ranasinghe, V. G. Zakrzewski, J. Gao, N. Rega, 
 G. Zheng, W. Liang, M. Hada, M. Ehara, K. Toyota, R. Fukuda, 
 J. Hasegawa, M. Ishida, T. Nakajima, Y. Honda, O. Kitao, H. Nakai, 
 T. Vreven, K. Throssell, J. A. Montgomery, Jr., J. E. Peralta, 
 F. Ogliaro, M. J. Bearpark, J. J. Heyd, E. N. Brothers, K. N. Kudin, 
 V. N. Staroverov, T. A. Keith, R. Kobayashi, J. Normand, 
 K. Raghavachari, A. P. Rendell, J. C. Burant, S. S. Iyengar, 
 J. Tomasi, M. Cossi, J. M. Millam, M. Klene, C. Adamo, R. Cammi, 
 J. W. Ochterski, R. L. Martin, K. Morokuma, O. Farkas, 
 J. B. Foresman, and D. J. Fox, Gaussian, Inc., Wallingford CT, 2016.
 
 ******************************************
 Gaussian 16:  ES64L-G16RevA.03 25-Dec-2016
                23-Jan-2026 
 ******************************************
 %nprocshared=16
 Will use up to   16 processors via shared memory.
 %mem=16GB
 %oldchk=DDL-LR-10.chk
 %chk=DDL-S1-cLR-10.chk
 Copying data from "DDL-LR-10.chk" to current chk file "DDL-S1-cLR-10.chk"
 IOpt=  2 FromEx=T IUOpen= 4 IOptOp= 5 NList=   0 IFRang= 0 IUIn= 4 IUOut= 2.
 ----------------------------------------------------------------------
 #p CAM-B3LYP TZVP em=gd3bj td(nstates=6,root=1) scrf=(Solvent=TetraHyd
 roFuran,CorrectedLR,NonEquilibrium=Save) Geom=Check Guess=Read
 ----------------------------------------------------------------------
 1/29=2,30=1,38=1,172=1/1;
 2/12=2,40=1/2;
 3/5=19,7=101,11=9,14=-4,25=1,30=1,70=9002201,71=1,72=20,74=-40,116=-2,124=41/1,2,3,8;
 4/5=1/1;
 5/5=2,38=6,53=20/2;
 8/6=1,10=1,107=1,108=6/1;
 9/8=1,15=1,41=6,42=1,70=2,73=22/14;
 10/5=4,13=10,28=1,74=20/2;
 6/7=2,8=2,9=2,10=2,22=-1/1;
 99/5=1,9=1/99;
 Leave Link    1 at Fri Jan 23 20:20:01 2026, MaxMem=  2147483648 cpu:               0.8 elap:               0.1
 (Enter /data/home/wyx/g16/l101.exe)
 -------------------
 Title Card Required
 -------------------
 Structure from the checkpoint file:  "DDL-S1-cLR-10.chk"
 Charge =  0 Multiplicity = 1
 Z-Matrix found in chk file.
 O,0,2.812196,-1.577469,0.289801
 O,0,-3.447231,-1.638882,-0.163557
 N,0,-0.641454,1.519284,-0.253884
 H,0,-0.955101,2.474361,-0.297176
 C,0,-1.241723,-0.759305,-0.204004
 C,0,0.688402,1.304486,-0.013089
 C,0,-1.614106,0.541001,-0.27221
 C,0,-2.208707,-1.822224,-0.195632
 C,0,0.219247,-1.125259,-0.185402
 H,0,0.402316,-1.878405,0.581023
 H,0,0.503341,-1.591889,-1.135191
 C,0,1.147307,0.035446,0.068621
 C,0,2.513569,-0.386828,0.34729
 C,0,-2.998553,1.077381,-0.357905
 H,0,-3.017807,2.02342,-0.903448
 H,0,-3.687904,0.406098,-0.863943
 H,0,-3.412968,1.251371,0.636857
 C,0,-1.781276,-3.25898,-0.236183
 H,0,-2.510353,-3.926355,-0.696101
 H,0,-0.84727,-3.419096,-0.775117
 H,0,-1.609131,-3.640533,0.775061
 C,0,3.601359,0.578249,0.737044
 H,0,3.913986,1.200585,-0.100899
 H,0,3.322936,1.238162,1.555697
 H,0,4.450352,-0.028198,1.043941
 C,0,1.451715,2.58187,0.127238
 H,0,1.734458,2.77701,1.160968
 H,0,2.35317,2.605363,-0.4773
 H,0,0.85923,3.439335,-0.192501
 Recover connectivity data from disk.
 ITRead=  0  0  0  0  0  0  0  0  0  0  0  0  0  0  0  0  0  0  0  0
 ITRead=  0  0  0  0  0  0  0  0  0
 MicOpt= -1 -1 -1 -1 -1 -1 -1 -1 -1 -1 -1 -1 -1 -1 -1 -1 -1 -1 -1 -1
 MicOpt= -1 -1 -1 -1 -1 -1 -1 -1 -1
 NAtoms=     29 NQM=       29 NQMF=       0 NMMI=      0 NMMIF=      0
                NMic=       0 NMicF=      0.
                    Isotopes and Nuclear Properties:
 (Nuclear quadrupole moments (NQMom) in fm**2, nuclear magnetic moments (NMagM)
  in nuclear magnetons)

  Atom         1           2           3           4           5           6           7           8           9          10
 IAtWgt=          16          16          14           1          12          12          12          12          12           1
 AtmWgt=  15.9949146  15.9949146  14.0030740   1.0078250  12.0000000  12.0000000  12.0000000  12.0000000  12.0000000   1.0078250
 NucSpn=           0           0           2           1           0           0           0           0           0           1
 AtZEff=   5.6000000   5.6000000   4.5500000   1.0000000   3.6000000   3.6000000   3.6000000   3.6000000   3.6000000   1.0000000
 NQMom=    0.0000000   0.0000000   2.0440000   0.0000000   0.0000000   0.0000000   0.0000000   0.0000000   0.0000000   0.0000000
 NMagM=    0.0000000   0.0000000   0.4037610   2.7928460   0.0000000   0.0000000   0.0000000   0.0000000   0.0000000   2.7928460
 AtZNuc=   8.0000000   8.0000000   7.0000000   1.0000000   6.0000000   6.0000000   6.0000000   6.0000000   6.0000000   1.0000000

  Atom        11          12          13          14          15          16          17          18          19          20
 IAtWgt=           1          12          12          12           1           1           1          12           1           1
 AtmWgt=   1.0078250  12.0000000  12.0000000  12.0000000   1.0078250   1.0078250   1.0078250  12.0000000   1.0078250   1.0078250
 NucSpn=           1           0           0           0           1           1           1           0           1           1
 AtZEff=   1.0000000   3.6000000   3.6000000   3.6000000   1.0000000   1.0000000   1.0000000   3.6000000   1.0000000   1.0000000
 NQMom=    0.0000000   0.0000000   0.0000000   0.0000000   0.0000000   0.0000000   0.0000000   0.0000000   0.0000000   0.0000000
 NMagM=    2.7928460   0.0000000   0.0000000   0.0000000   2.7928460   2.7928460   2.7928460   0.0000000   2.7928460   2.7928460
 AtZNuc=   1.0000000   6.0000000   6.0000000   6.0000000   1.0000000   1.0000000   1.0000000   6.0000000   1.0000000   1.0000000

  Atom        21          22          23          24          25          26          27          28          29
 IAtWgt=           1          12           1           1           1          12           1           1           1
 AtmWgt=   1.0078250  12.0000000   1.0078250   1.0078250   1.0078250  12.0000000   1.0078250   1.0078250   1.0078250
 NucSpn=           1           0           1           1           1           0           1           1           1
 AtZEff=   1.0000000   3.6000000   1.0000000   1.0000000   1.0000000   3.6000000   1.0000000   1.0000000   1.0000000
 NQMom=    0.0000000   0.0000000   0.0000000   0.0000000   0.0000000   0.0000000   0.0000000   0.0000000   0.0000000
 NMagM=    2.7928460   0.0000000   2.7928460   2.7928460   2.7928460   0.0000000   2.7928460   2.7928460   2.7928460
 AtZNuc=   1.0000000   6.0000000   1.0000000   1.0000000   1.0000000   6.0000000   1.0000000   1.0000000   1.0000000
 Leave Link  101 at Fri Jan 23 20:20:03 2026, MaxMem=  2147483648 cpu:               0.9 elap:               0.1
 (Enter /data/home/wyx/g16/l202.exe)
                          Input orientation:                          
 ---------------------------------------------------------------------
 Center     Atomic      Atomic             Coordinates (Angstroms)
 Number     Number       Type             X           Y           Z
 ---------------------------------------------------------------------
      1          8           0        2.812196   -1.577469    0.289801
      2          8           0       -3.447231   -1.638882   -0.163557
      3          7           0       -0.641454    1.519284   -0.253884
      4          1           0       -0.955101    2.474361   -0.297176
      5          6           0       -1.241723   -0.759305   -0.204004
      6          6           0        0.688402    1.304486   -0.013089
      7          6           0       -1.614106    0.541001   -0.272210
      8          6           0       -2.208707   -1.822224   -0.195632
      9          6           0        0.219247   -1.125259   -0.185402
     10          1           0        0.402316   -1.878405    0.581023
     11          1           0        0.503341   -1.591889   -1.135191
     12          6           0        1.147307    0.035446    0.068621
     13          6           0        2.513569   -0.386828    0.347290
     14          6           0       -2.998553    1.077381   -0.357905
     15          1           0       -3.017807    2.023420   -0.903448
     16          1           0       -3.687904    0.406098   -0.863943
     17          1           0       -3.412968    1.251371    0.636857
     18          6           0       -1.781276   -3.258980   -0.236183
     19          1           0       -2.510353   -3.926355   -0.696101
     20          1           0       -0.847270   -3.419096   -0.775117
     21          1           0       -1.609131   -3.640533    0.775061
     22          6           0        3.601359    0.578249    0.737044
     23          1           0        3.913986    1.200585   -0.100899
     24          1           0        3.322936    1.238162    1.555697
     25          1           0        4.450352   -0.028198    1.043941
     26          6           0        1.451715    2.581870    0.127238
     27          1           0        1.734458    2.777010    1.160968
     28          1           0        2.353170    2.605363   -0.477300
     29          1           0        0.859230    3.439335   -0.192501
 ---------------------------------------------------------------------
                    Distance matrix (angstroms):
                    1          2          3          4          5
     1  O    0.000000
     2  O    6.276124   0.000000
     3  N    4.670457   4.225465   0.000000
     4  H    5.563667   4.811168   1.006191   0.000000
     5  C    4.165032   2.374775   2.356858   3.247681   0.000000
     6  C    3.592758   5.078338   1.368443   2.037257   2.832148
     7  C    4.939223   2.850271   1.379647   2.042741   1.354296
     8  C    5.050249   1.252432   3.691253   4.476883   1.436985
     9  C    2.674639   3.702343   2.781924   3.787988   1.506221
    10  H    2.445996   3.928204   3.651139   4.643316   2.138110
    11  H    2.713231   4.068575   3.430256   4.400422   2.146055
    12  C    2.328577   4.895616   2.346370   3.240715   2.532473
    13  C    1.228865   6.112261   3.734815   4.542401   3.813775
    14  C    6.421258   2.759922   2.400420   2.476073   2.546282
    15  H    6.955514   3.760891   2.514585   2.196741   3.374501
    16  H    6.893255   2.174950   3.300335   3.473780   2.788814
    17  H    6.846565   2.999233   2.923437   2.899868   3.076389
    18  C    4.919769   2.324951   4.912363   5.792882   2.557446
    19  H    5.900745   2.528612   5.774368   6.599024   3.446997
    20  H    4.232887   3.209823   4.970075   5.913788   2.748864
    21  H    4.903044   2.875104   5.349658   6.242546   3.065132
    22  C    2.338787   7.443747   4.457460   5.042438   5.111758
    23  H    3.013996   7.890121   4.569136   5.036769   5.516623
    24  H    3.129077   7.554362   4.366921   4.823166   5.284178
    25  H    2.377503   8.150103   5.477731   6.105761   5.872955
    26  C    4.379205   6.472942   2.378171   2.446313   4.304391
    27  H    4.569676   6.935731   3.037867   3.074330   4.819370
    28  H    4.277293   7.194213   3.193314   3.315760   4.931423
    29  H    5.405091   6.658433   2.437707   2.057651   4.694967
                    6          7          8          9         10
     6  C    0.000000
     7  C    2.439589   0.000000
     8  C    4.266483   2.438083   0.000000
     9  C    2.480617   2.478940   2.526030   0.000000
    10  H    3.250478   3.263049   2.724663   1.090023   0.000000
    11  H    3.111647   3.126905   2.879415   1.095697   1.742896
    12  C    1.351937   2.827924   3.844944   1.507667   2.116694
    13  C    2.514289   4.275786   4.965382   2.468391   2.595539
    14  C    3.710002   1.487192   3.009634   3.903283   4.602626
    15  H    3.878865   2.136915   3.993072   4.572558   5.396771
    16  H    4.547868   2.160783   2.756825   4.251035   4.902732
    17  H    4.152889   2.137038   3.404448   4.417858   4.935079
    18  C    5.193679   3.803827   1.499536   2.925310   2.709592
    19  H    6.169298   4.576048   2.183764   3.944321   3.782696
    20  H    5.025057   4.064889   2.176996   2.597482   2.402979
    21  H    5.509360   4.310688   2.146622   3.254544   2.681169
    22  C    3.094420   5.312349   6.355236   3.897631   4.036504
    23  H    3.228451   5.569937   6.828889   4.366668   4.719854
    24  H    3.066962   5.310524   6.559893   4.272010   4.380982
    25  H    4.128635   6.231685   7.007006   4.540603   4.474836
    26  C    1.494673   3.704587   5.735763   3.919123   4.604477
    27  H    2.154291   4.273946   6.208210   4.397304   4.876867
    28  H    2.163152   4.476933   6.363457   4.307711   5.003005
    29  H    2.149175   3.811048   6.090669   4.609246   5.393095
                   11         12         13         14         15
    11  H    0.000000
    12  C    2.124164   0.000000
    13  C    2.773254   1.456930   0.000000
    14  C    4.471290   4.296011   5.746712   0.000000
    15  H    5.051994   4.716475   6.161961   1.092235   0.000000
    16  H    4.651028   4.938251   6.368209   1.087152   1.751091
    17  H    5.153810   4.753680   6.155598   1.091588   1.767697
    18  C    2.967639   4.418455   5.199557   4.505619   5.466077
    19  H    3.837302   5.446021   6.233515   5.038858   5.974975
    20  H    2.300541   4.077265   4.663656   5.002039   5.860775
    21  H    3.508353   4.648637   5.269368   5.047060   6.073065
    22  C    4.220483   2.600730   1.505513   6.708717   6.970875
    23  H    4.527711   3.006792   2.163775   6.918412   7.026443
    24  H    4.816657   2.896771   2.180806   6.606735   6.846097
    25  H    4.772069   3.444620   2.089274   7.659874   7.985916
    26  C    4.462444   2.565224   3.160558   4.722683   4.620693
    27  H    5.086774   3.009010   3.358416   5.253295   5.235813
    28  H    4.633747   2.890780   3.107874   5.566859   5.419193
    29  H    5.131134   3.426023   4.203301   4.526442   4.188279
                   16         17         18         19         20
    16  H    0.000000
    17  H    1.744270   0.000000
    18  C    4.178769   4.875232   0.000000
    19  H    4.492766   5.422208   1.090168   0.000000
    20  H    4.765417   5.512689   1.090162   1.740517   0.000000
    21  H    4.835582   5.215712   1.094455   1.748775   1.741413
    22  C    7.464995   7.047263   6.681636   7.726473   6.168930
    23  H    7.681287   7.364178   7.234779   8.240868   6.668252
    24  H    7.463167   6.798297   7.034778   8.109876   6.671834
    25  H    8.370176   7.977143   7.135114   8.165463   6.547668
    26  C    5.668519   5.069031   6.685793   7.663737   6.489312
    27  H    6.254878   5.394280   7.123594   8.148756   6.986091
    28  H    6.440562   6.026856   7.179297   8.146476   6.828295
    29  H    5.507067   4.871006   7.200111   8.115485   7.091520
                   21         22         23         24         25
    21  H    0.000000
    22  C    6.704385   0.000000
    23  H    7.396523   1.089581   0.000000
    24  H    6.981142   1.087749   1.759279   0.000000
    25  H    7.059646   1.087544   1.763024   1.771053   0.000000
    26  C    6.964679   3.001221   2.832450   2.710630   4.079782
    27  H    7.246611   2.915404   2.971156   2.246581   3.906273
    28  H    7.501963   2.672414   2.133360   2.634912   3.694319
    29  H    7.559994   4.070521   3.788394   3.737808   5.142833
                   26         27         28         29
    26  C    0.000000
    27  H    1.089321   0.000000
    28  H    1.085652   1.759599   0.000000
    29  H    1.090192   1.742578   1.734496   0.000000
 Stoichiometry    C11H15NO2
 Framework group  C1[X(C11H15NO2)]
 Deg. of freedom    81
 Full point group                 C1      NOp   1
 RotChk:  IX=0 Diff= 1.34D-15
 Largest Abelian subgroup         C1      NOp   1
 Largest concise Abelian subgroup C1      NOp   1
                         Standard orientation:                         
 ---------------------------------------------------------------------
 Center     Atomic      Atomic             Coordinates (Angstroms)
 Number     Number       Type             X           Y           Z
 ---------------------------------------------------------------------
      1          8           0        2.264418   -2.305142   -0.084857
      2          8           0       -3.644036   -0.217107    0.261559
      3          7           0        0.044581    1.803612   -0.145079
      4          1           0        0.074853    2.809307   -0.135954
      5          6           0       -1.290943   -0.135913   -0.048143
      6          6           0        1.238358    1.137976   -0.078283
      7          6           0       -1.199862    1.215311   -0.051864
      8          6           0       -2.556060   -0.807109    0.069753
      9          6           0       -0.052405   -0.975603   -0.220326
     10          1           0       -0.051781   -1.787546    0.506928
     11          1           0       -0.057123   -1.457391   -1.204404
     12          6           0        1.240217   -0.213944   -0.071786
     13          6           0        2.401121   -1.088883    0.025302
     14          6           0       -2.316331    2.192870    0.046200
     15          1           0       -2.072611    3.118224   -0.480389
     16          1           0       -3.247571    1.824011   -0.376453
     17          1           0       -2.528310    2.441455    1.087754
     18          6           0       -2.655170   -2.299103   -0.043130
     19          1           0       -3.616786   -2.653393   -0.414936
     20          1           0       -1.901522   -2.735988   -0.698570
     21          1           0       -2.509033   -2.771926    0.933042
     22          6           0        3.791178   -0.572611    0.285638
     23          1           0        4.199531   -0.047488   -0.577310
     24          1           0        3.852375    0.096072    1.141392
     25          1           0        4.409947   -1.446860    0.474231
     26          6           0        2.404323    2.071347   -0.020050
     27          1           0        2.853993    2.101454    0.971671
     28          1           0        3.183053    1.821582   -0.734078
     29          1           0        2.109308    3.095173   -0.250845
 ---------------------------------------------------------------------
 Rotational constants (GHZ):           1.0964819           0.4864952           0.3422975
 Leave Link  202 at Fri Jan 23 20:20:07 2026, MaxMem=  2147483648 cpu:               0.0 elap:               0.0
 (Enter /data/home/wyx/g16/l301.exe)
 Standard basis: TZVP (5D, 7F)
 Ernie: Thresh=  0.10000D-02 Tol=  0.10000D-05 Strict=F.
 There are   370 symmetry adapted cartesian basis functions of A   symmetry.
 There are   356 symmetry adapted basis functions of A   symmetry.
   356 basis functions,   610 primitive gaussians,   370 cartesian basis functions
    52 alpha electrons       52 beta electrons
       nuclear repulsion energy       900.4665285323 Hartrees.
 IExCor=20419 DFT=T Ex+Corr=CAM-B3LYP ExCW=0 ScaHFX=  1.000000
 ScaDFX=  1.000000  1.000000  1.000000  0.810000 ScalE2=  1.000000  1.000000
 IRadAn=      5 IRanWt=     -1 IRanGd=            0 ICorTp=0 IEmpDi=141
 HFx  wShort=  0.000000 wLong=  0.330000 cFull=  0.190000 cShort=  0.000000 cLong=  0.460000
 DFx  wShort=  0.000000 wLong=  0.330000 cFull=  0.190000 cShort=  0.000000 cLong=  0.460000
 NAtoms=   29 NActive=   29 NUniq=   29 SFac= 1.00D+00 NAtFMM=   60 NAOKFM=F Big=F
 Integral buffers will be    131072 words long.
 Raffenetti 1 integral format.
 Two-electron integral symmetry is turned on.
 R6Disp:  Grimme-D3(BJ) Dispersion energy=       -0.0261516924 Hartrees.
 Nuclear repulsion after empirical dispersion term =      900.4403768399 Hartrees.
 ------------------------------------------------------------------------------
 Polarizable Continuum Model (PCM)
 =================================
 Model                : PCM.
 Atomic radii         : UFF (Universal Force Field).
 Polarization charges : Total charges.
 Charge compensation  : None.
 Solution method      : On-the-fly selection.
 Cavity type          : Scaled VdW (van der Waals Surface) (Alpha=1.100).
 Cavity algorithm     : GePol (No added spheres)
                        Default sphere list used, NSphG=   29.
                        Lebedev-Laikov grids with approx.  5.0 points / Ang**2.
                        Smoothing algorithm: York/Karplus (Gamma=1.0000).
                        Polarization charges: spherical gaussians, with
                                              point-specific exponents (IZeta= 3).
                        Self-potential: point-specific (ISelfS= 7).
                        Self-field    : sphere-specific E.n sum rule (ISelfD= 2).
 1st derivatives      : Analytical E(r).r(x)/FMM algorithm (CHGder, D1EAlg=3).
                        Cavity 1st derivative terms included.
 Solvent              : TetraHydroFuran, Eps=   7.425700 Eps(inf)=   1.974025
 ------------------------------------------------------------------------------
 GePol: Number of generator spheres                  =      29
 GePol: Total number of spheres                      =      29
 GePol: Number of exposed spheres                    =      29 (100.00%)
 GePol: Number of points                             =    2106
 GePol: Average weight of points                     =       0.13
 GePol: Minimum weight of points                     =   0.65D-08
 GePol: Maximum weight of points                     =    0.20577
 GePol: Number of points with low weight             =     134
 GePol: Fraction of low-weight points (<1% of avg)   =       6.36%
 GePol: Cavity surface area                          =    269.068 Ang**2
 GePol: Cavity volume                                =    286.676 Ang**3
 Leave Link  301 at Fri Jan 23 20:20:07 2026, MaxMem=  2147483648 cpu:               0.6 elap:               0.0
 (Enter /data/home/wyx/g16/l302.exe)
 NPDir=0 NMtPBC=     1 NCelOv=     1 NCel=       1 NClECP=     1 NCelD=      1
         NCelK=      1 NCelE2=     1 NClLst=     1 CellRange=     0.0.
 One-electron integrals computed using PRISM.
 One-electron integral symmetry used in STVInt
 NBasis=   356 RedAO= T EigKep=  3.94D-05  NBF=   356
 NBsUse=   356 1.00D-06 EigRej= -1.00D+00 NBFU=   356
 Precomputing XC quadrature grid using
 IXCGrd= 4 IRadAn=           5 IRanWt=          -1 IRanGd=           0 AccXCQ= 0.00D+00.
 Generated NRdTot=       0 NPtTot=           0 NUsed=           0 NTot=          32
 NSgBfM=   366   366   366   366   366 MxSgAt=    29 MxSgA2=    29.
 Leave Link  302 at Fri Jan 23 20:20:08 2026, MaxMem=  2147483648 cpu:               3.1 elap:               0.2
 (Enter /data/home/wyx/g16/l303.exe)
 DipDrv:  MaxL=1.
 Leave Link  303 at Fri Jan 23 20:20:09 2026, MaxMem=  2147483648 cpu:               0.6 elap:               0.0
 (Enter /data/home/wyx/g16/l308.exe)
 Leave Link  308 at Fri Jan 23 20:20:09 2026, MaxMem=  2147483648 cpu:               0.7 elap:               0.1
 (Enter /data/home/wyx/g16/l401.exe)
 Initial guess from the checkpoint file:  "DDL-S1-cLR-10.chk"
 B after Tr=     0.000000    0.000000    0.000000
         Rot=    1.000000    0.000000    0.000000   -0.000000 Ang=   0.00 deg.
 Guess basis will be translated and rotated to current coordinates.
 JPrj=2 DoOrth=T DoCkMO=T.
 Leave Link  401 at Fri Jan 23 20:20:09 2026, MaxMem=  2147483648 cpu:               2.2 elap:               0.2
 (Enter /data/home/wyx/g16/l502.exe)
 Integral symmetry usage will be decided dynamically.
 Closed shell SCF:
 Using DIIS extrapolation, IDIIS=  1040.
 NGot=  2147483648 LenX=  2147200095 LenY=  2147062754
 Requested convergence on RMS density matrix=1.00D-08 within 128 cycles.
 Requested convergence on MAX density matrix=1.00D-06.
 Requested convergence on             energy=1.00D-06.
 No special actions if energy rises.
 Fock matrices will be formed incrementally for  20 cycles.

 Cycle   1  Pass 1  IDiag  1:
 FoFJK:  IHMeth= 1 ICntrl=       0 DoSepK=T KAlg= 0 I1Cent=           0 FoldK=F
 IRaf=         1 NMat=       1 IRICut=       1 DoRegI=T DoRafI=F ISym2E= 0 IDoP0=0 IntGTp=1.
 FoFCou: FMM=F IPFlag=           0 FMFlag=      100000 FMFlg1=           0
         NFxFlg=           0 DoJE=T BraDBF=F KetDBF=F FulRan=T
         wScrn=  0.000000 ICntrl=       500 IOpCl=  0 I1Cent=           0 NGrid=           0
         NMat0=    1 NMatS0=      1 NMatT0=    0 NMatD0=    1 NMtDS0=    0 NMtDT0=    0
 Symmetry not used in FoFCou.
 Inv3:  Mode=1 IEnd=    13305708.
 Iteration    1 A*A^-1 deviation from unit magnitude is 3.44D-15 for   1049.
 Iteration    1 A*A^-1 deviation from orthogonality  is 1.67D-15 for   2015    807.
 Iteration    1 A^-1*A deviation from unit magnitude is 3.33D-15 for   1270.
 Iteration    1 A^-1*A deviation from orthogonality  is 1.63D-15 for   1699    746.
 E= -633.323272323528    
 DIIS: error= 5.31D-09 at cycle   1 NSaved=   1.
 NSaved= 1 IEnMin= 1 EnMin= -633.323272323528     IErMin= 1 ErrMin= 5.31D-09
 ErrMax= 5.31D-09  0.00D+00 EMaxC= 1.00D-01 BMatC= 1.56D-14 BMatP= 1.56D-14
 IDIUse=1 WtCom= 1.00D+00 WtEn= 0.00D+00
 Coeff-Com:  0.100D+01
 Coeff:      0.100D+01
 Gap=     0.234 Goal=   None    Shift=    0.000
 RMSDP=1.65D-09 MaxDP=9.69D-08              OVMax= 1.19D-07

 Error on total polarization charges =  0.01455
 SCF Done:  E(RCAM-B3LYP) =  -633.323272324     A.U. after    1 cycles
            NFock=  1  Conv=0.16D-08     -V/T= 2.0041
 KE= 6.307365235126D+02 PE=-3.276941925594D+03 EE= 1.112441752918D+03
 Leave Link  502 at Fri Jan 23 20:20:15 2026, MaxMem=  2147483648 cpu:              85.4 elap:               5.6
 (Enter /data/home/wyx/g16/l801.exe)
 DoSCS=F DFT=T ScalE2(SS,OS)=  1.000000  1.000000
 ExpMin= 9.52D-02 ExpMax= 2.70D+04 ExpMxC= 9.22D+02 IAcc=3 IRadAn=         5 AccDes= 0.00D+00
 HarFok:  IExCor=  205 AccDes= 0.00D+00 IRadAn=         5 IDoV=-2 UseB2=F ITyADJ=14
 ICtDFT= 12500011 ScaDFX=  1.000000  1.000000  1.000000  1.000000
 Largest valence mixing into a core orbital is  5.63D-05
 Largest core mixing into a valence orbital is  1.15D-05
 Range of M.O.s used for correlation:    15   356
 NBasis=   356 NAE=    52 NBE=    52 NFC=    14 NFV=     0
 NROrb=    342 NOA=    38 NOB=    38 NVA=   304 NVB=   304

 **** Warning!!: The largest alpha MO coefficient is  0.37983142D+02

 Leave Link  801 at Fri Jan 23 20:20:15 2026, MaxMem=  2147483648 cpu:               1.0 elap:               0.1
 (Enter /data/home/wyx/g16/l914.exe)
 RHF ground state
 Two-electron integrals replicated using symmetry.
 MDV=  2147483648 DFT=T DoStab=F Mixed=T DoRPA=T DoScal=F NonHer=T
 NEqPCM:  Using equilibrium solvation (IEInf=0, Eps=   7.4257, EpsInf=   1.9740)
 Making orbital integer symmetry assigments:
 Orbital symmetries:
       Occupied  (A) (A) (A) (A) (A) (A) (A) (A) (A) (A) (A) (A)
                 (A) (A) (A) (A) (A) (A) (A) (A) (A) (A) (A) (A)
                 (A) (A) (A) (A) (A) (A) (A) (A) (A) (A) (A) (A)
                 (A) (A) (A) (A) (A) (A) (A) (A) (A) (A) (A) (A)
                 (A) (A) (A) (A)
       Virtual   (A) (A) (A) (A) (A) (A) (A) (A) (A) (A) (A) (A)
                 (A) (A) (A) (A) (A) (A) (A) (A) (A) (A) (A) (A)
                 (A) (A) (A) (A) (A) (A) (A) (A) (A) (A) (A) (A)
                 (A) (A) (A) (A) (A) (A) (A) (A) (A) (A) (A) (A)
                 (A) (A) (A) (A) (A) (A) (A) (A) (A) (A) (A) (A)
                 (A) (A) (A) (A) (A) (A) (A) (A) (A) (A) (A) (A)
                 (A) (A) (A) (A) (A) (A) (A) (A) (A) (A) (A) (A)
                 (A) (A) (A) (A) (A) (A) (A) (A) (A) (A) (A) (A)
                 (A) (A) (A) (A) (A) (A) (A) (A) (A) (A) (A) (A)
                 (A) (A) (A) (A) (A) (A) (A) (A) (A) (A) (A) (A)
                 (A) (A) (A) (A) (A) (A) (A) (A) (A) (A) (A) (A)
                 (A) (A) (A) (A) (A) (A) (A) (A) (A) (A) (A) (A)
                 (A) (A) (A) (A) (A) (A) (A) (A) (A) (A) (A) (A)
                 (A) (A) (A) (A) (A) (A) (A) (A) (A) (A) (A) (A)
                 (A) (A) (A) (A) (A) (A) (A) (A) (A) (A) (A) (A)
                 (A) (A) (A) (A) (A) (A) (A) (A) (A) (A) (A) (A)
                 (A) (A) (A) (A) (A) (A) (A) (A) (A) (A) (A) (A)
                 (A) (A) (A) (A) (A) (A) (A) (A) (A) (A) (A) (A)
                 (A) (A) (A) (A) (A) (A) (A) (A) (A) (A) (A) (A)
                 (A) (A) (A) (A) (A) (A) (A) (A) (A) (A) (A) (A)
                 (A) (A) (A) (A) (A) (A) (A) (A) (A) (A) (A) (A)
                 (A) (A) (A) (A) (A) (A) (A) (A) (A) (A) (A) (A)
                 (A) (A) (A) (A) (A) (A) (A) (A) (A) (A) (A) (A)
                 (A) (A) (A) (A) (A) (A) (A) (A) (A) (A) (A) (A)
                 (A) (A) (A) (A) (A) (A) (A) (A) (A) (A) (A) (A)
                 (A) (A) (A) (A)
 PCM Corrected Linear-Response:
 Compute the excitation energies in the ground state reaction field.
    24 initial guesses have been made.
 Convergence on wavefunction:    0.000001000000000
 Davidson Disk Diagonalization:  ConvIn= 1.00D-06 SkipCon=T Conv= 1.00D-06.
 Max sub-space:  2000 roots to seek:    24 dimension of matrix:        23104
 Iteration     1 Dimension    24 NMult     0 NNew     24
 CISAX will form    24 AO SS matrices at one time.
 NMat=    24 NSing=    24 JSym2X= 0.
 FoFJK:  IHMeth= 1 ICntrl=       0 DoSepK=T KAlg= 0 I1Cent=           0 FoldK=F
 IRaf=         1 NMat=      48 IRICut=       1 DoRegI=T DoRafI=F ISym2E= 0 IDoP0=3 IntGTp=3.
 FoFCou: FMM=F IPFlag=           0 FMFlag=      100000 FMFlg1=           0
         NFxFlg=           0 DoJE=F BraDBF=F KetDBF=F FulRan=T
         wScrn=  0.000000 ICntrl=       500 IOpCl=  0 I1Cent=           0 NGrid=           0
         NMat0=   24 NMatS0=     24 NMatT0=    0 NMatD0=   24 NMtDS0=    0 NMtDT0=    0
 Symmetry not used in FoFCou.
 New state      3 was old state      4
 New state      4 was old state      3
 New state      5 was old state      6
 New state      6 was old state      5
 Excitation Energies [eV] at current iteration:
 Root      1 :     3.915329583576588
 Root      2 :     4.064491054329111
 Root      3 :     4.501428181334993
 Root      4 :     5.569642307812146
 Root      5 :     6.226722404161465
 Root      6 :     6.587094901086571
 Root      7 :     6.736594927494669
 Root      8 :     6.798281063476550
 Root      9 :     6.849779646876652
 Root     10 :     7.099334364537279
 Root     11 :     7.377800842289559
 Root     12 :     7.471343899671624
 Root     13 :     7.504138212314190
 Root     14 :     7.655183188767380
 Root     15 :     7.745602265685836
 Root     16 :     8.089985694868872
 Root     17 :     8.197955949953787
 Root     18 :     8.259210731653843
 Root     19 :     8.322382506714961
 Root     20 :     8.559876075751406
 Root     21 :     8.699101514872529
 Root     22 :     8.899844084733536
 Root     23 :     9.000227694660996
 Root     24 :     9.116357764328118
 Iteration     2 Dimension    36 NMult    24 NNew     12
 CISAX will form    12 AO SS matrices at one time.
 NMat=    12 NSing=    12 JSym2X= 0.
 Root      1 not converged, maximum delta is    0.212994539202362
 Root      2 not converged, maximum delta is    0.205997297421001
 Root      3 not converged, maximum delta is    0.097115155591286
 Root      4 not converged, maximum delta is    0.233900287747748
 New state      5 was old state      6
 Root      5 not converged, maximum delta is    0.198716389524118
 New state      6 was old state      5
 Root      6 not converged, maximum delta is    0.090258201369621
 Excitation Energies [eV] at current iteration:
 Root      1 :     3.481461949025765   Change is   -0.433867634550823
 Root      2 :     3.809715595411796   Change is   -0.254775458917315
 Root      3 :     4.243580320078510   Change is   -0.257847861256483
 Root      4 :     5.248089968668700   Change is   -0.321552339143445
 Root      5 :     5.752398377075115   Change is   -0.834696524011456
 Root      6 :     6.100696494450233   Change is   -0.126025909711232
 Iteration     3 Dimension    48 NMult    36 NNew     12
 CISAX will form    12 AO SS matrices at one time.
 NMat=    12 NSing=    12 JSym2X= 0.
 Root      1 not converged, maximum delta is    0.010882130471326
 Root      2 not converged, maximum delta is    0.010611135722149
 Root      3 not converged, maximum delta is    0.017707528149582
 Root      4 not converged, maximum delta is    0.029557174749341
 Root      5 not converged, maximum delta is    0.028095227215425
 Root      6 not converged, maximum delta is    0.014612456483589
 Excitation Energies [eV] at current iteration:
 Root      1 :     3.461579376822133   Change is   -0.019882572203632
 Root      2 :     3.797907597617117   Change is   -0.011807997794679
 Root      3 :     4.229878060495960   Change is   -0.013702259582551
 Root      4 :     5.224854509610163   Change is   -0.023235459058538
 Root      5 :     5.709400289840252   Change is   -0.042998087234863
 Root      6 :     6.093367860499407   Change is   -0.007328633950826
 Iteration     4 Dimension    60 NMult    48 NNew     12
 CISAX will form    12 AO SS matrices at one time.
 NMat=    12 NSing=    12 JSym2X= 0.
 Root      1 not converged, maximum delta is    0.002569322644588
 Root      2 not converged, maximum delta is    0.001777397743035
 Root      3 not converged, maximum delta is    0.002114164152253
 Root      4 not converged, maximum delta is    0.003488115570912
 Root      5 not converged, maximum delta is    0.006075417206943
 Root      6 not converged, maximum delta is    0.003792755151721
 Excitation Energies [eV] at current iteration:
 Root      1 :     3.459876153573583   Change is   -0.001703223248550
 Root      2 :     3.796974818603480   Change is   -0.000932779013638
 Root      3 :     4.229314761421879   Change is   -0.000563299074081
 Root      4 :     5.222465965925985   Change is   -0.002388543684178
 Root      5 :     5.703816032793614   Change is   -0.005584257046638
 Root      6 :     6.092864873223432   Change is   -0.000502987275975
 Iteration     5 Dimension    72 NMult    60 NNew     12
 CISAX will form    12 AO SS matrices at one time.
 NMat=    12 NSing=    12 JSym2X= 0.
 Root      1 not converged, maximum delta is    0.000802208806047
 Root      2 not converged, maximum delta is    0.000302137452780
 Root      3 not converged, maximum delta is    0.000648988270549
 Root      4 not converged, maximum delta is    0.000622257711196
 Root      5 not converged, maximum delta is    0.001010075912551
 Root      6 not converged, maximum delta is    0.001067758263649
 Excitation Energies [eV] at current iteration:
 Root      1 :     3.459766519088245   Change is   -0.000109634485337
 Root      2 :     3.796931997074449   Change is   -0.000042821529031
 Root      3 :     4.229277563557407   Change is   -0.000037197864472
 Root      4 :     5.222283817427263   Change is   -0.000182148498722
 Root      5 :     5.703385415176295   Change is   -0.000430617617319
 Root      6 :     6.092821670266560   Change is   -0.000043202956872
 Iteration     6 Dimension    84 NMult    72 NNew     12
 CISAX will form    12 AO SS matrices at one time.
 NMat=    12 NSing=    12 JSym2X= 0.
 Root      1 not converged, maximum delta is    0.000220285127809
 Root      2 not converged, maximum delta is    0.000073021061998
 Root      3 not converged, maximum delta is    0.000215525243630
 Root      4 not converged, maximum delta is    0.000378911201211
 Root      5 not converged, maximum delta is    0.000345617149771
 Root      6 not converged, maximum delta is    0.000276108627758
 Excitation Energies [eV] at current iteration:
 Root      1 :     3.459760959408864   Change is   -0.000005559679382
 Root      2 :     3.796928852948716   Change is   -0.000003144125733
 Root      3 :     4.229274956973251   Change is   -0.000002606584156
 Root      4 :     5.222267345650411   Change is   -0.000016471776852
 Root      5 :     5.703348917266994   Change is   -0.000036497909300
 Root      6 :     6.092817078913576   Change is   -0.000004591352984
 Iteration     7 Dimension    96 NMult    84 NNew     12
 CISAX will form    12 AO SS matrices at one time.
 NMat=    12 NSing=    12 JSym2X= 0.
 Root      1 not converged, maximum delta is    0.000020257316249
 Root      2 not converged, maximum delta is    0.000012722980155
 Root      3 not converged, maximum delta is    0.000058253050311
 Root      4 not converged, maximum delta is    0.000151755637409
 Root      5 not converged, maximum delta is    0.000120633595955
 Root      6 not converged, maximum delta is    0.000164221532304
 Excitation Energies [eV] at current iteration:
 Root      1 :     3.459760597780322   Change is   -0.000000361628541
 Root      2 :     3.796928693171568   Change is   -0.000000159777147
 Root      3 :     4.229274748697649   Change is   -0.000000208275602
 Root      4 :     5.222265818497277   Change is   -0.000001527153134
 Root      5 :     5.703345958674387   Change is   -0.000002958592608
 Root      6 :     6.092816557104483   Change is   -0.000000521809094
 Iteration     8 Dimension   108 NMult    96 NNew     12
 CISAX will form    12 AO SS matrices at one time.
 NMat=    12 NSing=    12 JSym2X= 0.
 Root      1 not converged, maximum delta is    0.000003191207721
 Root      2 not converged, maximum delta is    0.000002688777700
 Root      3 not converged, maximum delta is    0.000006688598852
 Root      4 not converged, maximum delta is    0.000032007163354
 Root      5 not converged, maximum delta is    0.000036439274318
 Root      6 not converged, maximum delta is    0.000036887319632
 Excitation Energies [eV] at current iteration:
 Root      1 :     3.459760583490313   Change is   -0.000000014290009
 Root      2 :     3.796928686287637   Change is   -0.000000006883932
 Root      3 :     4.229274739642931   Change is   -0.000000009054718
 Root      4 :     5.222265708318240   Change is   -0.000000110179038
 Root      5 :     5.703345742704339   Change is   -0.000000215970048
 Root      6 :     6.092816512522732   Change is   -0.000000044581751
 Iteration     9 Dimension   120 NMult   108 NNew     12
 CISAX will form    12 AO SS matrices at one time.
 NMat=    12 NSing=    12 JSym2X= 0.
 Root      1 has converged.
 Root      2 has converged.
 Root      3 has converged.
 Root      4 not converged, maximum delta is    0.000006183819292
 Root      5 not converged, maximum delta is    0.000008656170664
 Root      6 not converged, maximum delta is    0.000004863607570
 Excitation Energies [eV] at current iteration:
 Root      1 :     3.459760582954692   Change is   -0.000000000535621
 Root      2 :     3.796928686000761   Change is   -0.000000000286876
 Root      3 :     4.229274739317018   Change is   -0.000000000325912
 Root      4 :     5.222265702636497   Change is   -0.000000005681743
 Root      5 :     5.703345728762353   Change is   -0.000000013941985
 Root      6 :     6.092816509787526   Change is   -0.000000002735206
 Iteration    10 Dimension   126 NMult   120 NNew      6
 CISAX will form     6 AO SS matrices at one time.
 NMat=     6 NSing=     6 JSym2X= 0.
 Root      1 has converged.
 Root      2 has converged.
 Root      3 has converged.
 Root      4 not converged, maximum delta is    0.000001304553011
 Root      5 not converged, maximum delta is    0.000002063160368
 Root      6 not converged, maximum delta is    0.000001011332664
 Excitation Energies [eV] at current iteration:
 Root      1 :     3.459760582953408   Change is   -0.000000000001283
 Root      2 :     3.796928685998899   Change is   -0.000000000001862
 Root      3 :     4.229274739316105   Change is   -0.000000000000914
 Root      4 :     5.222265702354327   Change is   -0.000000000282170
 Root      5 :     5.703345727901526   Change is   -0.000000000860827
 Root      6 :     6.092816509625319   Change is   -0.000000000162207
 Iteration    11 Dimension   132 NMult   126 NNew      6
 CISAX will form     6 AO SS matrices at one time.
 NMat=     6 NSing=     6 JSym2X= 0.
 Root      1 has converged.
 Root      2 has converged.
 Root      3 has converged.
 Root      4 has converged.
 Root      5 has converged.
 Root      6 has converged.
 Excitation Energies [eV] at current iteration:
 Root      1 :     3.459760582953052   Change is   -0.000000000000356
 Root      2 :     3.796928685998509   Change is   -0.000000000000390
 Root      3 :     4.229274739316027   Change is   -0.000000000000078
 Root      4 :     5.222265702339120   Change is   -0.000000000015207
 Root      5 :     5.703345727850198   Change is   -0.000000000051328
 Root      6 :     6.092816509614201   Change is   -0.000000000011118
 Convergence achieved on expansion vectors.
 PCM Corrected Linear-Response:
 The state of interest is root number   1
 Excitation energy =    3.4598 eV, Total energy =  -633.196128462    
 Recompute the excitation energies using the linear response reaction field.
 Convergence on wavefunction:    0.000001000000000
 Davidson Disk Diagonalization:  ConvIn= 1.00D-06 SkipCon=T Conv= 1.00D-06.
 Max sub-space:  2000 roots to seek:     6 dimension of matrix:        23104
 Iteration     1 Dimension     6 NMult     0 NNew      6
 CISAX will form     6 AO SS matrices at one time.
 NMat=     6 NSing=     6 JSym2X= 0.
 Excitation Energies [eV] at current iteration:
 Root      1 :     3.553457278007313
 Root      2 :     3.825638026938329
 Root      3 :     4.256553018318650
 Root      4 :     5.300328223149340
 Root      5 :     5.877117829272998
 Root      6 :     6.068154129238161
 Iteration     2 Dimension    18 NMult     6 NNew     12
 CISAX will form    12 AO SS matrices at one time.
 NMat=    12 NSing=    12 JSym2X= 0.
 Root      1 not converged, maximum delta is    0.052474671643606
 Root      2 not converged, maximum delta is    0.062888824936633
 Root      3 not converged, maximum delta is    0.004848449395343
 Root      4 not converged, maximum delta is    0.229640346891862
 Root      5 not converged, maximum delta is    0.253045034588535
 Root      6 not converged, maximum delta is    0.062013856872666
 Excitation Energies [eV] at current iteration:
 Root      1 :     3.344569218858494   Change is   -0.208888059148819
 Root      2 :     3.790344930192102   Change is   -0.035293096746228
 Root      3 :     4.224863928110636   Change is   -0.031689090208014
 Root      4 :     5.090933483764295   Change is   -0.209394739385045
 Root      5 :     5.583211723704965   Change is   -0.293906105568034
 Root      6 :     6.053477118761179   Change is   -0.014677010476982
 Iteration     3 Dimension    30 NMult    18 NNew     12
 CISAX will form    12 AO SS matrices at one time.
 NMat=    12 NSing=    12 JSym2X= 0.
 Root      1 not converged, maximum delta is    0.002762674078664
 Root      2 not converged, maximum delta is    0.000921058550175
 Root      3 not converged, maximum delta is    0.000990224192930
 Root      4 not converged, maximum delta is    0.012167159304648
 Root      5 not converged, maximum delta is    0.009481702601152
 Root      6 not converged, maximum delta is    0.007226285167830
 Excitation Energies [eV] at current iteration:
 Root      1 :     3.341673730910184   Change is   -0.002895487948310
 Root      2 :     3.790048633050974   Change is   -0.000296297141127
 Root      3 :     4.224589690240003   Change is   -0.000274237870633
 Root      4 :     5.082456207027855   Change is   -0.008477276736441
 Root      5 :     5.575003884718687   Change is   -0.008207838986277
 Root      6 :     6.052512708617812   Change is   -0.000964410143367
 Iteration     4 Dimension    42 NMult    30 NNew     12
 CISAX will form    12 AO SS matrices at one time.
 NMat=    12 NSing=    12 JSym2X= 0.
 Root      1 not converged, maximum delta is    0.001679117430286
 Root      2 not converged, maximum delta is    0.000310939161053
 Root      3 not converged, maximum delta is    0.000243617952651
 Root      4 not converged, maximum delta is    0.002365448319387
 Root      5 not converged, maximum delta is    0.003368752003472
 Root      6 not converged, maximum delta is    0.008449799110868
 Excitation Energies [eV] at current iteration:
 Root      1 :     3.341271325871156   Change is   -0.000402405039027
 Root      2 :     3.790029946604334   Change is   -0.000018686446640
 Root      3 :     4.224576081454666   Change is   -0.000013608785337
 Root      4 :     5.081344066187360   Change is   -0.001112140840495
 Root      5 :     5.573812624482770   Change is   -0.001191260235917
 Root      6 :     6.052173783866786   Change is   -0.000338924751025
 Iteration     5 Dimension    54 NMult    42 NNew     12
 CISAX will form    12 AO SS matrices at one time.
 NMat=    12 NSing=    12 JSym2X= 0.
 Root      1 not converged, maximum delta is    0.000649947503716
 Root      2 not converged, maximum delta is    0.000102093348986
 Root      3 not converged, maximum delta is    0.000090333521516
 Root      4 not converged, maximum delta is    0.000843060102868
 Root      5 not converged, maximum delta is    0.000825102727248
 Root      6 not converged, maximum delta is    0.004151683465606
 Excitation Energies [eV] at current iteration:
 Root      1 :     3.341240862281682   Change is   -0.000030463589474
 Root      2 :     3.790028787876687   Change is   -0.000001158727648
 Root      3 :     4.224575203806868   Change is   -0.000000877647798
 Root      4 :     5.081217529633705   Change is   -0.000126536553655
 Root      5 :     5.573670430820426   Change is   -0.000142193662344
 Root      6 :     6.052089937379565   Change is   -0.000083846487222
 Iteration     6 Dimension    66 NMult    54 NNew     12
 CISAX will form    12 AO SS matrices at one time.
 NMat=    12 NSing=    12 JSym2X= 0.
 Root      1 not converged, maximum delta is    0.000109358886377
 Root      2 not converged, maximum delta is    0.000023766720781
 Root      3 not converged, maximum delta is    0.000020311828140
 Root      4 not converged, maximum delta is    0.000371475409246
 Root      5 not converged, maximum delta is    0.000443277143099
 Root      6 not converged, maximum delta is    0.000738027733196
 Excitation Energies [eV] at current iteration:
 Root      1 :     3.341238730221200   Change is   -0.000002132060482
 Root      2 :     3.790028675357358   Change is   -0.000000112519329
 Root      3 :     4.224575129694078   Change is   -0.000000074112790
 Root      4 :     5.081204205303110   Change is   -0.000013324330595
 Root      5 :     5.573653405302425   Change is   -0.000017025518002
 Root      6 :     6.052080033911475   Change is   -0.000009903468090
 Iteration     7 Dimension    78 NMult    66 NNew     12
 CISAX will form    12 AO SS matrices at one time.
 NMat=    12 NSing=    12 JSym2X= 0.
 Root      1 not converged, maximum delta is    0.000016743786232
 Root      2 not converged, maximum delta is    0.000002728014573
 Root      3 not converged, maximum delta is    0.000007370947674
 Root      4 not converged, maximum delta is    0.000158307240445
 Root      5 not converged, maximum delta is    0.000208455174893
 Root      6 not converged, maximum delta is    0.000113996258735
 Excitation Energies [eV] at current iteration:
 Root      1 :     3.341238630755514   Change is   -0.000000099465686
 Root      2 :     3.790028670234025   Change is   -0.000000005123333
 Root      3 :     4.224575124009319   Change is   -0.000000005684759
 Root      4 :     5.081202867379875   Change is   -0.000001337923235
 Root      5 :     5.573651399779993   Change is   -0.000002005522432
 Root      6 :     6.052078970777951   Change is   -0.000001063133524
 Iteration     8 Dimension    90 NMult    78 NNew     12
 CISAX will form    12 AO SS matrices at one time.
 NMat=    12 NSing=    12 JSym2X= 0.
 Root      1 not converged, maximum delta is    0.000004431337074
 Root      2 has converged.
 Root      3 not converged, maximum delta is    0.000001690859487
 Root      4 not converged, maximum delta is    0.000037415400418
 Root      5 not converged, maximum delta is    0.000052784367511
 Root      6 not converged, maximum delta is    0.000044591790376
 Excitation Energies [eV] at current iteration:
 Root      1 :     3.341238625597478   Change is   -0.000000005158036
 Root      2 :     3.790028670021133   Change is   -0.000000000212892
 Root      3 :     4.224575123684601   Change is   -0.000000000324718
 Root      4 :     5.081202764718678   Change is   -0.000000102661197
 Root      5 :     5.573651203312534   Change is   -0.000000196467459
 Root      6 :     6.052078828031024   Change is   -0.000000142746927
 Iteration     9 Dimension   100 NMult    90 NNew     10
 CISAX will form    10 AO SS matrices at one time.
 NMat=    10 NSing=    10 JSym2X= 0.
 Root      1 has converged.
 Root      2 has converged.
 Root      3 has converged.
 Root      4 not converged, maximum delta is    0.000012437307109
 Root      5 not converged, maximum delta is    0.000018287836175
 Root      6 not converged, maximum delta is    0.000023935655989
 Excitation Energies [eV] at current iteration:
 Root      1 :     3.341238625453766   Change is   -0.000000000143712
 Root      2 :     3.790028670018899   Change is   -0.000000000002234
 Root      3 :     4.224575123668897   Change is   -0.000000000015704
 Root      4 :     5.081202754583920   Change is   -0.000000010134758
 Root      5 :     5.573651181613215   Change is   -0.000000021699319
 Root      6 :     6.052078810548001   Change is   -0.000000017483023
 Iteration    10 Dimension   106 NMult   100 NNew      6
 CISAX will form     6 AO SS matrices at one time.
 NMat=     6 NSing=     6 JSym2X= 0.
 Root      1 has converged.
 Root      2 has converged.
 Root      3 has converged.
 Root      4 not converged, maximum delta is    0.000003122778468
 Root      5 not converged, maximum delta is    0.000005553402888
 Root      6 not converged, maximum delta is    0.000009325492180
 Excitation Energies [eV] at current iteration:
 Root      1 :     3.341238625453028   Change is   -0.000000000000738
 Root      2 :     3.790028670018248   Change is   -0.000000000000651
 Root      3 :     4.224575123668585   Change is   -0.000000000000311
 Root      4 :     5.081202753844130   Change is   -0.000000000739790
 Root      5 :     5.573651179682383   Change is   -0.000000001930832
 Root      6 :     6.052078808512536   Change is   -0.000000002035465
 Iteration    11 Dimension   112 NMult   106 NNew      6
 CISAX will form     6 AO SS matrices at one time.
 NMat=     6 NSing=     6 JSym2X= 0.
 Root      1 has converged.
 Root      2 has converged.
 Root      3 has converged.
 Root      4 has converged.
 Root      5 not converged, maximum delta is    0.000001052509403
 Root      6 not converged, maximum delta is    0.000001913845379
 Excitation Energies [eV] at current iteration:
 Root      1 :     3.341238625452905   Change is   -0.000000000000123
 Root      2 :     3.790028670018075   Change is   -0.000000000000173
 Root      3 :     4.224575123668547   Change is   -0.000000000000039
 Root      4 :     5.081202753795254   Change is   -0.000000000048876
 Root      5 :     5.573651179536630   Change is   -0.000000000145753
 Root      6 :     6.052078808284661   Change is   -0.000000000227874
 Iteration    12 Dimension   116 NMult   112 NNew      4
 CISAX will form     4 AO SS matrices at one time.
 NMat=     4 NSing=     4 JSym2X= 0.
 Root      1 has converged.
 Root      2 has converged.
 Root      3 has converged.
 Root      4 has converged.
 Root      5 has converged.
 Root      6 has converged.
 Excitation Energies [eV] at current iteration:
 Root      1 :     3.341238625452880   Change is   -0.000000000000025
 Root      2 :     3.790028670018010   Change is   -0.000000000000065
 Root      3 :     4.224575123668508   Change is   -0.000000000000039
 Root      4 :     5.081202753793232   Change is   -0.000000000002023
 Root      5 :     5.573651179528400   Change is   -0.000000000008230
 Root      6 :     6.052078808262385   Change is   -0.000000000022277
 Convergence achieved on expansion vectors.
 ***********************************************************************
 Excited states from <AA,BB:AA,BB> singles matrix:
 ***********************************************************************
 
 1PDM for each excited state written to RWF  633
 Ground to excited state transition densities written to RWF  633
 Ground to excited state transition electric dipole moments (Au):
       state          X           Y           Z        Dip. S.      Osc.
         1         1.6568     -0.1300     -0.0341      2.7631      0.2262
         2         0.2286     -0.0442     -0.0468      0.0564      0.0052
         3        -0.0077     -0.0817      0.0395      0.0083      0.0009
         4        -0.0871     -1.7778      0.0853      3.1754      0.3953
         5         0.2114      1.4322     -0.0100      2.0961      0.2862
         6         0.0187      0.1598      0.0404      0.0275      0.0041
 Ground to excited state transition velocity dipole moments (Au):
       state          X           Y           Z        Dip. S.      Osc.
         1        -0.1961      0.0132      0.0042      0.0387      0.2099
         2        -0.0315      0.0053      0.0046      0.0010      0.0050
         3         0.0010      0.0122     -0.0028      0.0002      0.0007
         4         0.0201      0.3157     -0.0127      0.1002      0.3578
         5        -0.0420     -0.2886      0.0025      0.0851      0.2768
         6        -0.0054     -0.0326     -0.0287      0.0019      0.0057
 Ground to excited state transition magnetic dipole moments (Au):
       state          X           Y           Z
         1         0.0806     -0.0175      1.4600
         2        -0.7873      0.2696      0.3753
         3        -0.0347      0.9638      0.0643
         4         0.0601     -0.0618      0.2916
         5        -0.1794      0.0812     -0.2496
         6        -0.0309     -0.0035     -0.0067
 Ground to excited state transition velocity quadrupole moments (Au):
       state          XX          YY          ZZ          XY          XZ          YZ
         1         0.2838     -0.1289     -0.0065      0.5262     -0.0412     -0.0060
         2         0.0403      0.0078     -0.0010      0.0927     -0.0371     -0.0644
         3        -0.0135      0.0086     -0.0161      0.0232     -0.0789      0.0023
         4        -1.4053      0.3081      0.0226      0.1879      0.0554     -0.0204
         5         0.6044     -0.3495     -0.0420     -0.0845     -0.0399     -0.0634
         6        -0.1561     -0.1163      0.1012      0.0006      0.0173      0.0497
 <0|del|b> * <b|rxdel|0> + <0|del|b> * <b|delr+rdel|0>
 Rotatory Strengths (R) in cgs (10**-40 erg-esu-cm/Gauss)
       state          XX          YY          ZZ    R(velocity)    E-M Angle
         1        24.9630    -30.8088    -51.1361    -18.9940       91.97
         2         9.5561     71.4886     60.9939     47.3462       18.45
         3        28.5040     -0.3305     24.5717     17.5817       17.75
         4       -81.5887     -0.9775     -0.7830    -27.7831      103.22
         5       -61.7908     16.8723    -12.1883    -19.0356      100.28
         6         1.3601      0.1689     -0.0226      0.5021       70.11
 1/2[<0|r|b>*<b|rxdel|0> + (<0|rxdel|b>*<b|r|0>)*]
 Rotatory Strengths (R) in cgs (10**-40 erg-esu-cm/Gauss)
       state          XX          YY          ZZ     R(length)
         1       -94.4301     -1.6089     35.1939    -20.2817
         2       127.2719      8.4261     12.4118     49.3699
         3        -0.1889     55.6912     -1.7969     17.9018
         4         3.7014    -77.7291    -17.5963    -30.5413
         5        26.8252    -82.2682     -1.7599    -19.0676
         6         0.4091      0.3998      0.1903      0.3330
  1/2[<0|del|b>*<b|r|0> + (<0|r|b>*<b|del|0>)*] (Au)
       state          X           Y           Z        Dip. S.   Osc.(frdel)
         1        -0.3249     -0.0017     -0.0001      0.3268      0.2179
         2        -0.0072     -0.0002     -0.0002      0.0077      0.0051
         3        -0.0000     -0.0010     -0.0001      0.0011      0.0007
         4        -0.0018     -0.5612     -0.0011      0.5641      0.3760
         5        -0.0089     -0.4133     -0.0000      0.4222      0.2815
         6        -0.0001     -0.0052     -0.0012      0.0065      0.0043

 Excitation energies and oscillator strengths:
 
 Excited State   1:      Singlet-A      3.3412 eV  371.07 nm  f=0.2262  <S**2>=0.000
      52 -> 53         0.69761
 This state for optimization and/or second-order correction.
 Total Energy, E(TD-HF/TD-DFT) =  -633.200484063    
 Copying the excited state density for this state as the 1-particle RhoCI density.
 
 Excited State   2:      Singlet-A      3.7900 eV  327.13 nm  f=0.0052  <S**2>=0.000
      51 -> 53         0.59335
      51 -> 54        -0.32517
 
 Excited State   3:      Singlet-A      4.2246 eV  293.48 nm  f=0.0009  <S**2>=0.000
      50 -> 53         0.54512
      50 -> 54         0.37572
      50 -> 58         0.12322
      51 -> 54        -0.13125
 
 Excited State   4:      Singlet-A      5.0812 eV  244.01 nm  f=0.3953  <S**2>=0.000
      52 -> 54         0.69337
 
 Excited State   5:      Singlet-A      5.5737 eV  222.45 nm  f=0.2862  <S**2>=0.000
      49 -> 53         0.68078
      50 -> 53        -0.11101
 
 Excited State   6:      Singlet-A      6.0521 eV  204.86 nm  f=0.0041  <S**2>=0.000
      52 -> 55         0.65974
      52 -> 56         0.12180
      52 -> 57         0.11270
 SavETr:  write IOETrn=   770 NScale= 10 NData=  16 NLR=1 NState=    6 LETran=     118.
 The selected state is a singlet.
 CISGrd: IGrad=1 NXY=2 DFT=T
 CISAX will form     1 AO SS matrices at one time.
 NMat=     1 NSing=     1 JSym2X= 0.
 Leave Link  914 at Fri Jan 23 20:28:23 2026, MaxMem=  2147483648 cpu:            7783.3 elap:             487.8
 (Enter /data/home/wyx/g16/l1002.exe)
 Minotr:  Closed shell wavefunction.
          Computing CIS/TDA/TD derivatives.
          Using Z-Vector for PSCF gradient.
          Skipping F1 and S1 gradient terms here.
 NEqPCM:  Using equilibrium solvation (IEInf=0, Eps=   7.4257, EpsInf=   1.9740)
          Frozen-core window.
          Direct CPHF calculation.
          Differentiating once with respect to electric field.
                with respect to dipole field.
          Electric field/nuclear overlap derivatives assumed to be zero.
          Requested convergence is 1.0D-10 RMS, and 1.0D-09 maximum.
          NewPWx=F KeepS1=T KeepF1=T KeepIn=T MapXYZ=F SortEE=F KeepMc=T.
 Two-electron integral symmetry used by symmetrizing perturbed Fock matrices.
          MDV=    2147483648 using IRadAn=       5.
          Solving linear equations separately, MaxMat=     384.
          There are     1 degrees of freedom in the 1st order CPHF.  IDoFFX=0 NUNeed=     1.
 FoFJK:  IHMeth= 1 ICntrl=       0 DoSepK=T KAlg= 0 I1Cent=           0 FoldK=F
 IRaf=         1 NMat=       1 IRICut=       1 DoRegI=T DoRafI=F ISym2E=-1 IDoP0=0 IntGTp=1.
 FoFCou: FMM=F IPFlag=           0 FMFlag=      100000 FMFlg1=           0
         NFxFlg=           0 DoJE=T BraDBF=F KetDBF=F FulRan=T
         wScrn=  0.000000 ICntrl=       500 IOpCl=  0 I1Cent=           0 NGrid=           0
         NMat0=    1 NMatS0=      1 NMatT0=    0 NMatD0=    1 NMtDS0=    0 NMtDT0=    0
 Petite list used in FoFCou.
 LinEq1:  Iter=  0 NonCon=     1 RMS=3.49D-03 Max=1.70D-01 NDo=     1
 AX will form     1 AO Fock derivatives at one time.
 LinEq1:  Iter=  1 NonCon=     1 RMS=1.43D-03 Max=9.28D-02 NDo=     1
 LinEq1:  Iter=  2 NonCon=     1 RMS=6.80D-04 Max=3.76D-02 NDo=     1
 LinEq1:  Iter=  3 NonCon=     1 RMS=3.65D-04 Max=2.01D-02 NDo=     1
 LinEq1:  Iter=  4 NonCon=     1 RMS=1.69D-04 Max=4.19D-03 NDo=     1
 LinEq1:  Iter=  5 NonCon=     1 RMS=8.71D-05 Max=3.18D-03 NDo=     1
 LinEq1:  Iter=  6 NonCon=     1 RMS=5.69D-05 Max=1.96D-03 NDo=     1
 LinEq1:  Iter=  7 NonCon=     1 RMS=2.11D-05 Max=1.09D-03 NDo=     1
 LinEq1:  Iter=  8 NonCon=     1 RMS=1.14D-05 Max=4.58D-04 NDo=     1
 LinEq1:  Iter=  9 NonCon=     1 RMS=7.86D-06 Max=4.14D-04 NDo=     1
 LinEq1:  Iter= 10 NonCon=     1 RMS=4.76D-06 Max=1.56D-04 NDo=     1
 LinEq1:  Iter= 11 NonCon=     1 RMS=2.08D-06 Max=5.24D-05 NDo=     1
 LinEq1:  Iter= 12 NonCon=     1 RMS=8.16D-07 Max=1.57D-05 NDo=     1
 LinEq1:  Iter= 13 NonCon=     1 RMS=2.84D-07 Max=1.15D-05 NDo=     1
 LinEq1:  Iter= 14 NonCon=     1 RMS=9.28D-08 Max=5.13D-06 NDo=     1
 LinEq1:  Iter= 15 NonCon=     1 RMS=4.29D-08 Max=1.73D-06 NDo=     1
 LinEq1:  Iter= 16 NonCon=     1 RMS=2.19D-08 Max=5.93D-07 NDo=     1
 LinEq1:  Iter= 17 NonCon=     1 RMS=9.29D-09 Max=1.85D-07 NDo=     1
 LinEq1:  Iter= 18 NonCon=     1 RMS=3.93D-09 Max=6.87D-08 NDo=     1
 LinEq1:  Iter= 19 NonCon=     1 RMS=1.53D-09 Max=3.49D-08 NDo=     1
 LinEq1:  Iter= 20 NonCon=     1 RMS=4.58D-10 Max=8.19D-09 NDo=     1
 LinEq1:  Iter= 21 NonCon=     1 RMS=2.09D-10 Max=3.77D-09 NDo=     1
 LinEq1:  Iter= 22 NonCon=     1 RMS=7.70D-11 Max=2.01D-09 NDo=     1
 LinEq1:  Iter= 23 NonCon=     0 RMS=1.84D-11 Max=4.27D-10 NDo=     1
 Linear equations converged to 1.000D-10 1.000D-09 after    23 iterations.
 PCM Corrected Linear-Response - Equilibrium solvation:
 Corrected transition energy               =    3.4415          eV
 Total energy after correction             = -633.196800922     a.u.
 NEqPCM:  Using non-equilibrium solvation (IEInf=1, Eps=   7.4257, EpsInf=   1.9740)
 Inv3:  Mode=1 IEnd=    13305708.
 Iteration    1 A*A^-1 deviation from unit magnitude is 3.11D-15 for    497.
 Iteration    1 A*A^-1 deviation from orthogonality  is 1.73D-15 for   1811    220.
 Iteration    1 A^-1*A deviation from unit magnitude is 2.89D-15 for    158.
 Iteration    1 A^-1*A deviation from orthogonality  is 1.60D-15 for   1813    626.
 NEqSol: Computing the dynamic-inertial partition of the PCM polarization charges.
 End of Minotr F.D. properties file   721 does not exist.
 End of Minotr F.D. properties file   722 does not exist.
 End of Minotr F.D. properties file   788 does not exist.
 Leave Link 1002 at Fri Jan 23 20:30:25 2026, MaxMem=  2147483648 cpu:            1892.4 elap:             119.9
 (Enter /data/home/wyx/g16/l601.exe)
 Copying SCF densities to generalized density rwf, IOpCl= 0 IROHF=0.

 **********************************************************************

            Population analysis using the CI density.

 **********************************************************************

 Orbital symmetries:
       Occupied  (A) (A) (A) (A) (A) (A) (A) (A) (A) (A) (A) (A)
                 (A) (A) (A) (A) (A) (A) (A) (A) (A) (A) (A) (A)
                 (A) (A) (A) (A) (A) (A) (A) (A) (A) (A) (A) (A)
                 (A) (A) (A) (A) (A) (A) (A) (A) (A) (A) (A) (A)
                 (A) (A) (A) (A)
       Virtual   (A) (A) (A) (A) (A) (A) (A) (A) (A) (A) (A) (A)
                 (A) (A) (A) (A) (A) (A) (A) (A) (A) (A) (A) (A)
                 (A) (A) (A) (A) (A) (A) (A) (A) (A) (A) (A) (A)
                 (A) (A) (A) (A) (A) (A) (A) (A) (A) (A) (A) (A)
                 (A) (A) (A) (A) (A) (A) (A) (A) (A) (A) (A) (A)
                 (A) (A) (A) (A) (A) (A) (A) (A) (A) (A) (A) (A)
                 (A) (A) (A) (A) (A) (A) (A) (A) (A) (A) (A) (A)
                 (A) (A) (A) (A) (A) (A) (A) (A) (A) (A) (A) (A)
                 (A) (A) (A) (A) (A) (A) (A) (A) (A) (A) (A) (A)
                 (A) (A) (A) (A) (A) (A) (A) (A) (A) (A) (A) (A)
                 (A) (A) (A) (A) (A) (A) (A) (A) (A) (A) (A) (A)
                 (A) (A) (A) (A) (A) (A) (A) (A) (A) (A) (A) (A)
                 (A) (A) (A) (A) (A) (A) (A) (A) (A) (A) (A) (A)
                 (A) (A) (A) (A) (A) (A) (A) (A) (A) (A) (A) (A)
                 (A) (A) (A) (A) (A) (A) (A) (A) (A) (A) (A) (A)
                 (A) (A) (A) (A) (A) (A) (A) (A) (A) (A) (A) (A)
                 (A) (A) (A) (A) (A) (A) (A) (A) (A) (A) (A) (A)
                 (A) (A) (A) (A) (A) (A) (A) (A) (A) (A) (A) (A)
                 (A) (A) (A) (A) (A) (A) (A) (A) (A) (A) (A) (A)
                 (A) (A) (A) (A) (A) (A) (A) (A) (A) (A) (A) (A)
                 (A) (A) (A) (A) (A) (A) (A) (A) (A) (A) (A) (A)
                 (A) (A) (A) (A) (A) (A) (A) (A) (A) (A) (A) (A)
                 (A) (A) (A) (A) (A) (A) (A) (A) (A) (A) (A) (A)
                 (A) (A) (A) (A) (A) (A) (A) (A) (A) (A) (A) (A)
                 (A) (A) (A) (A) (A) (A) (A) (A) (A) (A) (A) (A)
                 (A) (A) (A) (A)
 The electronic state is 1-A.
 Alpha  occ. eigenvalues --  -19.17774 -19.16848 -14.44323 -10.33270 -10.33091
 Alpha  occ. eigenvalues --  -10.32267 -10.31900 -10.26003 -10.25054 -10.24878
 Alpha  occ. eigenvalues --  -10.24837 -10.24634 -10.24054 -10.23701  -1.11864
 Alpha  occ. eigenvalues --   -1.10114  -1.07813  -0.91549  -0.90584  -0.83880
 Alpha  occ. eigenvalues --   -0.82560  -0.81562  -0.78711  -0.74323  -0.71526
 Alpha  occ. eigenvalues --   -0.68955  -0.62034  -0.58515  -0.56960  -0.55220
 Alpha  occ. eigenvalues --   -0.54777  -0.54088  -0.52519  -0.51939  -0.50677
 Alpha  occ. eigenvalues --   -0.49676  -0.49338  -0.49136  -0.48408  -0.48256
 Alpha  occ. eigenvalues --   -0.46759  -0.45133  -0.44772  -0.43748  -0.43008
 Alpha  occ. eigenvalues --   -0.42396  -0.41759  -0.41207  -0.33079  -0.32184
 Alpha  occ. eigenvalues --   -0.30959  -0.26203
 Alpha virt. eigenvalues --   -0.02787   0.02291   0.06291   0.08121   0.08456
 Alpha virt. eigenvalues --    0.09914   0.10644   0.11991   0.12675   0.13509
 Alpha virt. eigenvalues --    0.13943   0.15081   0.15575   0.16708   0.16901
 Alpha virt. eigenvalues --    0.17569   0.17626   0.17791   0.18361   0.19331
 Alpha virt. eigenvalues --    0.19890   0.21566   0.22892   0.23407   0.23922
 Alpha virt. eigenvalues --    0.24500   0.24686   0.25853   0.26076   0.26667
 Alpha virt. eigenvalues --    0.27303   0.27694   0.28068   0.29477   0.29914
 Alpha virt. eigenvalues --    0.31147   0.31759   0.32799   0.33515   0.34675
 Alpha virt. eigenvalues --    0.35396   0.35610   0.36708   0.37778   0.38541
 Alpha virt. eigenvalues --    0.39705   0.41215   0.41817   0.42330   0.43099
 Alpha virt. eigenvalues --    0.44111   0.45165   0.45659   0.46164   0.46577
 Alpha virt. eigenvalues --    0.46747   0.48122   0.48390   0.48785   0.49123
 Alpha virt. eigenvalues --    0.49841   0.50331   0.50851   0.51257   0.52009
 Alpha virt. eigenvalues --    0.52475   0.52885   0.53375   0.54014   0.54351
 Alpha virt. eigenvalues --    0.54728   0.55675   0.55869   0.56991   0.57605
 Alpha virt. eigenvalues --    0.58167   0.59614   0.59962   0.62064   0.62901
 Alpha virt. eigenvalues --    0.63248   0.65065   0.65943   0.67930   0.68155
 Alpha virt. eigenvalues --    0.70154   0.70863   0.71302   0.71844   0.72987
 Alpha virt. eigenvalues --    0.73834   0.74956   0.76791   0.77472   0.78615
 Alpha virt. eigenvalues --    0.80385   0.80991   0.82550   0.85813   0.87754
 Alpha virt. eigenvalues --    0.90719   0.90855   0.95778   1.01798   1.22176
 Alpha virt. eigenvalues --    1.25123   1.25704   1.27659   1.29725   1.30625
 Alpha virt. eigenvalues --    1.32626   1.33099   1.33915   1.35593   1.35948
 Alpha virt. eigenvalues --    1.37031   1.37308   1.38472   1.39038   1.39553
 Alpha virt. eigenvalues --    1.39825   1.40951   1.41087   1.41437   1.42254
 Alpha virt. eigenvalues --    1.42975   1.44175   1.44337   1.44825   1.46999
 Alpha virt. eigenvalues --    1.47867   1.49685   1.49995   1.50850   1.51698
 Alpha virt. eigenvalues --    1.52092   1.52746   1.53771   1.55651   1.57692
 Alpha virt. eigenvalues --    1.58655   1.59527   1.60628   1.61265   1.61833
 Alpha virt. eigenvalues --    1.63039   1.63400   1.64502   1.65222   1.66007
 Alpha virt. eigenvalues --    1.66132   1.66521   1.67306   1.67978   1.68593
 Alpha virt. eigenvalues --    1.69075   1.69885   1.71155   1.72429   1.73166
 Alpha virt. eigenvalues --    1.74334   1.74648   1.76032   1.76458   1.79101
 Alpha virt. eigenvalues --    1.81033   1.82575   1.83772   1.84263   1.86222
 Alpha virt. eigenvalues --    1.86860   1.87425   1.88342   1.89835   1.90303
 Alpha virt. eigenvalues --    1.91637   1.93527   1.95772   1.97986   2.00356
 Alpha virt. eigenvalues --    2.01510   2.04734   2.04984   2.06777   2.09529
 Alpha virt. eigenvalues --    2.10600   2.13318   2.15109   2.18305   2.19367
 Alpha virt. eigenvalues --    2.19846   2.22331   2.23528   2.24595   2.25327
 Alpha virt. eigenvalues --    2.26875   2.28950   2.30491   2.31212   2.33392
 Alpha virt. eigenvalues --    2.34505   2.35116   2.36369   2.37884   2.39333
 Alpha virt. eigenvalues --    2.40667   2.41537   2.42057   2.44858   2.45512
 Alpha virt. eigenvalues --    2.45840   2.48690   2.49331   2.50411   2.51771
 Alpha virt. eigenvalues --    2.52842   2.53238   2.54449   2.56001   2.57115
 Alpha virt. eigenvalues --    2.57212   2.60598   2.60844   2.62322   2.63143
 Alpha virt. eigenvalues --    2.64261   2.65661   2.66398   2.67255   2.69043
 Alpha virt. eigenvalues --    2.70114   2.72716   2.73380   2.74264   2.74926
 Alpha virt. eigenvalues --    2.76460   2.76842   2.77668   2.78135   2.79444
 Alpha virt. eigenvalues --    2.80520   2.81628   2.83226   2.84273   2.84859
 Alpha virt. eigenvalues --    2.85960   2.86376   2.88523   2.89983   2.93593
 Alpha virt. eigenvalues --    2.97333   2.98977   2.99212   3.05543   3.09794
 Alpha virt. eigenvalues --    3.10340   3.11974   3.14030   3.19543   3.20871
 Alpha virt. eigenvalues --    3.21576   3.23601   3.24260   3.25560   3.26417
 Alpha virt. eigenvalues --    3.28869   3.31833   3.32772   3.35825   3.37726
 Alpha virt. eigenvalues --    3.38434   3.39568   3.39897   3.40667   3.41803
 Alpha virt. eigenvalues --    3.42609   3.43431   3.45939   3.47668   3.48067
 Alpha virt. eigenvalues --    3.50115   3.53655   3.54946   3.57966   3.59934
 Alpha virt. eigenvalues --    3.62416   3.91682   4.00545   4.33392   4.36264
 Alpha virt. eigenvalues --   21.64198  21.77738  22.07248  22.10316  22.12065
 Alpha virt. eigenvalues --   22.13393  22.16706  22.19353  22.21615  22.27478
 Alpha virt. eigenvalues --   22.31603  31.92941  43.63424  43.65811
          Condensed to atoms (all electrons):
               1          2          3          4          5          6
     1  O    7.969912  -0.000000  -0.000244   0.000017   0.020127   0.022656
     2  O   -0.000000   8.073719   0.000252   0.000041  -0.198471   0.001457
     3  N   -0.000244   0.000252   6.183648   0.367203  -0.078207   0.394468
     4  H    0.000017   0.000041   0.367203   0.396233   0.015115  -0.039795
     5  C    0.020127  -0.198471  -0.078207   0.015115   7.354910   0.007076
     6  C    0.022656   0.001457   0.394468  -0.039795   0.007076   5.940003
     7  C   -0.000493  -0.017046   0.389709  -0.043003   0.106603  -0.239187
     8  C   -0.000324   0.646317   0.003378  -0.000537  -0.435820   0.044643
     9  C   -0.011564   0.022597   0.003160  -0.000767  -0.636959  -0.145982
    10  H    0.011996  -0.000393  -0.001469   0.000003  -0.087783   0.014709
    11  H    0.002311  -0.000066   0.000876   0.000047  -0.026040   0.000953
    12  C   -0.251999  -0.003011  -0.061750   0.017113   0.084522  -0.348371
    13  C    0.720525  -0.000009  -0.000045   0.000617   0.076461   0.076886
    14  C   -0.000010  -0.045899  -0.046800  -0.004717  -0.027321   0.002911
    15  H    0.000000   0.005118   0.004113   0.000966   0.020729   0.005945
    16  H    0.000000   0.015462   0.003179   0.000719  -0.007725  -0.000415
    17  H    0.000000  -0.001307  -0.003323   0.000582  -0.016684   0.000794
    18  C   -0.000110  -0.106474  -0.000375   0.000020  -0.223897  -0.001632
    19  H   -0.000000   0.008560   0.000007  -0.000001   0.018318   0.000010
    20  H    0.000384   0.005919   0.000093   0.000001   0.068315  -0.001473
    21  H   -0.000048   0.002049   0.000005  -0.000001  -0.008161   0.000165
    22  C   -0.126465   0.000000   0.000174   0.000126   0.003446  -0.000067
    23  H    0.002798   0.000000   0.000130  -0.000020  -0.000210   0.012526
    24  H    0.004051  -0.000000  -0.000005  -0.000041  -0.000348  -0.022419
    25  H    0.011349  -0.000000   0.000007  -0.000003  -0.000115  -0.002378
    26  C    0.000790   0.000006  -0.036719  -0.010805  -0.000716   0.235966
    27  H   -0.000083   0.000000  -0.002107   0.000742   0.000772  -0.051607
    28  H   -0.000216  -0.000000  -0.000381   0.000710  -0.000372  -0.059328
    29  H    0.000014   0.000000   0.004143   0.002166  -0.000483  -0.053599
               7          8          9         10         11         12
     1  O   -0.000493  -0.000324  -0.011564   0.011996   0.002311  -0.251999
     2  O   -0.017046   0.646317   0.022597  -0.000393  -0.000066  -0.003011
     3  N    0.389709   0.003378   0.003160  -0.001469   0.000876  -0.061750
     4  H   -0.043003  -0.000537  -0.000767   0.000003   0.000047   0.017113
     5  C    0.106603  -0.435820  -0.636959  -0.087783  -0.026040   0.084522
     6  C   -0.239187   0.044643  -0.145982   0.014709   0.000953  -0.348371
     7  C    6.041703  -0.346373  -0.223355   0.014403  -0.007940   0.063101
     8  C   -0.346373   5.725514   0.215997  -0.006583   0.004380  -0.067621
     9  C   -0.223355   0.215997   6.588863   0.514464   0.356713  -0.161133
    10  H    0.014403  -0.006583   0.514464   0.454058  -0.022339  -0.103352
    11  H   -0.007940   0.004380   0.356713  -0.022339   0.482700   0.012515
    12  C    0.063101  -0.067621  -0.161133  -0.103352   0.012515   7.695841
    13  C    0.021526  -0.009611  -0.214059   0.003651  -0.006773  -0.453348
    14  C    0.205111  -0.057388   0.013000   0.000151  -0.000692   0.003600
    15  H   -0.087156   0.008365  -0.000943  -0.000004   0.000076  -0.001311
    16  H   -0.029560  -0.015034   0.000999  -0.000032   0.000073  -0.000564
    17  H   -0.028050   0.003037   0.000718   0.000086  -0.000041  -0.000676
    18  C    0.010337   0.334213  -0.001752  -0.000539  -0.009568   0.001699
    19  H    0.003326  -0.042985  -0.004521   0.000863  -0.000073  -0.000822
    20  H    0.005490  -0.108060  -0.012097  -0.004574  -0.001726   0.007002
    21  H   -0.002477  -0.028714  -0.003045  -0.001495   0.000754   0.000142
    22  C    0.000145   0.000022   0.006227   0.001247   0.001222  -0.346305
    23  H   -0.000019   0.000006  -0.003121  -0.000131   0.000094   0.004733
    24  H   -0.000019  -0.000003   0.002255  -0.000033  -0.000126   0.052060
    25  H    0.000022   0.000000   0.000449  -0.000120  -0.000038   0.030257
    26  C    0.007091   0.000579   0.020595   0.000102  -0.000529  -0.097545
    27  H   -0.000410  -0.000013  -0.002127  -0.000005   0.000000  -0.013373
    28  H   -0.000411  -0.000012   0.001950   0.000021   0.000002   0.005997
    29  H    0.004048   0.000023  -0.000721   0.000005   0.000018   0.023283
              13         14         15         16         17         18
     1  O    0.720525  -0.000010   0.000000   0.000000   0.000000  -0.000110
     2  O   -0.000009  -0.045899   0.005118   0.015462  -0.001307  -0.106474
     3  N   -0.000045  -0.046800   0.004113   0.003179  -0.003323  -0.000375
     4  H    0.000617  -0.004717   0.000966   0.000719   0.000582   0.000020
     5  C    0.076461  -0.027321   0.020729  -0.007725  -0.016684  -0.223897
     6  C    0.076886   0.002911   0.005945  -0.000415   0.000794  -0.001632
     7  C    0.021526   0.205111  -0.087156  -0.029560  -0.028050   0.010337
     8  C   -0.009611  -0.057388   0.008365  -0.015034   0.003037   0.334213
     9  C   -0.214059   0.013000  -0.000943   0.000999   0.000718  -0.001752
    10  H    0.003651   0.000151  -0.000004  -0.000032   0.000086  -0.000539
    11  H   -0.006773  -0.000692   0.000076   0.000073  -0.000041  -0.009568
    12  C   -0.453348   0.003600  -0.001311  -0.000564  -0.000676   0.001699
    13  C    5.535271  -0.000025  -0.000027   0.000000  -0.000042   0.000958
    14  C   -0.000025   5.199851   0.388100   0.417895   0.395243   0.000875
    15  H   -0.000027   0.388100   0.594543  -0.027929  -0.032876   0.000275
    16  H    0.000000   0.417895  -0.027929   0.481753  -0.018175   0.000539
    17  H   -0.000042   0.395243  -0.032876  -0.018175   0.540128  -0.000227
    18  C    0.000958   0.000875   0.000275   0.000539  -0.000227   5.291580
    19  H   -0.000020  -0.000388  -0.000012   0.000214   0.000049   0.380650
    20  H    0.001300   0.000321  -0.000028  -0.000125   0.000007   0.386775
    21  H   -0.000007  -0.000141  -0.000003  -0.000032  -0.000057   0.398897
    22  C    0.329821   0.000008   0.000003  -0.000000  -0.000001   0.000007
    23  H   -0.040008   0.000001   0.000000  -0.000000  -0.000000  -0.000002
    24  H   -0.069940  -0.000000  -0.000000   0.000000   0.000000   0.000002
    25  H   -0.049662   0.000000   0.000000   0.000000   0.000000   0.000001
    26  C   -0.040813   0.000172  -0.000086   0.000059  -0.000093   0.000000
    27  H    0.005450  -0.000117   0.000030  -0.000001  -0.000066  -0.000002
    28  H   -0.003211   0.000033  -0.000023  -0.000000   0.000017   0.000001
    29  H   -0.000220   0.000168   0.000033  -0.000002   0.000013   0.000000
              19         20         21         22         23         24
     1  O   -0.000000   0.000384  -0.000048  -0.126465   0.002798   0.004051
     2  O    0.008560   0.005919   0.002049   0.000000   0.000000  -0.000000
     3  N    0.000007   0.000093   0.000005   0.000174   0.000130  -0.000005
     4  H   -0.000001   0.000001  -0.000001   0.000126  -0.000020  -0.000041
     5  C    0.018318   0.068315  -0.008161   0.003446  -0.000210  -0.000348
     6  C    0.000010  -0.001473   0.000165  -0.000067   0.012526  -0.022419
     7  C    0.003326   0.005490  -0.002477   0.000145  -0.000019  -0.000019
     8  C   -0.042985  -0.108060  -0.028714   0.000022   0.000006  -0.000003
     9  C   -0.004521  -0.012097  -0.003045   0.006227  -0.003121   0.002255
    10  H    0.000863  -0.004574  -0.001495   0.001247  -0.000131  -0.000033
    11  H   -0.000073  -0.001726   0.000754   0.001222   0.000094  -0.000126
    12  C   -0.000822   0.007002   0.000142  -0.346305   0.004733   0.052060
    13  C   -0.000020   0.001300  -0.000007   0.329821  -0.040008  -0.069940
    14  C   -0.000388   0.000321  -0.000141   0.000008   0.000001  -0.000000
    15  H   -0.000012  -0.000028  -0.000003   0.000003   0.000000  -0.000000
    16  H    0.000214  -0.000125  -0.000032  -0.000000  -0.000000   0.000000
    17  H    0.000049   0.000007  -0.000057  -0.000001  -0.000000   0.000000
    18  C    0.380650   0.386775   0.398897   0.000007  -0.000002   0.000002
    19  H    0.536616  -0.025973  -0.023407  -0.000001  -0.000000   0.000000
    20  H   -0.025973   0.560547  -0.025243   0.000033  -0.000001  -0.000001
    21  H   -0.023407  -0.025243   0.526830  -0.000001   0.000000  -0.000000
    22  C   -0.000001   0.000033  -0.000001   5.494478   0.395702   0.380100
    23  H   -0.000000  -0.000001   0.000000   0.395702   0.521274  -0.032533
    24  H    0.000000  -0.000001  -0.000000   0.380100  -0.032533   0.553847
    25  H    0.000000  -0.000000  -0.000000   0.376586  -0.009320  -0.017249
    26  C    0.000001  -0.000017   0.000002  -0.045261  -0.011853   0.011950
    27  H   -0.000000  -0.000000   0.000001  -0.010826   0.002040  -0.002578
    28  H    0.000000   0.000000  -0.000000   0.004033  -0.003173  -0.004489
    29  H    0.000000  -0.000000  -0.000000   0.002096   0.000104   0.000532
              25         26         27         28         29
     1  O    0.011349   0.000790  -0.000083  -0.000216   0.000014
     2  O   -0.000000   0.000006   0.000000  -0.000000   0.000000
     3  N    0.000007  -0.036719  -0.002107  -0.000381   0.004143
     4  H   -0.000003  -0.010805   0.000742   0.000710   0.002166
     5  C   -0.000115  -0.000716   0.000772  -0.000372  -0.000483
     6  C   -0.002378   0.235966  -0.051607  -0.059328  -0.053599
     7  C    0.000022   0.007091  -0.000410  -0.000411   0.004048
     8  C    0.000000   0.000579  -0.000013  -0.000012   0.000023
     9  C    0.000449   0.020595  -0.002127   0.001950  -0.000721
    10  H   -0.000120   0.000102  -0.000005   0.000021   0.000005
    11  H   -0.000038  -0.000529   0.000000   0.000002   0.000018
    12  C    0.030257  -0.097545  -0.013373   0.005997   0.023283
    13  C   -0.049662  -0.040813   0.005450  -0.003211  -0.000220
    14  C    0.000000   0.000172  -0.000117   0.000033   0.000168
    15  H    0.000000  -0.000086   0.000030  -0.000023   0.000033
    16  H    0.000000   0.000059  -0.000001  -0.000000  -0.000002
    17  H    0.000000  -0.000093  -0.000066   0.000017   0.000013
    18  C    0.000001   0.000000  -0.000002   0.000001   0.000000
    19  H    0.000000   0.000001  -0.000000   0.000000   0.000000
    20  H   -0.000000  -0.000017  -0.000000   0.000000  -0.000000
    21  H   -0.000000   0.000002   0.000001  -0.000000  -0.000000
    22  C    0.376586  -0.045261  -0.010826   0.004033   0.002096
    23  H   -0.009320  -0.011853   0.002040  -0.003173   0.000104
    24  H   -0.017249   0.011950  -0.002578  -0.004489   0.000532
    25  H    0.500807   0.002197  -0.000155   0.000657  -0.000031
    26  C    0.002197   5.192428   0.438765   0.422900   0.386624
    27  H   -0.000155   0.438765   0.514846  -0.041795  -0.018424
    28  H    0.000657   0.422900  -0.041795   0.537161  -0.021988
    29  H   -0.000031   0.386624  -0.018424  -0.021988   0.526379
 Mulliken charges:
               1
     1  O   -0.375374
     2  O   -0.408823
     3  N   -0.123123
     4  H    0.297269
     5  C   -0.027079
     6  C    0.205085
     7  C    0.152886
     8  C    0.132604
     9  C   -0.325841
    10  H    0.213092
    11  H    0.213217
    12  C   -0.090682
    13  C    0.115352
    14  C   -0.443942
    15  H    0.122102
    16  H    0.178703
    17  H    0.160943
    18  C   -0.462252
    19  H    0.149589
    20  H    0.143131
    21  H    0.163986
    22  C   -0.466547
    23  H    0.160984
    24  H    0.144988
    25  H    0.156741
    26  C   -0.475789
    27  H    0.181040
    28  H    0.161919
    29  H    0.145820
 Sum of Mulliken charges =  -0.00000
 Mulliken charges with hydrogens summed into heavy atoms:
               1
     1  O   -0.375374
     2  O   -0.408823
     3  N    0.174146
     5  C   -0.027079
     6  C    0.205085
     7  C    0.152886
     8  C    0.132604
     9  C    0.100468
    12  C   -0.090682
    13  C    0.115352
    14  C    0.017806
    18  C   -0.005545
    22  C   -0.003835
    26  C    0.012990
 Electronic spatial extent (au):  <R**2>=           3213.7165
 Charge=              0.0000 electrons
 Dipole moment (field-independent basis, Debye):
    X=              4.6228    Y=              7.4574    Z=             -0.5604  Tot=              8.7919
 Quadrupole moment (field-independent basis, Debye-Ang):
   XX=           -105.4221   YY=            -79.2261   ZZ=            -84.5145
   XY=             12.9004   XZ=              3.2732   YZ=             -0.5714
 Traceless Quadrupole moment (field-independent basis, Debye-Ang):
   XX=            -15.7012   YY=             10.4948   ZZ=              5.2064
   XY=             12.9004   XZ=              3.2732   YZ=             -0.5714
 Octapole moment (field-independent basis, Debye-Ang**2):
  XXX=            116.9964  YYY=             66.0222  ZZZ=              1.1539  XYY=            -33.9942
  XXY=             30.1081  XXZ=             -8.8905  XZZ=              2.1985  YZZ=             -1.8842
  YYZ=              0.2035  XYZ=             -2.4881
 Hexadecapole moment (field-independent basis, Debye-Ang**3):
 XXXX=          -3195.4739 YYYY=          -1289.1252 ZZZZ=           -133.3870 XXXY=             38.4703
 XXXZ=             46.0554 YYYX=             92.9546 YYYZ=            -13.7146 ZZZX=             -3.5659
 ZZZY=              3.9176 XXYY=           -713.2851 XXZZ=           -492.9732 YYZZ=           -239.7315
 XXYZ=             -1.2134 YYXZ=              3.2749 ZZXY=              0.2325
 N-N= 9.004403768399D+02 E-N=-3.276481409043D+03  KE= 6.308046741413D+02
 No NMR shielding tensors so no spin-rotation constants.
 Leave Link  601 at Fri Jan 23 20:30:25 2026, MaxMem=  2147483648 cpu:               1.8 elap:               0.1
 (Enter /data/home/wyx/g16/l9999.exe)
 Electronic transition elements 
                 1             2             3             4             5 
      1  -0.633200D+03 -0.633184D+03 -0.633168D+03 -0.633137D+03 -0.633118D+03
      2   0.159291D+01  0.234037D+00  0.154646D-01  0.510192D+00 -0.286822D+00
      3   0.445829D+00  0.363185D-01 -0.788841D-01 -0.169854D+01  0.141760D+01
      4   0.164378D+00 -0.175823D-01  0.428615D-01  0.173289D+00 -0.650269D-01
      5  -0.187823D+00 -0.317727D-01 -0.287777D-02 -0.865645D-01  0.583260D-01
      6  -0.548446D-01 -0.581720D-02  0.117919D-01  0.303245D+00 -0.285423D+00
      7  -0.191634D-01  0.627122D-03 -0.330177D-02 -0.277909D-01  0.136799D-01
      8  -0.104800D+00 -0.873009D+00 -0.367012D+00  0.398349D-01 -0.162980D+00
      9   0.297649D-01 -0.121120D-01  0.894176D+00 -0.337549D-01  0.115743D-01
     10   0.145828D+01  0.266486D+00  0.623646D-02  0.299541D+00 -0.272754D+00
     11  -0.913196D-01 -0.194267D-01 -0.671809D-02 -0.131910D+01  0.541816D+00
     12   0.258319D+00  0.694997D-01  0.203355D-01  0.227521D+00 -0.293432D+00
     13  -0.184846D-01 -0.301364D-02 -0.345786D-01  0.170346D-01 -0.354362D-01
     14   0.533388D+00  0.899483D-01  0.128097D-01 -0.404071D+00  0.249543D+00
     15  -0.543923D-01 -0.164304D-01 -0.739372D-01 -0.108024D+00  0.559004D-01
     16   0.451321D-01 -0.631511D-01 -0.239913D-01 -0.546163D-01 -0.385841D-01
                 6 
      1  -0.633101D+03
      2  -0.418454D-01
      3   0.157059D+00
      4   0.333422D-01
      5   0.965258D-02
      6  -0.328347D-01
      7  -0.272855D-01
      8  -0.267673D-01
      9  -0.140102D-01
     10  -0.997317D-02
     11  -0.147524D+00
     12  -0.119223D+00
     13   0.955916D-01
     14  -0.193415D-01
     15  -0.323319D-01
     16   0.533685D-01
 1\1\GINC-CN013\SP\RCAM-B3LYP TD-FC\TZVP\C11H15N1O2\WYX\23-Jan-2026\0\\
 #p CAM-B3LYP TZVP em=gd3bj td(nstates=6,root=1) scrf=(Solvent=TetraHyd
 roFuran,CorrectedLR,NonEquilibrium=Save) Geom=Check Guess=Read\\Title 
 Card Required\\0,1\O,0,2.812196,-1.577469,0.289801\O,0,-3.447231,-1.63
 8882,-0.163557\N,0,-0.641454,1.519284,-0.253884\H,0,-0.955101,2.474361
 ,-0.297176\C,0,-1.241723,-0.759305,-0.204004\C,0,0.688402,1.304486,-0.
 013089\C,0,-1.614106,0.541001,-0.27221\C,0,-2.208707,-1.822224,-0.1956
 32\C,0,0.219247,-1.125259,-0.185402\H,0,0.402316,-1.878405,0.581023\H,
 0,0.503341,-1.591889,-1.135191\C,0,1.147307,0.035446,0.068621\C,0,2.51
 3569,-0.386828,0.34729\C,0,-2.998553,1.077381,-0.357905\H,0,-3.017807,
 2.02342,-0.903448\H,0,-3.687904,0.406098,-0.863943\H,0,-3.412968,1.251
 371,0.636857\C,0,-1.781276,-3.25898,-0.236183\H,0,-2.510353,-3.926355,
 -0.696101\H,0,-0.84727,-3.419096,-0.775117\H,0,-1.609131,-3.640533,0.7
 75061\C,0,3.601359,0.578249,0.737044\H,0,3.913986,1.200585,-0.100899\H
 ,0,3.322936,1.238162,1.555697\H,0,4.450352,-0.028198,1.043941\C,0,1.45
 1715,2.58187,0.127238\H,0,1.734458,2.77701,1.160968\H,0,2.35317,2.6053
 63,-0.4773\H,0,0.85923,3.439335,-0.192501\\Version=ES64L-G16RevA.03\St
 ate=1-A\HF=-633.3232723\RMSD=1.647e-09\Dipole=0.7295832,3.3768232,-0.1
 719081\Quadrupole=-15.8585131,11.701683,4.15683,1.0359199,-0.1131308,0
 .4721169\PG=C01 [X(C11H15N1O2)]\\@


 WE HAVE LEARNED THAT NOTHING IS SIMPLE AND
 RATIONAL EXCEPT WHAT WE OURSELVES HAVE INVENTED;
 THAT GOD THINKS IN TERMS NEITHER OF EUCLID OR RIEMANN; THAT SCIENCE HAS "EXPLAINED" NOTHING;
 THAT THE MORE WE KNOW THE MORE FANTASTIC THE WORLD BECOMES
 AND THE PROFOUNDER THE SURROUNDING DARKNESS.
   --  ALDOUS HUXLEY
 Job cpu time:       0 days  2 hours 42 minutes 53.4 seconds.
 Elapsed time:       0 days  0 hours 10 minutes 14.3 seconds.
 File lengths (MBytes):  RWF=    735 Int=      0 D2E=      0 Chk=     67 Scr=      1
 Normal termination of Gaussian 16 at Fri Jan 23 20:30:27 2026.
