 Entering Gaussian System, Link 0=g16
 Input=DDL-S1-cLR-16.gjf
 Output=DDL-S1-cLR-16.log
 Initial command:
 /data/home/wyx/g16/l1.exe "/scr/tmp/wyx/13109/Gau-1700344.inp" -scrdir="/scr/tmp/wyx/13109/"
 Entering Link 1 = /data/home/wyx/g16/l1.exe PID=   1700345.
  
 Copyright (c) 1988,1990,1992,1993,1995,1998,2003,2009,2016,
            Gaussian, Inc.  All Rights Reserved.
  
 This is part of the Gaussian(R) 16 program.  It is based on
 the Gaussian(R) 09 system (copyright 2009, Gaussian, Inc.),
 the Gaussian(R) 03 system (copyright 2003, Gaussian, Inc.),
 the Gaussian(R) 98 system (copyright 1998, Gaussian, Inc.),
 the Gaussian(R) 94 system (copyright 1995, Gaussian, Inc.),
 the Gaussian 92(TM) system (copyright 1992, Gaussian, Inc.),
 the Gaussian 90(TM) system (copyright 1990, Gaussian, Inc.),
 the Gaussian 88(TM) system (copyright 1988, Gaussian, Inc.),
 the Gaussian 86(TM) system (copyright 1986, Carnegie Mellon
 University), and the Gaussian 82(TM) system (copyright 1983,
 Carnegie Mellon University). Gaussian is a federally registered
 trademark of Gaussian, Inc.
  
 This software contains proprietary and confidential information,
 including trade secrets, belonging to Gaussian, Inc.
  
 This software is provided under written license and may be
 used, copied, transmitted, or stored only in accord with that
 written license.
  
 The following legend is applicable only to US Government
 contracts under FAR:
  
                    RESTRICTED RIGHTS LEGEND
  
 Use, reproduction and disclosure by the US Government is
 subject to restrictions as set forth in subparagraphs (a)
 and (c) of the Commercial Computer Software - Restricted
 Rights clause in FAR 52.227-19.
  
 Gaussian, Inc.
 340 Quinnipiac St., Bldg. 40, Wallingford CT 06492
  
  
 ---------------------------------------------------------------
 Warning -- This program may not be used in any manner that
 competes with the business of Gaussian, Inc. or will provide
 assistance to any competitor of Gaussian, Inc.  The licensee
 of this program is prohibited from giving any competitor of
 Gaussian, Inc. access to this program.  By using this program,
 the user acknowledges that Gaussian, Inc. is engaged in the
 business of creating and licensing software in the field of
 computational chemistry and represents and warrants to the
 licensee that it is not a competitor of Gaussian, Inc. and that
 it will not use this program in any manner prohibited above.
 ---------------------------------------------------------------
  

 Cite this work as:
 Gaussian 16, Revision A.03,
 M. J. Frisch, G. W. Trucks, H. B. Schlegel, G. E. Scuseria, 
 M. A. Robb, J. R. Cheeseman, G. Scalmani, V. Barone, 
 G. A. Petersson, H. Nakatsuji, X. Li, M. Caricato, A. V. Marenich, 
 J. Bloino, B. G. Janesko, R. Gomperts, B. Mennucci, H. P. Hratchian, 
 J. V. Ortiz, A. F. Izmaylov, J. L. Sonnenberg, D. Williams-Young, 
 F. Ding, F. Lipparini, F. Egidi, J. Goings, B. Peng, A. Petrone, 
 T. Henderson, D. Ranasinghe, V. G. Zakrzewski, J. Gao, N. Rega, 
 G. Zheng, W. Liang, M. Hada, M. Ehara, K. Toyota, R. Fukuda, 
 J. Hasegawa, M. Ishida, T. Nakajima, Y. Honda, O. Kitao, H. Nakai, 
 T. Vreven, K. Throssell, J. A. Montgomery, Jr., J. E. Peralta, 
 F. Ogliaro, M. J. Bearpark, J. J. Heyd, E. N. Brothers, K. N. Kudin, 
 V. N. Staroverov, T. A. Keith, R. Kobayashi, J. Normand, 
 K. Raghavachari, A. P. Rendell, J. C. Burant, S. S. Iyengar, 
 J. Tomasi, M. Cossi, J. M. Millam, M. Klene, C. Adamo, R. Cammi, 
 J. W. Ochterski, R. L. Martin, K. Morokuma, O. Farkas, 
 J. B. Foresman, and D. J. Fox, Gaussian, Inc., Wallingford CT, 2016.
 
 ******************************************
 Gaussian 16:  ES64L-G16RevA.03 25-Dec-2016
                23-Jan-2026 
 ******************************************
 %nprocshared=16
 Will use up to   16 processors via shared memory.
 %mem=16GB
 %oldchk=DDL-LR-16.chk
 %chk=DDL-S1-cLR-16.chk
 Copying data from "DDL-LR-16.chk" to current chk file "DDL-S1-cLR-16.chk"
 IOpt=  2 FromEx=T IUOpen= 4 IOptOp= 5 NList=   0 IFRang= 0 IUIn= 4 IUOut= 2.
 ----------------------------------------------------------------------
 #p CAM-B3LYP TZVP em=gd3bj td(nstates=6,root=1) scrf=(Solvent=TetraHyd
 roFuran,CorrectedLR,NonEquilibrium=Save) Geom=Check Guess=Read
 ----------------------------------------------------------------------
 1/29=2,30=1,38=1,172=1/1;
 2/12=2,40=1/2;
 3/5=19,7=101,11=9,14=-4,25=1,30=1,70=9002201,71=1,72=20,74=-40,116=-2,124=41/1,2,3,8;
 4/5=1/1;
 5/5=2,38=6,53=20/2;
 8/6=1,10=1,107=1,108=6/1;
 9/8=1,15=1,41=6,42=1,70=2,73=22/14;
 10/5=4,13=10,28=1,74=20/2;
 6/7=2,8=2,9=2,10=2,22=-1/1;
 99/5=1,9=1/99;
 Leave Link    1 at Fri Jan 23 22:24:41 2026, MaxMem=  2147483648 cpu:               0.8 elap:               0.1
 (Enter /data/home/wyx/g16/l101.exe)
 -------------------
 Title Card Required
 -------------------
 Structure from the checkpoint file:  "DDL-S1-cLR-16.chk"
 Charge =  0 Multiplicity = 1
 Z-Matrix found in chk file.
 O,0,2.835925,-1.560951,0.161667
 O,0,-3.415029,-1.619354,0.11864
 N,0,-0.631846,1.509108,-0.392752
 H,0,-0.941148,2.46576,-0.445047
 C,0,-1.235313,-0.757398,-0.22626
 C,0,0.703835,1.294074,-0.119428
 C,0,-1.607796,0.540263,-0.297357
 C,0,-2.224477,-1.827114,-0.083849
 C,0,0.224485,-1.116306,-0.387165
 H,0,0.481138,-1.96843,0.237854
 H,0,0.429148,-1.447151,-1.414001
 C,0,1.152071,0.022822,-0.026381
 C,0,2.512561,-0.39087,0.328886
 C,0,-3.000808,1.082849,-0.278698
 H,0,-3.004853,2.129495,-0.583623
 H,0,-3.653961,0.512986,-0.932748
 H,0,-3.425621,1.01043,0.72226
 C,0,-1.730233,-3.248785,-0.194346
 H,0,-2.585065,-3.91881,-0.231723
 H,0,-1.107685,-3.39076,-1.078323
 H,0,-1.117542,-3.503371,0.673002
 C,0,3.527245,0.547336,0.937308
 H,0,4.041376,1.108011,0.154821
 H,0,3.088462,1.257749,1.633131
 H,0,4.268268,-0.058347,1.453493
 C,0,1.466445,2.57484,0.038198
 H,0,1.484868,2.890303,1.08265
 H,0,2.486921,2.498359,-0.315789
 H,0,0.978629,3.363262,-0.53442
 Recover connectivity data from disk.
 ITRead=  0  0  0  0  0  0  0  0  0  0  0  0  0  0  0  0  0  0  0  0
 ITRead=  0  0  0  0  0  0  0  0  0
 MicOpt= -1 -1 -1 -1 -1 -1 -1 -1 -1 -1 -1 -1 -1 -1 -1 -1 -1 -1 -1 -1
 MicOpt= -1 -1 -1 -1 -1 -1 -1 -1 -1
 NAtoms=     29 NQM=       29 NQMF=       0 NMMI=      0 NMMIF=      0
                NMic=       0 NMicF=      0.
                    Isotopes and Nuclear Properties:
 (Nuclear quadrupole moments (NQMom) in fm**2, nuclear magnetic moments (NMagM)
  in nuclear magnetons)

  Atom         1           2           3           4           5           6           7           8           9          10
 IAtWgt=          16          16          14           1          12          12          12          12          12           1
 AtmWgt=  15.9949146  15.9949146  14.0030740   1.0078250  12.0000000  12.0000000  12.0000000  12.0000000  12.0000000   1.0078250
 NucSpn=           0           0           2           1           0           0           0           0           0           1
 AtZEff=   5.6000000   5.6000000   4.5500000   1.0000000   3.6000000   3.6000000   3.6000000   3.6000000   3.6000000   1.0000000
 NQMom=    0.0000000   0.0000000   2.0440000   0.0000000   0.0000000   0.0000000   0.0000000   0.0000000   0.0000000   0.0000000
 NMagM=    0.0000000   0.0000000   0.4037610   2.7928460   0.0000000   0.0000000   0.0000000   0.0000000   0.0000000   2.7928460
 AtZNuc=   8.0000000   8.0000000   7.0000000   1.0000000   6.0000000   6.0000000   6.0000000   6.0000000   6.0000000   1.0000000

  Atom        11          12          13          14          15          16          17          18          19          20
 IAtWgt=           1          12          12          12           1           1           1          12           1           1
 AtmWgt=   1.0078250  12.0000000  12.0000000  12.0000000   1.0078250   1.0078250   1.0078250  12.0000000   1.0078250   1.0078250
 NucSpn=           1           0           0           0           1           1           1           0           1           1
 AtZEff=   1.0000000   3.6000000   3.6000000   3.6000000   1.0000000   1.0000000   1.0000000   3.6000000   1.0000000   1.0000000
 NQMom=    0.0000000   0.0000000   0.0000000   0.0000000   0.0000000   0.0000000   0.0000000   0.0000000   0.0000000   0.0000000
 NMagM=    2.7928460   0.0000000   0.0000000   0.0000000   2.7928460   2.7928460   2.7928460   0.0000000   2.7928460   2.7928460
 AtZNuc=   1.0000000   6.0000000   6.0000000   6.0000000   1.0000000   1.0000000   1.0000000   6.0000000   1.0000000   1.0000000

  Atom        21          22          23          24          25          26          27          28          29
 IAtWgt=           1          12           1           1           1          12           1           1           1
 AtmWgt=   1.0078250  12.0000000   1.0078250   1.0078250   1.0078250  12.0000000   1.0078250   1.0078250   1.0078250
 NucSpn=           1           0           1           1           1           0           1           1           1
 AtZEff=   1.0000000   3.6000000   1.0000000   1.0000000   1.0000000   3.6000000   1.0000000   1.0000000   1.0000000
 NQMom=    0.0000000   0.0000000   0.0000000   0.0000000   0.0000000   0.0000000   0.0000000   0.0000000   0.0000000
 NMagM=    2.7928460   0.0000000   2.7928460   2.7928460   2.7928460   0.0000000   2.7928460   2.7928460   2.7928460
 AtZNuc=   1.0000000   6.0000000   1.0000000   1.0000000   1.0000000   6.0000000   1.0000000   1.0000000   1.0000000
 Leave Link  101 at Fri Jan 23 22:24:44 2026, MaxMem=  2147483648 cpu:               0.8 elap:               0.1
 (Enter /data/home/wyx/g16/l202.exe)
                          Input orientation:                          
 ---------------------------------------------------------------------
 Center     Atomic      Atomic             Coordinates (Angstroms)
 Number     Number       Type             X           Y           Z
 ---------------------------------------------------------------------
      1          8           0        2.835925   -1.560951    0.161667
      2          8           0       -3.415029   -1.619354    0.118640
      3          7           0       -0.631846    1.509108   -0.392752
      4          1           0       -0.941148    2.465760   -0.445047
      5          6           0       -1.235313   -0.757398   -0.226260
      6          6           0        0.703835    1.294074   -0.119428
      7          6           0       -1.607796    0.540263   -0.297357
      8          6           0       -2.224477   -1.827114   -0.083849
      9          6           0        0.224485   -1.116306   -0.387165
     10          1           0        0.481138   -1.968430    0.237854
     11          1           0        0.429148   -1.447151   -1.414001
     12          6           0        1.152071    0.022822   -0.026381
     13          6           0        2.512561   -0.390870    0.328886
     14          6           0       -3.000808    1.082849   -0.278698
     15          1           0       -3.004853    2.129495   -0.583623
     16          1           0       -3.653961    0.512986   -0.932748
     17          1           0       -3.425621    1.010430    0.722260
     18          6           0       -1.730233   -3.248785   -0.194346
     19          1           0       -2.585065   -3.918810   -0.231723
     20          1           0       -1.107685   -3.390760   -1.078323
     21          1           0       -1.117542   -3.503371    0.673002
     22          6           0        3.527245    0.547336    0.937308
     23          1           0        4.041376    1.108011    0.154821
     24          1           0        3.088462    1.257749    1.633131
     25          1           0        4.268268   -0.058347    1.453493
     26          6           0        1.466445    2.574840    0.038198
     27          1           0        1.484868    2.890303    1.082650
     28          1           0        2.486921    2.498359   -0.315789
     29          1           0        0.978629    3.363262   -0.534420
 ---------------------------------------------------------------------
                    Distance matrix (angstroms):
                    1          2          3          4          5
     1  O    0.000000
     2  O    6.251375   0.000000
     3  N    4.664556   4.218401   0.000000
     4  H    5.554168   4.808949   1.006770   0.000000
     5  C    4.167873   2.369195   2.351370   3.243940   0.000000
     6  C    3.574352   5.050721   1.380214   2.045689   2.824933
     7  C    4.936847   2.846593   1.378492   2.042981   1.351933
     8  C    5.073341   1.225390   3.709754   4.495127   1.463905
     9  C    2.705281   3.708768   2.761545   3.767393   1.511858
    10  H    2.390997   3.913590   3.705357   4.706516   2.151326
    11  H    2.878933   4.142021   3.302745   4.257635   2.157989
    12  C    2.319281   4.855530   2.350667   3.244194   2.519583
    13  C    1.225404   6.057202   3.744058   4.548342   3.806454
    14  C    6.422698   2.762491   2.409707   2.486426   2.550732
    15  H    6.949067   3.836051   2.460178   2.095508   3.404869
    16  H    6.900549   2.389431   3.227543   3.377948   2.821854
    17  H    6.792144   2.698191   3.049116   3.106959   2.970245
    18  C    4.881120   2.364644   4.887061   5.774213   2.540270
    19  H    5.924642   2.469634   5.770900   6.596264   3.437497
    20  H    4.520822   3.145542   4.970426   5.893013   2.770721
    21  H    4.434452   3.022463   5.147492   6.075498   2.891870
    22  C    2.350408   7.318465   4.471253   5.055471   5.073281
    23  H    2.928569   7.939635   4.722258   5.198930   5.609672
    24  H    3.189679   7.270956   4.243592   4.692107   5.119881
    25  H    2.445044   7.953089   5.465954   6.092092   5.796520
    26  C    4.358381   6.436344   2.392557   2.458033   4.298051
    27  H    4.742070   6.728693   2.926600   2.898215   4.734802
    28  H    4.102166   7.209529   3.272804   3.430660   4.946008
    29  H    5.308668   6.675116   2.459997   2.121094   4.687893
                    6          7          8          9         10
     6  C    0.000000
     7  C    2.437935   0.000000
     8  C    4.279964   2.455678   0.000000
     9  C    2.472123   2.471748   2.568008   0.000000
    10  H    3.289556   3.308117   2.728336   1.087490   0.000000
    11  H    3.043959   3.057098   2.992558   1.098061   1.732934
    12  C    1.351168   2.821000   3.850538   1.512678   2.117795
    13  C    2.512272   4.270425   4.967160   2.504851   2.573648
    14  C    3.714076   1.495069   3.018036   3.905197   4.658442
    15  H    3.829853   2.135269   4.063683   4.582842   5.442421
    16  H    4.501330   2.142722   2.870561   4.242004   4.962537
    17  H    4.223896   2.136624   3.184998   4.367734   4.936702
    18  C    5.154403   3.792425   1.509184   2.899236   2.591576
    19  H    6.164709   4.565380   2.127694   3.971368   3.664162
    20  H    5.113585   4.038931   2.163606   2.724980   2.505934
    21  H    5.192383   4.187233   2.146617   2.936506   2.258578
    22  C    3.105793   5.281391   6.305797   3.928124   4.012117
    23  H    3.353955   5.695608   6.923354   4.450842   4.706026
    24  H    2.959599   5.128002   6.379006   4.233214   4.376433
    25  H    4.124113   6.160514   6.902731   4.567218   4.412318
    26  C    1.498927   3.701764   5.745868   3.917647   4.653170
    27  H    2.145449   4.122096   6.113426   4.449926   5.032737
    28  H    2.160615   4.538853   6.400061   4.264917   4.927666
    29  H    2.128208   3.836029   6.115791   4.544991   5.410254
                   11         12         13         14         15
    11  H    0.000000
    12  C    2.146841   0.000000
    13  C    2.914446   1.465704   0.000000
    14  C    4.410715   4.293451   5.739185   0.000000
    15  H    5.027354   4.693464   6.134066   1.090167   0.000000
    16  H    4.554725   4.915252   6.358826   1.085879   1.776607
    17  H    5.046044   4.742478   6.113950   1.089783   1.770503
    18  C    3.065350   4.363405   5.142252   4.514923   5.540947
    19  H    4.073372   5.435514   6.224663   5.019128   6.073059
    20  H    2.500430   4.226774   4.907724   4.923057   5.858088
    21  H    3.312985   4.251390   4.794135   5.048350   6.072086
    22  C    4.370908   2.616345   1.509964   6.661901   6.890919
    23  H    4.694491   3.091691   2.148073   7.055560   7.158077
    24  H    4.865537   2.833485   2.179601   6.384739   6.542356
    25  H    4.989002   3.450695   2.111355   7.559251   7.863510
    26  C    4.400145   2.572119   3.158211   4.720467   4.536243
    27  H    5.114814   3.092434   3.520001   5.024087   4.849009
    28  H    4.583399   2.827342   2.960390   5.667470   5.510660
    29  H    4.920942   3.383301   4.146294   4.593647   4.170459
                   16         17         18         19         20
    16  H    0.000000
    17  H    1.743170   0.000000
    18  C    4.289159   4.674978   0.000000
    19  H    4.612460   5.090582   1.086770   0.000000
    20  H    4.663040   5.290123   1.090476   1.782756   0.000000
    21  H    5.014277   5.069917   1.092015   1.773342   1.754969
    22  C    7.420782   6.971589   6.582724   7.659858   6.407335
    23  H    7.794554   7.489162   7.239825   8.326348   6.947835
    24  H    7.252494   6.582107   6.846046   7.903376   6.824095
    25  H    8.293508   7.802110   6.991157   8.044333   6.812924
    26  C    5.604689   5.181470   6.647363   7.658661   6.592507
    27  H    6.010077   5.270361   7.046701   8.040892   7.130420
    28  H    6.483269   6.184629   7.129432   8.179986   6.941496
    29  H    5.453772   5.149027   7.153513   8.112960   7.089806
                   21         22         23         24         25
    21  H    0.000000
    22  C    6.168641   0.000000
    23  H    6.938861   1.091317   0.000000
    24  H    6.424997   1.086916   1.765182   0.000000
    25  H    6.440831   1.087389   1.760233   1.776604   0.000000
    26  C    6.635105   3.027551   2.965714   2.628589   4.097188
    27  H    6.915158   3.111579   3.251640   2.353673   4.071778
    28  H    7.070405   2.541460   2.137960   2.387311   3.583337
    29  H    7.280278   4.073189   3.865440   3.685493   5.145963
                   26         27         28         29
    26  C    0.000000
    27  H    1.091209   0.000000
    28  H    1.082833   1.764472   0.000000
    29  H    1.089709   1.759228   1.752370   0.000000
 Stoichiometry    C11H15NO2
 Framework group  C1[X(C11H15NO2)]
 Deg. of freedom    81
 Full point group                 C1      NOp   1
 RotChk:  IX=0 Diff= 1.03D-15
 Largest Abelian subgroup         C1      NOp   1
 Largest concise Abelian subgroup C1      NOp   1
                         Standard orientation:                         
 ---------------------------------------------------------------------
 Center     Atomic      Atomic             Coordinates (Angstroms)
 Number     Number       Type             X           Y           Z
 ---------------------------------------------------------------------
      1          8           0        2.288218   -2.276543   -0.181993
      2          8           0       -3.587161   -0.244219    0.473193
      3          7           0        0.026432    1.802057   -0.268162
      4          1           0        0.055308    2.808391   -0.261635
      5          6           0       -1.288722   -0.139131   -0.091803
      6          6           0        1.230534    1.137598   -0.151448
      7          6           0       -1.205503    1.210234   -0.088377
      8          6           0       -2.562577   -0.824320    0.133650
      9          6           0       -0.059177   -0.953762   -0.423932
     10          1           0       -0.046475   -1.879248    0.146989
     11          1           0       -0.079003   -1.270431   -1.475153
     12          6           0        1.229284   -0.213528   -0.140885
     13          6           0        2.397379   -1.078164    0.049499
     14          6           0       -2.324210    2.184095    0.099555
     15          1           0       -2.003644    3.188751   -0.176791
     16          1           0       -3.191714    1.905829   -0.491325
     17          1           0       -2.649333    2.196388    1.139638
     18          6           0       -2.591352   -2.319843   -0.066891
     19          1           0       -3.621737   -2.662814   -0.025097
     20          1           0       -2.142287   -2.606932   -1.018237
     21          1           0       -2.019826   -2.816749    0.719836
     22          6           0        3.723436   -0.571149    0.563793
     23          1           0        4.318444   -0.167263   -0.257069
     24          1           0        3.620364    0.200935    1.321849
     25          1           0        4.262333   -1.419665    0.978553
     26          6           0        2.392762    2.078531   -0.048227
     27          1           0        2.617923    2.305253    0.995150
     28          1           0        3.287845    1.687921   -0.515965
     29          1           0        2.147210    3.017971   -0.542818
 ---------------------------------------------------------------------
 Rotational constants (GHZ):           1.0782823           0.4906712           0.3474065
 Leave Link  202 at Fri Jan 23 22:24:44 2026, MaxMem=  2147483648 cpu:               0.0 elap:               0.0
 (Enter /data/home/wyx/g16/l301.exe)
 Standard basis: TZVP (5D, 7F)
 Ernie: Thresh=  0.10000D-02 Tol=  0.10000D-05 Strict=F.
 There are   370 symmetry adapted cartesian basis functions of A   symmetry.
 There are   356 symmetry adapted basis functions of A   symmetry.
   356 basis functions,   610 primitive gaussians,   370 cartesian basis functions
    52 alpha electrons       52 beta electrons
       nuclear repulsion energy       900.7283840088 Hartrees.
 IExCor=20419 DFT=T Ex+Corr=CAM-B3LYP ExCW=0 ScaHFX=  1.000000
 ScaDFX=  1.000000  1.000000  1.000000  0.810000 ScalE2=  1.000000  1.000000
 IRadAn=      5 IRanWt=     -1 IRanGd=            0 ICorTp=0 IEmpDi=141
 HFx  wShort=  0.000000 wLong=  0.330000 cFull=  0.190000 cShort=  0.000000 cLong=  0.460000
 DFx  wShort=  0.000000 wLong=  0.330000 cFull=  0.190000 cShort=  0.000000 cLong=  0.460000
 NAtoms=   29 NActive=   29 NUniq=   29 SFac= 1.00D+00 NAtFMM=   60 NAOKFM=F Big=F
 Integral buffers will be    131072 words long.
 Raffenetti 1 integral format.
 Two-electron integral symmetry is turned on.
 R6Disp:  Grimme-D3(BJ) Dispersion energy=       -0.0262127044 Hartrees.
 Nuclear repulsion after empirical dispersion term =      900.7021713043 Hartrees.
 ------------------------------------------------------------------------------
 Polarizable Continuum Model (PCM)
 =================================
 Model                : PCM.
 Atomic radii         : UFF (Universal Force Field).
 Polarization charges : Total charges.
 Charge compensation  : None.
 Solution method      : On-the-fly selection.
 Cavity type          : Scaled VdW (van der Waals Surface) (Alpha=1.100).
 Cavity algorithm     : GePol (No added spheres)
                        Default sphere list used, NSphG=   29.
                        Lebedev-Laikov grids with approx.  5.0 points / Ang**2.
                        Smoothing algorithm: York/Karplus (Gamma=1.0000).
                        Polarization charges: spherical gaussians, with
                                              point-specific exponents (IZeta= 3).
                        Self-potential: point-specific (ISelfS= 7).
                        Self-field    : sphere-specific E.n sum rule (ISelfD= 2).
 1st derivatives      : Analytical E(r).r(x)/FMM algorithm (CHGder, D1EAlg=3).
                        Cavity 1st derivative terms included.
 Solvent              : TetraHydroFuran, Eps=   7.425700 Eps(inf)=   1.974025
 ------------------------------------------------------------------------------
 GePol: Number of generator spheres                  =      29
 GePol: Total number of spheres                      =      29
 GePol: Number of exposed spheres                    =      29 (100.00%)
 GePol: Number of points                             =    2087
 GePol: Average weight of points                     =       0.13
 GePol: Minimum weight of points                     =   0.28D-10
 GePol: Maximum weight of points                     =    0.20577
 GePol: Number of points with low weight             =     143
 GePol: Fraction of low-weight points (<1% of avg)   =       6.85%
 GePol: Cavity surface area                          =    268.837 Ang**2
 GePol: Cavity volume                                =    286.879 Ang**3
 Leave Link  301 at Fri Jan 23 22:24:44 2026, MaxMem=  2147483648 cpu:               0.6 elap:               0.0
 (Enter /data/home/wyx/g16/l302.exe)
 NPDir=0 NMtPBC=     1 NCelOv=     1 NCel=       1 NClECP=     1 NCelD=      1
         NCelK=      1 NCelE2=     1 NClLst=     1 CellRange=     0.0.
 One-electron integrals computed using PRISM.
 One-electron integral symmetry used in STVInt
 NBasis=   356 RedAO= T EigKep=  4.74D-05  NBF=   356
 NBsUse=   356 1.00D-06 EigRej= -1.00D+00 NBFU=   356
 Precomputing XC quadrature grid using
 IXCGrd= 4 IRadAn=           5 IRanWt=          -1 IRanGd=           0 AccXCQ= 0.00D+00.
 Generated NRdTot=       0 NPtTot=           0 NUsed=           0 NTot=          32
 NSgBfM=   366   366   366   366   366 MxSgAt=    29 MxSgA2=    29.
 Leave Link  302 at Fri Jan 23 22:24:44 2026, MaxMem=  2147483648 cpu:               3.2 elap:               0.2
 (Enter /data/home/wyx/g16/l303.exe)
 DipDrv:  MaxL=1.
 Leave Link  303 at Fri Jan 23 22:24:45 2026, MaxMem=  2147483648 cpu:               0.5 elap:               0.0
 (Enter /data/home/wyx/g16/l308.exe)
 Leave Link  308 at Fri Jan 23 22:24:45 2026, MaxMem=  2147483648 cpu:               0.7 elap:               0.1
 (Enter /data/home/wyx/g16/l401.exe)
 Initial guess from the checkpoint file:  "DDL-S1-cLR-16.chk"
 B after Tr=    -0.000000   -0.000000    0.000000
         Rot=    1.000000    0.000000   -0.000000   -0.000000 Ang=   0.00 deg.
 Guess basis will be translated and rotated to current coordinates.
 JPrj=2 DoOrth=T DoCkMO=T.
 Leave Link  401 at Fri Jan 23 22:24:45 2026, MaxMem=  2147483648 cpu:               2.2 elap:               0.2
 (Enter /data/home/wyx/g16/l502.exe)
 Integral symmetry usage will be decided dynamically.
 Closed shell SCF:
 Using DIIS extrapolation, IDIIS=  1040.
 NGot=  2147483648 LenX=  2147200095 LenY=  2147062754
 Requested convergence on RMS density matrix=1.00D-08 within 128 cycles.
 Requested convergence on MAX density matrix=1.00D-06.
 Requested convergence on             energy=1.00D-06.
 No special actions if energy rises.
 Fock matrices will be formed incrementally for  20 cycles.

 Cycle   1  Pass 1  IDiag  1:
 FoFJK:  IHMeth= 1 ICntrl=       0 DoSepK=T KAlg= 0 I1Cent=           0 FoldK=F
 IRaf=         1 NMat=       1 IRICut=       1 DoRegI=T DoRafI=F ISym2E= 0 IDoP0=0 IntGTp=1.
 FoFCou: FMM=F IPFlag=           0 FMFlag=      100000 FMFlg1=           0
         NFxFlg=           0 DoJE=T BraDBF=F KetDBF=F FulRan=T
         wScrn=  0.000000 ICntrl=       500 IOpCl=  0 I1Cent=           0 NGrid=           0
         NMat0=    1 NMatS0=      1 NMatT0=    0 NMatD0=    1 NMtDS0=    0 NMtDT0=    0
 Symmetry not used in FoFCou.
 Inv3:  Mode=1 IEnd=    13066707.
 Iteration    1 A*A^-1 deviation from unit magnitude is 3.33D-15 for    493.
 Iteration    1 A*A^-1 deviation from orthogonality  is 2.00D-15 for   1638   1319.
 Iteration    1 A^-1*A deviation from unit magnitude is 2.66D-15 for    493.
 Iteration    1 A^-1*A deviation from orthogonality  is 1.88D-15 for   1492    553.
 E= -633.328952766746    
 DIIS: error= 1.54D-08 at cycle   1 NSaved=   1.
 NSaved= 1 IEnMin= 1 EnMin= -633.328952766746     IErMin= 1 ErrMin= 1.54D-08
 ErrMax= 1.54D-08  0.00D+00 EMaxC= 1.00D-01 BMatC= 6.52D-14 BMatP= 6.52D-14
 IDIUse=1 WtCom= 1.00D+00 WtEn= 0.00D+00
 Coeff-Com:  0.100D+01
 Coeff:      0.100D+01
 Gap=     0.241 Goal=   None    Shift=    0.000
 RMSDP=2.81D-09 MaxDP=8.19D-08              OVMax= 3.49D-07

 Error on total polarization charges =  0.01420
 SCF Done:  E(RCAM-B3LYP) =  -633.328952767     A.U. after    1 cycles
            NFock=  1  Conv=0.28D-08     -V/T= 2.0042
 KE= 6.307042775156D+02 PE=-3.277490870816D+03 EE= 1.112755469229D+03
 Leave Link  502 at Fri Jan 23 22:24:51 2026, MaxMem=  2147483648 cpu:              85.6 elap:               5.6
 (Enter /data/home/wyx/g16/l801.exe)
 DoSCS=F DFT=T ScalE2(SS,OS)=  1.000000  1.000000
 ExpMin= 9.52D-02 ExpMax= 2.70D+04 ExpMxC= 9.22D+02 IAcc=3 IRadAn=         5 AccDes= 0.00D+00
 HarFok:  IExCor=  205 AccDes= 0.00D+00 IRadAn=         5 IDoV=-2 UseB2=F ITyADJ=14
 ICtDFT= 12500011 ScaDFX=  1.000000  1.000000  1.000000  1.000000
 Largest valence mixing into a core orbital is  5.65D-05
 Largest core mixing into a valence orbital is  1.21D-05
 Range of M.O.s used for correlation:    15   356
 NBasis=   356 NAE=    52 NBE=    52 NFC=    14 NFV=     0
 NROrb=    342 NOA=    38 NOB=    38 NVA=   304 NVB=   304

 **** Warning!!: The largest alpha MO coefficient is  0.49905876D+02

 Leave Link  801 at Fri Jan 23 22:24:51 2026, MaxMem=  2147483648 cpu:               1.0 elap:               0.1
 (Enter /data/home/wyx/g16/l914.exe)
 RHF ground state
 Two-electron integrals replicated using symmetry.
 MDV=  2147483648 DFT=T DoStab=F Mixed=T DoRPA=T DoScal=F NonHer=T
 NEqPCM:  Using equilibrium solvation (IEInf=0, Eps=   7.4257, EpsInf=   1.9740)
 Making orbital integer symmetry assigments:
 Orbital symmetries:
       Occupied  (A) (A) (A) (A) (A) (A) (A) (A) (A) (A) (A) (A)
                 (A) (A) (A) (A) (A) (A) (A) (A) (A) (A) (A) (A)
                 (A) (A) (A) (A) (A) (A) (A) (A) (A) (A) (A) (A)
                 (A) (A) (A) (A) (A) (A) (A) (A) (A) (A) (A) (A)
                 (A) (A) (A) (A)
       Virtual   (A) (A) (A) (A) (A) (A) (A) (A) (A) (A) (A) (A)
                 (A) (A) (A) (A) (A) (A) (A) (A) (A) (A) (A) (A)
                 (A) (A) (A) (A) (A) (A) (A) (A) (A) (A) (A) (A)
                 (A) (A) (A) (A) (A) (A) (A) (A) (A) (A) (A) (A)
                 (A) (A) (A) (A) (A) (A) (A) (A) (A) (A) (A) (A)
                 (A) (A) (A) (A) (A) (A) (A) (A) (A) (A) (A) (A)
                 (A) (A) (A) (A) (A) (A) (A) (A) (A) (A) (A) (A)
                 (A) (A) (A) (A) (A) (A) (A) (A) (A) (A) (A) (A)
                 (A) (A) (A) (A) (A) (A) (A) (A) (A) (A) (A) (A)
                 (A) (A) (A) (A) (A) (A) (A) (A) (A) (A) (A) (A)
                 (A) (A) (A) (A) (A) (A) (A) (A) (A) (A) (A) (A)
                 (A) (A) (A) (A) (A) (A) (A) (A) (A) (A) (A) (A)
                 (A) (A) (A) (A) (A) (A) (A) (A) (A) (A) (A) (A)
                 (A) (A) (A) (A) (A) (A) (A) (A) (A) (A) (A) (A)
                 (A) (A) (A) (A) (A) (A) (A) (A) (A) (A) (A) (A)
                 (A) (A) (A) (A) (A) (A) (A) (A) (A) (A) (A) (A)
                 (A) (A) (A) (A) (A) (A) (A) (A) (A) (A) (A) (A)
                 (A) (A) (A) (A) (A) (A) (A) (A) (A) (A) (A) (A)
                 (A) (A) (A) (A) (A) (A) (A) (A) (A) (A) (A) (A)
                 (A) (A) (A) (A) (A) (A) (A) (A) (A) (A) (A) (A)
                 (A) (A) (A) (A) (A) (A) (A) (A) (A) (A) (A) (A)
                 (A) (A) (A) (A) (A) (A) (A) (A) (A) (A) (A) (A)
                 (A) (A) (A) (A) (A) (A) (A) (A) (A) (A) (A) (A)
                 (A) (A) (A) (A) (A) (A) (A) (A) (A) (A) (A) (A)
                 (A) (A) (A) (A) (A) (A) (A) (A) (A) (A) (A) (A)
                 (A) (A) (A) (A)
 PCM Corrected Linear-Response:
 Compute the excitation energies in the ground state reaction field.
    24 initial guesses have been made.
 Convergence on wavefunction:    0.000001000000000
 Davidson Disk Diagonalization:  ConvIn= 1.00D-06 SkipCon=T Conv= 1.00D-06.
 Max sub-space:  2000 roots to seek:    24 dimension of matrix:        23104
 Iteration     1 Dimension    24 NMult     0 NNew     24
 CISAX will form    24 AO SS matrices at one time.
 NMat=    24 NSing=    24 JSym2X= 0.
 FoFJK:  IHMeth= 1 ICntrl=       0 DoSepK=T KAlg= 0 I1Cent=           0 FoldK=F
 IRaf=         1 NMat=      48 IRICut=       1 DoRegI=T DoRafI=F ISym2E= 0 IDoP0=3 IntGTp=3.
 FoFCou: FMM=F IPFlag=           0 FMFlag=      100000 FMFlg1=           0
         NFxFlg=           0 DoJE=F BraDBF=F KetDBF=F FulRan=T
         wScrn=  0.000000 ICntrl=       500 IOpCl=  0 I1Cent=           0 NGrid=           0
         NMat0=   24 NMatS0=     24 NMatT0=    0 NMatD0=   24 NMtDS0=    0 NMtDT0=    0
 Symmetry not used in FoFCou.
 New state      2 was old state      3
 New state      3 was old state      4
 New state      4 was old state      2
 New state      5 was old state      6
 New state      6 was old state      5
 Excitation Energies [eV] at current iteration:
 Root      1 :     4.099064714860730
 Root      2 :     4.369179173693148
 Root      3 :     4.542533236306942
 Root      4 :     5.603919962758726
 Root      5 :     6.255292825715890
 Root      6 :     6.603113556990223
 Root      7 :     6.782457985834280
 Root      8 :     6.859912466379397
 Root      9 :     7.036923399606860
 Root     10 :     7.114374904472703
 Root     11 :     7.299193411537517
 Root     12 :     7.488325375725013
 Root     13 :     7.637842954937640
 Root     14 :     7.705127859990062
 Root     15 :     7.790824162283038
 Root     16 :     8.100191639923416
 Root     17 :     8.147433075193812
 Root     18 :     8.275963254126248
 Root     19 :     8.327964125456157
 Root     20 :     8.603845213885373
 Root     21 :     8.738280598777695
 Root     22 :     9.056951925587763
 Root     23 :     9.127689296239042
 Root     24 :     9.194911116492623
 Iteration     2 Dimension    36 NMult    24 NNew     12
 CISAX will form    12 AO SS matrices at one time.
 NMat=    12 NSing=    12 JSym2X= 0.
 Root      1 not converged, maximum delta is    0.082101598101565
 Root      2 not converged, maximum delta is    0.083189557779728
 Root      3 not converged, maximum delta is    0.090492783289934
 Root      4 not converged, maximum delta is    0.218434922310397
 New state      5 was old state      6
 Root      5 not converged, maximum delta is    0.230781977056772
 New state      6 was old state      5
 Root      6 not converged, maximum delta is    0.137743739258867
 Excitation Energies [eV] at current iteration:
 Root      1 :     3.650869966318439   Change is   -0.448194748542290
 Root      2 :     4.119391792554292   Change is   -0.249787381138856
 Root      3 :     4.263350989009814   Change is   -0.279182247297128
 Root      4 :     5.281633790387898   Change is   -0.322286172370827
 Root      5 :     5.775770886247302   Change is   -0.827342670742922
 Root      6 :     6.125028387008832   Change is   -0.130264438707058
 Iteration     3 Dimension    48 NMult    36 NNew     12
 CISAX will form    12 AO SS matrices at one time.
 NMat=    12 NSing=    12 JSym2X= 0.
 Root      1 not converged, maximum delta is    0.010473571469417
 Root      2 not converged, maximum delta is    0.012883114927019
 Root      3 not converged, maximum delta is    0.013698536130472
 Root      4 not converged, maximum delta is    0.025280605957918
 Root      5 not converged, maximum delta is    0.026026257250146
 Root      6 not converged, maximum delta is    0.018815108933023
 Excitation Energies [eV] at current iteration:
 Root      1 :     3.630751075941684   Change is   -0.020118890376756
 Root      2 :     4.105383500921675   Change is   -0.014008291632616
 Root      3 :     4.248655605400386   Change is   -0.014695383609428
 Root      4 :     5.258974419865662   Change is   -0.022659370522236
 Root      5 :     5.734659828439730   Change is   -0.041111057807572
 Root      6 :     6.114023947722970   Change is   -0.011004439285863
 Iteration     4 Dimension    60 NMult    48 NNew     12
 CISAX will form    12 AO SS matrices at one time.
 NMat=    12 NSing=    12 JSym2X= 0.
 Root      1 not converged, maximum delta is    0.002401013855621
 Root      2 not converged, maximum delta is    0.001876388446987
 Root      3 not converged, maximum delta is    0.002113436704751
 Root      4 not converged, maximum delta is    0.002284954588635
 Root      5 not converged, maximum delta is    0.005010620390324
 Root      6 not converged, maximum delta is    0.003651669639458
 Excitation Energies [eV] at current iteration:
 Root      1 :     3.629040897467365   Change is   -0.001710178474319
 Root      2 :     4.104559322324823   Change is   -0.000824178596853
 Root      3 :     4.247817849621092   Change is   -0.000837755779294
 Root      4 :     5.257052498415053   Change is   -0.001921921450610
 Root      5 :     5.730837950666687   Change is   -0.003821877773043
 Root      6 :     6.113189916441611   Change is   -0.000834031281359
 Iteration     5 Dimension    72 NMult    60 NNew     12
 CISAX will form    12 AO SS matrices at one time.
 NMat=    12 NSing=    12 JSym2X= 0.
 Root      1 not converged, maximum delta is    0.000718829246126
 Root      2 not converged, maximum delta is    0.000285477821325
 Root      3 not converged, maximum delta is    0.000534783958957
 Root      4 not converged, maximum delta is    0.001176368789173
 Root      5 not converged, maximum delta is    0.001176105537850
 Root      6 not converged, maximum delta is    0.001065283221778
 Excitation Energies [eV] at current iteration:
 Root      1 :     3.628932423769417   Change is   -0.000108473697948
 Root      2 :     4.104511775494170   Change is   -0.000047546830654
 Root      3 :     4.247765875212372   Change is   -0.000051974408720
 Root      4 :     5.256898931882898   Change is   -0.000153566532154
 Root      5 :     5.730488843050042   Change is   -0.000349107616645
 Root      6 :     6.113115229345592   Change is   -0.000074687096019
 Iteration     6 Dimension    84 NMult    72 NNew     12
 CISAX will form    12 AO SS matrices at one time.
 NMat=    12 NSing=    12 JSym2X= 0.
 Root      1 not converged, maximum delta is    0.000196044777274
 Root      2 not converged, maximum delta is    0.000080817797670
 Root      3 not converged, maximum delta is    0.000137752192698
 Root      4 not converged, maximum delta is    0.000616748279380
 Root      5 not converged, maximum delta is    0.000337998519610
 Root      6 not converged, maximum delta is    0.000250093769754
 Excitation Energies [eV] at current iteration:
 Root      1 :     3.628925254465735   Change is   -0.000007169303682
 Root      2 :     4.104508466368775   Change is   -0.000003309125394
 Root      3 :     4.247762649621178   Change is   -0.000003225591194
 Root      4 :     5.256884195247539   Change is   -0.000014736635359
 Root      5 :     5.730461791424495   Change is   -0.000027051625548
 Root      6 :     6.113108911444800   Change is   -0.000006317900792
 Iteration     7 Dimension    96 NMult    84 NNew     12
 CISAX will form    12 AO SS matrices at one time.
 NMat=    12 NSing=    12 JSym2X= 0.
 Root      1 not converged, maximum delta is    0.000021391414497
 Root      2 not converged, maximum delta is    0.000013701966658
 Root      3 not converged, maximum delta is    0.000033364614695
 Root      4 not converged, maximum delta is    0.000180270082427
 Root      5 not converged, maximum delta is    0.000135226250191
 Root      6 not converged, maximum delta is    0.000129677886863
 Excitation Energies [eV] at current iteration:
 Root      1 :     3.628924892199386   Change is   -0.000000362266349
 Root      2 :     4.104508303868392   Change is   -0.000000162500383
 Root      3 :     4.247762461319679   Change is   -0.000000188301499
 Root      4 :     5.256882708717561   Change is   -0.000001486529978
 Root      5 :     5.730459492974160   Change is   -0.000002298450335
 Root      6 :     6.113108248843901   Change is   -0.000000662600900
 Iteration     8 Dimension   108 NMult    96 NNew     12
 CISAX will form    12 AO SS matrices at one time.
 NMat=    12 NSing=    12 JSym2X= 0.
 Root      1 not converged, maximum delta is    0.000003921678742
 Root      2 not converged, maximum delta is    0.000003472454271
 Root      3 not converged, maximum delta is    0.000003978576879
 Root      4 not converged, maximum delta is    0.000030175760504
 Root      5 not converged, maximum delta is    0.000023728227940
 Root      6 not converged, maximum delta is    0.000034510417607
 Excitation Energies [eV] at current iteration:
 Root      1 :     3.628924879498232   Change is   -0.000000012701154
 Root      2 :     4.104508292966970   Change is   -0.000000010901422
 Root      3 :     4.247762451557068   Change is   -0.000000009762611
 Root      4 :     5.256882591413919   Change is   -0.000000117303643
 Root      5 :     5.730459332756451   Change is   -0.000000160217709
 Root      6 :     6.113108185539586   Change is   -0.000000063304314
 Iteration     9 Dimension   120 NMult   108 NNew     12
 CISAX will form    12 AO SS matrices at one time.
 NMat=    12 NSing=    12 JSym2X= 0.
 Root      1 has converged.
 Root      2 has converged.
 Root      3 has converged.
 Root      4 not converged, maximum delta is    0.000003238655288
 Root      5 not converged, maximum delta is    0.000002960839893
 Root      6 not converged, maximum delta is    0.000004975151606
 Excitation Energies [eV] at current iteration:
 Root      1 :     3.628924879018795   Change is   -0.000000000479437
 Root      2 :     4.104508292556585   Change is   -0.000000000410385
 Root      3 :     4.247762451199868   Change is   -0.000000000357201
 Root      4 :     5.256882586375988   Change is   -0.000000005037931
 Root      5 :     5.730459325175546   Change is   -0.000000007580905
 Root      6 :     6.113108181415768   Change is   -0.000000004123818
 Iteration    10 Dimension   126 NMult   120 NNew      6
 CISAX will form     6 AO SS matrices at one time.
 NMat=     6 NSing=     6 JSym2X= 0.
 Root      1 has converged.
 Root      2 has converged.
 Root      3 has converged.
 Root      4 has converged.
 Root      5 has converged.
 Root      6 not converged, maximum delta is    0.000001168993570
 Excitation Energies [eV] at current iteration:
 Root      1 :     3.628924879014128   Change is   -0.000000000004667
 Root      2 :     4.104508292553541   Change is   -0.000000000003044
 Root      3 :     4.247762451195513   Change is   -0.000000000004355
 Root      4 :     5.256882586141605   Change is   -0.000000000234383
 Root      5 :     5.730459324767023   Change is   -0.000000000408523
 Root      6 :     6.113108181166757   Change is   -0.000000000249012
 Iteration    11 Dimension   128 NMult   126 NNew      2
 CISAX will form     2 AO SS matrices at one time.
 NMat=     2 NSing=     2 JSym2X= 0.
 Root      1 has converged.
 Root      2 has converged.
 Root      3 has converged.
 Root      4 has converged.
 Root      5 has converged.
 Root      6 has converged.
 Excitation Energies [eV] at current iteration:
 Root      1 :     3.628924879014060   Change is   -0.000000000000068
 Root      2 :     4.104508292553501   Change is   -0.000000000000040
 Root      3 :     4.247762451195377   Change is   -0.000000000000135
 Root      4 :     5.256882586140151   Change is   -0.000000000001455
 Root      5 :     5.730459324766234   Change is   -0.000000000000788
 Root      6 :     6.113108181149435   Change is   -0.000000000017321
 Convergence achieved on expansion vectors.
 PCM Corrected Linear-Response:
 The state of interest is root number   1
 Excitation energy =    3.6289 eV, Total energy =  -633.195592231    
 Recompute the excitation energies using the linear response reaction field.
 Convergence on wavefunction:    0.000001000000000
 Davidson Disk Diagonalization:  ConvIn= 1.00D-06 SkipCon=T Conv= 1.00D-06.
 Max sub-space:  2000 roots to seek:     6 dimension of matrix:        23104
 Iteration     1 Dimension     6 NMult     0 NNew      6
 CISAX will form     6 AO SS matrices at one time.
 NMat=     6 NSing=     6 JSym2X= 0.
 Excitation Energies [eV] at current iteration:
 Root      1 :     3.717507239193591
 Root      2 :     4.133725426470526
 Root      3 :     4.275488204128470
 Root      4 :     5.332546127257809
 Root      5 :     5.891004723587491
 Root      6 :     6.091535762728689
 Iteration     2 Dimension    18 NMult     6 NNew     12
 CISAX will form    12 AO SS matrices at one time.
 NMat=    12 NSing=    12 JSym2X= 0.
 Root      1 not converged, maximum delta is    0.026881453288961
 Root      2 not converged, maximum delta is    0.035917147131472
 Root      3 not converged, maximum delta is    0.008160345329655
 Root      4 not converged, maximum delta is    0.209349428570234
 Root      5 not converged, maximum delta is    0.246314223001559
 Root      6 not converged, maximum delta is    0.079957078513631
 Excitation Energies [eV] at current iteration:
 Root      1 :     3.516766887486336   Change is   -0.200740351707255
 Root      2 :     4.098622866742538   Change is   -0.035102559727987
 Root      3 :     4.242370808200202   Change is   -0.033117395928268
 Root      4 :     5.130693785851119   Change is   -0.201852341406689
 Root      5 :     5.611322811322734   Change is   -0.279681912264757
 Root      6 :     6.071117454664370   Change is   -0.020418308064319
 Iteration     3 Dimension    30 NMult    18 NNew     12
 CISAX will form    12 AO SS matrices at one time.
 NMat=    12 NSing=    12 JSym2X= 0.
 Root      1 not converged, maximum delta is    0.002886368658411
 Root      2 not converged, maximum delta is    0.000895644558549
 Root      3 not converged, maximum delta is    0.000968512819535
 Root      4 not converged, maximum delta is    0.012304093615336
 Root      5 not converged, maximum delta is    0.009380866480102
 Root      6 not converged, maximum delta is    0.009259776663852
 Excitation Energies [eV] at current iteration:
 Root      1 :     3.513900863826395   Change is   -0.002866023659941
 Root      2 :     4.098308722994212   Change is   -0.000314143748326
 Root      3 :     4.242060061856766   Change is   -0.000310746343435
 Root      4 :     5.122365534581350   Change is   -0.008328251269769
 Root      5 :     5.603637655882594   Change is   -0.007685155440140
 Root      6 :     6.069652533649569   Change is   -0.001464921014801
 Iteration     4 Dimension    42 NMult    30 NNew     12
 CISAX will form    12 AO SS matrices at one time.
 NMat=    12 NSing=    12 JSym2X= 0.
 Root      1 not converged, maximum delta is    0.001670855745718
 Root      2 not converged, maximum delta is    0.000247931283695
 Root      3 not converged, maximum delta is    0.000144816407955
 Root      4 not converged, maximum delta is    0.001916770233587
 Root      5 not converged, maximum delta is    0.002316029681992
 Root      6 not converged, maximum delta is    0.010431008213795
 Excitation Energies [eV] at current iteration:
 Root      1 :     3.513497711551229   Change is   -0.000403152275166
 Root      2 :     4.098290527609272   Change is   -0.000018195384940
 Root      3 :     4.242043204750804   Change is   -0.000016857105963
 Root      4 :     5.121203285841362   Change is   -0.001162248739989
 Root      5 :     5.602655991713415   Change is   -0.000981664169179
 Root      6 :     6.069117044640495   Change is   -0.000535489009075
 Iteration     5 Dimension    54 NMult    42 NNew     12
 CISAX will form    12 AO SS matrices at one time.
 NMat=    12 NSing=    12 JSym2X= 0.
 Root      1 not converged, maximum delta is    0.000687059488681
 Root      2 not converged, maximum delta is    0.000116517435368
 Root      3 not converged, maximum delta is    0.000074577814875
 Root      4 not converged, maximum delta is    0.000773288006948
 Root      5 not converged, maximum delta is    0.000750992964133
 Root      6 not converged, maximum delta is    0.004728906477136
 Excitation Energies [eV] at current iteration:
 Root      1 :     3.513468011345854   Change is   -0.000029700205375
 Root      2 :     4.098289269921264   Change is   -0.000001257688008
 Root      3 :     4.242041897244484   Change is   -0.000001307506319
 Root      4 :     5.121094838773501   Change is   -0.000108447067861
 Root      5 :     5.602542650764669   Change is   -0.000113340948747
 Root      6 :     6.068991984948016   Change is   -0.000125059692479
 Iteration     6 Dimension    66 NMult    54 NNew     12
 CISAX will form    12 AO SS matrices at one time.
 NMat=    12 NSing=    12 JSym2X= 0.
 Root      1 not converged, maximum delta is    0.000093587927548
 Root      2 not converged, maximum delta is    0.000029766890543
 Root      3 not converged, maximum delta is    0.000025127674437
 Root      4 not converged, maximum delta is    0.000355108340505
 Root      5 not converged, maximum delta is    0.000460079293783
 Root      6 not converged, maximum delta is    0.001010877021581
 Excitation Energies [eV] at current iteration:
 Root      1 :     3.513465858727725   Change is   -0.000002152618129
 Root      2 :     4.098289133391758   Change is   -0.000000136529506
 Root      3 :     4.242041780706654   Change is   -0.000000116537830
 Root      4 :     5.121084008136718   Change is   -0.000010830636783
 Root      5 :     5.602526839698982   Change is   -0.000015811065685
 Root      6 :     6.068974990468829   Change is   -0.000016994479188
 Iteration     7 Dimension    78 NMult    66 NNew     12
 CISAX will form    12 AO SS matrices at one time.
 NMat=    12 NSing=    12 JSym2X= 0.
 Root      1 not converged, maximum delta is    0.000011050025635
 Root      2 not converged, maximum delta is    0.000003854857059
 Root      3 not converged, maximum delta is    0.000006570218371
 Root      4 not converged, maximum delta is    0.000136951868890
 Root      5 not converged, maximum delta is    0.000193663104329
 Root      6 not converged, maximum delta is    0.000122144951123
 Excitation Energies [eV] at current iteration:
 Root      1 :     3.513465773192190   Change is   -0.000000085535535
 Root      2 :     4.098289127492230   Change is   -0.000000005899528
 Root      3 :     4.242041773553296   Change is   -0.000000007153359
 Root      4 :     5.121082919116365   Change is   -0.000001089020353
 Root      5 :     5.602525108025623   Change is   -0.000001731673360
 Root      6 :     6.068973345751405   Change is   -0.000001644717423
 Iteration     8 Dimension    90 NMult    78 NNew     12
 CISAX will form    12 AO SS matrices at one time.
 NMat=    12 NSing=    12 JSym2X= 0.
 Root      1 not converged, maximum delta is    0.000002855137091
 Root      2 not converged, maximum delta is    0.000001550031466
 Root      3 has converged.
 Root      4 not converged, maximum delta is    0.000030031484564
 Root      5 not converged, maximum delta is    0.000060112827260
 Root      6 not converged, maximum delta is    0.000038615954515
 Excitation Energies [eV] at current iteration:
 Root      1 :     3.513465768474202   Change is   -0.000000004717988
 Root      2 :     4.098289127150125   Change is   -0.000000000342106
 Root      3 :     4.242041773160575   Change is   -0.000000000392720
 Root      4 :     5.121082842960175   Change is   -0.000000076156189
 Root      5 :     5.602524952307838   Change is   -0.000000155717785
 Root      6 :     6.068973177805018   Change is   -0.000000167946387
 Iteration     9 Dimension   100 NMult    90 NNew     10
 CISAX will form    10 AO SS matrices at one time.
 NMat=    10 NSing=    10 JSym2X= 0.
 Root      1 has converged.
 Root      2 has converged.
 Root      3 has converged.
 Root      4 not converged, maximum delta is    0.000005470558911
 Root      5 not converged, maximum delta is    0.000012392898900
 Root      6 not converged, maximum delta is    0.000021004185492
 Excitation Energies [eV] at current iteration:
 Root      1 :     3.513465768306860   Change is   -0.000000000167342
 Root      2 :     4.098289127133877   Change is   -0.000000000016247
 Root      3 :     4.242041773150285   Change is   -0.000000000010291
 Root      4 :     5.121082837612535   Change is   -0.000000005347640
 Root      5 :     5.602524939448923   Change is   -0.000000012858915
 Root      6 :     6.068973158105767   Change is   -0.000000019699250
 Iteration    10 Dimension   106 NMult   100 NNew      6
 CISAX will form     6 AO SS matrices at one time.
 NMat=     6 NSing=     6 JSym2X= 0.
 Root      1 has converged.
 Root      2 has converged.
 Root      3 has converged.
 Root      4 not converged, maximum delta is    0.000001001778191
 Root      5 not converged, maximum delta is    0.000002287618081
 Root      6 not converged, maximum delta is    0.000007199610354
 Excitation Energies [eV] at current iteration:
 Root      1 :     3.513465768306557   Change is   -0.000000000000304
 Root      2 :     4.098289127133777   Change is   -0.000000000000100
 Root      3 :     4.242041773149858   Change is   -0.000000000000426
 Root      4 :     5.121082837341164   Change is   -0.000000000271371
 Root      5 :     5.602524938614350   Change is   -0.000000000834573
 Root      6 :     6.068973155852792   Change is   -0.000000002252975
 Iteration    11 Dimension   112 NMult   106 NNew      6
 CISAX will form     6 AO SS matrices at one time.
 NMat=     6 NSing=     6 JSym2X= 0.
 Root      1 has converged.
 Root      2 has converged.
 Root      3 has converged.
 Root      4 has converged.
 Root      5 has converged.
 Root      6 not converged, maximum delta is    0.000001758481160
 Excitation Energies [eV] at current iteration:
 Root      1 :     3.513465768306440   Change is   -0.000000000000117
 Root      2 :     4.098289127133697   Change is   -0.000000000000080
 Root      3 :     4.242041773149412   Change is   -0.000000000000446
 Root      4 :     5.121082837325592   Change is   -0.000000000015571
 Root      5 :     5.602524938556654   Change is   -0.000000000057696
 Root      6 :     6.068973155631918   Change is   -0.000000000220873
 Iteration    12 Dimension   114 NMult   112 NNew      2
 CISAX will form     2 AO SS matrices at one time.
 NMat=     2 NSing=     2 JSym2X= 0.
 Root      1 has converged.
 Root      2 has converged.
 Root      3 has converged.
 Root      4 has converged.
 Root      5 has converged.
 Root      6 has converged.
 Excitation Energies [eV] at current iteration:
 Root      1 :     3.513465768306393   Change is   -0.000000000000047
 Root      2 :     4.098289127133697   Change is    0.000000000000000
 Root      3 :     4.242041773149025   Change is   -0.000000000000387
 Root      4 :     5.121082837325544   Change is   -0.000000000000048
 Root      5 :     5.602524938556654   Change is    0.000000000000000
 Root      6 :     6.068973155612426   Change is   -0.000000000019492
 Convergence achieved on expansion vectors.
 ***********************************************************************
 Excited states from <AA,BB:AA,BB> singles matrix:
 ***********************************************************************
 
 1PDM for each excited state written to RWF  633
 Ground to excited state transition densities written to RWF  633
 Ground to excited state transition electric dipole moments (Au):
       state          X           Y           Z        Dip. S.      Osc.
         1        -1.6023      0.1986      0.0497      2.6091      0.2246
         2        -0.1886     -0.0023      0.0474      0.0378      0.0038
         3         0.0050      0.1504     -0.0392      0.0242      0.0025
         4        -0.1960     -1.7708      0.1479      3.1959      0.4010
         5        -0.0596     -1.4542      0.0317      2.1193      0.2909
         6         0.0309      0.2359      0.0766      0.0625      0.0093
 Ground to excited state transition velocity dipole moments (Au):
       state          X           Y           Z        Dip. S.      Osc.
         1         0.1986     -0.0209     -0.0073      0.0399      0.2063
         2         0.0274      0.0006     -0.0044      0.0008      0.0034
         3        -0.0005     -0.0221      0.0026      0.0005      0.0021
         4         0.0387      0.3195     -0.0227      0.1041      0.3688
         5         0.0125      0.2941     -0.0073      0.0867      0.2808
         6        -0.0074     -0.0489     -0.0360      0.0037      0.0112
 Ground to excited state transition magnetic dipole moments (Au):
       state          X           Y           Z
         1        -0.1003      0.0030     -1.4222
         2         0.8094     -0.1534     -0.4094
         3         0.1506     -1.0052     -0.1731
         4         0.0757     -0.1139      0.0909
         5         0.2145     -0.1075      0.2875
         6        -0.0612     -0.0101      0.0115
 Ground to excited state transition velocity quadrupole moments (Au):
       state          XX          YY          ZZ          XY          XZ          YZ
         1        -0.1761      0.1036     -0.0004     -0.5578      0.0669      0.0104
         2        -0.0035     -0.0050      0.0037     -0.0730      0.0233      0.0872
         3         0.0132     -0.0108      0.0309     -0.0470      0.0657      0.0075
         4        -1.2755      0.3167     -0.0082      0.0924      0.0927     -0.0633
         5        -0.5371      0.2604      0.0557      0.2188      0.0722      0.0432
         6        -0.2577     -0.2239      0.1955      0.0153      0.0360      0.0187
 <0|del|b> * <b|rxdel|0> + <0|del|b> * <b|delr+rdel|0>
 Rotatory Strengths (R) in cgs (10**-40 erg-esu-cm/Gauss)
       state          XX          YY          ZZ    R(velocity)    E-M Angle
         1        43.2103    -31.6353    -64.1977    -17.5409       91.93
         2         4.7562     61.0662     46.2100     37.3441       20.64
         3        52.4543     -0.9302     46.9858     32.8366       19.09
         4      -131.9027      0.9634     -2.6525    -44.5306      132.14
         5       -97.1323      4.6533    -14.1750    -35.5514      106.36
         6         2.0445      0.7121     -1.0691      0.5625       82.08
 1/2[<0|r|b>*<b|rxdel|0> + (<0|rxdel|b>*<b|r|0>)*]
 Rotatory Strengths (R) in cgs (10**-40 erg-esu-cm/Gauss)
       state          XX          YY          ZZ     R(length)
         1      -113.6320     -0.4243     49.9377    -21.3729
         2       107.9684     -0.2496     13.7122     40.4770
         3        -0.5282    106.9100     -4.7926     33.8630
         4        10.4854   -142.6834     -9.5082    -47.2354
         5         9.0354   -110.5491     -6.4372    -35.9837
         6         1.3373      1.6908     -0.6245      0.8012
  1/2[<0|del|b>*<b|r|0> + (<0|r|b>*<b|del|0>)*] (Au)
       state          X           Y           Z        Dip. S.   Osc.(frdel)
         1        -0.3183     -0.0041     -0.0004      0.3228      0.2152
         2        -0.0052     -0.0000     -0.0002      0.0054      0.0036
         3        -0.0000     -0.0033     -0.0001      0.0034      0.0023
         4        -0.0076     -0.5658     -0.0034      0.5768      0.3845
         5        -0.0007     -0.4277     -0.0002      0.4287      0.2858
         6        -0.0002     -0.0115     -0.0028      0.0145      0.0097

 Excitation energies and oscillator strengths:
 
 Excited State   1:      Singlet-A      3.5135 eV  352.88 nm  f=0.2246  <S**2>=0.000
      52 -> 53         0.69752
 This state for optimization and/or second-order correction.
 Total Energy, E(TD-HF/TD-DFT) =  -633.199835276    
 Copying the excited state density for this state as the 1-particle RhoCI density.
 
 Excited State   2:      Singlet-A      4.0983 eV  302.53 nm  f=0.0038  <S**2>=0.000
      50 -> 54         0.19513
      51 -> 53         0.55609
      51 -> 54         0.33437
 
 Excited State   3:      Singlet-A      4.2420 eV  292.27 nm  f=0.0025  <S**2>=0.000
      49 -> 53         0.20184
      49 -> 54        -0.14423
      50 -> 53         0.53219
      50 -> 54        -0.26758
      50 -> 58         0.11176
      51 -> 54         0.20997
 
 Excited State   4:      Singlet-A      5.1211 eV  242.11 nm  f=0.4010  <S**2>=0.000
      52 -> 54         0.69176
 
 Excited State   5:      Singlet-A      5.6025 eV  221.30 nm  f=0.2909  <S**2>=0.000
      49 -> 53         0.62657
      50 -> 53        -0.23487
      51 -> 53         0.14772
 
 Excited State   6:      Singlet-A      6.0690 eV  204.29 nm  f=0.0093  <S**2>=0.000
      52 -> 55         0.66183
      52 -> 56         0.13733
 SavETr:  write IOETrn=   770 NScale= 10 NData=  16 NLR=1 NState=    6 LETran=     118.
 The selected state is a singlet.
 CISGrd: IGrad=1 NXY=2 DFT=T
 CISAX will form     1 AO SS matrices at one time.
 NMat=     1 NSing=     1 JSym2X= 0.
 Leave Link  914 at Fri Jan 23 22:32:57 2026, MaxMem=  2147483648 cpu:            7748.1 elap:             485.4
 (Enter /data/home/wyx/g16/l1002.exe)
 Minotr:  Closed shell wavefunction.
          Computing CIS/TDA/TD derivatives.
          Using Z-Vector for PSCF gradient.
          Skipping F1 and S1 gradient terms here.
 NEqPCM:  Using equilibrium solvation (IEInf=0, Eps=   7.4257, EpsInf=   1.9740)
          Frozen-core window.
          Direct CPHF calculation.
          Differentiating once with respect to electric field.
                with respect to dipole field.
          Electric field/nuclear overlap derivatives assumed to be zero.
          Requested convergence is 1.0D-10 RMS, and 1.0D-09 maximum.
          NewPWx=F KeepS1=T KeepF1=T KeepIn=T MapXYZ=F SortEE=F KeepMc=T.
 Two-electron integral symmetry used by symmetrizing perturbed Fock matrices.
          MDV=    2147483648 using IRadAn=       5.
          Solving linear equations separately, MaxMat=     384.
          There are     1 degrees of freedom in the 1st order CPHF.  IDoFFX=0 NUNeed=     1.
 FoFJK:  IHMeth= 1 ICntrl=       0 DoSepK=T KAlg= 0 I1Cent=           0 FoldK=F
 IRaf=         1 NMat=       1 IRICut=       1 DoRegI=T DoRafI=F ISym2E=-1 IDoP0=0 IntGTp=1.
 FoFCou: FMM=F IPFlag=           0 FMFlag=      100000 FMFlg1=           0
         NFxFlg=           0 DoJE=T BraDBF=F KetDBF=F FulRan=T
         wScrn=  0.000000 ICntrl=       500 IOpCl=  0 I1Cent=           0 NGrid=           0
         NMat0=    1 NMatS0=      1 NMatT0=    0 NMatD0=    1 NMtDS0=    0 NMtDT0=    0
 Petite list used in FoFCou.
 LinEq1:  Iter=  0 NonCon=     1 RMS=3.59D-03 Max=1.77D-01 NDo=     1
 AX will form     1 AO Fock derivatives at one time.
 LinEq1:  Iter=  1 NonCon=     1 RMS=1.45D-03 Max=8.41D-02 NDo=     1
 LinEq1:  Iter=  2 NonCon=     1 RMS=7.26D-04 Max=3.85D-02 NDo=     1
 LinEq1:  Iter=  3 NonCon=     1 RMS=3.76D-04 Max=1.83D-02 NDo=     1
 LinEq1:  Iter=  4 NonCon=     1 RMS=1.75D-04 Max=5.74D-03 NDo=     1
 LinEq1:  Iter=  5 NonCon=     1 RMS=9.27D-05 Max=3.12D-03 NDo=     1
 LinEq1:  Iter=  6 NonCon=     1 RMS=5.97D-05 Max=2.25D-03 NDo=     1
 LinEq1:  Iter=  7 NonCon=     1 RMS=2.37D-05 Max=1.33D-03 NDo=     1
 LinEq1:  Iter=  8 NonCon=     1 RMS=1.05D-05 Max=3.85D-04 NDo=     1
 LinEq1:  Iter=  9 NonCon=     1 RMS=5.00D-06 Max=2.08D-04 NDo=     1
 LinEq1:  Iter= 10 NonCon=     1 RMS=2.16D-06 Max=4.72D-05 NDo=     1
 LinEq1:  Iter= 11 NonCon=     1 RMS=1.35D-06 Max=5.00D-05 NDo=     1
 LinEq1:  Iter= 12 NonCon=     1 RMS=7.43D-07 Max=1.44D-05 NDo=     1
 LinEq1:  Iter= 13 NonCon=     1 RMS=2.89D-07 Max=5.53D-06 NDo=     1
 LinEq1:  Iter= 14 NonCon=     1 RMS=1.16D-07 Max=2.88D-06 NDo=     1
 LinEq1:  Iter= 15 NonCon=     1 RMS=6.57D-08 Max=1.64D-06 NDo=     1
 LinEq1:  Iter= 16 NonCon=     1 RMS=2.09D-08 Max=5.26D-07 NDo=     1
 LinEq1:  Iter= 17 NonCon=     1 RMS=6.43D-09 Max=2.18D-07 NDo=     1
 LinEq1:  Iter= 18 NonCon=     1 RMS=3.26D-09 Max=9.78D-08 NDo=     1
 LinEq1:  Iter= 19 NonCon=     1 RMS=1.31D-09 Max=4.26D-08 NDo=     1
 LinEq1:  Iter= 20 NonCon=     1 RMS=4.29D-10 Max=1.01D-08 NDo=     1
 LinEq1:  Iter= 21 NonCon=     1 RMS=1.89D-10 Max=3.23D-09 NDo=     1
 LinEq1:  Iter= 22 NonCon=     1 RMS=6.80D-11 Max=1.63D-09 NDo=     1
 LinEq1:  Iter= 23 NonCon=     0 RMS=1.69D-11 Max=4.74D-10 NDo=     1
 Linear equations converged to 1.000D-10 1.000D-09 after    23 iterations.
 PCM Corrected Linear-Response - Equilibrium solvation:
 Corrected transition energy               =    3.6075          eV
 Total energy after correction             = -633.196380334     a.u.
 NEqPCM:  Using non-equilibrium solvation (IEInf=1, Eps=   7.4257, EpsInf=   1.9740)
 Inv3:  Mode=1 IEnd=    13066707.
 Iteration    1 A*A^-1 deviation from unit magnitude is 3.33D-15 for    198.
 Iteration    1 A*A^-1 deviation from orthogonality  is 1.44D-15 for   1905     93.
 Iteration    1 A^-1*A deviation from unit magnitude is 3.33D-15 for    240.
 Iteration    1 A^-1*A deviation from orthogonality  is 1.74D-15 for   1750    197.
 NEqSol: Computing the dynamic-inertial partition of the PCM polarization charges.
 End of Minotr F.D. properties file   721 does not exist.
 End of Minotr F.D. properties file   722 does not exist.
 End of Minotr F.D. properties file   788 does not exist.
 Leave Link 1002 at Fri Jan 23 22:34:58 2026, MaxMem=  2147483648 cpu:            1894.3 elap:             119.9
 (Enter /data/home/wyx/g16/l601.exe)
 Copying SCF densities to generalized density rwf, IOpCl= 0 IROHF=0.

 **********************************************************************

            Population analysis using the CI density.

 **********************************************************************

 Orbital symmetries:
       Occupied  (A) (A) (A) (A) (A) (A) (A) (A) (A) (A) (A) (A)
                 (A) (A) (A) (A) (A) (A) (A) (A) (A) (A) (A) (A)
                 (A) (A) (A) (A) (A) (A) (A) (A) (A) (A) (A) (A)
                 (A) (A) (A) (A) (A) (A) (A) (A) (A) (A) (A) (A)
                 (A) (A) (A) (A)
       Virtual   (A) (A) (A) (A) (A) (A) (A) (A) (A) (A) (A) (A)
                 (A) (A) (A) (A) (A) (A) (A) (A) (A) (A) (A) (A)
                 (A) (A) (A) (A) (A) (A) (A) (A) (A) (A) (A) (A)
                 (A) (A) (A) (A) (A) (A) (A) (A) (A) (A) (A) (A)
                 (A) (A) (A) (A) (A) (A) (A) (A) (A) (A) (A) (A)
                 (A) (A) (A) (A) (A) (A) (A) (A) (A) (A) (A) (A)
                 (A) (A) (A) (A) (A) (A) (A) (A) (A) (A) (A) (A)
                 (A) (A) (A) (A) (A) (A) (A) (A) (A) (A) (A) (A)
                 (A) (A) (A) (A) (A) (A) (A) (A) (A) (A) (A) (A)
                 (A) (A) (A) (A) (A) (A) (A) (A) (A) (A) (A) (A)
                 (A) (A) (A) (A) (A) (A) (A) (A) (A) (A) (A) (A)
                 (A) (A) (A) (A) (A) (A) (A) (A) (A) (A) (A) (A)
                 (A) (A) (A) (A) (A) (A) (A) (A) (A) (A) (A) (A)
                 (A) (A) (A) (A) (A) (A) (A) (A) (A) (A) (A) (A)
                 (A) (A) (A) (A) (A) (A) (A) (A) (A) (A) (A) (A)
                 (A) (A) (A) (A) (A) (A) (A) (A) (A) (A) (A) (A)
                 (A) (A) (A) (A) (A) (A) (A) (A) (A) (A) (A) (A)
                 (A) (A) (A) (A) (A) (A) (A) (A) (A) (A) (A) (A)
                 (A) (A) (A) (A) (A) (A) (A) (A) (A) (A) (A) (A)
                 (A) (A) (A) (A) (A) (A) (A) (A) (A) (A) (A) (A)
                 (A) (A) (A) (A) (A) (A) (A) (A) (A) (A) (A) (A)
                 (A) (A) (A) (A) (A) (A) (A) (A) (A) (A) (A) (A)
                 (A) (A) (A) (A) (A) (A) (A) (A) (A) (A) (A) (A)
                 (A) (A) (A) (A) (A) (A) (A) (A) (A) (A) (A) (A)
                 (A) (A) (A) (A) (A) (A) (A) (A) (A) (A) (A) (A)
                 (A) (A) (A) (A)
 The electronic state is 1-A.
 Alpha  occ. eigenvalues --  -19.17892 -19.17407 -14.44051 -10.33474 -10.33076
 Alpha  occ. eigenvalues --  -10.31947 -10.31385 -10.25935 -10.25061 -10.24848
 Alpha  occ. eigenvalues --  -10.24821 -10.24498 -10.24292 -10.23765  -1.12110
 Alpha  occ. eigenvalues --   -1.11608  -1.07375  -0.91195  -0.90195  -0.83792
 Alpha  occ. eigenvalues --   -0.82501  -0.81570  -0.78469  -0.74010  -0.71021
 Alpha  occ. eigenvalues --   -0.68545  -0.61516  -0.58176  -0.56745  -0.55162
 Alpha  occ. eigenvalues --   -0.54516  -0.53976  -0.52573  -0.51917  -0.50747
 Alpha  occ. eigenvalues --   -0.50023  -0.49493  -0.49104  -0.48611  -0.48137
 Alpha  occ. eigenvalues --   -0.46862  -0.45352  -0.45083  -0.43382  -0.43069
 Alpha  occ. eigenvalues --   -0.42403  -0.42067  -0.42002  -0.32818  -0.32225
 Alpha  occ. eigenvalues --   -0.31226  -0.26266
 Alpha virt. eigenvalues --   -0.02136   0.02476   0.06304   0.08089   0.08539
 Alpha virt. eigenvalues --    0.10078   0.10723   0.11954   0.12625   0.13491
 Alpha virt. eigenvalues --    0.14284   0.14867   0.15619   0.16039   0.16878
 Alpha virt. eigenvalues --    0.17467   0.17817   0.17879   0.18128   0.19169
 Alpha virt. eigenvalues --    0.19883   0.22008   0.22587   0.23453   0.23573
 Alpha virt. eigenvalues --    0.23895   0.24815   0.25508   0.25897   0.26366
 Alpha virt. eigenvalues --    0.26831   0.27159   0.28738   0.29163   0.30119
 Alpha virt. eigenvalues --    0.31551   0.31938   0.32778   0.33573   0.34232
 Alpha virt. eigenvalues --    0.35436   0.35793   0.36781   0.37991   0.38984
 Alpha virt. eigenvalues --    0.40194   0.40882   0.41759   0.42281   0.42718
 Alpha virt. eigenvalues --    0.43927   0.44095   0.45399   0.45937   0.46152
 Alpha virt. eigenvalues --    0.47168   0.47653   0.47908   0.48329   0.48940
 Alpha virt. eigenvalues --    0.49407   0.50246   0.50612   0.51276   0.51624
 Alpha virt. eigenvalues --    0.52869   0.53099   0.53332   0.54158   0.54449
 Alpha virt. eigenvalues --    0.54505   0.55833   0.56196   0.56662   0.58010
 Alpha virt. eigenvalues --    0.58506   0.59128   0.60478   0.61133   0.62237
 Alpha virt. eigenvalues --    0.63188   0.65463   0.65850   0.66541   0.67889
 Alpha virt. eigenvalues --    0.68560   0.69978   0.71231   0.72304   0.73022
 Alpha virt. eigenvalues --    0.73496   0.73818   0.75005   0.76173   0.77511
 Alpha virt. eigenvalues --    0.78167   0.79781   0.81718   0.83545   0.84176
 Alpha virt. eigenvalues --    0.89183   0.93028   0.98709   0.99940   1.24916
 Alpha virt. eigenvalues --    1.25849   1.27227   1.27490   1.29304   1.31639
 Alpha virt. eigenvalues --    1.32352   1.32974   1.33994   1.35302   1.35880
 Alpha virt. eigenvalues --    1.36517   1.37035   1.38032   1.39262   1.39842
 Alpha virt. eigenvalues --    1.39956   1.40206   1.41138   1.41657   1.41783
 Alpha virt. eigenvalues --    1.43148   1.44068   1.44784   1.45218   1.46806
 Alpha virt. eigenvalues --    1.48096   1.48860   1.49542   1.50605   1.51064
 Alpha virt. eigenvalues --    1.52297   1.52504   1.54245   1.54420   1.57521
 Alpha virt. eigenvalues --    1.58254   1.60438   1.60680   1.61168   1.62170
 Alpha virt. eigenvalues --    1.62462   1.63361   1.64224   1.65222   1.65610
 Alpha virt. eigenvalues --    1.67047   1.67462   1.67727   1.68029   1.68587
 Alpha virt. eigenvalues --    1.68792   1.69859   1.70634   1.72232   1.72444
 Alpha virt. eigenvalues --    1.73110   1.75074   1.75966   1.76792   1.78740
 Alpha virt. eigenvalues --    1.79603   1.83253   1.84381   1.85982   1.86490
 Alpha virt. eigenvalues --    1.86937   1.87173   1.88485   1.88981   1.90738
 Alpha virt. eigenvalues --    1.91535   1.94333   1.95214   1.97899   1.99530
 Alpha virt. eigenvalues --    2.00683   2.03655   2.04230   2.06113   2.09277
 Alpha virt. eigenvalues --    2.11279   2.12851   2.14250   2.16301   2.19294
 Alpha virt. eigenvalues --    2.20373   2.21069   2.21774   2.22446   2.25874
 Alpha virt. eigenvalues --    2.26762   2.27061   2.28752   2.30213   2.31039
 Alpha virt. eigenvalues --    2.32641   2.34653   2.35934   2.36056   2.37748
 Alpha virt. eigenvalues --    2.39423   2.40067   2.41456   2.43920   2.44649
 Alpha virt. eigenvalues --    2.45759   2.47627   2.49981   2.50327   2.51672
 Alpha virt. eigenvalues --    2.52989   2.53365   2.54869   2.56687   2.58580
 Alpha virt. eigenvalues --    2.58962   2.59829   2.60535   2.61224   2.62470
 Alpha virt. eigenvalues --    2.64330   2.65425   2.66883   2.67685   2.69129
 Alpha virt. eigenvalues --    2.70296   2.71923   2.72703   2.73438   2.74611
 Alpha virt. eigenvalues --    2.75912   2.76566   2.77348   2.78092   2.79335
 Alpha virt. eigenvalues --    2.80680   2.81200   2.82778   2.83500   2.84530
 Alpha virt. eigenvalues --    2.85545   2.85838   2.87489   2.90470   2.91631
 Alpha virt. eigenvalues --    2.97764   3.00066   3.01204   3.03294   3.09936
 Alpha virt. eigenvalues --    3.11926   3.15046   3.16273   3.16788   3.19974
 Alpha virt. eigenvalues --    3.20507   3.22182   3.25250   3.26623   3.27001
 Alpha virt. eigenvalues --    3.27673   3.29360   3.33262   3.34802   3.36407
 Alpha virt. eigenvalues --    3.36932   3.38628   3.39633   3.40037   3.41331
 Alpha virt. eigenvalues --    3.42574   3.44549   3.45338   3.46326   3.47854
 Alpha virt. eigenvalues --    3.48071   3.49159   3.55132   3.57967   3.59543
 Alpha virt. eigenvalues --    3.60292   3.89566   3.99068   4.34583   4.36048
 Alpha virt. eigenvalues --   21.62814  21.78900  22.08199  22.10982  22.11513
 Alpha virt. eigenvalues --   22.14155  22.15129  22.17748  22.21107  22.25051
 Alpha virt. eigenvalues --   22.30831  31.93375  43.62780  43.65127
          Condensed to atoms (all electrons):
               1          2          3          4          5          6
     1  O    7.998092  -0.000000  -0.000299   0.000019   0.020063   0.027416
     2  O   -0.000000   8.003327   0.000216   0.000041  -0.208813   0.000693
     3  N   -0.000299   0.000216   6.220245   0.368949  -0.087495   0.348886
     4  H    0.000019   0.000041   0.368949   0.400611   0.016699  -0.043949
     5  C    0.020063  -0.208813  -0.087495   0.016699   7.185095   0.024260
     6  C    0.027416   0.000693   0.348886  -0.043949   0.024260   6.074541
     7  C   -0.000702  -0.019304   0.403348  -0.039324   0.023564  -0.195666
     8  C    0.000072   0.686446   0.004561  -0.000366  -0.223619   0.026503
     9  C   -0.037149   0.016576   0.006304  -0.001126  -0.425220  -0.213607
    10  H    0.020842  -0.000175  -0.001233   0.000025  -0.079462   0.018519
    11  H    0.001015   0.000065   0.001006   0.000040  -0.020422  -0.007361
    12  C   -0.235972  -0.001520  -0.052256   0.014330   0.020888  -0.448975
    13  C    0.686574  -0.000015  -0.000226   0.000586   0.081193   0.174795
    14  C   -0.000003  -0.013777  -0.041290  -0.009122  -0.082362   0.013442
    15  H   -0.000000   0.004543   0.002582   0.001597   0.021690   0.006405
    16  H   -0.000000  -0.000882   0.001203   0.000734  -0.000920  -0.000676
    17  H    0.000000  -0.000653  -0.002200   0.000889  -0.012160  -0.001088
    18  C   -0.000159  -0.105552  -0.000687   0.000021  -0.296659  -0.000265
    19  H   -0.000001   0.010334   0.000004  -0.000001   0.026073   0.000030
    20  H    0.000103   0.003401   0.000104   0.000000   0.039560  -0.001006
    21  H   -0.000132   0.002343   0.000010  -0.000001   0.008476   0.000266
    22  C   -0.111243   0.000000   0.000326   0.000130   0.005032   0.000907
    23  H    0.002078   0.000000   0.000048  -0.000016  -0.000128   0.015859
    24  H    0.004945  -0.000000  -0.000199  -0.000057  -0.000692  -0.036297
    25  H    0.010316  -0.000000   0.000007  -0.000003  -0.000133  -0.002130
    26  C    0.000806  -0.000001  -0.039495  -0.006618  -0.001480   0.173620
    27  H   -0.000069   0.000000  -0.002264   0.000520   0.000832  -0.054972
    28  H   -0.000359  -0.000000   0.002533   0.000813  -0.000236  -0.056287
    29  H    0.000018   0.000000   0.001275   0.001111  -0.000728  -0.057027
               7          8          9         10         11         12
     1  O   -0.000702   0.000072  -0.037149   0.020842   0.001015  -0.235972
     2  O   -0.019304   0.686446   0.016576  -0.000175   0.000065  -0.001520
     3  N    0.403348   0.004561   0.006304  -0.001233   0.001006  -0.052256
     4  H   -0.039324  -0.000366  -0.001126   0.000025   0.000040   0.014330
     5  C    0.023564  -0.223619  -0.425220  -0.079462  -0.020422   0.020888
     6  C   -0.195666   0.026503  -0.213607   0.018519  -0.007361  -0.448975
     7  C    5.931609  -0.203707  -0.170059   0.016372  -0.002417   0.014243
     8  C   -0.203707   5.428439   0.090887  -0.006463  -0.000423  -0.033865
     9  C   -0.170059   0.090887   6.424450   0.489127   0.347789   0.059862
    10  H    0.016372  -0.006463   0.489127   0.455326  -0.019878  -0.106616
    11  H   -0.002417  -0.000423   0.347789  -0.019878   0.480160   0.007629
    12  C    0.014243  -0.033865   0.059862  -0.106616   0.007629   7.506439
    13  C    0.008177  -0.005272  -0.269751   0.008295  -0.001205  -0.380891
    14  C    0.263273  -0.036971   0.010684   0.000325  -0.000660  -0.004392
    15  H   -0.075764   0.006779  -0.000289   0.000001   0.000042  -0.001456
    16  H   -0.036429  -0.007448  -0.000925  -0.000054   0.000148   0.000091
    17  H   -0.039723  -0.000384   0.001337   0.000066  -0.000046   0.000213
    18  C    0.006693   0.287804  -0.006724   0.005174  -0.006478  -0.005320
    19  H    0.001304  -0.049290  -0.000636   0.000509  -0.000073  -0.000445
    20  H    0.001335  -0.061156  -0.007752  -0.003193  -0.000258   0.006371
    21  H   -0.000154  -0.040018  -0.010132  -0.002976   0.000969  -0.001343
    22  C   -0.000610  -0.000015  -0.004184   0.002174   0.000838  -0.287160
    23  H   -0.000008   0.000003  -0.003286  -0.000130   0.000053  -0.012428
    24  H    0.000089  -0.000014   0.003793  -0.000194  -0.000097   0.073679
    25  H    0.000037   0.000006   0.001588  -0.000153   0.000001   0.026001
    26  C    0.005709   0.000181   0.018435  -0.000070  -0.000451  -0.072113
    27  H    0.000302  -0.000045  -0.001713   0.000011  -0.000030  -0.017694
    28  H   -0.000536   0.000006   0.001112   0.000014   0.000023  -0.000316
    29  H    0.003980   0.000016  -0.000689   0.000000   0.000052   0.024649
              13         14         15         16         17         18
     1  O    0.686574  -0.000003  -0.000000  -0.000000   0.000000  -0.000159
     2  O   -0.000015  -0.013777   0.004543  -0.000882  -0.000653  -0.105552
     3  N   -0.000226  -0.041290   0.002582   0.001203  -0.002200  -0.000687
     4  H    0.000586  -0.009122   0.001597   0.000734   0.000889   0.000021
     5  C    0.081193  -0.082362   0.021690  -0.000920  -0.012160  -0.296659
     6  C    0.174795   0.013442   0.006405  -0.000676  -0.001088  -0.000265
     7  C    0.008177   0.263273  -0.075764  -0.036429  -0.039723   0.006693
     8  C   -0.005272  -0.036971   0.006779  -0.007448  -0.000384   0.287804
     9  C   -0.269751   0.010684  -0.000289  -0.000925   0.001337  -0.006724
    10  H    0.008295   0.000325   0.000001  -0.000054   0.000066   0.005174
    11  H   -0.001205  -0.000660   0.000042   0.000148  -0.000046  -0.006478
    12  C   -0.380891  -0.004392  -0.001456   0.000091   0.000213  -0.005320
    13  C    5.489524  -0.000120  -0.000014   0.000007  -0.000056   0.000597
    14  C   -0.000120   5.054033   0.378605   0.427084   0.423460   0.001824
    15  H   -0.000014   0.378605   0.591469  -0.027542  -0.027686   0.000375
    16  H    0.000007   0.427084  -0.027542   0.512661  -0.029732  -0.000101
    17  H   -0.000056   0.423460  -0.027686  -0.029732   0.528841  -0.000352
    18  C    0.000597   0.001824   0.000375  -0.000101  -0.000352   5.423831
    19  H   -0.000028   0.000032  -0.000008   0.000008   0.000006   0.380177
    20  H    0.000315   0.000104  -0.000023  -0.000069   0.000017   0.376001
    21  H    0.000249  -0.000393  -0.000007   0.000049  -0.000046   0.398974
    22  C    0.284556  -0.000021   0.000002  -0.000000   0.000000   0.000015
    23  H   -0.030036  -0.000001   0.000000   0.000000  -0.000000  -0.000002
    24  H   -0.093581  -0.000002   0.000000   0.000000   0.000000   0.000004
    25  H   -0.039548   0.000001   0.000000  -0.000000   0.000000  -0.000000
    26  C   -0.046386   0.000887   0.000253   0.000056  -0.000198   0.000028
    27  H    0.006117  -0.000415   0.000012   0.000010  -0.000065  -0.000000
    28  H   -0.003535   0.000104  -0.000010  -0.000002   0.000007  -0.000000
    29  H   -0.000295   0.000093   0.000060  -0.000009   0.000016   0.000000
              19         20         21         22         23         24
     1  O   -0.000001   0.000103  -0.000132  -0.111243   0.002078   0.004945
     2  O    0.010334   0.003401   0.002343   0.000000   0.000000  -0.000000
     3  N    0.000004   0.000104   0.000010   0.000326   0.000048  -0.000199
     4  H   -0.000001   0.000000  -0.000001   0.000130  -0.000016  -0.000057
     5  C    0.026073   0.039560   0.008476   0.005032  -0.000128  -0.000692
     6  C    0.000030  -0.001006   0.000266   0.000907   0.015859  -0.036297
     7  C    0.001304   0.001335  -0.000154  -0.000610  -0.000008   0.000089
     8  C   -0.049290  -0.061156  -0.040018  -0.000015   0.000003  -0.000014
     9  C   -0.000636  -0.007752  -0.010132  -0.004184  -0.003286   0.003793
    10  H    0.000509  -0.003193  -0.002976   0.002174  -0.000130  -0.000194
    11  H   -0.000073  -0.000258   0.000969   0.000838   0.000053  -0.000097
    12  C   -0.000445   0.006371  -0.001343  -0.287160  -0.012428   0.073679
    13  C   -0.000028   0.000315   0.000249   0.284556  -0.030036  -0.093581
    14  C    0.000032   0.000104  -0.000393  -0.000021  -0.000001  -0.000002
    15  H   -0.000008  -0.000023  -0.000007   0.000002   0.000000   0.000000
    16  H    0.000008  -0.000069   0.000049  -0.000000   0.000000   0.000000
    17  H    0.000006   0.000017  -0.000046   0.000000  -0.000000   0.000000
    18  C    0.380177   0.376001   0.398974   0.000015  -0.000002   0.000004
    19  H    0.510892  -0.017820  -0.011601  -0.000001  -0.000000   0.000000
    20  H   -0.017820   0.546134  -0.029867   0.000010  -0.000000  -0.000000
    21  H   -0.011601  -0.029867   0.521489  -0.000000   0.000001  -0.000000
    22  C   -0.000001   0.000010  -0.000000   5.469788   0.403074   0.392763
    23  H   -0.000000  -0.000000   0.000001   0.403074   0.512846  -0.028192
    24  H    0.000000  -0.000000  -0.000000   0.392763  -0.028192   0.549418
    25  H    0.000000   0.000000  -0.000003   0.368964  -0.012602  -0.020090
    26  C    0.000001  -0.000013   0.000006  -0.028482  -0.015746   0.014460
    27  H   -0.000000  -0.000000   0.000001  -0.011092   0.002590  -0.002289
    28  H    0.000000   0.000000  -0.000000   0.008065  -0.003678  -0.010639
    29  H    0.000000   0.000000  -0.000000   0.001924   0.000003   0.000867
              25         26         27         28         29
     1  O    0.010316   0.000806  -0.000069  -0.000359   0.000018
     2  O   -0.000000  -0.000001   0.000000  -0.000000   0.000000
     3  N    0.000007  -0.039495  -0.002264   0.002533   0.001275
     4  H   -0.000003  -0.006618   0.000520   0.000813   0.001111
     5  C   -0.000133  -0.001480   0.000832  -0.000236  -0.000728
     6  C   -0.002130   0.173620  -0.054972  -0.056287  -0.057027
     7  C    0.000037   0.005709   0.000302  -0.000536   0.003980
     8  C    0.000006   0.000181  -0.000045   0.000006   0.000016
     9  C    0.001588   0.018435  -0.001713   0.001112  -0.000689
    10  H   -0.000153  -0.000070   0.000011   0.000014   0.000000
    11  H    0.000001  -0.000451  -0.000030   0.000023   0.000052
    12  C    0.026001  -0.072113  -0.017694  -0.000316   0.024649
    13  C   -0.039548  -0.046386   0.006117  -0.003535  -0.000295
    14  C    0.000001   0.000887  -0.000415   0.000104   0.000093
    15  H    0.000000   0.000253   0.000012  -0.000010   0.000060
    16  H   -0.000000   0.000056   0.000010  -0.000002  -0.000009
    17  H    0.000000  -0.000198  -0.000065   0.000007   0.000016
    18  C   -0.000000   0.000028  -0.000000  -0.000000   0.000000
    19  H    0.000000   0.000001  -0.000000   0.000000   0.000000
    20  H    0.000000  -0.000013  -0.000000   0.000000   0.000000
    21  H   -0.000003   0.000006   0.000001  -0.000000  -0.000000
    22  C    0.368964  -0.028482  -0.011092   0.008065   0.001924
    23  H   -0.012602  -0.015746   0.002590  -0.003678   0.000003
    24  H   -0.020090   0.014460  -0.002289  -0.010639   0.000867
    25  H    0.511307   0.001575  -0.000393   0.001588  -0.000027
    26  C    0.001575   5.238986   0.436954   0.427027   0.394118
    27  H   -0.000393   0.436954   0.513921  -0.033320  -0.023543
    28  H    0.001588   0.427027  -0.033320   0.521724  -0.022698
    29  H   -0.000027   0.394118  -0.023543  -0.022698   0.530420
 Mulliken charges:
               1
     1  O   -0.386272
     2  O   -0.377296
     3  N   -0.133962
     4  H    0.293468
     5  C   -0.032894
     6  C    0.213166
     7  C    0.104367
     8  C    0.137353
     9  C   -0.318701
    10  H    0.203818
    11  H    0.219968
    12  C   -0.091636
    13  C    0.129974
    14  C   -0.384423
    15  H    0.118386
    16  H    0.162737
    17  H    0.159538
    18  C   -0.459220
    19  H    0.150533
    20  H    0.147702
    21  H    0.163840
    22  C   -0.495760
    23  H    0.169699
    24  H    0.152327
    25  H    0.153690
    26  C   -0.502051
    27  H    0.186633
    28  H    0.168601
    29  H    0.146413
 Sum of Mulliken charges =  -0.00000
 Mulliken charges with hydrogens summed into heavy atoms:
               1
     1  O   -0.386272
     2  O   -0.377296
     3  N    0.159507
     5  C   -0.032894
     6  C    0.213166
     7  C    0.104367
     8  C    0.137353
     9  C    0.105085
    12  C   -0.091636
    13  C    0.129974
    14  C    0.056238
    18  C    0.002855
    22  C   -0.020044
    26  C   -0.000404
 Electronic spatial extent (au):  <R**2>=           3187.0019
 Charge=              0.0000 electrons
 Dipole moment (field-independent basis, Debye):
    X=              3.2945    Y=              7.4879    Z=             -0.8918  Tot=              8.2291
 Quadrupole moment (field-independent basis, Debye-Ang):
   XX=           -103.8714   YY=            -79.5922   ZZ=            -84.7385
   XY=             12.6506   XZ=              5.7303   YZ=             -1.1999
 Traceless Quadrupole moment (field-independent basis, Debye-Ang):
   XX=            -14.4707   YY=              9.8085   ZZ=              4.6622
   XY=             12.6506   XZ=              5.7303   YZ=             -1.1999
 Octapole moment (field-independent basis, Debye-Ang**2):
  XXX=             98.4253  YYY=             66.3201  ZZZ=              0.1281  XYY=            -35.4048
  XXY=             30.6839  XXZ=            -11.6257  XZZ=              2.0915  YZZ=             -1.7535
  YYZ=              1.2314  XYZ=             -5.3255
 Hexadecapole moment (field-independent basis, Debye-Ang**3):
 XXXX=          -3087.3405 YYYY=          -1284.1281 ZZZZ=           -160.2725 XXXY=             39.0046
 XXXZ=             65.2313 YYYX=             85.4449 YYYZ=            -22.9281 ZZZX=             -2.5354
 ZZZY=              7.5715 XXYY=           -714.3288 XXZZ=           -495.9442 YYZZ=           -243.5302
 XXYZ=             -7.0971 YYXZ=              6.3794 ZZXY=             -1.7098
 N-N= 9.007021713043D+02 E-N=-3.277058678889D+03  KE= 6.307867665199D+02
 No NMR shielding tensors so no spin-rotation constants.
 Leave Link  601 at Fri Jan 23 22:34:58 2026, MaxMem=  2147483648 cpu:               1.8 elap:               0.1
 (Enter /data/home/wyx/g16/l9999.exe)
 Electronic transition elements 
                 1             2             3             4             5 
      1  -0.633200D+03 -0.633178D+03 -0.633173D+03 -0.633141D+03 -0.633123D+03
      2  -0.157165D+01 -0.181111D+00 -0.411298D-01  0.390518D+00  0.425678D+00
      3  -0.353667D+00 -0.647678D-01  0.142186D+00 -0.172845D+01 -0.138744D+01
      4  -0.118145D+00  0.289087D-01 -0.476255D-01  0.236317D+00  0.114667D+00
      5   0.193718D+00  0.259117D-01  0.660385D-02 -0.678230D-01 -0.855886D-01
      6   0.473699D-01  0.967908D-02 -0.209283D-01  0.313126D+00  0.280725D+00
      7   0.132836D-01 -0.176379D-02  0.389018D-02 -0.384024D-01 -0.240818D-01
      8   0.642358D-01  0.854605D+00  0.495536D+00  0.986498D-01  0.204499D+00
      9  -0.665563D-01  0.119188D+00 -0.899091D+00 -0.793454D-01 -0.214180D-01
     10  -0.142272D+01 -0.318837D+00 -0.958108D-01  0.104594D+00  0.312958D+00
     11   0.192200D+00  0.435756D-01  0.268815D-01 -0.116434D+01 -0.589482D+00
     12  -0.281685D+00 -0.467782D-01 -0.364512D-01  0.191821D+00  0.311552D+00
     13   0.165639D-01 -0.163878D-02  0.428972D-01  0.554365D-02  0.569143D-01
     14  -0.518748D+00 -0.658184D-01 -0.303578D-01 -0.426270D+00 -0.897380D-01
     15   0.943203D-01 -0.119101D-02  0.597592D-01 -0.108982D-01 -0.168904D-01
     16  -0.187402D-01  0.843385D-01  0.277071D-01 -0.813970D-01  0.488983D-01
                 6 
      1  -0.633106D+03
      2  -0.583384D-01
      3   0.234283D+00
      4   0.646935D-01
      5   0.134247D-01
      6  -0.493850D-01
      7  -0.335322D-01
      8  -0.552325D-01
      9  -0.299538D-01
     10   0.613103D-02
     11  -0.263944D+00
     12  -0.216305D+00
     13   0.194148D+00
     14  -0.278749D-02
     15  -0.240255D-01
     16   0.399783D-01
 1\1\GINC-CN013\SP\RCAM-B3LYP TD-FC\TZVP\C11H15N1O2\WYX\23-Jan-2026\0\\
 #p CAM-B3LYP TZVP em=gd3bj td(nstates=6,root=1) scrf=(Solvent=TetraHyd
 roFuran,CorrectedLR,NonEquilibrium=Save) Geom=Check Guess=Read\\Title 
 Card Required\\0,1\O,0,2.835925,-1.560951,0.161667\O,0,-3.415029,-1.61
 9354,0.11864\N,0,-0.631846,1.509108,-0.392752\H,0,-0.941148,2.46576,-0
 .445047\C,0,-1.235313,-0.757398,-0.22626\C,0,0.703835,1.294074,-0.1194
 28\C,0,-1.607796,0.540263,-0.297357\C,0,-2.224477,-1.827114,-0.083849\
 C,0,0.224485,-1.116306,-0.387165\H,0,0.481138,-1.96843,0.237854\H,0,0.
 429148,-1.447151,-1.414001\C,0,1.152071,0.022822,-0.026381\C,0,2.51256
 1,-0.39087,0.328886\C,0,-3.000808,1.082849,-0.278698\H,0,-3.004853,2.1
 29495,-0.583623\H,0,-3.653961,0.512986,-0.932748\H,0,-3.425621,1.01043
 ,0.72226\C,0,-1.730233,-3.248785,-0.194346\H,0,-2.585065,-3.91881,-0.2
 31723\H,0,-1.107685,-3.39076,-1.078323\H,0,-1.117542,-3.503371,0.67300
 2\C,0,3.527245,0.547336,0.937308\H,0,4.041376,1.108011,0.154821\H,0,3.
 088462,1.257749,1.633131\H,0,4.268268,-0.058347,1.453493\C,0,1.466445,
 2.57484,0.038198\H,0,1.484868,2.890303,1.08265\H,0,2.486921,2.498359,-
 0.315789\H,0,0.978629,3.363262,-0.53442\\Version=ES64L-G16RevA.03\Stat
 e=1-A\HF=-633.3289528\RMSD=2.808e-09\Dipole=0.2701149,3.2009861,-0.403
 1641\Quadrupole=-15.4042699,11.2399821,4.1642878,1.5588617,2.1494968,0
 .5856371\PG=C01 [X(C11H15N1O2)]\\@


 I do not feel obliged to believe that the same God who
 has endowed us with sense, reason, and intellect has
 intended us to forgo their use.
                   --Galileo Galilei
 Job cpu time:       0 days  2 hours 42 minutes 20.2 seconds.
 Elapsed time:       0 days  0 hours 10 minutes 11.9 seconds.
 File lengths (MBytes):  RWF=    733 Int=      0 D2E=      0 Chk=     67 Scr=      1
 Normal termination of Gaussian 16 at Fri Jan 23 22:35:01 2026.
