 Entering Gaussian System, Link 0=g16
 Input=DDL-LR-15.gjf
 Output=DDL-LR-15.log
 Initial command:
 /data/home/wyx/g16/l1.exe "/scr/tmp/wyx/13109/Gau-1688944.inp" -scrdir="/scr/tmp/wyx/13109/"
 Entering Link 1 = /data/home/wyx/g16/l1.exe PID=   1688945.
  
 Copyright (c) 1988,1990,1992,1993,1995,1998,2003,2009,2016,
            Gaussian, Inc.  All Rights Reserved.
  
 This is part of the Gaussian(R) 16 program.  It is based on
 the Gaussian(R) 09 system (copyright 2009, Gaussian, Inc.),
 the Gaussian(R) 03 system (copyright 2003, Gaussian, Inc.),
 the Gaussian(R) 98 system (copyright 1998, Gaussian, Inc.),
 the Gaussian(R) 94 system (copyright 1995, Gaussian, Inc.),
 the Gaussian 92(TM) system (copyright 1992, Gaussian, Inc.),
 the Gaussian 90(TM) system (copyright 1990, Gaussian, Inc.),
 the Gaussian 88(TM) system (copyright 1988, Gaussian, Inc.),
 the Gaussian 86(TM) system (copyright 1986, Carnegie Mellon
 University), and the Gaussian 82(TM) system (copyright 1983,
 Carnegie Mellon University). Gaussian is a federally registered
 trademark of Gaussian, Inc.
  
 This software contains proprietary and confidential information,
 including trade secrets, belonging to Gaussian, Inc.
  
 This software is provided under written license and may be
 used, copied, transmitted, or stored only in accord with that
 written license.
  
 The following legend is applicable only to US Government
 contracts under FAR:
  
                    RESTRICTED RIGHTS LEGEND
  
 Use, reproduction and disclosure by the US Government is
 subject to restrictions as set forth in subparagraphs (a)
 and (c) of the Commercial Computer Software - Restricted
 Rights clause in FAR 52.227-19.
  
 Gaussian, Inc.
 340 Quinnipiac St., Bldg. 40, Wallingford CT 06492
  
  
 ---------------------------------------------------------------
 Warning -- This program may not be used in any manner that
 competes with the business of Gaussian, Inc. or will provide
 assistance to any competitor of Gaussian, Inc.  The licensee
 of this program is prohibited from giving any competitor of
 Gaussian, Inc. access to this program.  By using this program,
 the user acknowledges that Gaussian, Inc. is engaged in the
 business of creating and licensing software in the field of
 computational chemistry and represents and warrants to the
 licensee that it is not a competitor of Gaussian, Inc. and that
 it will not use this program in any manner prohibited above.
 ---------------------------------------------------------------
  

 Cite this work as:
 Gaussian 16, Revision A.03,
 M. J. Frisch, G. W. Trucks, H. B. Schlegel, G. E. Scuseria, 
 M. A. Robb, J. R. Cheeseman, G. Scalmani, V. Barone, 
 G. A. Petersson, H. Nakatsuji, X. Li, M. Caricato, A. V. Marenich, 
 J. Bloino, B. G. Janesko, R. Gomperts, B. Mennucci, H. P. Hratchian, 
 J. V. Ortiz, A. F. Izmaylov, J. L. Sonnenberg, D. Williams-Young, 
 F. Ding, F. Lipparini, F. Egidi, J. Goings, B. Peng, A. Petrone, 
 T. Henderson, D. Ranasinghe, V. G. Zakrzewski, J. Gao, N. Rega, 
 G. Zheng, W. Liang, M. Hada, M. Ehara, K. Toyota, R. Fukuda, 
 J. Hasegawa, M. Ishida, T. Nakajima, Y. Honda, O. Kitao, H. Nakai, 
 T. Vreven, K. Throssell, J. A. Montgomery, Jr., J. E. Peralta, 
 F. Ogliaro, M. J. Bearpark, J. J. Heyd, E. N. Brothers, K. N. Kudin, 
 V. N. Staroverov, T. A. Keith, R. Kobayashi, J. Normand, 
 K. Raghavachari, A. P. Rendell, J. C. Burant, S. S. Iyengar, 
 J. Tomasi, M. Cossi, J. M. Millam, M. Klene, C. Adamo, R. Cammi, 
 J. W. Ochterski, R. L. Martin, K. Morokuma, O. Farkas, 
 J. B. Foresman, and D. J. Fox, Gaussian, Inc., Wallingford CT, 2016.
 
 ******************************************
 Gaussian 16:  ES64L-G16RevA.03 25-Dec-2016
                23-Jan-2026 
 ******************************************
 %nprocshared=16
 Will use up to   16 processors via shared memory.
 %mem=16GB
 %chk=DDL-LR-15.chk
 ----------------------------------------------------------------------
 #p CAM-B3LYP TZVP em=gd3bj td(nstates=6,root=1) scrf=(Solvent=TetraHyd
 roFuran)
 ----------------------------------------------------------------------
 1/38=1,172=1/1;
 2/12=2,17=6,18=5,40=1/2;
 3/5=19,7=101,11=9,25=1,30=1,70=2201,72=20,74=-40,124=41/1,2,3,8;
 4//1;
 5/5=2,38=5,53=20/2;
 8/6=1,10=1,107=1,108=6/1;
 9/8=1,41=6,42=1,70=2/14;
 6/7=2,8=2,9=2,10=2/1;
 99/5=1,9=1/99;
 Leave Link    1 at Fri Jan 23 16:29:56 2026, MaxMem=  2147483648 cpu:               0.4 elap:               0.1
 (Enter /data/home/wyx/g16/l101.exe)
 -------------------
 Title Card Required
 -------------------
 Symbolic Z-matrix:
 Charge =  0 Multiplicity = 1
 O                     2.83169  -1.56518   0.18344 
 O                    -3.42367  -1.62223   0.06979 
 N                    -0.63314   1.51114  -0.36888 
 H                    -0.94256   2.46771  -0.41928 
 C                    -1.23692  -0.75723  -0.22215 
 C                     0.70111   1.29587  -0.10075 
 C                    -1.60889   0.54058  -0.29345 
 C                    -2.22333  -1.82555  -0.10332 
 C                     0.22388  -1.11787  -0.35223 
 H                     0.46895  -1.95436   0.29861 
 H                     0.44278  -1.47309  -1.36746 
 C                     1.15104   0.02532  -0.00941 
 C                     2.51238  -0.39074   0.33133 
 C                    -3.0007    1.0815   -0.29355 
 H                    -3.00952   2.11534  -0.64033 
 H                    -3.66039   0.49291  -0.92444 
 H                    -3.42467   1.05097   0.71028 
 C                    -1.74037  -3.24873  -0.2015 
 H                    -2.58519  -3.92546  -0.30489 
 H                    -1.06191  -3.39489  -1.04278 
 H                    -1.18908  -3.52889   0.69926 
 C                     3.54107   0.55315   0.90326 
 H                     4.0224    1.12464   0.10824 
 H                     3.12782   1.25563   1.62253 
 H                     4.30312  -0.05416   1.38589 
 C                     1.46324   2.57577   0.05387 
 H                     1.5261    2.87199   1.10194 
 H                     2.46878   2.51622  -0.34471 
 H                     0.95597   3.37964  -0.47929 
 
 ITRead=  0  0  0  0  0  0  0  0  0  0  0  0  0  0  0  0  0  0  0  0
 ITRead=  0  0  0  0  0  0  0  0  0
 MicOpt= -1 -1 -1 -1 -1 -1 -1 -1 -1 -1 -1 -1 -1 -1 -1 -1 -1 -1 -1 -1
 MicOpt= -1 -1 -1 -1 -1 -1 -1 -1 -1
 NAtoms=     29 NQM=       29 NQMF=       0 NMMI=      0 NMMIF=      0
                NMic=       0 NMicF=      0.
                    Isotopes and Nuclear Properties:
 (Nuclear quadrupole moments (NQMom) in fm**2, nuclear magnetic moments (NMagM)
  in nuclear magnetons)

  Atom         1           2           3           4           5           6           7           8           9          10
 IAtWgt=          16          16          14           1          12          12          12          12          12           1
 AtmWgt=  15.9949146  15.9949146  14.0030740   1.0078250  12.0000000  12.0000000  12.0000000  12.0000000  12.0000000   1.0078250
 NucSpn=           0           0           2           1           0           0           0           0           0           1
 AtZEff=  -0.0000000  -0.0000000  -0.0000000  -0.0000000  -0.0000000  -0.0000000  -0.0000000  -0.0000000  -0.0000000  -0.0000000
 NQMom=    0.0000000   0.0000000   2.0440000   0.0000000   0.0000000   0.0000000   0.0000000   0.0000000   0.0000000   0.0000000
 NMagM=    0.0000000   0.0000000   0.4037610   2.7928460   0.0000000   0.0000000   0.0000000   0.0000000   0.0000000   2.7928460
 AtZNuc=   8.0000000   8.0000000   7.0000000   1.0000000   6.0000000   6.0000000   6.0000000   6.0000000   6.0000000   1.0000000

  Atom        11          12          13          14          15          16          17          18          19          20
 IAtWgt=           1          12          12          12           1           1           1          12           1           1
 AtmWgt=   1.0078250  12.0000000  12.0000000  12.0000000   1.0078250   1.0078250   1.0078250  12.0000000   1.0078250   1.0078250
 NucSpn=           1           0           0           0           1           1           1           0           1           1
 AtZEff=  -0.0000000  -0.0000000  -0.0000000  -0.0000000  -0.0000000  -0.0000000  -0.0000000  -0.0000000  -0.0000000  -0.0000000
 NQMom=    0.0000000   0.0000000   0.0000000   0.0000000   0.0000000   0.0000000   0.0000000   0.0000000   0.0000000   0.0000000
 NMagM=    2.7928460   0.0000000   0.0000000   0.0000000   2.7928460   2.7928460   2.7928460   0.0000000   2.7928460   2.7928460
 AtZNuc=   1.0000000   6.0000000   6.0000000   6.0000000   1.0000000   1.0000000   1.0000000   6.0000000   1.0000000   1.0000000

  Atom        21          22          23          24          25          26          27          28          29
 IAtWgt=           1          12           1           1           1          12           1           1           1
 AtmWgt=   1.0078250  12.0000000   1.0078250   1.0078250   1.0078250  12.0000000   1.0078250   1.0078250   1.0078250
 NucSpn=           1           0           1           1           1           0           1           1           1
 AtZEff=  -0.0000000  -0.0000000  -0.0000000  -0.0000000  -0.0000000  -0.0000000  -0.0000000  -0.0000000  -0.0000000
 NQMom=    0.0000000   0.0000000   0.0000000   0.0000000   0.0000000   0.0000000   0.0000000   0.0000000   0.0000000
 NMagM=    2.7928460   0.0000000   2.7928460   2.7928460   2.7928460   0.0000000   2.7928460   2.7928460   2.7928460
 AtZNuc=   1.0000000   6.0000000   1.0000000   1.0000000   1.0000000   6.0000000   1.0000000   1.0000000   1.0000000
 Leave Link  101 at Fri Jan 23 16:29:56 2026, MaxMem=  2147483648 cpu:               0.8 elap:               0.1
 (Enter /data/home/wyx/g16/l202.exe)
                          Input orientation:                          
 ---------------------------------------------------------------------
 Center     Atomic      Atomic             Coordinates (Angstroms)
 Number     Number       Type             X           Y           Z
 ---------------------------------------------------------------------
      1          8           0        2.831688   -1.565178    0.183441
      2          8           0       -3.423665   -1.622229    0.069786
      3          7           0       -0.633135    1.511136   -0.368879
      4          1           0       -0.942561    2.467710   -0.419275
      5          6           0       -1.236915   -0.757233   -0.222152
      6          6           0        0.701113    1.295865   -0.100754
      7          6           0       -1.608889    0.540581   -0.293451
      8          6           0       -2.223331   -1.825552   -0.103320
      9          6           0        0.223881   -1.117871   -0.352232
     10          1           0        0.468949   -1.954358    0.298610
     11          1           0        0.442781   -1.473087   -1.367459
     12          6           0        1.151040    0.025323   -0.009411
     13          6           0        2.512378   -0.390739    0.331325
     14          6           0       -3.000700    1.081495   -0.293546
     15          1           0       -3.009522    2.115344   -0.640334
     16          1           0       -3.660390    0.492909   -0.924444
     17          1           0       -3.424665    1.050969    0.710284
     18          6           0       -1.740374   -3.248728   -0.201498
     19          1           0       -2.585192   -3.925463   -0.304892
     20          1           0       -1.061907   -3.394892   -1.042784
     21          1           0       -1.189079   -3.528892    0.699258
     22          6           0        3.541074    0.553154    0.903260
     23          1           0        4.022400    1.124639    0.108241
     24          1           0        3.127817    1.255629    1.622530
     25          1           0        4.303116   -0.054155    1.385890
     26          6           0        1.463239    2.575772    0.053868
     27          1           0        1.526102    2.871987    1.101935
     28          1           0        2.468779    2.516222   -0.344710
     29          1           0        0.955968    3.379641   -0.479286
 ---------------------------------------------------------------------
                    Distance matrix (angstroms):
                    1          2          3          4          5
     1  O    0.000000
     2  O    6.256646   0.000000
     3  N    4.666237   4.218704   0.000000
     4  H    5.556294   4.808603   1.006637   0.000000
     5  C    4.167831   2.369667   2.351930   3.244343   0.000000
     6  C    3.578503   5.055507   1.377843   2.043610   2.825934
     7  C    4.937648   2.846594   1.378319   2.042952   1.351950
     8  C    5.069837   1.229678   3.705770   4.491358   1.458918
     9  C    2.699572   3.706355   2.765218   3.771137   1.510267
    10  H    2.397344   3.913453   3.697266   4.697063   2.148086
    11  H    2.849675   4.127629   3.325710   4.283469   2.155355
    12  C    2.321952   4.862985   2.349497   3.242901   2.521900
    13  C    1.226024   6.068079   3.741880   4.546508   3.807605
    14  C    6.422550   2.760622   2.407412   2.484620   2.548913
    15  H    6.953027   3.826910   2.466976   2.108401   3.401281
    16  H    6.900015   2.349115   3.241869   3.397297   2.815901
    17  H    6.801745   2.748859   3.028033   3.073093   2.987521
    18  C    4.887358   2.356388   4.889816   5.775950   2.541937
    19  H    5.928912   2.479578   5.776784   6.601816   3.444180
    20  H    4.473429   3.155637   4.970624   5.896873   2.767907
    21  H    4.504310   3.004159   5.181879   6.105008   2.921195
    22  C    2.347062   7.344015   4.467671   5.051495   5.080634
    23  H    2.942544   7.936665   4.695852   5.170392   5.595623
    24  H    3.180507   7.322226   4.263303   4.712333   5.148335
    25  H    2.427792   7.993380   5.467717   6.093895   5.811373
    26  C    4.363131   6.442460   2.388922   2.454265   4.298365
    27  H    4.715572   6.764873   2.945762   2.927767   4.749601
    28  H    4.131401   7.212453   3.260775   3.412500   4.945978
    29  H    5.329988   6.670935   2.455351   2.107043   4.689198
                    6          7          8          9         10
     6  C    0.000000
     7  C    2.437970   0.000000
     8  C    4.277338   2.451994   0.000000
     9  C    2.473280   2.472441   2.559613   0.000000
    10  H    3.282886   3.300404   2.725162   1.087825   0.000000
    11  H    3.055875   3.068827   2.971604   1.097625   1.734385
    12  C    1.350946   2.821946   3.849797   1.511305   2.116427
    13  C    2.512371   4.271129   4.967348   2.496636   2.573242
    14  C    3.713023   1.493227   3.015197   3.903662   4.648173
    15  H    3.838164   2.135879   4.054274   4.581657   5.435426
    16  H    4.510644   2.146877   2.848622   4.243772   4.953425
    17  H    4.211864   2.136591   3.221727   4.375465   4.935757
    18  C    5.159877   3.792704   1.506093   2.901994   2.608948
    19  H    6.172823   4.571526   2.140374   3.971864   3.684732
    20  H    5.098908   4.043345   2.166639   2.704614   2.493591
    21  H    5.243198   4.209789   2.148296   2.985818   2.321364
    22  C    3.102425   5.287192   6.316630   3.920759   4.011380
    23  H    3.332258   5.675729   6.910683   4.435046   4.705686
    24  H    2.976612   5.159328   6.411476   4.238636   4.373369
    25  H    4.123965   6.174601   6.924601   4.559903   4.415177
    26  C    1.497633   3.701433   5.743445   3.917132   4.644415
    27  H    2.147377   4.148581   6.130070   4.441773   5.005648
    28  H    2.161811   4.531353   6.397278   4.271564   4.939561
    29  H    2.133157   3.830573   6.110919   4.558477   5.412380
                   11         12         13         14         15
    11  H    0.000000
    12  C    2.142699   0.000000
    13  C    2.888006   1.463711   0.000000
    14  C    4.420038   4.293388   5.740380   0.000000
    15  H    5.032290   4.698567   6.141332   1.090497   0.000000
    16  H    4.571369   4.919937   6.360885   1.086120   1.771057
    17  H    5.064091   4.744153   6.121324   1.090116   1.769013
    18  C    3.046068   4.372251   5.151495   4.510845   5.529610
    19  H    4.038789   5.445682   6.235725   5.024182   6.064975
    20  H    2.462282   4.202721   4.867096   4.935415   5.858146
    21  H    3.340751   4.314025   4.866638   5.052059   6.079960
    22  C    4.342953   2.612247   1.508728   6.671304   6.908938
    23  H    4.662568   3.076856   2.150884   7.034716   7.140713
    24  H    4.857504   2.843331   2.180941   6.423425   6.597469
    25  H    4.949392   3.448009   2.105265   7.579969   7.892210
    26  C    4.410756   2.570265   3.158775   4.720202   4.549670
    27  H    5.113820   3.078840   3.494562   5.064106   4.917306
    28  H    4.589692   2.837858   2.984853   5.654756   5.500898
    29  H    4.959958   3.392681   4.158758   4.579432   4.165272
                   16         17         18         19         20
    16  H    0.000000
    17  H    1.743368   0.000000
    18  C    4.267196   4.706971   0.000000
    19  H    4.589325   5.147832   1.087372   0.000000
    20  H    4.677725   5.331187   1.090616   1.773806   0.000000
    21  H    4.991860   5.096380   1.092602   1.764856   1.751810
    22  C    7.430021   6.986171   6.600643   7.684320   6.368798
    23  H    7.777582   7.471724   7.240983   8.326733   6.899362
    24  H    7.290307   6.618844   6.878633   7.949663   6.803310
    25  H    8.309895   7.835582   7.017754   8.080505   6.770705
    26  C    5.616670   5.162123   6.652304   7.667109   6.574788
    27  H    6.055239   5.289574   7.059175   8.067666   7.111356
    28  H    6.480478   6.163819   7.139477   8.187766   6.920572
    29  H    5.462797   5.101738   7.161194   8.120023   7.091096
                   21         22         23         24         25
    21  H    0.000000
    22  C    6.251325   0.000000
    23  H    7.011716   1.091020   0.000000
    24  H    6.509966   1.087015   1.763663   0.000000
    25  H    6.535248   1.087412   1.760893   1.775630   0.000000
    26  C    6.687170   3.021564   2.942456   2.640890   4.093373
    27  H    6.964597   3.078404   3.205021   2.334336   4.044100
    28  H    7.142352   2.561422   2.134340   2.427645   3.600917
    29  H    7.329258   4.072252   3.851393   3.694047   5.145215
                   26         27         28         29
    26  C    0.000000
    27  H    1.090935   0.000000
    28  H    1.083292   1.762949   0.000000
    29  H    1.089854   1.755855   1.747055   0.000000
 Stoichiometry    C11H15NO2
 Framework group  C1[X(C11H15NO2)]
 Deg. of freedom    81
 Full point group                 C1      NOp   1
 Largest Abelian subgroup         C1      NOp   1
 Largest concise Abelian subgroup C1      NOp   1
                         Standard orientation:                         
 ---------------------------------------------------------------------
 Center     Atomic      Atomic             Coordinates (Angstroms)
 Number     Number       Type             X           Y           Z
 ---------------------------------------------------------------------
      1          8           0        2.284132   -2.282406   -0.165718
      2          8           0       -3.598620   -0.239032    0.437167
      3          7           0        0.029440    1.802138   -0.247133
      4          1           0        0.058949    2.808317   -0.239965
      5          6           0       -1.289107   -0.138564   -0.083774
      6          6           0        1.231612    1.137705   -0.138686
      7          6           0       -1.204614    1.210743   -0.082437
      8          6           0       -2.561903   -0.820962    0.123028
      9          6           0       -0.057699   -0.958083   -0.388615
     10          1           0       -0.046558   -1.865890    0.210657
     11          1           0       -0.074992   -1.304329   -1.430054
     12          6           0        1.231293   -0.213202   -0.128432
     13          6           0        2.398069   -1.079916    0.044458
     14          6           0       -2.323464    2.184603    0.089312
     15          1           0       -2.016261    3.180834   -0.230583
     16          1           0       -3.203233    1.889328   -0.475025
     17          1           0       -2.629825    2.237225    1.134169
     18          6           0       -2.602020   -2.315084   -0.062196
     19          1           0       -3.631972   -2.663115   -0.083426
     20          1           0       -2.101128   -2.628711   -0.978814
     21          1           0       -2.090897   -2.816956    0.762822
     22          6           0        3.737501   -0.570197    0.516014
     23          1           0        4.301701   -0.145708   -0.315739
     24          1           0        3.660939    0.185413    1.293699
     25          1           0        4.293058   -1.425074    0.894176
     26          6           0        2.393660    2.077634   -0.043387
     27          1           0        2.657855    2.272260    0.997028
     28          1           0        3.274248    1.709579   -0.555854
     29          1           0        2.137968    3.035302   -0.496462
 ---------------------------------------------------------------------
 Rotational constants (GHZ):           1.0824614           0.4899609           0.3464125
 Leave Link  202 at Fri Jan 23 16:29:56 2026, MaxMem=  2147483648 cpu:               0.0 elap:               0.0
 (Enter /data/home/wyx/g16/l301.exe)
 Standard basis: TZVP (5D, 7F)
 Ernie: Thresh=  0.10000D-02 Tol=  0.10000D-05 Strict=F.
 There are   370 symmetry adapted cartesian basis functions of A   symmetry.
 There are   356 symmetry adapted basis functions of A   symmetry.
   356 basis functions,   610 primitive gaussians,   370 cartesian basis functions
    52 alpha electrons       52 beta electrons
       nuclear repulsion energy       900.8083112759 Hartrees.
 IExCor=20419 DFT=T Ex+Corr=CAM-B3LYP ExCW=0 ScaHFX=  1.000000
 ScaDFX=  1.000000  1.000000  1.000000  0.810000 ScalE2=  1.000000  1.000000
 IRadAn=      5 IRanWt=     -1 IRanGd=            0 ICorTp=0 IEmpDi=141
 HFx  wShort=  0.000000 wLong=  0.330000 cFull=  0.190000 cShort=  0.000000 cLong=  0.460000
 DFx  wShort=  0.000000 wLong=  0.330000 cFull=  0.190000 cShort=  0.000000 cLong=  0.460000
 NAtoms=   29 NActive=   29 NUniq=   29 SFac= 1.00D+00 NAtFMM=   60 NAOKFM=F Big=F
 Integral buffers will be    131072 words long.
 Raffenetti 1 integral format.
 Two-electron integral symmetry is turned on.
 R6Disp:  Grimme-D3(BJ) Dispersion energy=       -0.0262034884 Hartrees.
 Nuclear repulsion after empirical dispersion term =      900.7821077875 Hartrees.
 ------------------------------------------------------------------------------
 Polarizable Continuum Model (PCM)
 =================================
 Model                : PCM.
 Atomic radii         : UFF (Universal Force Field).
 Polarization charges : Total charges.
 Charge compensation  : None.
 Solution method      : On-the-fly selection.
 Cavity type          : Scaled VdW (van der Waals Surface) (Alpha=1.100).
 Cavity algorithm     : GePol (No added spheres)
                        Default sphere list used, NSphG=   29.
                        Lebedev-Laikov grids with approx.  5.0 points / Ang**2.
                        Smoothing algorithm: York/Karplus (Gamma=1.0000).
                        Polarization charges: spherical gaussians, with
                                              point-specific exponents (IZeta= 3).
                        Self-potential: point-specific (ISelfS= 7).
                        Self-field    : sphere-specific E.n sum rule (ISelfD= 2).
 Solvent              : TetraHydroFuran, Eps=   7.425700 Eps(inf)=   1.974025
 ------------------------------------------------------------------------------
 GePol: Number of generator spheres                  =      29
 GePol: Total number of spheres                      =      29
 GePol: Number of exposed spheres                    =      29 (100.00%)
 GePol: Number of points                             =    2093
 GePol: Average weight of points                     =       0.13
 GePol: Minimum weight of points                     =   0.52D-09
 GePol: Maximum weight of points                     =    0.20577
 GePol: Number of points with low weight             =     146
 GePol: Fraction of low-weight points (<1% of avg)   =       6.98%
 GePol: Cavity surface area                          =    268.327 Ang**2
 GePol: Cavity volume                                =    286.330 Ang**3
 Leave Link  301 at Fri Jan 23 16:29:56 2026, MaxMem=  2147483648 cpu:               0.6 elap:               0.0
 (Enter /data/home/wyx/g16/l302.exe)
 NPDir=0 NMtPBC=     1 NCelOv=     1 NCel=       1 NClECP=     1 NCelD=      1
         NCelK=      1 NCelE2=     1 NClLst=     1 CellRange=     0.0.
 One-electron integrals computed using PRISM.
 One-electron integral symmetry used in STVInt
 NBasis=   356 RedAO= T EigKep=  4.60D-05  NBF=   356
 NBsUse=   356 1.00D-06 EigRej= -1.00D+00 NBFU=   356
 Precomputing XC quadrature grid using
 IXCGrd= 4 IRadAn=           5 IRanWt=          -1 IRanGd=           0 AccXCQ= 0.00D+00.
 Generated NRdTot=       0 NPtTot=           0 NUsed=           0 NTot=          32
 NSgBfM=   366   366   366   366   366 MxSgAt=    29 MxSgA2=    29.
 Leave Link  302 at Fri Jan 23 16:29:57 2026, MaxMem=  2147483648 cpu:               3.1 elap:               0.2
 (Enter /data/home/wyx/g16/l303.exe)
 DipDrv:  MaxL=1.
 Leave Link  303 at Fri Jan 23 16:29:57 2026, MaxMem=  2147483648 cpu:               0.5 elap:               0.0
 (Enter /data/home/wyx/g16/l308.exe)
 Leave Link  308 at Fri Jan 23 16:29:57 2026, MaxMem=  2147483648 cpu:               0.7 elap:               0.1
 (Enter /data/home/wyx/g16/l401.exe)
 ExpMin= 9.52D-02 ExpMax= 2.70D+04 ExpMxC= 9.22D+02 IAcc=3 IRadAn=         5 AccDes= 0.00D+00
 Harris functional with IExCor=20419 and IRadAn=       5 diagonalized for initial guess.
 HarFok:  IExCor=20419 AccDes= 0.00D+00 IRadAn=         5 IDoV= 1 UseB2=F ITyADJ=14
 ICtDFT=  3500011 ScaDFX=  1.000000  1.000000  1.000000  1.000000
 FoFCou: FMM=F IPFlag=           0 FMFlag=      100000 FMFlg1=           0
         NFxFlg=           0 DoJE=T BraDBF=F KetDBF=T FulRan=T
         wScrn=  0.000000 ICntrl=       500 IOpCl=  0 I1Cent=   200000004 NGrid=           0
         NMat0=    1 NMatS0=      1 NMatT0=    0 NMatD0=    1 NMtDS0=    0 NMtDT0=    0
 Petite list used in FoFCou.
 Harris En= -608.712920483084    
 JPrj=0 DoOrth=F DoCkMO=F.
 Leave Link  401 at Fri Jan 23 16:29:58 2026, MaxMem=  2147483648 cpu:              11.8 elap:               0.7
 (Enter /data/home/wyx/g16/l502.exe)
 Integral symmetry usage will be decided dynamically.
 Closed shell SCF:
 Using DIIS extrapolation, IDIIS=  1040.
 NGot=  2147483648 LenX=  2147200095 LenY=  2147062754
 Requested convergence on RMS density matrix=1.00D-08 within 128 cycles.
 Requested convergence on MAX density matrix=1.00D-06.
 Requested convergence on             energy=1.00D-06.
 No special actions if energy rises.
 Fock matrices will be formed incrementally for  20 cycles.

 Cycle   1  Pass 1  IDiag  1:
 FoFJK:  IHMeth= 1 ICntrl=       0 DoSepK=T KAlg= 0 I1Cent=           0 FoldK=F
 IRaf=         1 NMat=       1 IRICut=       1 DoRegI=T DoRafI=F ISym2E= 0 IDoP0=0 IntGTp=1.
 FoFCou: FMM=F IPFlag=           0 FMFlag=      100000 FMFlg1=           0
         NFxFlg=           0 DoJE=T BraDBF=F KetDBF=F FulRan=T
         wScrn=  0.000000 ICntrl=       500 IOpCl=  0 I1Cent=           0 NGrid=           0
         NMat0=    1 NMatS0=      1 NMatT0=    0 NMatD0=    1 NMtDS0=    0 NMtDT0=    0
 Symmetry not used in FoFCou.
 Inv3:  Mode=1 IEnd=    13141947.
 Iteration    1 A*A^-1 deviation from unit magnitude is 3.11D-15 for     44.
 Iteration    1 A*A^-1 deviation from orthogonality  is 2.23D-15 for   2015   1552.
 Iteration    1 A^-1*A deviation from unit magnitude is 2.78D-15 for     71.
 Iteration    1 A^-1*A deviation from orthogonality  is 1.66D-15 for   1496    560.
 E= -633.131171371833    
 DIIS: error= 4.11D-02 at cycle   1 NSaved=   1.
 NSaved= 1 IEnMin= 1 EnMin= -633.131171371833     IErMin= 1 ErrMin= 4.11D-02
 ErrMax= 4.11D-02  0.00D+00 EMaxC= 1.00D-01 BMatC= 1.09D+00 BMatP= 1.09D+00
 IDIUse=3 WtCom= 5.89D-01 WtEn= 4.11D-01
 Coeff-Com:  0.100D+01
 Coeff-En:   0.100D+01
 Coeff:      0.100D+01
 Gap=     0.234 Goal=   None    Shift=    0.000
 GapD=    0.234 DampG=1.000 DampE=0.500 DampFc=0.5000 IDamp=-1.
 Damping current iteration by 5.00D-01
 RMSDP=4.06D-03 MaxDP=1.82D-01              OVMax= 1.45D-01

 Cycle   2  Pass 1  IDiag  1:
 RMSU=  1.81D-03    CP:  9.31D-01
 E= -633.226734233223     Delta-E=       -0.095562861391 Rises=F Damp=T
 DIIS: error= 1.88D-02 at cycle   2 NSaved=   2.
 NSaved= 2 IEnMin= 2 EnMin= -633.226734233223     IErMin= 2 ErrMin= 1.88D-02
 ErrMax= 1.88D-02  0.00D+00 EMaxC= 1.00D-01 BMatC= 2.23D-01 BMatP= 1.09D+00
 IDIUse=3 WtCom= 8.12D-01 WtEn= 1.88D-01
 Coeff-Com: -0.595D+00 0.159D+01
 Coeff-En:   0.000D+00 0.100D+01
 Coeff:     -0.483D+00 0.148D+01
 Gap=     0.247 Goal=   None    Shift=    0.000
 RMSDP=1.52D-03 MaxDP=4.59D-02 DE=-9.56D-02 OVMax= 1.38D-01

 Cycle   3  Pass 1  IDiag  1:
 RMSU=  1.42D-03    CP:  9.06D-01  1.24D+00
 E= -633.274712887477     Delta-E=       -0.047978654254 Rises=F Damp=F
 DIIS: error= 1.14D-02 at cycle   3 NSaved=   3.
 NSaved= 3 IEnMin= 3 EnMin= -633.274712887477     IErMin= 3 ErrMin= 1.14D-02
 ErrMax= 1.14D-02  0.00D+00 EMaxC= 1.00D-01 BMatC= 6.46D-02 BMatP= 2.23D-01
 IDIUse=3 WtCom= 8.86D-01 WtEn= 1.14D-01
 Coeff-Com: -0.366D+00 0.802D+00 0.564D+00
 Coeff-En:   0.000D+00 0.000D+00 0.100D+01
 Coeff:     -0.324D+00 0.710D+00 0.614D+00
 Gap=     0.245 Goal=   None    Shift=    0.000
 RMSDP=1.34D-03 MaxDP=7.01D-02 DE=-4.80D-02 OVMax= 7.83D-02

 Cycle   4  Pass 1  IDiag  1:
 RMSU=  5.34D-04    CP:  8.59D-01  1.71D+00  5.56D-01
 E= -633.323573925809     Delta-E=       -0.048861038332 Rises=F Damp=F
 DIIS: error= 3.87D-03 at cycle   4 NSaved=   4.
 NSaved= 4 IEnMin= 4 EnMin= -633.323573925809     IErMin= 4 ErrMin= 3.87D-03
 ErrMax= 3.87D-03  0.00D+00 EMaxC= 1.00D-01 BMatC= 6.59D-03 BMatP= 6.46D-02
 IDIUse=3 WtCom= 9.61D-01 WtEn= 3.87D-02
 Coeff-Com: -0.169D+00 0.365D+00 0.356D+00 0.448D+00
 Coeff-En:   0.000D+00 0.000D+00 0.828D-02 0.992D+00
 Coeff:     -0.162D+00 0.351D+00 0.342D+00 0.469D+00
 Gap=     0.239 Goal=   None    Shift=    0.000
 RMSDP=3.16D-04 MaxDP=2.02D-02 DE=-4.89D-02 OVMax= 1.57D-02

 Cycle   5  Pass 1  IDiag  1:
 RMSU=  1.01D-04    CP:  8.69D-01  1.65D+00  6.82D-01  6.83D-01
 E= -633.328649016556     Delta-E=       -0.005075090747 Rises=F Damp=F
 DIIS: error= 4.20D-04 at cycle   5 NSaved=   5.
 NSaved= 5 IEnMin= 5 EnMin= -633.328649016556     IErMin= 5 ErrMin= 4.20D-04
 ErrMax= 4.20D-04  0.00D+00 EMaxC= 1.00D-01 BMatC= 6.67D-05 BMatP= 6.59D-03
 IDIUse=3 WtCom= 9.96D-01 WtEn= 4.20D-03
 Coeff-Com: -0.271D-01 0.577D-01 0.681D-01 0.144D+00 0.757D+00
 Coeff-En:   0.000D+00 0.000D+00 0.000D+00 0.000D+00 0.100D+01
 Coeff:     -0.269D-01 0.575D-01 0.679D-01 0.143D+00 0.758D+00
 Gap=     0.239 Goal=   None    Shift=    0.000
 RMSDP=1.11D-04 MaxDP=5.62D-03 DE=-5.08D-03 OVMax= 1.90D-03

 Cycle   6  Pass 1  IDiag  1:
 RMSU=  5.05D-05    CP:  8.64D-01  1.67D+00  6.90D-01  8.00D-01  1.13D+00
 E= -633.328689480260     Delta-E=       -0.000040463704 Rises=F Damp=F
 DIIS: error= 3.63D-04 at cycle   6 NSaved=   6.
 NSaved= 6 IEnMin= 6 EnMin= -633.328689480260     IErMin= 6 ErrMin= 3.63D-04
 ErrMax= 3.63D-04  0.00D+00 EMaxC= 1.00D-01 BMatC= 2.50D-05 BMatP= 6.67D-05
 IDIUse=3 WtCom= 9.96D-01 WtEn= 3.63D-03
 Coeff-Com:  0.174D-01-0.380D-01-0.293D-01-0.748D-02 0.446D+00 0.611D+00
 Coeff-En:   0.000D+00 0.000D+00 0.000D+00 0.000D+00 0.143D+00 0.857D+00
 Coeff:      0.174D-01-0.379D-01-0.292D-01-0.745D-02 0.445D+00 0.612D+00
 Gap=     0.240 Goal=   None    Shift=    0.000
 RMSDP=2.42D-05 MaxDP=1.02D-03 DE=-4.05D-05 OVMax= 2.75D-03

 Cycle   7  Pass 1  IDiag  1:
 RMSU=  1.80D-05    CP:  8.65D-01  1.68D+00  6.92D-01  8.00D-01  1.23D+00
                    CP:  7.97D-01
 E= -633.328712157223     Delta-E=       -0.000022676962 Rises=F Damp=F
 DIIS: error= 4.09D-05 at cycle   7 NSaved=   7.
 NSaved= 7 IEnMin= 7 EnMin= -633.328712157223     IErMin= 7 ErrMin= 4.09D-05
 ErrMax= 4.09D-05  0.00D+00 EMaxC= 1.00D-01 BMatC= 8.66D-07 BMatP= 2.50D-05
 IDIUse=1 WtCom= 1.00D+00 WtEn= 0.00D+00
 Coeff-Com:  0.425D-02-0.916D-02-0.794D-02-0.108D-01 0.763D-02 0.152D+00
 Coeff-Com:  0.864D+00
 Coeff:      0.425D-02-0.916D-02-0.794D-02-0.108D-01 0.763D-02 0.152D+00
 Coeff:      0.864D+00
 Gap=     0.240 Goal=   None    Shift=    0.000
 RMSDP=1.54D-05 MaxDP=8.10D-04 DE=-2.27D-05 OVMax= 5.72D-04

 Cycle   8  Pass 1  IDiag  1:
 RMSU=  4.67D-06    CP:  8.64D-01  1.68D+00  6.95D-01  8.16D-01  1.29D+00
                    CP:  9.27D-01  1.04D+00
 E= -633.328713422937     Delta-E=       -0.000001265714 Rises=F Damp=F
 DIIS: error= 2.26D-05 at cycle   8 NSaved=   8.
 NSaved= 8 IEnMin= 8 EnMin= -633.328713422937     IErMin= 8 ErrMin= 2.26D-05
 ErrMax= 2.26D-05  0.00D+00 EMaxC= 1.00D-01 BMatC= 1.14D-07 BMatP= 8.66D-07
 IDIUse=1 WtCom= 1.00D+00 WtEn= 0.00D+00
 Coeff-Com: -0.336D-03 0.794D-03 0.236D-03-0.433D-02-0.602D-01-0.871D-02
 Coeff-Com:  0.304D+00 0.768D+00
 Coeff:     -0.336D-03 0.794D-03 0.236D-03-0.433D-02-0.602D-01-0.871D-02
 Coeff:      0.304D+00 0.768D+00
 Gap=     0.240 Goal=   None    Shift=    0.000
 RMSDP=4.17D-06 MaxDP=2.41D-04 DE=-1.27D-06 OVMax= 3.74D-04

 Cycle   9  Pass 1  IDiag  1:
 RMSU=  1.31D-06    CP:  8.64D-01  1.68D+00  6.95D-01  8.20D-01  1.30D+00
                    CP:  9.58D-01  1.14D+00  1.21D+00
 E= -633.328713612565     Delta-E=       -0.000000189628 Rises=F Damp=F
 DIIS: error= 4.83D-06 at cycle   9 NSaved=   9.
 NSaved= 9 IEnMin= 9 EnMin= -633.328713612565     IErMin= 9 ErrMin= 4.83D-06
 ErrMax= 4.83D-06  0.00D+00 EMaxC= 1.00D-01 BMatC= 1.61D-08 BMatP= 1.14D-07
 IDIUse=1 WtCom= 1.00D+00 WtEn= 0.00D+00
 Coeff-Com: -0.859D-03 0.187D-02 0.156D-02 0.336D-03-0.222D-01-0.200D-01
 Coeff-Com: -0.361D-01 0.266D+00 0.809D+00
 Coeff:     -0.859D-03 0.187D-02 0.156D-02 0.336D-03-0.222D-01-0.200D-01
 Coeff:     -0.361D-01 0.266D+00 0.809D+00
 Gap=     0.240 Goal=   None    Shift=    0.000
 RMSDP=1.74D-06 MaxDP=9.52D-05 DE=-1.90D-07 OVMax= 1.10D-04

 Cycle  10  Pass 1  IDiag  1:
 RMSU=  7.01D-07    CP:  8.64D-01  1.68D+00  6.95D-01  8.21D-01  1.31D+00
                    CP:  9.75D-01  1.17D+00  1.33D+00  1.20D+00
 E= -633.328713637167     Delta-E=       -0.000000024602 Rises=F Damp=F
 DIIS: error= 1.23D-06 at cycle  10 NSaved=  10.
 NSaved=10 IEnMin=10 EnMin= -633.328713637167     IErMin=10 ErrMin= 1.23D-06
 ErrMax= 1.23D-06  0.00D+00 EMaxC= 1.00D-01 BMatC= 8.37D-10 BMatP= 1.61D-08
 IDIUse=1 WtCom= 1.00D+00 WtEn= 0.00D+00
 Coeff-Com: -0.152D-03 0.327D-03 0.310D-03 0.273D-03-0.121D-02-0.249D-02
 Coeff-Com: -0.333D-01 0.858D-02 0.182D+00 0.845D+00
 Coeff:     -0.152D-03 0.327D-03 0.310D-03 0.273D-03-0.121D-02-0.249D-02
 Coeff:     -0.333D-01 0.858D-02 0.182D+00 0.845D+00
 Gap=     0.240 Goal=   None    Shift=    0.000
 RMSDP=3.72D-07 MaxDP=1.45D-05 DE=-2.46D-08 OVMax= 2.98D-05

 Cycle  11  Pass 1  IDiag  1:
 RMSU=  2.04D-07    CP:  8.64D-01  1.68D+00  6.95D-01  8.21D-01  1.31D+00
                    CP:  9.77D-01  1.17D+00  1.37D+00  1.27D+00  1.01D+00
 E= -633.328713638522     Delta-E=       -0.000000001355 Rises=F Damp=F
 DIIS: error= 6.77D-07 at cycle  11 NSaved=  11.
 NSaved=11 IEnMin=11 EnMin= -633.328713638522     IErMin=11 ErrMin= 6.77D-07
 ErrMax= 6.77D-07  0.00D+00 EMaxC= 1.00D-01 BMatC= 1.81D-10 BMatP= 8.37D-10
 IDIUse=1 WtCom= 1.00D+00 WtEn= 0.00D+00
 Coeff-Com:  0.242D-04-0.553D-04-0.256D-04 0.926D-04 0.202D-02 0.139D-02
 Coeff-Com: -0.111D-01-0.264D-01-0.210D-01 0.374D+00 0.681D+00
 Coeff:      0.242D-04-0.553D-04-0.256D-04 0.926D-04 0.202D-02 0.139D-02
 Coeff:     -0.111D-01-0.264D-01-0.210D-01 0.374D+00 0.681D+00
 Gap=     0.240 Goal=   None    Shift=    0.000
 RMSDP=1.28D-07 MaxDP=7.04D-06 DE=-1.35D-09 OVMax= 6.72D-06

 Cycle  12  Pass 1  IDiag  1:
 RMSU=  6.88D-08    CP:  8.64D-01  1.68D+00  6.95D-01  8.21D-01  1.31D+00
                    CP:  9.78D-01  1.17D+00  1.38D+00  1.30D+00  1.09D+00
                    CP:  9.62D-01
 E= -633.328713638740     Delta-E=       -0.000000000218 Rises=F Damp=F
 DIIS: error= 1.81D-07 at cycle  12 NSaved=  12.
 NSaved=12 IEnMin=12 EnMin= -633.328713638740     IErMin=12 ErrMin= 1.81D-07
 ErrMax= 1.81D-07  0.00D+00 EMaxC= 1.00D-01 BMatC= 1.24D-11 BMatP= 1.81D-10
 IDIUse=1 WtCom= 1.00D+00 WtEn= 0.00D+00
 Coeff-Com:  0.191D-04-0.421D-04-0.307D-04 0.124D-04 0.808D-03 0.673D-03
 Coeff-Com: -0.168D-02-0.943D-02-0.230D-01 0.780D-01 0.242D+00 0.713D+00
 Coeff:      0.191D-04-0.421D-04-0.307D-04 0.124D-04 0.808D-03 0.673D-03
 Coeff:     -0.168D-02-0.943D-02-0.230D-01 0.780D-01 0.242D+00 0.713D+00
 Gap=     0.240 Goal=   None    Shift=    0.000
 RMSDP=3.70D-08 MaxDP=1.90D-06 DE=-2.18D-10 OVMax= 2.17D-06

 Cycle  13  Pass 1  IDiag  1:
 RMSU=  2.33D-08    CP:  8.64D-01  1.68D+00  6.95D-01  8.21D-01  1.31D+00
                    CP:  9.78D-01  1.17D+00  1.38D+00  1.30D+00  1.09D+00
                    CP:  1.08D+00  9.35D-01
 E= -633.328713638763     Delta-E=       -0.000000000023 Rises=F Damp=F
 DIIS: error= 1.27D-07 at cycle  13 NSaved=  13.
 NSaved=13 IEnMin=13 EnMin= -633.328713638763     IErMin=13 ErrMin= 1.27D-07
 ErrMax= 1.27D-07  0.00D+00 EMaxC= 1.00D-01 BMatC= 5.10D-12 BMatP= 1.24D-11
 IDIUse=1 WtCom= 1.00D+00 WtEn= 0.00D+00
 Coeff-Com:  0.576D-05-0.123D-04-0.122D-04-0.126D-04 0.390D-04 0.827D-04
 Coeff-Com:  0.136D-02 0.429D-03-0.946D-02-0.347D-01-0.854D-02 0.416D+00
 Coeff-Com:  0.635D+00
 Coeff:      0.576D-05-0.123D-04-0.122D-04-0.126D-04 0.390D-04 0.827D-04
 Coeff:      0.136D-02 0.429D-03-0.946D-02-0.347D-01-0.854D-02 0.416D+00
 Coeff:      0.635D+00
 Gap=     0.240 Goal=   None    Shift=    0.000
 RMSDP=1.73D-08 MaxDP=1.57D-06 DE=-2.27D-11 OVMax= 1.36D-06

 Cycle  14  Pass 1  IDiag  1:
 RMSU=  1.07D-08    CP:  8.64D-01  1.68D+00  6.95D-01  8.21D-01  1.31D+00
                    CP:  9.78D-01  1.17D+00  1.38D+00  1.31D+00  1.10D+00
                    CP:  1.10D+00  1.08D+00  8.75D-01
 E= -633.328713638763     Delta-E=        0.000000000000 Rises=F Damp=F
 DIIS: error= 3.96D-08 at cycle  14 NSaved=  14.
 NSaved=14 IEnMin=13 EnMin= -633.328713638763     IErMin=14 ErrMin= 3.96D-08
 ErrMax= 3.96D-08  0.00D+00 EMaxC= 1.00D-01 BMatC= 2.66D-13 BMatP= 5.10D-12
 IDIUse=1 WtCom= 1.00D+00 WtEn= 0.00D+00
 Coeff-Com: -0.118D-05 0.271D-05 0.138D-05-0.449D-05-0.949D-04-0.613D-04
 Coeff-Com:  0.500D-03 0.145D-02 0.105D-02-0.165D-01-0.333D-01-0.206D-01
 Coeff-Com:  0.124D+00 0.944D+00
 Coeff:     -0.118D-05 0.271D-05 0.138D-05-0.449D-05-0.949D-04-0.613D-04
 Coeff:      0.500D-03 0.145D-02 0.105D-02-0.165D-01-0.333D-01-0.206D-01
 Coeff:      0.124D+00 0.944D+00
 Gap=     0.240 Goal=   None    Shift=    0.000
 RMSDP=7.53D-09 MaxDP=4.82D-07 DE= 1.14D-13 OVMax= 9.58D-07

 Error on total polarization charges =  0.01423
 SCF Done:  E(RCAM-B3LYP) =  -633.328713639     A.U. after   14 cycles
            NFock= 14  Conv=0.75D-08     -V/T= 2.0041
 KE= 6.307197341831D+02 PE=-3.277652945726D+03 EE= 1.112822390116D+03
 Leave Link  502 at Fri Jan 23 16:30:54 2026, MaxMem=  2147483648 cpu:             878.3 elap:              55.3
 (Enter /data/home/wyx/g16/l801.exe)
 DoSCS=F DFT=T ScalE2(SS,OS)=  1.000000  1.000000
 ExpMin= 9.52D-02 ExpMax= 2.70D+04 ExpMxC= 9.22D+02 IAcc=3 IRadAn=         5 AccDes= 0.00D+00
 HarFok:  IExCor=  205 AccDes= 0.00D+00 IRadAn=         5 IDoV=-2 UseB2=F ITyADJ=14
 ICtDFT= 12500011 ScaDFX=  1.000000  1.000000  1.000000  1.000000
 Largest valence mixing into a core orbital is  5.65D-05
 Largest core mixing into a valence orbital is  1.20D-05
 Range of M.O.s used for correlation:    15   356
 NBasis=   356 NAE=    52 NBE=    52 NFC=    14 NFV=     0
 NROrb=    342 NOA=    38 NOB=    38 NVA=   304 NVB=   304

 **** Warning!!: The largest alpha MO coefficient is  0.53932254D+02

 Leave Link  801 at Fri Jan 23 16:30:55 2026, MaxMem=  2147483648 cpu:               1.0 elap:               0.1
 (Enter /data/home/wyx/g16/l914.exe)
 RHF ground state
 Two-electron integrals replicated using symmetry.
 MDV=  2147483648 DFT=T DoStab=F Mixed=T DoRPA=T DoScal=F NonHer=T
 NEqPCM:  Using non-equilibrium solvation (IEInf=1, Eps=   7.4257, EpsInf=   1.9740)
 Inv3:  Mode=1 IEnd=    13141947.
 Iteration    1 A*A^-1 deviation from unit magnitude is 3.11D-15 for   1127.
 Iteration    1 A*A^-1 deviation from orthogonality  is 2.26D-15 for   2015   1552.
 Iteration    1 A^-1*A deviation from unit magnitude is 2.89D-15 for    382.
 Iteration    1 A^-1*A deviation from orthogonality  is 2.10D-15 for   1130    498.
 Making orbital integer symmetry assigments:
 Orbital symmetries:
       Occupied  (A) (A) (A) (A) (A) (A) (A) (A) (A) (A) (A) (A)
                 (A) (A) (A) (A) (A) (A) (A) (A) (A) (A) (A) (A)
                 (A) (A) (A) (A) (A) (A) (A) (A) (A) (A) (A) (A)
                 (A) (A) (A) (A) (A) (A) (A) (A) (A) (A) (A) (A)
                 (A) (A) (A) (A)
       Virtual   (A) (A) (A) (A) (A) (A) (A) (A) (A) (A) (A) (A)
                 (A) (A) (A) (A) (A) (A) (A) (A) (A) (A) (A) (A)
                 (A) (A) (A) (A) (A) (A) (A) (A) (A) (A) (A) (A)
                 (A) (A) (A) (A) (A) (A) (A) (A) (A) (A) (A) (A)
                 (A) (A) (A) (A) (A) (A) (A) (A) (A) (A) (A) (A)
                 (A) (A) (A) (A) (A) (A) (A) (A) (A) (A) (A) (A)
                 (A) (A) (A) (A) (A) (A) (A) (A) (A) (A) (A) (A)
                 (A) (A) (A) (A) (A) (A) (A) (A) (A) (A) (A) (A)
                 (A) (A) (A) (A) (A) (A) (A) (A) (A) (A) (A) (A)
                 (A) (A) (A) (A) (A) (A) (A) (A) (A) (A) (A) (A)
                 (A) (A) (A) (A) (A) (A) (A) (A) (A) (A) (A) (A)
                 (A) (A) (A) (A) (A) (A) (A) (A) (A) (A) (A) (A)
                 (A) (A) (A) (A) (A) (A) (A) (A) (A) (A) (A) (A)
                 (A) (A) (A) (A) (A) (A) (A) (A) (A) (A) (A) (A)
                 (A) (A) (A) (A) (A) (A) (A) (A) (A) (A) (A) (A)
                 (A) (A) (A) (A) (A) (A) (A) (A) (A) (A) (A) (A)
                 (A) (A) (A) (A) (A) (A) (A) (A) (A) (A) (A) (A)
                 (A) (A) (A) (A) (A) (A) (A) (A) (A) (A) (A) (A)
                 (A) (A) (A) (A) (A) (A) (A) (A) (A) (A) (A) (A)
                 (A) (A) (A) (A) (A) (A) (A) (A) (A) (A) (A) (A)
                 (A) (A) (A) (A) (A) (A) (A) (A) (A) (A) (A) (A)
                 (A) (A) (A) (A) (A) (A) (A) (A) (A) (A) (A) (A)
                 (A) (A) (A) (A) (A) (A) (A) (A) (A) (A) (A) (A)
                 (A) (A) (A) (A) (A) (A) (A) (A) (A) (A) (A) (A)
                 (A) (A) (A) (A) (A) (A) (A) (A) (A) (A) (A) (A)
                 (A) (A) (A) (A)
    24 initial guesses have been made.
 Convergence on wavefunction:    0.001000000000000
 Davidson Disk Diagonalization:  ConvIn= 1.00D-03 SkipCon=T Conv= 1.00D-03.
 Max sub-space:  2000 roots to seek:    24 dimension of matrix:        23104
 Iteration     1 Dimension    24 NMult     0 NNew     24
 CISAX will form    24 AO SS matrices at one time.
 NMat=    24 NSing=    24 JSym2X= 0.
 FoFJK:  IHMeth= 1 ICntrl=       0 DoSepK=T KAlg= 0 I1Cent=           0 FoldK=F
 IRaf=         1 NMat=      48 IRICut=       1 DoRegI=T DoRafI=F ISym2E= 0 IDoP0=3 IntGTp=3.
 New state      2 was old state      3
 New state      3 was old state      4
 New state      4 was old state      2
 New state      5 was old state      6
 New state      6 was old state      5
 Excitation Energies [eV] at current iteration:
 Root      1 :     3.996677251129778
 Root      2 :     4.317119504518298
 Root      3 :     4.532845427688852
 Root      4 :     5.582171957271463
 Root      5 :     6.229933048033728
 Root      6 :     6.501251580056739
 Root      7 :     6.771460406369231
 Root      8 :     6.811104372718686
 Root      9 :     7.008913231300354
 Root     10 :     7.103332676391263
 Root     11 :     7.280046196839153
 Root     12 :     7.476064690346675
 Root     13 :     7.622084380561405
 Root     14 :     7.677543249973492
 Root     15 :     7.784780257906377
 Root     16 :     8.066227363928279
 Root     17 :     8.154160897170415
 Root     18 :     8.274443318440463
 Root     19 :     8.308585905842810
 Root     20 :     8.607505995692646
 Root     21 :     8.713496205779670
 Root     22 :     8.990518269988824
 Root     23 :     9.064939716772189
 Root     24 :     9.156063155391745
 Iteration     2 Dimension    36 NMult    24 NNew     12
 CISAX will form    12 AO SS matrices at one time.
 NMat=    12 NSing=    12 JSym2X= 0.
 Root      1 not converged, maximum delta is    0.063488472163131
 Root      2 not converged, maximum delta is    0.072884373877590
 Root      3 not converged, maximum delta is    0.092888229914161
 Root      4 not converged, maximum delta is    0.280541594783618
 New state      5 was old state      6
 Root      5 not converged, maximum delta is    0.264351568857139
 New state      6 was old state      5
 Root      6 not converged, maximum delta is    0.171350918999941
 Excitation Energies [eV] at current iteration:
 Root      1 :     3.562954500756576   Change is   -0.433722750373202
 Root      2 :     4.072968198520980   Change is   -0.244151305997318
 Root      3 :     4.257525689783782   Change is   -0.275319737905071
 Root      4 :     5.225252055180104   Change is   -0.356919902091359
 Root      5 :     5.699446770817544   Change is   -0.801804809239194
 Root      6 :     6.100765396876446   Change is   -0.129167651157282
 Iteration     3 Dimension    48 NMult    36 NNew     12
 CISAX will form    12 AO SS matrices at one time.
 NMat=    12 NSing=    12 JSym2X= 0.
 Root      1 not converged, maximum delta is    0.009364139519042
 Root      2 not converged, maximum delta is    0.012815222355573
 Root      3 not converged, maximum delta is    0.014391339377657
 Root      4 not converged, maximum delta is    0.020346468776865
 Root      5 not converged, maximum delta is    0.020492415545259
 Root      6 not converged, maximum delta is    0.019285488344169
 Excitation Energies [eV] at current iteration:
 Root      1 :     3.545721435322409   Change is   -0.017233065434167
 Root      2 :     4.059518113453246   Change is   -0.013450085067735
 Root      3 :     4.243229452281572   Change is   -0.014296237502211
 Root      4 :     5.203115922871177   Change is   -0.022136132308927
 Root      5 :     5.672487972366433   Change is   -0.026958798451112
 Root      6 :     6.090048009921078   Change is   -0.010717386955369
 Iteration     4 Dimension    60 NMult    48 NNew     12
 CISAX will form    12 AO SS matrices at one time.
 NMat=    12 NSing=    12 JSym2X= 0.
 Root      1 not converged, maximum delta is    0.002357204165236
 Root      2 not converged, maximum delta is    0.002001226359797
 Root      3 not converged, maximum delta is    0.002180550123222
 Root      4 not converged, maximum delta is    0.002722947788782
 Root      5 not converged, maximum delta is    0.002997582832420
 Root      6 not converged, maximum delta is    0.003781294185727
 Excitation Energies [eV] at current iteration:
 Root      1 :     3.544228016100560   Change is   -0.001493419221849
 Root      2 :     4.058623079479100   Change is   -0.000895033974146
 Root      3 :     4.242447827466304   Change is   -0.000781624815268
 Root      4 :     5.201404572107601   Change is   -0.001711350763577
 Root      5 :     5.670099205805077   Change is   -0.002388766561356
 Root      6 :     6.089275366535808   Change is   -0.000772643385270
 Iteration     5 Dimension    72 NMult    60 NNew     12
 CISAX will form    12 AO SS matrices at one time.
 NMat=    12 NSing=    12 JSym2X= 0.
 Root      1 has converged.
 Root      2 has converged.
 Root      3 has converged.
 Root      4 has converged.
 Root      5 not converged, maximum delta is    0.001184515064070
 Root      6 not converged, maximum delta is    0.001012228742129
 Excitation Energies [eV] at current iteration:
 Root      1 :     3.544146744925945   Change is   -0.000081271174615
 Root      2 :     4.058575491175588   Change is   -0.000047588303513
 Root      3 :     4.242401479363788   Change is   -0.000046348102516
 Root      4 :     5.201248350959162   Change is   -0.000156221148439
 Root      5 :     5.669857475153727   Change is   -0.000241730651350
 Root      6 :     6.089216795776728   Change is   -0.000058570759079
 Iteration     6 Dimension    76 NMult    72 NNew      4
 CISAX will form     4 AO SS matrices at one time.
 NMat=     4 NSing=     4 JSym2X= 0.
 Root      1 has converged.
 Root      2 has converged.
 Root      3 has converged.
 Root      4 has converged.
 Root      5 has converged.
 Root      6 has converged.
 Excitation Energies [eV] at current iteration:
 Root      1 :     3.544146577105086   Change is   -0.000000167820859
 Root      2 :     4.058575298509704   Change is   -0.000000192665883
 Root      3 :     4.242401415674939   Change is   -0.000000063688848
 Root      4 :     5.201243036200969   Change is   -0.000005314758193
 Root      5 :     5.669841252170796   Change is   -0.000016222982931
 Root      6 :     6.089212307448311   Change is   -0.000004488328417
 Convergence achieved on expansion vectors.
 ***********************************************************************
 Excited states from <AA,BB:AA,BB> singles matrix:
 ***********************************************************************
 
 1PDM for each excited state written to RWF  633
 Ground to excited state transition densities written to RWF  633
 Ground to excited state transition electric dipole moments (Au):
       state          X           Y           Z        Dip. S.      Osc.
         1        -1.4697      0.1458      0.0378      2.1828      0.1895
         2        -0.1974      0.0100      0.0441      0.0410      0.0041
         3         0.0010      0.1087     -0.0370      0.0132      0.0014
         4        -0.1430     -1.3465      0.1204      1.8480      0.2355
         5        -0.0873     -1.4681      0.0488      2.1654      0.3008
         6         0.0294      0.2056      0.0816      0.0498      0.0074
 Ground to excited state transition velocity dipole moments (Au):
       state          X           Y           Z        Dip. S.      Osc.
         1         0.1835     -0.0146     -0.0057      0.0339      0.1736
         2         0.0285     -0.0010     -0.0041      0.0008      0.0037
         3         0.0001     -0.0159      0.0022      0.0003      0.0011
         4         0.0296      0.2447     -0.0181      0.0611      0.2130
         5         0.0186      0.2995     -0.0104      0.0901      0.2884
         6        -0.0072     -0.0424     -0.0372      0.0032      0.0096
 Ground to excited state transition magnetic dipole moments (Au):
       state          X           Y           Z
         1        -0.1085      0.0194     -1.4273
         2         0.8051     -0.1943     -0.4273
         3         0.1132     -0.9912     -0.1411
         4         0.0493     -0.0785      0.0651
         5         0.2239     -0.1086      0.2702
         6        -0.0708      0.0001     -0.0037
 Ground to excited state transition velocity quadrupole moments (Au):
       state          XX          YY          ZZ          XY          XZ          YZ
         1        -0.1610      0.0904      0.0005     -0.5241      0.0609      0.0078
         2        -0.0059     -0.0047      0.0035     -0.0802      0.0275      0.0787
         3         0.0032     -0.0070      0.0263     -0.0377      0.0639      0.0026
         4        -1.1285      0.2485     -0.0090      0.0574      0.0715     -0.0516
         5        -0.7128      0.2936      0.0531      0.1741      0.0729      0.0439
         6        -0.1677     -0.1817      0.1706      0.0091      0.0248      0.0111
 <0|del|b> * <b|rxdel|0> + <0|del|b> * <b|delr+rdel|0>
 Rotatory Strengths (R) in cgs (10**-40 erg-esu-cm/Gauss)
       state          XX          YY          ZZ    R(velocity)    E-M Angle
         1        31.7143    -36.2747    -61.1178    -21.8928       92.63
         2         5.4860     63.0537     49.4404     39.3267       21.97
         3        37.2244     -0.5116     33.5298     23.4142       17.26
         4       -71.9951     -0.3795      2.3780    -23.3322      132.53
         5      -100.0302      6.7746    -12.4616    -35.2391      106.41
         6         1.3388      1.4315     -0.7420      0.6761       80.84
 1/2[<0|r|b>*<b|rxdel|0> + (<0|rxdel|b>*<b|r|0>)*]
 Rotatory Strengths (R) in cgs (10**-40 erg-esu-cm/Gauss)
       state          XX          YY          ZZ     R(length)
         1      -112.8101     -1.9961     38.1093    -25.5656
         2       112.4041      1.3750     13.3124     42.3638
         3        -0.0828     76.2040     -3.6975     24.1413
         4         4.9875    -74.7218     -5.5424    -25.0922
         5        13.8281   -112.7343     -9.3338    -36.0800
         6         1.4732     -0.0166      0.2140      0.5569
  1/2[<0|del|b>*<b|r|0> + (<0|r|b>*<b|del|0>)*] (Au)
       state          X           Y           Z        Dip. S.   Osc.(frdel)
         1        -0.2697     -0.0021     -0.0002      0.2720      0.1813
         2        -0.0056     -0.0000     -0.0002      0.0058      0.0039
         3         0.0000     -0.0017     -0.0001      0.0018      0.0012
         4        -0.0042     -0.3294     -0.0022      0.3358      0.2239
         5        -0.0016     -0.4397     -0.0005      0.4418      0.2945
         6        -0.0002     -0.0087     -0.0030      0.0120      0.0080

 Excitation energies and oscillator strengths:
 
 Excited State   1:      Singlet-A      3.5441 eV  349.83 nm  f=0.1895  <S**2>=0.000
      52 -> 53         0.69724
 This state for optimization and/or second-order correction.
 Total Energy, E(TD-HF/TD-DFT) =  -633.198468649    
 Copying the excited state density for this state as the 1-particle RhoCI density.
 
 Excited State   2:      Singlet-A      4.0586 eV  305.49 nm  f=0.0041  <S**2>=0.000
      50 -> 54         0.16971
      51 -> 53         0.56148
      51 -> 54         0.34020
 
 Excited State   3:      Singlet-A      4.2424 eV  292.25 nm  f=0.0014  <S**2>=0.000
      49 -> 53         0.17516
      49 -> 54        -0.12488
      50 -> 53         0.53824
      50 -> 54        -0.29534
      50 -> 58        -0.11469
      51 -> 53        -0.10528
      51 -> 54         0.19058
 
 Excited State   4:      Singlet-A      5.2012 eV  238.37 nm  f=0.2355  <S**2>=0.000
      52 -> 54         0.69739
 
 Excited State   5:      Singlet-A      5.6698 eV  218.67 nm  f=0.3008  <S**2>=0.000
      49 -> 53         0.64625
      50 -> 53        -0.20522
      51 -> 53         0.12168
 
 Excited State   6:      Singlet-A      6.0892 eV  203.61 nm  f=0.0074  <S**2>=0.000
      52 -> 55         0.66465
      52 -> 56         0.11963
 SavETr:  write IOETrn=   770 NScale= 10 NData=  16 NLR=1 NState=    6 LETran=     118.
 Leave Link  914 at Fri Jan 23 16:33:06 2026, MaxMem=  2147483648 cpu:            2091.6 elap:             131.3
 (Enter /data/home/wyx/g16/l601.exe)
 Copying SCF densities to generalized density rwf, IOpCl= 0 IROHF=0.

 **********************************************************************

            Population analysis using the SCF density.

 **********************************************************************

 Orbital symmetries:
       Occupied  (A) (A) (A) (A) (A) (A) (A) (A) (A) (A) (A) (A)
                 (A) (A) (A) (A) (A) (A) (A) (A) (A) (A) (A) (A)
                 (A) (A) (A) (A) (A) (A) (A) (A) (A) (A) (A) (A)
                 (A) (A) (A) (A) (A) (A) (A) (A) (A) (A) (A) (A)
                 (A) (A) (A) (A)
       Virtual   (A) (A) (A) (A) (A) (A) (A) (A) (A) (A) (A) (A)
                 (A) (A) (A) (A) (A) (A) (A) (A) (A) (A) (A) (A)
                 (A) (A) (A) (A) (A) (A) (A) (A) (A) (A) (A) (A)
                 (A) (A) (A) (A) (A) (A) (A) (A) (A) (A) (A) (A)
                 (A) (A) (A) (A) (A) (A) (A) (A) (A) (A) (A) (A)
                 (A) (A) (A) (A) (A) (A) (A) (A) (A) (A) (A) (A)
                 (A) (A) (A) (A) (A) (A) (A) (A) (A) (A) (A) (A)
                 (A) (A) (A) (A) (A) (A) (A) (A) (A) (A) (A) (A)
                 (A) (A) (A) (A) (A) (A) (A) (A) (A) (A) (A) (A)
                 (A) (A) (A) (A) (A) (A) (A) (A) (A) (A) (A) (A)
                 (A) (A) (A) (A) (A) (A) (A) (A) (A) (A) (A) (A)
                 (A) (A) (A) (A) (A) (A) (A) (A) (A) (A) (A) (A)
                 (A) (A) (A) (A) (A) (A) (A) (A) (A) (A) (A) (A)
                 (A) (A) (A) (A) (A) (A) (A) (A) (A) (A) (A) (A)
                 (A) (A) (A) (A) (A) (A) (A) (A) (A) (A) (A) (A)
                 (A) (A) (A) (A) (A) (A) (A) (A) (A) (A) (A) (A)
                 (A) (A) (A) (A) (A) (A) (A) (A) (A) (A) (A) (A)
                 (A) (A) (A) (A) (A) (A) (A) (A) (A) (A) (A) (A)
                 (A) (A) (A) (A) (A) (A) (A) (A) (A) (A) (A) (A)
                 (A) (A) (A) (A) (A) (A) (A) (A) (A) (A) (A) (A)
                 (A) (A) (A) (A) (A) (A) (A) (A) (A) (A) (A) (A)
                 (A) (A) (A) (A) (A) (A) (A) (A) (A) (A) (A) (A)
                 (A) (A) (A) (A) (A) (A) (A) (A) (A) (A) (A) (A)
                 (A) (A) (A) (A) (A) (A) (A) (A) (A) (A) (A) (A)
                 (A) (A) (A) (A) (A) (A) (A) (A) (A) (A) (A) (A)
                 (A) (A) (A) (A)
 The electronic state is 1-A.
 Alpha  occ. eigenvalues --  -19.17871 -19.17305 -14.44103 -10.33428 -10.33064
 Alpha  occ. eigenvalues --  -10.32009 -10.31468 -10.25945 -10.25056 -10.24839
 Alpha  occ. eigenvalues --  -10.24800 -10.24549 -10.24233 -10.23742  -1.12066
 Alpha  occ. eigenvalues --   -1.11355  -1.07478  -0.91275  -0.90283  -0.83814
 Alpha  occ. eigenvalues --   -0.82520  -0.81573  -0.78523  -0.74078  -0.71128
 Alpha  occ. eigenvalues --   -0.68630  -0.61632  -0.58256  -0.56794  -0.55167
 Alpha  occ. eigenvalues --   -0.54572  -0.54001  -0.52568  -0.51923  -0.50724
 Alpha  occ. eigenvalues --   -0.49951  -0.49497  -0.49092  -0.48549  -0.48169
 Alpha  occ. eigenvalues --   -0.46843  -0.45308  -0.45032  -0.43463  -0.43068
 Alpha  occ. eigenvalues --   -0.42385  -0.41986  -0.41910  -0.32871  -0.32225
 Alpha  occ. eigenvalues --   -0.31214  -0.26247
 Alpha virt. eigenvalues --   -0.02241   0.02457   0.06302   0.08082   0.08520
 Alpha virt. eigenvalues --    0.10035   0.10697   0.11992   0.12629   0.13535
 Alpha virt. eigenvalues --    0.14230   0.14874   0.15590   0.16208   0.16922
 Alpha virt. eigenvalues --    0.17494   0.17790   0.17893   0.18100   0.19202
 Alpha virt. eigenvalues --    0.19867   0.22073   0.22630   0.23413   0.23591
 Alpha virt. eigenvalues --    0.24046   0.24773   0.25553   0.25952   0.26484
 Alpha virt. eigenvalues --    0.26871   0.27237   0.28794   0.29033   0.30141
 Alpha virt. eigenvalues --    0.31493   0.31953   0.32653   0.33609   0.34225
 Alpha virt. eigenvalues --    0.35364   0.35831   0.36797   0.38178   0.38850
 Alpha virt. eigenvalues --    0.40080   0.40882   0.41836   0.42241   0.42695
 Alpha virt. eigenvalues --    0.44043   0.44204   0.45487   0.45983   0.46229
 Alpha virt. eigenvalues --    0.47294   0.47784   0.48111   0.48403   0.48849
 Alpha virt. eigenvalues --    0.49506   0.50112   0.50729   0.51284   0.51515
 Alpha virt. eigenvalues --    0.52846   0.53178   0.53495   0.54173   0.54310
 Alpha virt. eigenvalues --    0.54543   0.55880   0.56080   0.56703   0.58054
 Alpha virt. eigenvalues --    0.58632   0.58977   0.60830   0.60967   0.62262
 Alpha virt. eigenvalues --    0.63169   0.65511   0.66040   0.66475   0.68010
 Alpha virt. eigenvalues --    0.68936   0.70250   0.71511   0.72607   0.73156
 Alpha virt. eigenvalues --    0.73501   0.73997   0.74963   0.76070   0.77441
 Alpha virt. eigenvalues --    0.78401   0.79837   0.82368   0.83883   0.84488
 Alpha virt. eigenvalues --    0.89152   0.93008   0.97525   0.99628   1.25056
 Alpha virt. eigenvalues --    1.25583   1.27185   1.27739   1.29286   1.31673
 Alpha virt. eigenvalues --    1.32440   1.32958   1.33945   1.35231   1.35820
 Alpha virt. eigenvalues --    1.36639   1.37183   1.37970   1.39140   1.39795
 Alpha virt. eigenvalues --    1.40019   1.40267   1.41154   1.41584   1.41752
 Alpha virt. eigenvalues --    1.43242   1.44070   1.44518   1.45253   1.46948
 Alpha virt. eigenvalues --    1.47967   1.48995   1.49647   1.50603   1.51203
 Alpha virt. eigenvalues --    1.52408   1.52422   1.53881   1.54515   1.57569
 Alpha virt. eigenvalues --    1.58255   1.60487   1.60633   1.61264   1.62224
 Alpha virt. eigenvalues --    1.62589   1.63406   1.64190   1.65412   1.66110
 Alpha virt. eigenvalues --    1.66994   1.67422   1.67882   1.68277   1.68789
 Alpha virt. eigenvalues --    1.68878   1.69869   1.70676   1.72055   1.72571
 Alpha virt. eigenvalues --    1.73152   1.75034   1.76034   1.76787   1.78628
 Alpha virt. eigenvalues --    1.79872   1.83052   1.84283   1.85882   1.86475
 Alpha virt. eigenvalues --    1.86981   1.87317   1.88400   1.89122   1.90706
 Alpha virt. eigenvalues --    1.91330   1.94226   1.95206   1.98022   1.99520
 Alpha virt. eigenvalues --    2.00721   2.03841   2.04340   2.06253   2.09320
 Alpha virt. eigenvalues --    2.11186   2.13016   2.14393   2.16724   2.19339
 Alpha virt. eigenvalues --    2.20749   2.21311   2.21590   2.22721   2.25934
 Alpha virt. eigenvalues --    2.26737   2.27527   2.29072   2.30596   2.31616
 Alpha virt. eigenvalues --    2.33375   2.34634   2.35885   2.36569   2.37795
 Alpha virt. eigenvalues --    2.39228   2.40423   2.41660   2.44189   2.44720
 Alpha virt. eigenvalues --    2.45638   2.47978   2.50025   2.50523   2.52015
 Alpha virt. eigenvalues --    2.52852   2.53012   2.54640   2.56691   2.58505
 Alpha virt. eigenvalues --    2.59056   2.60036   2.60934   2.61223   2.62494
 Alpha virt. eigenvalues --    2.64047   2.65341   2.66868   2.67527   2.69261
 Alpha virt. eigenvalues --    2.70514   2.71824   2.72948   2.73643   2.74387
 Alpha virt. eigenvalues --    2.76237   2.76579   2.77276   2.78134   2.79404
 Alpha virt. eigenvalues --    2.80797   2.81325   2.82623   2.83679   2.84571
 Alpha virt. eigenvalues --    2.85700   2.85945   2.87726   2.90565   2.92116
 Alpha virt. eigenvalues --    2.97668   2.99818   3.00830   3.03794   3.10142
 Alpha virt. eigenvalues --    3.11949   3.14828   3.16679   3.17183   3.18880
 Alpha virt. eigenvalues --    3.20884   3.21985   3.25188   3.26497   3.26980
 Alpha virt. eigenvalues --    3.27306   3.29460   3.33509   3.34719   3.36430
 Alpha virt. eigenvalues --    3.37067   3.38856   3.39781   3.40208   3.41698
 Alpha virt. eigenvalues --    3.42734   3.44785   3.45089   3.46224   3.47824
 Alpha virt. eigenvalues --    3.48707   3.49860   3.54816   3.57962   3.59737
 Alpha virt. eigenvalues --    3.60044   3.89955   3.99342   4.34782   4.35766
 Alpha virt. eigenvalues --   21.63015  21.78643  22.08174  22.10911  22.11461
 Alpha virt. eigenvalues --   22.13984  22.15397  22.17994  22.21222  22.25557
 Alpha virt. eigenvalues --   22.30994  31.93260  43.62826  43.65165
          Condensed to atoms (all electrons):
               1          2          3          4          5          6
     1  O    7.933815   0.000000  -0.000233   0.000018   0.015360   0.018241
     2  O    0.000000   7.975446   0.000448   0.000037  -0.197011   0.000953
     3  N   -0.000233   0.000448   6.405685   0.375774  -0.114272   0.330653
     4  H    0.000018   0.000037   0.375774   0.411368   0.016730  -0.047267
     5  C    0.015360  -0.197011  -0.114272   0.016730   6.947973  -0.052631
     6  C    0.018241   0.000953   0.330653  -0.047267  -0.052631   5.643127
     7  C   -0.000451  -0.030204   0.371148  -0.042172   0.363145  -0.091545
     8  C   -0.000140   0.707448   0.004746  -0.000615  -0.237097   0.026417
     9  C   -0.027269   0.017642   0.015403  -0.000201  -0.453744  -0.136788
    10  H    0.016676  -0.000049  -0.001294   0.000019  -0.106893   0.024396
    11  H    0.003133   0.000085   0.003672   0.000001  -0.031808  -0.013094
    12  C   -0.217222  -0.002239  -0.092939   0.014982   0.135499  -0.195389
    13  C    0.714203  -0.000025   0.000212   0.000378   0.072086   0.182704
    14  C   -0.000005  -0.015080  -0.036315  -0.007460  -0.066799   0.006822
    15  H   -0.000000   0.004435   0.002725   0.001086   0.017950   0.006656
    16  H   -0.000000   0.002797   0.002147   0.000750  -0.009760  -0.000711
    17  H   -0.000000   0.000965  -0.003286   0.000887  -0.005367  -0.001912
    18  C   -0.000143  -0.106413  -0.000557   0.000019  -0.269173   0.000443
    19  H   -0.000004   0.009079   0.000002  -0.000001   0.023457   0.000028
    20  H    0.000095   0.003596   0.000118   0.000001   0.043168  -0.001091
    21  H    0.000022   0.001093   0.000013  -0.000000   0.003532   0.000241
    22  C   -0.110616   0.000000  -0.000044   0.000117   0.003938  -0.004182
    23  H    0.001370  -0.000000  -0.000027  -0.000019  -0.000112   0.011314
    24  H    0.004513  -0.000000  -0.000064  -0.000048  -0.000482  -0.034109
    25  H    0.008496   0.000000   0.000030  -0.000002  -0.000132  -0.001421
    26  C    0.000892   0.000003  -0.031370  -0.006050  -0.000179   0.179715
    27  H   -0.000040  -0.000000  -0.002554   0.000441   0.000405  -0.036071
    28  H   -0.000206  -0.000000   0.003023   0.000917   0.000021  -0.042929
    29  H    0.000024  -0.000000   0.000249   0.000916  -0.000547  -0.050889
               7          8          9         10         11         12
     1  O   -0.000451  -0.000140  -0.027269   0.016676   0.003133  -0.217222
     2  O   -0.030204   0.707448   0.017642  -0.000049   0.000085  -0.002239
     3  N    0.371148   0.004746   0.015403  -0.001294   0.003672  -0.092939
     4  H   -0.042172  -0.000615  -0.000201   0.000019   0.000001   0.014982
     5  C    0.363145  -0.237097  -0.453744  -0.106893  -0.031808   0.135499
     6  C   -0.091545   0.026417  -0.136788   0.024396  -0.013094  -0.195389
     7  C    5.439800  -0.181110  -0.163846   0.018237  -0.004981  -0.003787
     8  C   -0.181110   5.347616   0.081403  -0.009310  -0.003331  -0.030956
     9  C   -0.163846   0.081403   6.217702   0.526751   0.394706   0.040811
    10  H    0.018237  -0.009310   0.526751   0.497946  -0.032663  -0.105315
    11  H   -0.004981  -0.003331   0.394706  -0.032663   0.548128  -0.020292
    12  C   -0.003787  -0.030956   0.040811  -0.105315  -0.020292   7.281275
    13  C    0.010987  -0.005360  -0.253055  -0.001335   0.000120  -0.388678
    14  C    0.249250  -0.042909   0.011624   0.000486  -0.001343  -0.004156
    15  H   -0.073188   0.005787  -0.000263  -0.000003   0.000083  -0.001148
    16  H   -0.029965  -0.008632  -0.000370  -0.000052   0.000176  -0.000130
    17  H   -0.023373  -0.001184   0.000444   0.000052  -0.000064   0.000872
    18  C    0.002945   0.317892   0.003192   0.007873  -0.009173  -0.003621
    19  H    0.000312  -0.051344  -0.000147   0.000501  -0.000027  -0.000199
    20  H    0.000548  -0.065915  -0.009903  -0.004852   0.002044   0.006706
    21  H    0.001142  -0.024370  -0.008371  -0.002322   0.000946  -0.003587
    22  C   -0.000101  -0.000028   0.002658   0.001359   0.001419  -0.267030
    23  H    0.000035   0.000003  -0.001962  -0.000121   0.000141  -0.009303
    24  H   -0.000001  -0.000010   0.003190  -0.000073  -0.000117   0.064682
    25  H    0.000010   0.000003   0.000177  -0.000143  -0.000031   0.023621
    26  C    0.002574   0.000398   0.018706   0.000037  -0.000695  -0.076723
    27  H   -0.000816  -0.000009  -0.000082   0.000041  -0.000021  -0.019702
    28  H   -0.000792   0.000001  -0.000881   0.000002  -0.000085  -0.007601
    29  H    0.003912  -0.000003  -0.000535  -0.000009   0.000098   0.024349
              13         14         15         16         17         18
     1  O    0.714203  -0.000005  -0.000000  -0.000000  -0.000000  -0.000143
     2  O   -0.000025  -0.015080   0.004435   0.002797   0.000965  -0.106413
     3  N    0.000212  -0.036315   0.002725   0.002147  -0.003286  -0.000557
     4  H    0.000378  -0.007460   0.001086   0.000750   0.000887   0.000019
     5  C    0.072086  -0.066799   0.017950  -0.009760  -0.005367  -0.269173
     6  C    0.182704   0.006822   0.006656  -0.000711  -0.001912   0.000443
     7  C    0.010987   0.249250  -0.073188  -0.029965  -0.023373   0.002945
     8  C   -0.005360  -0.042909   0.005787  -0.008632  -0.001184   0.317892
     9  C   -0.253055   0.011624  -0.000263  -0.000370   0.000444   0.003192
    10  H   -0.001335   0.000486  -0.000003  -0.000052   0.000052   0.007873
    11  H    0.000120  -0.001343   0.000083   0.000176  -0.000064  -0.009173
    12  C   -0.388678  -0.004156  -0.001148  -0.000130   0.000872  -0.003621
    13  C    5.420225  -0.000064  -0.000014  -0.000001  -0.000023   0.000426
    14  C   -0.000064   5.088726   0.382357   0.426591   0.408366   0.001474
    15  H   -0.000014   0.382357   0.584665  -0.028469  -0.026891   0.000291
    16  H   -0.000001   0.426591  -0.028469   0.503019  -0.025137  -0.000172
    17  H   -0.000023   0.408366  -0.026891  -0.025137   0.509665  -0.000108
    18  C    0.000426   0.001474   0.000291  -0.000172  -0.000108   5.348429
    19  H   -0.000013   0.000055  -0.000005   0.000036  -0.000017   0.391927
    20  H    0.000493   0.000096  -0.000018  -0.000052   0.000005   0.382333
    21  H   -0.000046  -0.000294  -0.000006   0.000030  -0.000002   0.394584
    22  C    0.288693  -0.000023   0.000002  -0.000000   0.000000   0.000021
    23  H   -0.023603  -0.000000   0.000000  -0.000000   0.000000  -0.000002
    24  H   -0.087268  -0.000002   0.000000   0.000000   0.000000   0.000003
    25  H   -0.042788   0.000000   0.000000  -0.000000  -0.000000  -0.000001
    26  C   -0.051697   0.001479  -0.000050   0.000058  -0.000182   0.000024
    27  H    0.006152  -0.000096   0.000005   0.000003  -0.000014  -0.000001
    28  H   -0.005558   0.000100  -0.000014  -0.000001   0.000002  -0.000000
    29  H   -0.000513  -0.000301   0.000138  -0.000004   0.000003   0.000000
              19         20         21         22         23         24
     1  O   -0.000004   0.000095   0.000022  -0.110616   0.001370   0.004513
     2  O    0.009079   0.003596   0.001093   0.000000  -0.000000  -0.000000
     3  N    0.000002   0.000118   0.000013  -0.000044  -0.000027  -0.000064
     4  H   -0.000001   0.000001  -0.000000   0.000117  -0.000019  -0.000048
     5  C    0.023457   0.043168   0.003532   0.003938  -0.000112  -0.000482
     6  C    0.000028  -0.001091   0.000241  -0.004182   0.011314  -0.034109
     7  C    0.000312   0.000548   0.001142  -0.000101   0.000035  -0.000001
     8  C   -0.051344  -0.065915  -0.024370  -0.000028   0.000003  -0.000010
     9  C   -0.000147  -0.009903  -0.008371   0.002658  -0.001962   0.003190
    10  H    0.000501  -0.004852  -0.002322   0.001359  -0.000121  -0.000073
    11  H   -0.000027   0.002044   0.000946   0.001419   0.000141  -0.000117
    12  C   -0.000199   0.006706  -0.003587  -0.267030  -0.009303   0.064682
    13  C   -0.000013   0.000493  -0.000046   0.288693  -0.023603  -0.087268
    14  C    0.000055   0.000096  -0.000294  -0.000023  -0.000000  -0.000002
    15  H   -0.000005  -0.000018  -0.000006   0.000002   0.000000   0.000000
    16  H    0.000036  -0.000052   0.000030  -0.000000  -0.000000   0.000000
    17  H   -0.000017   0.000005  -0.000002   0.000000   0.000000   0.000000
    18  C    0.391927   0.382333   0.394584   0.000021  -0.000002   0.000003
    19  H    0.504448  -0.022316  -0.009977  -0.000000   0.000000   0.000000
    20  H   -0.022316   0.539059  -0.025962   0.000015  -0.000000  -0.000000
    21  H   -0.009977  -0.025962   0.502828  -0.000011   0.000000  -0.000000
    22  C   -0.000000   0.000015  -0.000011   5.429194   0.399895   0.396104
    23  H    0.000000  -0.000000   0.000000   0.399895   0.497123  -0.028092
    24  H    0.000000  -0.000000  -0.000000   0.396104  -0.028092   0.542027
    25  H   -0.000000  -0.000000  -0.000000   0.385089  -0.007527  -0.021500
    26  C    0.000000  -0.000014   0.000005  -0.029868  -0.016013   0.015917
    27  H    0.000000  -0.000000   0.000000  -0.010959   0.001235  -0.001402
    28  H   -0.000000  -0.000000   0.000000   0.009294  -0.000633  -0.009926
    29  H    0.000000   0.000000  -0.000000   0.001984   0.000231   0.000707
              25         26         27         28         29
     1  O    0.008496   0.000892  -0.000040  -0.000206   0.000024
     2  O    0.000000   0.000003  -0.000000  -0.000000  -0.000000
     3  N    0.000030  -0.031370  -0.002554   0.003023   0.000249
     4  H   -0.000002  -0.006050   0.000441   0.000917   0.000916
     5  C   -0.000132  -0.000179   0.000405   0.000021  -0.000547
     6  C   -0.001421   0.179715  -0.036071  -0.042929  -0.050889
     7  C    0.000010   0.002574  -0.000816  -0.000792   0.003912
     8  C    0.000003   0.000398  -0.000009   0.000001  -0.000003
     9  C    0.000177   0.018706  -0.000082  -0.000881  -0.000535
    10  H   -0.000143   0.000037   0.000041   0.000002  -0.000009
    11  H   -0.000031  -0.000695  -0.000021  -0.000085   0.000098
    12  C    0.023621  -0.076723  -0.019702  -0.007601   0.024349
    13  C   -0.042788  -0.051697   0.006152  -0.005558  -0.000513
    14  C    0.000000   0.001479  -0.000096   0.000100  -0.000301
    15  H    0.000000  -0.000050   0.000005  -0.000014   0.000138
    16  H   -0.000000   0.000058   0.000003  -0.000001  -0.000004
    17  H   -0.000000  -0.000182  -0.000014   0.000002   0.000003
    18  C   -0.000001   0.000024  -0.000001  -0.000000   0.000000
    19  H   -0.000000   0.000000   0.000000  -0.000000   0.000000
    20  H   -0.000000  -0.000014  -0.000000  -0.000000   0.000000
    21  H   -0.000000   0.000005   0.000000   0.000000  -0.000000
    22  C    0.385089  -0.029868  -0.010959   0.009294   0.001984
    23  H   -0.007527  -0.016013   0.001235  -0.000633   0.000231
    24  H   -0.021500   0.015917  -0.001402  -0.009926   0.000707
    25  H    0.492884   0.001847   0.000095   0.000838  -0.000044
    26  C    0.001847   5.252947   0.430926   0.424627   0.389765
    27  H    0.000095   0.430926   0.480620  -0.025106  -0.019164
    28  H    0.000838   0.424627  -0.025106   0.511693  -0.027029
    29  H   -0.000044   0.389765  -0.019164  -0.027029   0.524386
 Mulliken charges:
               1
     1  O   -0.360527
     2  O   -0.373005
     3  N   -0.233093
     4  H    0.279395
     5  C   -0.097257
     6  C    0.278320
     7  C    0.182285
     8  C    0.170609
     9  C   -0.276992
    10  H    0.170057
    11  H    0.162973
    12  C   -0.142781
    13  C    0.163361
    14  C   -0.402578
    15  H    0.123889
    16  H    0.167848
    17  H    0.166299
    18  C   -0.462513
    19  H    0.154204
    20  H    0.151846
    21  H    0.170513
    22  C   -0.496922
    23  H    0.176066
    24  H    0.155948
    25  H    0.160498
    26  C   -0.507078
    27  H    0.196113
    28  H    0.170244
    29  H    0.152278
 Sum of Mulliken charges =  -0.00000
 Mulliken charges with hydrogens summed into heavy atoms:
               1
     1  O   -0.360527
     2  O   -0.373005
     3  N    0.046302
     5  C   -0.097257
     6  C    0.278320
     7  C    0.182285
     8  C    0.170609
     9  C    0.056038
    12  C   -0.142781
    13  C    0.163361
    14  C    0.055458
    18  C    0.014050
    22  C   -0.004409
    26  C    0.011557
 Electronic spatial extent (au):  <R**2>=           3186.2563
 Charge=             -0.0000 electrons
 Dipole moment (field-independent basis, Debye):
    X=              3.8574    Y=              6.9222    Z=             -0.3277  Tot=              7.9312
 Quadrupole moment (field-independent basis, Debye-Ang):
   XX=            -97.2480   YY=            -78.8971   ZZ=            -84.9260
   XY=             12.3228   XZ=              5.1952   YZ=             -1.2974
 Traceless Quadrupole moment (field-independent basis, Debye-Ang):
   XX=            -10.2243   YY=              8.1266   ZZ=              2.0977
   XY=             12.3228   XZ=              5.1952   YZ=             -1.2974
 Octapole moment (field-independent basis, Debye-Ang**2):
  XXX=            104.9666  YYY=             60.4122  ZZZ=              2.1691  XYY=            -33.7871
  XXY=             28.4319  XXZ=            -10.3793  XZZ=              2.3791  YZZ=             -1.5669
  YYZ=              2.8884  XYZ=             -4.6161
 Hexadecapole moment (field-independent basis, Debye-Ang**3):
 XXXX=          -3023.1259 YYYY=          -1276.5408 ZZZZ=           -155.6664 XXXY=             36.2462
 XXXZ=             61.3244 YYYX=             85.7152 YYYZ=            -20.7642 ZZZX=             -2.8919
 ZZZY=              5.9599 XXYY=           -689.2259 XXZZ=           -486.8259 YYZZ=           -242.1567
 XXYZ=             -5.4742 YYXZ=              5.3918 ZZXY=             -1.4320
 N-N= 9.007821077875D+02 E-N=-3.277652946042D+03  KE= 6.307197341831D+02
 Leave Link  601 at Fri Jan 23 16:33:07 2026, MaxMem=  2147483648 cpu:               0.7 elap:               0.1
 (Enter /data/home/wyx/g16/l9999.exe)
 Electronic transition elements 
                 1             2             3             4             5 
      1  -0.633198D+03 -0.633180D+03 -0.633173D+03 -0.633138D+03 -0.633120D+03
      2  -0.142802D+01 -0.193101D+00 -0.311119D-01  0.302305D+00  0.403273D+00
      3  -0.359838D+00 -0.564652D-01  0.101764D+00 -0.131222D+01 -0.140939D+01
      4  -0.118570D+00  0.233606D-01 -0.432222D-01  0.186142D+00  0.127998D+00
      5   0.177181D+00  0.274510D-01  0.512225D-02 -0.520214D-01 -0.814563D-01
      6   0.483259D-01  0.860739D-02 -0.149186D-01  0.239736D+00  0.287773D+00
      7   0.136287D-01 -0.117717D-02  0.319353D-02 -0.297040D-01 -0.264263D-01
      8   0.556025D-01  0.867059D+00  0.453263D+00  0.648852D-01  0.214793D+00
      9  -0.510125D-01  0.802705D-01 -0.897234D+00 -0.556303D-01 -0.201406D-01
     10  -0.142956D+01 -0.332042D+00 -0.692565D-01  0.743191D-01  0.297314D+00
     11   0.184419D+00  0.446033D-01  0.123672D-01 -0.101526D+01 -0.711473D+00
     12  -0.271151D+00 -0.521544D-01 -0.287428D-01  0.125867D+00  0.291931D+00
     13   0.167198D-01  0.470395D-03  0.387935D-01  0.380239D-03  0.534272D-01
     14  -0.483247D+00 -0.714620D-01 -0.271407D-01 -0.386991D+00 -0.191161D+00
     15   0.870565D-01  0.580551D-02  0.583521D-01 -0.225503D-01 -0.299873D-01
     16  -0.214132D-01  0.768952D-01  0.223675D-01 -0.721764D-01  0.388527D-01
                 6 
      1  -0.633105D+03
      2  -0.505245D-01
      3   0.205187D+00
      4   0.716587D-01
      5   0.117059D-01
      6  -0.431594D-01
      7  -0.350910D-01
      8  -0.658552D-01
      9  -0.239626D-01
     10  -0.107862D-01
     11  -0.174981D+00
     12  -0.173243D+00
     13   0.169400D+00
     14   0.879817D-02
     15  -0.204113D-01
     16   0.278419D-01
 1\1\GINC-CN013\SP\RCAM-B3LYP TD-FC\TZVP\C11H15N1O2\WYX\23-Jan-2026\0\\
 #p CAM-B3LYP TZVP em=gd3bj td(nstates=6,root=1) scrf=(Solvent=TetraHyd
 roFuran)\\Title Card Required\\0,1\O,0,2.831688,-1.565178,0.183441\O,0
 ,-3.423665,-1.622229,0.069786\N,0,-0.633135,1.511136,-0.368879\H,0,-0.
 942561,2.46771,-0.419275\C,0,-1.236915,-0.757233,-0.222152\C,0,0.70111
 3,1.295865,-0.100754\C,0,-1.608889,0.540581,-0.293451\C,0,-2.223331,-1
 .825552,-0.10332\C,0,0.223881,-1.117871,-0.352232\H,0,0.468949,-1.9543
 58,0.29861\H,0,0.442781,-1.473087,-1.367459\C,0,1.15104,0.025323,-0.00
 9411\C,0,2.512378,-0.390739,0.331325\C,0,-3.0007,1.081495,-0.293546\H,
 0,-3.009522,2.115344,-0.640334\H,0,-3.66039,0.492909,-0.924444\H,0,-3.
 424665,1.050969,0.710284\C,0,-1.740374,-3.248728,-0.201498\H,0,-2.5851
 92,-3.925463,-0.304892\H,0,-1.061907,-3.394892,-1.042784\H,0,-1.189079
 ,-3.528892,0.699258\C,0,3.541074,0.553154,0.90326\H,0,4.0224,1.124639,
 0.108241\H,0,3.127817,1.255629,1.62253\H,0,4.303116,-0.054155,1.38589\
 C,0,1.463239,2.575772,0.053868\H,0,1.526102,2.871987,1.101935\H,0,2.46
 8779,2.516222,-0.34471\H,0,0.955968,3.379641,-0.479286\\Version=ES64L-
 G16RevA.03\State=1-A\HF=-633.3287136\RMSD=7.528e-09\PG=C01 [X(C11H15N1
 O2)]\\@


 ONE OF THE BENEFITS OF A COLLEGE EDUCATION
 IS TO SHOW THE BOY ITS LITTLE AVAIL 
                                    EMERSON IN 'CULTURE'
 Job cpu time:       0 days  0 hours 49 minutes 50.1 seconds.
 Elapsed time:       0 days  0 hours  3 minutes  8.0 seconds.
 File lengths (MBytes):  RWF=    828 Int=      0 D2E=      0 Chk=     34 Scr=      1
 Normal termination of Gaussian 16 at Fri Jan 23 16:33:09 2026.
