 Entering Gaussian System, Link 0=g16
 Input=DDL-S1-cLR-6.gjf
 Output=DDL-S1-cLR-6.log
 Initial command:
 /data/home/wyx/g16/l1.exe "/scr/tmp/wyx/13109/Gau-1693983.inp" -scrdir="/scr/tmp/wyx/13109/"
 Entering Link 1 = /data/home/wyx/g16/l1.exe PID=   1693984.
  
 Copyright (c) 1988,1990,1992,1993,1995,1998,2003,2009,2016,
            Gaussian, Inc.  All Rights Reserved.
  
 This is part of the Gaussian(R) 16 program.  It is based on
 the Gaussian(R) 09 system (copyright 2009, Gaussian, Inc.),
 the Gaussian(R) 03 system (copyright 2003, Gaussian, Inc.),
 the Gaussian(R) 98 system (copyright 1998, Gaussian, Inc.),
 the Gaussian(R) 94 system (copyright 1995, Gaussian, Inc.),
 the Gaussian 92(TM) system (copyright 1992, Gaussian, Inc.),
 the Gaussian 90(TM) system (copyright 1990, Gaussian, Inc.),
 the Gaussian 88(TM) system (copyright 1988, Gaussian, Inc.),
 the Gaussian 86(TM) system (copyright 1986, Carnegie Mellon
 University), and the Gaussian 82(TM) system (copyright 1983,
 Carnegie Mellon University). Gaussian is a federally registered
 trademark of Gaussian, Inc.
  
 This software contains proprietary and confidential information,
 including trade secrets, belonging to Gaussian, Inc.
  
 This software is provided under written license and may be
 used, copied, transmitted, or stored only in accord with that
 written license.
  
 The following legend is applicable only to US Government
 contracts under FAR:
  
                    RESTRICTED RIGHTS LEGEND
  
 Use, reproduction and disclosure by the US Government is
 subject to restrictions as set forth in subparagraphs (a)
 and (c) of the Commercial Computer Software - Restricted
 Rights clause in FAR 52.227-19.
  
 Gaussian, Inc.
 340 Quinnipiac St., Bldg. 40, Wallingford CT 06492
  
  
 ---------------------------------------------------------------
 Warning -- This program may not be used in any manner that
 competes with the business of Gaussian, Inc. or will provide
 assistance to any competitor of Gaussian, Inc.  The licensee
 of this program is prohibited from giving any competitor of
 Gaussian, Inc. access to this program.  By using this program,
 the user acknowledges that Gaussian, Inc. is engaged in the
 business of creating and licensing software in the field of
 computational chemistry and represents and warrants to the
 licensee that it is not a competitor of Gaussian, Inc. and that
 it will not use this program in any manner prohibited above.
 ---------------------------------------------------------------
  

 Cite this work as:
 Gaussian 16, Revision A.03,
 M. J. Frisch, G. W. Trucks, H. B. Schlegel, G. E. Scuseria, 
 M. A. Robb, J. R. Cheeseman, G. Scalmani, V. Barone, 
 G. A. Petersson, H. Nakatsuji, X. Li, M. Caricato, A. V. Marenich, 
 J. Bloino, B. G. Janesko, R. Gomperts, B. Mennucci, H. P. Hratchian, 
 J. V. Ortiz, A. F. Izmaylov, J. L. Sonnenberg, D. Williams-Young, 
 F. Ding, F. Lipparini, F. Egidi, J. Goings, B. Peng, A. Petrone, 
 T. Henderson, D. Ranasinghe, V. G. Zakrzewski, J. Gao, N. Rega, 
 G. Zheng, W. Liang, M. Hada, M. Ehara, K. Toyota, R. Fukuda, 
 J. Hasegawa, M. Ishida, T. Nakajima, Y. Honda, O. Kitao, H. Nakai, 
 T. Vreven, K. Throssell, J. A. Montgomery, Jr., J. E. Peralta, 
 F. Ogliaro, M. J. Bearpark, J. J. Heyd, E. N. Brothers, K. N. Kudin, 
 V. N. Staroverov, T. A. Keith, R. Kobayashi, J. Normand, 
 K. Raghavachari, A. P. Rendell, J. C. Burant, S. S. Iyengar, 
 J. Tomasi, M. Cossi, J. M. Millam, M. Klene, C. Adamo, R. Cammi, 
 J. W. Ochterski, R. L. Martin, K. Morokuma, O. Farkas, 
 J. B. Foresman, and D. J. Fox, Gaussian, Inc., Wallingford CT, 2016.
 
 ******************************************
 Gaussian 16:  ES64L-G16RevA.03 25-Dec-2016
                23-Jan-2026 
 ******************************************
 %nprocshared=16
 Will use up to   16 processors via shared memory.
 %mem=16GB
 %oldchk=DDL-LR-6.chk
 %chk=DDL-S1-cLR-6.chk
 Copying data from "DDL-LR-6.chk" to current chk file "DDL-S1-cLR-6.chk"
 IOpt=  2 FromEx=T IUOpen= 4 IOptOp= 5 NList=   0 IFRang= 0 IUIn= 4 IUOut= 2.
 ----------------------------------------------------------------------
 #p CAM-B3LYP TZVP em=gd3bj td(nstates=6,root=1) scrf=(Solvent=TetraHyd
 roFuran,CorrectedLR,NonEquilibrium=Save) Geom=Check Guess=Read
 ----------------------------------------------------------------------
 1/29=2,30=1,38=1,172=1/1;
 2/12=2,40=1/2;
 3/5=19,7=101,11=9,14=-4,25=1,30=1,70=9002201,71=1,72=20,74=-40,116=-2,124=41/1,2,3,8;
 4/5=1/1;
 5/5=2,38=6,53=20/2;
 8/6=1,10=1,107=1,108=6/1;
 9/8=1,15=1,41=6,42=1,70=2,73=22/14;
 10/5=4,13=10,28=1,74=20/2;
 6/7=2,8=2,9=2,10=2,22=-1/1;
 99/5=1,9=1/99;
 Leave Link    1 at Fri Jan 23 18:56:54 2026, MaxMem=  2147483648 cpu:               0.8 elap:               0.1
 (Enter /data/home/wyx/g16/l101.exe)
 -------------------
 Title Card Required
 -------------------
 Structure from the checkpoint file:  "DDL-S1-cLR-6.chk"
 Charge =  0 Multiplicity = 1
 Z-Matrix found in chk file.
 O,0,2.801652,-1.576247,0.37424
 O,0,-3.444919,-1.650135,-0.345325
 N,0,-0.649824,1.523349,-0.165338
 H,0,-0.967504,2.477091,-0.206537
 C,0,-1.242198,-0.764675,-0.190616
 C,0,0.67903,1.310344,0.053458
 C,0,-1.617567,0.53965,-0.254032
 C,0,-2.187546,-1.82399,-0.264223
 C,0,0.213322,-1.130384,-0.058809
 H,0,0.346963,-1.809359,0.78582
 H,0,0.540087,-1.684075,-0.944209
 C,0,1.145473,0.040392,0.125838
 C,0,2.517422,-0.379101,0.362302
 C,0,-2.994568,1.075846,-0.403102
 H,0,-3.011839,1.928055,-1.087779
 H,0,-3.701328,0.348882,-0.797621
 H,0,-3.39656,1.405749,0.558009
 C,0,-1.80273,-3.27243,-0.260862
 H,0,-2.346136,-3.887441,-0.980705
 H,0,-0.747596,-3.439197,-0.470265
 H,0,-1.981172,-3.717793,0.722885
 C,0,3.640052,0.594542,0.605705
 H,0,3.814164,1.254356,-0.242419
 H,0,3.477075,1.218102,1.483071
 H,0,4.533252,-0.005019,0.764951
 C,0,1.446157,2.58722,0.183218
 H,0,1.897091,2.700666,1.166588
 H,0,2.235181,2.678103,-0.559499
 H,0,0.804564,3.457499,0.045253
 Recover connectivity data from disk.
 ITRead=  0  0  0  0  0  0  0  0  0  0  0  0  0  0  0  0  0  0  0  0
 ITRead=  0  0  0  0  0  0  0  0  0
 MicOpt= -1 -1 -1 -1 -1 -1 -1 -1 -1 -1 -1 -1 -1 -1 -1 -1 -1 -1 -1 -1
 MicOpt= -1 -1 -1 -1 -1 -1 -1 -1 -1
 NAtoms=     29 NQM=       29 NQMF=       0 NMMI=      0 NMMIF=      0
                NMic=       0 NMicF=      0.
                    Isotopes and Nuclear Properties:
 (Nuclear quadrupole moments (NQMom) in fm**2, nuclear magnetic moments (NMagM)
  in nuclear magnetons)

  Atom         1           2           3           4           5           6           7           8           9          10
 IAtWgt=          16          16          14           1          12          12          12          12          12           1
 AtmWgt=  15.9949146  15.9949146  14.0030740   1.0078250  12.0000000  12.0000000  12.0000000  12.0000000  12.0000000   1.0078250
 NucSpn=           0           0           2           1           0           0           0           0           0           1
 AtZEff=   5.6000000   5.6000000   4.5500000   1.0000000   3.6000000   3.6000000   3.6000000   3.6000000   3.6000000   1.0000000
 NQMom=    0.0000000   0.0000000   2.0440000   0.0000000   0.0000000   0.0000000   0.0000000   0.0000000   0.0000000   0.0000000
 NMagM=    0.0000000   0.0000000   0.4037610   2.7928460   0.0000000   0.0000000   0.0000000   0.0000000   0.0000000   2.7928460
 AtZNuc=   8.0000000   8.0000000   7.0000000   1.0000000   6.0000000   6.0000000   6.0000000   6.0000000   6.0000000   1.0000000

  Atom        11          12          13          14          15          16          17          18          19          20
 IAtWgt=           1          12          12          12           1           1           1          12           1           1
 AtmWgt=   1.0078250  12.0000000  12.0000000  12.0000000   1.0078250   1.0078250   1.0078250  12.0000000   1.0078250   1.0078250
 NucSpn=           1           0           0           0           1           1           1           0           1           1
 AtZEff=   1.0000000   3.6000000   3.6000000   3.6000000   1.0000000   1.0000000   1.0000000   3.6000000   1.0000000   1.0000000
 NQMom=    0.0000000   0.0000000   0.0000000   0.0000000   0.0000000   0.0000000   0.0000000   0.0000000   0.0000000   0.0000000
 NMagM=    2.7928460   0.0000000   0.0000000   0.0000000   2.7928460   2.7928460   2.7928460   0.0000000   2.7928460   2.7928460
 AtZNuc=   1.0000000   6.0000000   6.0000000   6.0000000   1.0000000   1.0000000   1.0000000   6.0000000   1.0000000   1.0000000

  Atom        21          22          23          24          25          26          27          28          29
 IAtWgt=           1          12           1           1           1          12           1           1           1
 AtmWgt=   1.0078250  12.0000000   1.0078250   1.0078250   1.0078250  12.0000000   1.0078250   1.0078250   1.0078250
 NucSpn=           1           0           1           1           1           0           1           1           1
 AtZEff=   1.0000000   3.6000000   1.0000000   1.0000000   1.0000000   3.6000000   1.0000000   1.0000000   1.0000000
 NQMom=    0.0000000   0.0000000   0.0000000   0.0000000   0.0000000   0.0000000   0.0000000   0.0000000   0.0000000
 NMagM=    2.7928460   0.0000000   2.7928460   2.7928460   2.7928460   0.0000000   2.7928460   2.7928460   2.7928460
 AtZNuc=   1.0000000   6.0000000   1.0000000   1.0000000   1.0000000   6.0000000   1.0000000   1.0000000   1.0000000
 Leave Link  101 at Fri Jan 23 18:56:57 2026, MaxMem=  2147483648 cpu:               0.9 elap:               0.1
 (Enter /data/home/wyx/g16/l202.exe)
                          Input orientation:                          
 ---------------------------------------------------------------------
 Center     Atomic      Atomic             Coordinates (Angstroms)
 Number     Number       Type             X           Y           Z
 ---------------------------------------------------------------------
      1          8           0        2.801652   -1.576247    0.374240
      2          8           0       -3.444919   -1.650135   -0.345325
      3          7           0       -0.649824    1.523349   -0.165338
      4          1           0       -0.967504    2.477091   -0.206537
      5          6           0       -1.242198   -0.764675   -0.190616
      6          6           0        0.679030    1.310344    0.053458
      7          6           0       -1.617567    0.539650   -0.254032
      8          6           0       -2.187546   -1.823990   -0.264223
      9          6           0        0.213322   -1.130384   -0.058809
     10          1           0        0.346963   -1.809359    0.785820
     11          1           0        0.540087   -1.684075   -0.944209
     12          6           0        1.145473    0.040392    0.125838
     13          6           0        2.517422   -0.379101    0.362302
     14          6           0       -2.994568    1.075846   -0.403102
     15          1           0       -3.011839    1.928055   -1.087779
     16          1           0       -3.701328    0.348882   -0.797621
     17          1           0       -3.396560    1.405749    0.558009
     18          6           0       -1.802730   -3.272430   -0.260862
     19          1           0       -2.346136   -3.887441   -0.980705
     20          1           0       -0.747596   -3.439197   -0.470265
     21          1           0       -1.981172   -3.717793    0.722885
     22          6           0        3.640052    0.594542    0.605705
     23          1           0        3.814164    1.254356   -0.242419
     24          1           0        3.477075    1.218102    1.483071
     25          1           0        4.533252   -0.005019    0.764951
     26          6           0        1.446157    2.587220    0.183218
     27          1           0        1.897091    2.700666    1.166588
     28          1           0        2.235181    2.678103   -0.559499
     29          1           0        0.804564    3.457499    0.045253
 ---------------------------------------------------------------------
                    Distance matrix (angstroms):
                    1          2          3          4          5
     1  O    0.000000
     2  O    6.288313   0.000000
     3  N    4.670260   4.232724   0.000000
     4  H    5.565374   4.815687   1.006102   0.000000
     5  C    4.162984   2.379066   2.363599   3.253422   0.000000
     6  C    3.597337   5.092192   1.363487   2.034692   2.838379
     7  C    4.939761   2.853543   1.382771   2.044142   1.358745
     8  C    5.035981   1.271924   3.684976   4.471144   1.421706
     9  C    2.661912   3.706071   2.792610   3.798690   1.506537
    10  H    2.499847   3.960203   3.606276   4.591977   2.137808
    11  H    2.620040   4.029899   3.508575   4.486902   2.142368
    12  C    2.327693   4.914425   2.346708   3.242321   2.539537
    13  C    1.230483   6.137245   3.732180   4.541599   3.819572
    14  C    6.421372   2.763535   2.398878   2.472067   2.550190
    15  H    6.943652   3.679978   2.567839   2.292888   3.344746
    16  H    6.882451   2.065523   3.330290   3.514605   2.766909
    17  H    6.880691   3.186970   2.842819   2.762719   3.148405
    18  C    4.947800   2.309926   4.933337   5.810124   2.570596
    19  H    5.803207   2.572269   5.728782   6.557990   3.405083
    20  H    4.096454   3.239121   4.972867   5.926245   2.734210
    21  H    5.251969   2.749334   5.480054   6.345702   3.178281
    22  C    2.338550   7.492653   4.456481   5.043144   5.130104
    23  H    3.068837   7.819267   4.472749   4.935658   5.444811
    24  H    3.081248   7.712575   4.454405   4.918751   5.385552
    25  H    2.370623   8.221334   5.483213   6.112526   5.903051
    26  C    4.382729   6.492854   2.376226   2.447406   4.313027
    27  H    4.442750   7.053540   3.105942   3.184551   4.868853
    28  H    4.392295   7.144442   3.132423   3.228340   4.907235
    29  H    5.425421   6.655718   2.429101   2.040790   4.698045
                    6          7          8          9         10
     6  C    0.000000
     7  C    2.441900   0.000000
     8  C    4.259370   2.431414   0.000000
     9  C    2.487296   2.485816   2.507479   0.000000
    10  H    3.221672   3.233963   2.743454   1.091909   0.000000
    11  H    3.159302   3.174393   2.814594   1.094204   1.745277
    12  C    1.354838   2.833364   3.838891   1.507885   2.120088
    13  C    2.515809   4.280433   4.961548   2.459804   2.633609
    14  C    3.709280   1.485214   3.013241   3.908522   4.572064
    15  H    3.912353   2.137007   3.928810   4.562290   5.362853
    16  H    4.564678   2.161930   2.701374   4.249536   4.853241
    17  H    4.107811   2.138774   3.545278   4.454625   4.939917
    18  C    5.221087   3.816580   1.498690   2.948500   2.803088
    19  H    6.102302   4.545107   2.190052   3.873252   3.832991
    20  H    4.986751   4.078582   2.173661   2.534418   2.330704
    21  H    5.727737   4.383195   2.145568   3.481599   3.011029
    22  C    3.095965   5.327731   6.369221   3.893511   4.081129
    23  H    3.149562   5.478562   6.745162   4.322819   4.739737
    24  H    3.143463   5.425237   6.662979   4.306375   4.410134
    25  H    4.134178   6.258400   7.038251   4.539474   4.558629
    26  C    1.495237   3.710813   5.732606   3.924161   4.571790
    27  H    2.157713   4.363596   6.261309   4.360461   4.784162
    28  H    2.160576   4.417008   6.317954   4.340873   5.050996
    29  H    2.150837   3.803963   6.078044   4.626993   5.338317
                   11         12         13         14         15
    11  H    0.000000
    12  C    2.117848   0.000000
    13  C    2.705510   1.454006   0.000000
    14  C    4.517051   4.300219   5.751934   0.000000
    15  H    5.067965   4.724339   6.164287   1.093317   0.000000
    16  H    4.705742   4.943624   6.367749   1.087948   1.747391
    17  H    5.225023   4.762461   6.180548   1.092780   1.769020
    18  C    2.911808   4.451542   5.236736   4.510899   5.402849
    19  H    3.631313   5.370628   6.145430   5.038681   5.854453
    20  H    2.227825   4.005819   4.551670   5.043710   5.857945
    21  H    3.643070   4.925071   5.613754   5.027305   6.018005
    22  C    4.147784   2.600054   1.505830   6.728115   6.992410
    23  H    4.454937   2.954866   2.171499   6.812967   6.911065
    24  H    4.789595   2.943714   2.174423   6.742407   7.015647
    25  H    4.656804   3.447836   2.089410   7.694199   8.006109
    26  C    4.509547   2.565158   3.158914   4.727374   4.682271
    27  H    5.052017   2.953836   3.242939   5.388162   5.456802
    28  H    4.695737   2.935076   3.205600   5.471925   5.326619
    29  H    5.242592   3.435016   4.213538   4.506295   4.264727
                   16         17         18         19         20
    16  H    0.000000
    17  H    1.745733   0.000000
    18  C    4.123916   5.009611   0.000000
    19  H    4.451572   5.611496   1.091651   0.000000
    20  H    4.814690   5.616748   1.088563   1.736894   0.000000
    21  H    4.669981   5.318006   1.094508   1.750485   1.738658
    22  C    7.478338   7.083378   6.732629   7.644561   6.056419
    23  H    7.590175   7.256593   7.213988   8.058067   6.549123
    24  H    7.581990   6.938142   7.147204   8.126903   6.584360
    25  H    8.388992   8.056985   7.202287   8.089901   6.419244
    26  C    5.698140   4.998825   6.714758   7.593250   6.446495
    27  H    6.382108   5.483605   7.169670   8.125207   6.882701
    28  H    6.381545   5.880835   7.197413   8.016997   6.806341
    29  H    5.538682   4.703407   7.223824   8.057769   7.087974
                   21         22         23         24         25
    21  H    0.000000
    22  C    7.085769   0.000000
    23  H    7.696752   1.088570   0.000000
    24  H    7.398203   1.088650   1.758482   0.000000
    25  H    7.498278   1.087492   1.765760   1.768398   0.000000
    26  C    7.196597   2.993733   2.750482   2.772856   4.072870
    27  H    7.512284   2.790746   2.784292   2.189636   3.798867
    28  H    7.767215   2.769944   2.149601   2.801070   3.772856
    29  H    7.726857   4.068245   3.740894   3.771543   5.139077
                   26         27         28         29
    26  C    0.000000
    27  H    1.087763   0.000000
    28  H    1.087404   1.759031   0.000000
    29  H    1.089982   1.738909   1.737771   0.000000
 Stoichiometry    C11H15NO2
 Framework group  C1[X(C11H15NO2)]
 Deg. of freedom    81
 Full point group                 C1      NOp   1
 RotChk:  IX=0 Diff= 4.12D-16
 Largest Abelian subgroup         C1      NOp   1
 Largest concise Abelian subgroup C1      NOp   1
                         Standard orientation:                         
 ---------------------------------------------------------------------
 Center     Atomic      Atomic             Coordinates (Angstroms)
 Number     Number       Type             X           Y           Z
 ---------------------------------------------------------------------
      1          8           0        2.255085   -2.314228   -0.020190
      2          8           0       -3.666647   -0.203292    0.120938
      3          7           0        0.054675    1.804931   -0.065481
      4          1           0        0.085124    2.810541   -0.057565
      5          6           0       -1.292830   -0.136448   -0.022169
      6          6           0        1.243378    1.137895   -0.031668
      7          6           0       -1.197172    1.218919   -0.026430
      8          6           0       -2.548192   -0.801853    0.028346
      9          6           0       -0.050383   -0.985569   -0.092695
     10          1           0       -0.055009   -1.712618    0.721948
     11          1           0       -0.050694   -1.570365   -1.017517
     12          6           0        1.245416   -0.216942   -0.030794
     13          6           0        2.404764   -1.093347    0.013484
     14          6           0       -2.309682    2.201913    0.017201
     15          1           0       -2.116595    3.043110   -0.653952
     16          1           0       -3.268565    1.783260   -0.280967
     17          1           0       -2.447355    2.598643    1.026071
     18          6           0       -2.692659   -2.292463   -0.028972
     19          1           0       -3.502003   -2.645033   -0.671124
     20          1           0       -1.796405   -2.799735   -0.381636
     21          1           0       -2.888685   -2.700695    0.967455
     22          6           0        3.816615   -0.578024    0.106446
     23          1           0        4.100157    0.025688   -0.753856
     24          1           0        3.992365    0.016548    1.001296
     25          1           0        4.458814   -1.455053    0.138714
     26          6           0        2.415689    2.065515   -0.000980
     27          1           0        2.998387    1.965537    0.912089
     28          1           0        3.086629    1.919203   -0.844116
     29          1           0        2.103929    3.109030   -0.045080
 ---------------------------------------------------------------------
 Rotational constants (GHZ):           1.1017234           0.4839296           0.3400608
 Leave Link  202 at Fri Jan 23 18:56:57 2026, MaxMem=  2147483648 cpu:               0.1 elap:               0.0
 (Enter /data/home/wyx/g16/l301.exe)
 Standard basis: TZVP (5D, 7F)
 Ernie: Thresh=  0.10000D-02 Tol=  0.10000D-05 Strict=F.
 There are   370 symmetry adapted cartesian basis functions of A   symmetry.
 There are   356 symmetry adapted basis functions of A   symmetry.
   356 basis functions,   610 primitive gaussians,   370 cartesian basis functions
    52 alpha electrons       52 beta electrons
       nuclear repulsion energy       899.6910010133 Hartrees.
 IExCor=20419 DFT=T Ex+Corr=CAM-B3LYP ExCW=0 ScaHFX=  1.000000
 ScaDFX=  1.000000  1.000000  1.000000  0.810000 ScalE2=  1.000000  1.000000
 IRadAn=      5 IRanWt=     -1 IRanGd=            0 ICorTp=0 IEmpDi=141
 HFx  wShort=  0.000000 wLong=  0.330000 cFull=  0.190000 cShort=  0.000000 cLong=  0.460000
 DFx  wShort=  0.000000 wLong=  0.330000 cFull=  0.190000 cShort=  0.000000 cLong=  0.460000
 NAtoms=   29 NActive=   29 NUniq=   29 SFac= 1.00D+00 NAtFMM=   60 NAOKFM=F Big=F
 Integral buffers will be    131072 words long.
 Raffenetti 1 integral format.
 Two-electron integral symmetry is turned on.
 R6Disp:  Grimme-D3(BJ) Dispersion energy=       -0.0261106777 Hartrees.
 Nuclear repulsion after empirical dispersion term =      899.6648903356 Hartrees.
 ------------------------------------------------------------------------------
 Polarizable Continuum Model (PCM)
 =================================
 Model                : PCM.
 Atomic radii         : UFF (Universal Force Field).
 Polarization charges : Total charges.
 Charge compensation  : None.
 Solution method      : On-the-fly selection.
 Cavity type          : Scaled VdW (van der Waals Surface) (Alpha=1.100).
 Cavity algorithm     : GePol (No added spheres)
                        Default sphere list used, NSphG=   29.
                        Lebedev-Laikov grids with approx.  5.0 points / Ang**2.
                        Smoothing algorithm: York/Karplus (Gamma=1.0000).
                        Polarization charges: spherical gaussians, with
                                              point-specific exponents (IZeta= 3).
                        Self-potential: point-specific (ISelfS= 7).
                        Self-field    : sphere-specific E.n sum rule (ISelfD= 2).
 1st derivatives      : Analytical E(r).r(x)/FMM algorithm (CHGder, D1EAlg=3).
                        Cavity 1st derivative terms included.
 Solvent              : TetraHydroFuran, Eps=   7.425700 Eps(inf)=   1.974025
 ------------------------------------------------------------------------------
 GePol: Number of generator spheres                  =      29
 GePol: Total number of spheres                      =      29
 GePol: Number of exposed spheres                    =      29 (100.00%)
 GePol: Number of points                             =    2101
 GePol: Average weight of points                     =       0.13
 GePol: Minimum weight of points                     =   0.29D-09
 GePol: Maximum weight of points                     =    0.20577
 GePol: Number of points with low weight             =     134
 GePol: Fraction of low-weight points (<1% of avg)   =       6.38%
 GePol: Cavity surface area                          =    268.297 Ang**2
 GePol: Cavity volume                                =    285.959 Ang**3
 Leave Link  301 at Fri Jan 23 18:56:58 2026, MaxMem=  2147483648 cpu:               0.6 elap:               0.0
 (Enter /data/home/wyx/g16/l302.exe)
 NPDir=0 NMtPBC=     1 NCelOv=     1 NCel=       1 NClECP=     1 NCelD=      1
         NCelK=      1 NCelE2=     1 NClLst=     1 CellRange=     0.0.
 One-electron integrals computed using PRISM.
 One-electron integral symmetry used in STVInt
 NBasis=   356 RedAO= T EigKep=  3.49D-05  NBF=   356
 NBsUse=   356 1.00D-06 EigRej= -1.00D+00 NBFU=   356
 Precomputing XC quadrature grid using
 IXCGrd= 4 IRadAn=           5 IRanWt=          -1 IRanGd=           0 AccXCQ= 0.00D+00.
 Generated NRdTot=       0 NPtTot=           0 NUsed=           0 NTot=          32
 NSgBfM=   366   366   366   366   366 MxSgAt=    29 MxSgA2=    29.
 Leave Link  302 at Fri Jan 23 18:56:58 2026, MaxMem=  2147483648 cpu:               3.1 elap:               0.2
 (Enter /data/home/wyx/g16/l303.exe)
 DipDrv:  MaxL=1.
 Leave Link  303 at Fri Jan 23 18:56:58 2026, MaxMem=  2147483648 cpu:               0.6 elap:               0.0
 (Enter /data/home/wyx/g16/l308.exe)
 Leave Link  308 at Fri Jan 23 18:56:59 2026, MaxMem=  2147483648 cpu:               0.7 elap:               0.1
 (Enter /data/home/wyx/g16/l401.exe)
 Initial guess from the checkpoint file:  "DDL-S1-cLR-6.chk"
 B after Tr=    -0.000000    0.000000    0.000000
         Rot=    1.000000   -0.000000    0.000000    0.000000 Ang=   0.00 deg.
 Guess basis will be translated and rotated to current coordinates.
 JPrj=2 DoOrth=T DoCkMO=T.
 Leave Link  401 at Fri Jan 23 18:56:59 2026, MaxMem=  2147483648 cpu:               2.2 elap:               0.2
 (Enter /data/home/wyx/g16/l502.exe)
 Integral symmetry usage will be decided dynamically.
 Closed shell SCF:
 Using DIIS extrapolation, IDIIS=  1040.
 NGot=  2147483648 LenX=  2147200095 LenY=  2147062754
 Requested convergence on RMS density matrix=1.00D-08 within 128 cycles.
 Requested convergence on MAX density matrix=1.00D-06.
 Requested convergence on             energy=1.00D-06.
 No special actions if energy rises.
 Fock matrices will be formed incrementally for  20 cycles.

 Cycle   1  Pass 1  IDiag  1:
 FoFJK:  IHMeth= 1 ICntrl=       0 DoSepK=T KAlg= 0 I1Cent=           0 FoldK=F
 IRaf=         1 NMat=       1 IRICut=       1 DoRegI=T DoRafI=F ISym2E= 0 IDoP0=0 IntGTp=1.
 FoFCou: FMM=F IPFlag=           0 FMFlag=      100000 FMFlg1=           0
         NFxFlg=           0 DoJE=T BraDBF=F KetDBF=F FulRan=T
         wScrn=  0.000000 ICntrl=       500 IOpCl=  0 I1Cent=           0 NGrid=           0
         NMat0=    1 NMatS0=      1 NMatT0=    0 NMatD0=    1 NMtDS0=    0 NMtDT0=    0
 Symmetry not used in FoFCou.
 Inv3:  Mode=1 IEnd=    13242603.
 Iteration    1 A*A^-1 deviation from unit magnitude is 2.89D-15 for   1341.
 Iteration    1 A*A^-1 deviation from orthogonality  is 1.87D-15 for    756    235.
 Iteration    1 A^-1*A deviation from unit magnitude is 2.89D-15 for   1341.
 Iteration    1 A^-1*A deviation from orthogonality  is 6.16D-14 for   1392   1348.
 E= -633.317938505387    
 DIIS: error= 6.09D-09 at cycle   1 NSaved=   1.
 NSaved= 1 IEnMin= 1 EnMin= -633.317938505387     IErMin= 1 ErrMin= 6.09D-09
 ErrMax= 6.09D-09  0.00D+00 EMaxC= 1.00D-01 BMatC= 1.84D-14 BMatP= 1.84D-14
 IDIUse=1 WtCom= 1.00D+00 WtEn= 0.00D+00
 Coeff-Com:  0.100D+01
 Coeff:      0.100D+01
 Gap=     0.230 Goal=   None    Shift=    0.000
 RMSDP=1.77D-09 MaxDP=1.01D-07              OVMax= 1.23D-07

 Error on total polarization charges =  0.01469
 SCF Done:  E(RCAM-B3LYP) =  -633.317938505     A.U. after    1 cycles
            NFock=  1  Conv=0.18D-08     -V/T= 2.0041
 KE= 6.307015509617D+02 PE=-3.275342736548D+03 EE= 1.111658356745D+03
 Leave Link  502 at Fri Jan 23 18:57:05 2026, MaxMem=  2147483648 cpu:              85.7 elap:               5.6
 (Enter /data/home/wyx/g16/l801.exe)
 DoSCS=F DFT=T ScalE2(SS,OS)=  1.000000  1.000000
 ExpMin= 9.52D-02 ExpMax= 2.70D+04 ExpMxC= 9.22D+02 IAcc=3 IRadAn=         5 AccDes= 0.00D+00
 HarFok:  IExCor=  205 AccDes= 0.00D+00 IRadAn=         5 IDoV=-2 UseB2=F ITyADJ=14
 ICtDFT= 12500011 ScaDFX=  1.000000  1.000000  1.000000  1.000000
 Largest valence mixing into a core orbital is  5.63D-05
 Largest core mixing into a valence orbital is  1.06D-05
 Range of M.O.s used for correlation:    15   356
 NBasis=   356 NAE=    52 NBE=    52 NFC=    14 NFV=     0
 NROrb=    342 NOA=    38 NOB=    38 NVA=   304 NVB=   304

 **** Warning!!: The largest alpha MO coefficient is  0.44947201D+02

 Leave Link  801 at Fri Jan 23 18:57:05 2026, MaxMem=  2147483648 cpu:               1.0 elap:               0.1
 (Enter /data/home/wyx/g16/l914.exe)
 RHF ground state
 Two-electron integrals replicated using symmetry.
 MDV=  2147483648 DFT=T DoStab=F Mixed=T DoRPA=T DoScal=F NonHer=T
 NEqPCM:  Using equilibrium solvation (IEInf=0, Eps=   7.4257, EpsInf=   1.9740)
 Making orbital integer symmetry assigments:
 Orbital symmetries:
       Occupied  (A) (A) (A) (A) (A) (A) (A) (A) (A) (A) (A) (A)
                 (A) (A) (A) (A) (A) (A) (A) (A) (A) (A) (A) (A)
                 (A) (A) (A) (A) (A) (A) (A) (A) (A) (A) (A) (A)
                 (A) (A) (A) (A) (A) (A) (A) (A) (A) (A) (A) (A)
                 (A) (A) (A) (A)
       Virtual   (A) (A) (A) (A) (A) (A) (A) (A) (A) (A) (A) (A)
                 (A) (A) (A) (A) (A) (A) (A) (A) (A) (A) (A) (A)
                 (A) (A) (A) (A) (A) (A) (A) (A) (A) (A) (A) (A)
                 (A) (A) (A) (A) (A) (A) (A) (A) (A) (A) (A) (A)
                 (A) (A) (A) (A) (A) (A) (A) (A) (A) (A) (A) (A)
                 (A) (A) (A) (A) (A) (A) (A) (A) (A) (A) (A) (A)
                 (A) (A) (A) (A) (A) (A) (A) (A) (A) (A) (A) (A)
                 (A) (A) (A) (A) (A) (A) (A) (A) (A) (A) (A) (A)
                 (A) (A) (A) (A) (A) (A) (A) (A) (A) (A) (A) (A)
                 (A) (A) (A) (A) (A) (A) (A) (A) (A) (A) (A) (A)
                 (A) (A) (A) (A) (A) (A) (A) (A) (A) (A) (A) (A)
                 (A) (A) (A) (A) (A) (A) (A) (A) (A) (A) (A) (A)
                 (A) (A) (A) (A) (A) (A) (A) (A) (A) (A) (A) (A)
                 (A) (A) (A) (A) (A) (A) (A) (A) (A) (A) (A) (A)
                 (A) (A) (A) (A) (A) (A) (A) (A) (A) (A) (A) (A)
                 (A) (A) (A) (A) (A) (A) (A) (A) (A) (A) (A) (A)
                 (A) (A) (A) (A) (A) (A) (A) (A) (A) (A) (A) (A)
                 (A) (A) (A) (A) (A) (A) (A) (A) (A) (A) (A) (A)
                 (A) (A) (A) (A) (A) (A) (A) (A) (A) (A) (A) (A)
                 (A) (A) (A) (A) (A) (A) (A) (A) (A) (A) (A) (A)
                 (A) (A) (A) (A) (A) (A) (A) (A) (A) (A) (A) (A)
                 (A) (A) (A) (A) (A) (A) (A) (A) (A) (A) (A) (A)
                 (A) (A) (A) (A) (A) (A) (A) (A) (A) (A) (A) (A)
                 (A) (A) (A) (A) (A) (A) (A) (A) (A) (A) (A) (A)
                 (A) (A) (A) (A) (A) (A) (A) (A) (A) (A) (A) (A)
                 (A) (A) (A) (A)
 PCM Corrected Linear-Response:
 Compute the excitation energies in the ground state reaction field.
    24 initial guesses have been made.
 Convergence on wavefunction:    0.000001000000000
 Davidson Disk Diagonalization:  ConvIn= 1.00D-06 SkipCon=T Conv= 1.00D-06.
 Max sub-space:  2000 roots to seek:    24 dimension of matrix:        23104
 Iteration     1 Dimension    24 NMult     0 NNew     24
 CISAX will form    24 AO SS matrices at one time.
 NMat=    24 NSing=    24 JSym2X= 0.
 FoFJK:  IHMeth= 1 ICntrl=       0 DoSepK=T KAlg= 0 I1Cent=           0 FoldK=F
 IRaf=         1 NMat=      48 IRICut=       1 DoRegI=T DoRafI=F ISym2E= 0 IDoP0=3 IntGTp=3.
 FoFCou: FMM=F IPFlag=           0 FMFlag=      100000 FMFlg1=           0
         NFxFlg=           0 DoJE=F BraDBF=F KetDBF=F FulRan=T
         wScrn=  0.000000 ICntrl=       500 IOpCl=  0 I1Cent=           0 NGrid=           0
         NMat0=   24 NMatS0=     24 NMatT0=    0 NMatD0=   24 NMtDS0=    0 NMtDT0=    0
 Symmetry not used in FoFCou.
 New state      1 was old state      2
 New state      2 was old state      1
 New state      3 was old state      4
 New state      4 was old state      3
 New state      5 was old state      6
 New state      6 was old state      5
 Excitation Energies [eV] at current iteration:
 Root      1 :     3.763824430997109
 Root      2 :     3.873873532764106
 Root      3 :     4.468573315318699
 Root      4 :     5.523306315657235
 Root      5 :     6.223925215377836
 Root      6 :     6.540130719667606
 Root      7 :     6.647131535435598
 Root      8 :     6.721007907892966
 Root      9 :     6.814431320691719
 Root     10 :     7.110615982427457
 Root     11 :     7.286335723613931
 Root     12 :     7.380863739131295
 Root     13 :     7.493758478766440
 Root     14 :     7.693748478159813
 Root     15 :     7.719098521618013
 Root     16 :     7.929080319987575
 Root     17 :     8.208810514149848
 Root     18 :     8.256465462734313
 Root     19 :     8.345333754100778
 Root     20 :     8.499714566302094
 Root     21 :     8.599730157864990
 Root     22 :     8.728688756104743
 Root     23 :     8.860235489422234
 Root     24 :     9.050680070827468
 Iteration     2 Dimension    36 NMult    24 NNew     12
 CISAX will form    12 AO SS matrices at one time.
 NMat=    12 NSing=    12 JSym2X= 0.
 New state      1 was old state      2
 Root      1 not converged, maximum delta is    0.412183326166300
 New state      2 was old state      1
 Root      2 not converged, maximum delta is    0.418949889047511
 Root      3 not converged, maximum delta is    0.096402549488220
 Root      4 not converged, maximum delta is    0.238628031915071
 New state      5 was old state      6
 Root      5 not converged, maximum delta is    0.209387472349375
 New state      6 was old state      5
 Root      6 not converged, maximum delta is    0.051264848126021
 Excitation Energies [eV] at current iteration:
 Root      1 :     3.381482986705324   Change is   -0.492390546058782
 Root      2 :     3.580842011022223   Change is   -0.182982419974886
 Root      3 :     4.224668898158360   Change is   -0.243904417160339
 Root      4 :     5.211781713592174   Change is   -0.311524602065061
 Root      5 :     5.654665009722401   Change is   -0.885465709945205
 Root      6 :     6.109494132110701   Change is   -0.114431083267135
 Iteration     3 Dimension    48 NMult    36 NNew     12
 CISAX will form    12 AO SS matrices at one time.
 NMat=    12 NSing=    12 JSym2X= 0.
 Root      1 not converged, maximum delta is    0.010547261899912
 Root      2 not converged, maximum delta is    0.010677654187372
 Root      3 not converged, maximum delta is    0.018718607634549
 Root      4 not converged, maximum delta is    0.032244989969952
 Root      5 not converged, maximum delta is    0.030975365141545
 Root      6 not converged, maximum delta is    0.008607412414118
 Excitation Energies [eV] at current iteration:
 Root      1 :     3.361821626390866   Change is   -0.019661360314458
 Root      2 :     3.570653216434676   Change is   -0.010188794587547
 Root      3 :     4.211560731173172   Change is   -0.013108166985188
 Root      4 :     5.188666665395338   Change is   -0.023115048196836
 Root      5 :     5.613952776361280   Change is   -0.040712233361120
 Root      6 :     6.104294870071818   Change is   -0.005199262038883
 Iteration     4 Dimension    60 NMult    48 NNew     12
 CISAX will form    12 AO SS matrices at one time.
 NMat=    12 NSing=    12 JSym2X= 0.
 Root      1 not converged, maximum delta is    0.002667348493934
 Root      2 not converged, maximum delta is    0.001875642102930
 Root      3 not converged, maximum delta is    0.001937406012322
 Root      4 not converged, maximum delta is    0.004067461994028
 Root      5 not converged, maximum delta is    0.006918597633098
 Root      6 not converged, maximum delta is    0.002227143759705
 Excitation Energies [eV] at current iteration:
 Root      1 :     3.360165603510649   Change is   -0.001656022880217
 Root      2 :     3.569919340535175   Change is   -0.000733875899501
 Root      3 :     4.211103788795687   Change is   -0.000456942377486
 Root      4 :     5.186109022917746   Change is   -0.002557642477592
 Root      5 :     5.608141978186025   Change is   -0.005810798175256
 Root      6 :     6.103994222648193   Change is   -0.000300647423625
 Iteration     5 Dimension    72 NMult    60 NNew     12
 CISAX will form    12 AO SS matrices at one time.
 NMat=    12 NSing=    12 JSym2X= 0.
 Root      1 not converged, maximum delta is    0.000857155358703
 Root      2 not converged, maximum delta is    0.000316848805228
 Root      3 not converged, maximum delta is    0.000618876927098
 Root      4 not converged, maximum delta is    0.000666135631638
 Root      5 not converged, maximum delta is    0.001224974532196
 Root      6 not converged, maximum delta is    0.000570837659340
 Excitation Energies [eV] at current iteration:
 Root      1 :     3.360056455730288   Change is   -0.000109147780361
 Root      2 :     3.569883262891632   Change is   -0.000036077643543
 Root      3 :     4.211080985606998   Change is   -0.000022803188689
 Root      4 :     5.185922663564332   Change is   -0.000186359353414
 Root      5 :     5.607695528861975   Change is   -0.000446449324050
 Root      6 :     6.103973361422352   Change is   -0.000020861225841
 Iteration     6 Dimension    84 NMult    72 NNew     12
 CISAX will form    12 AO SS matrices at one time.
 NMat=    12 NSing=    12 JSym2X= 0.
 Root      1 not converged, maximum delta is    0.000221804299121
 Root      2 not converged, maximum delta is    0.000083850775861
 Root      3 not converged, maximum delta is    0.000222699847788
 Root      4 not converged, maximum delta is    0.000191427526299
 Root      5 not converged, maximum delta is    0.000381650756815
 Root      6 not converged, maximum delta is    0.000296622296596
 Excitation Energies [eV] at current iteration:
 Root      1 :     3.360050201317018   Change is   -0.000006254413270
 Root      2 :     3.569880777776862   Change is   -0.000002485114770
 Root      3 :     4.211079103894183   Change is   -0.000001881712815
 Root      4 :     5.185909529108163   Change is   -0.000013134456169
 Root      5 :     5.607662209329823   Change is   -0.000033319532152
 Root      6 :     6.103970869950940   Change is   -0.000002491471412
 Iteration     7 Dimension    96 NMult    84 NNew     12
 CISAX will form    12 AO SS matrices at one time.
 NMat=    12 NSing=    12 JSym2X= 0.
 Root      1 not converged, maximum delta is    0.000022896711554
 Root      2 not converged, maximum delta is    0.000013192829189
 Root      3 not converged, maximum delta is    0.000040943284104
 Root      4 not converged, maximum delta is    0.000057572616726
 Root      5 not converged, maximum delta is    0.000114794245455
 Root      6 not converged, maximum delta is    0.000145646709038
 Excitation Energies [eV] at current iteration:
 Root      1 :     3.360049792289749   Change is   -0.000000409027269
 Root      2 :     3.569880654472176   Change is   -0.000000123304686
 Root      3 :     4.211079001287795   Change is   -0.000000102606387
 Root      4 :     5.185908445611162   Change is   -0.000001083497001
 Root      5 :     5.607659584944879   Change is   -0.000002624384944
 Root      6 :     6.103970513031465   Change is   -0.000000356919475
 Iteration     8 Dimension   108 NMult    96 NNew     12
 CISAX will form    12 AO SS matrices at one time.
 NMat=    12 NSing=    12 JSym2X= 0.
 Root      1 not converged, maximum delta is    0.000004595631499
 Root      2 not converged, maximum delta is    0.000003325572715
 Root      3 not converged, maximum delta is    0.000004108808075
 Root      4 not converged, maximum delta is    0.000026329796585
 Root      5 not converged, maximum delta is    0.000038303464759
 Root      6 not converged, maximum delta is    0.000027573103237
 Excitation Energies [eV] at current iteration:
 Root      1 :     3.360049775335361   Change is   -0.000000016954388
 Root      2 :     3.569880648425669   Change is   -0.000000006046507
 Root      3 :     4.211078996352196   Change is   -0.000000004935599
 Root      4 :     5.185908361562559   Change is   -0.000000084048603
 Root      5 :     5.607659377875248   Change is   -0.000000207069631
 Root      6 :     6.103970481408933   Change is   -0.000000031622532
 Iteration     9 Dimension   120 NMult   108 NNew     12
 CISAX will form    12 AO SS matrices at one time.
 NMat=    12 NSing=    12 JSym2X= 0.
 Root      1 has converged.
 Root      2 has converged.
 Root      3 has converged.
 Root      4 not converged, maximum delta is    0.000008133703319
 Root      5 not converged, maximum delta is    0.000014203011152
 Root      6 not converged, maximum delta is    0.000004934333870
 Excitation Energies [eV] at current iteration:
 Root      1 :     3.360049774730313   Change is   -0.000000000605048
 Root      2 :     3.569880648255422   Change is   -0.000000000170246
 Root      3 :     4.211078996196569   Change is   -0.000000000155627
 Root      4 :     5.185908355707492   Change is   -0.000000005855067
 Root      5 :     5.607659360510567   Change is   -0.000000017364681
 Root      6 :     6.103970479200632   Change is   -0.000000002208301
 Iteration    10 Dimension   126 NMult   120 NNew      6
 CISAX will form     6 AO SS matrices at one time.
 NMat=     6 NSing=     6 JSym2X= 0.
 Root      1 has converged.
 Root      2 has converged.
 Root      3 has converged.
 Root      4 not converged, maximum delta is    0.000001730728050
 Root      5 not converged, maximum delta is    0.000003261488583
 Root      6 not converged, maximum delta is    0.000001526494471
 Excitation Energies [eV] at current iteration:
 Root      1 :     3.360049774729139   Change is   -0.000000000001174
 Root      2 :     3.569880648254984   Change is   -0.000000000000438
 Root      3 :     4.211078996195496   Change is   -0.000000000001074
 Root      4 :     5.185908355313615   Change is   -0.000000000393877
 Root      5 :     5.607659359088795   Change is   -0.000000001421772
 Root      6 :     6.103970479009038   Change is   -0.000000000191594
 Iteration    11 Dimension   132 NMult   126 NNew      6
 CISAX will form     6 AO SS matrices at one time.
 NMat=     6 NSing=     6 JSym2X= 0.
 Root      1 has converged.
 Root      2 has converged.
 Root      3 has converged.
 Root      4 has converged.
 Root      5 has converged.
 Root      6 has converged.
 Excitation Energies [eV] at current iteration:
 Root      1 :     3.360049774728747   Change is   -0.000000000000392
 Root      2 :     3.569880648254984   Change is    0.000000000000000
 Root      3 :     4.211078996195378   Change is   -0.000000000000117
 Root      4 :     5.185908355291708   Change is   -0.000000000021907
 Root      5 :     5.607659359011054   Change is   -0.000000000077741
 Root      6 :     6.103970478995288   Change is   -0.000000000013750
 Convergence achieved on expansion vectors.
 PCM Corrected Linear-Response:
 The state of interest is root number   1
 Excitation energy =    3.3600 eV, Total energy =  -633.194458948    
 Recompute the excitation energies using the linear response reaction field.
 Convergence on wavefunction:    0.000001000000000
 Davidson Disk Diagonalization:  ConvIn= 1.00D-06 SkipCon=T Conv= 1.00D-06.
 Max sub-space:  2000 roots to seek:     6 dimension of matrix:        23104
 Iteration     1 Dimension     6 NMult     0 NNew      6
 CISAX will form     6 AO SS matrices at one time.
 NMat=     6 NSing=     6 JSym2X= 0.
 Excitation Energies [eV] at current iteration:
 Root      1 :     3.454343967077238
 Root      2 :     3.598738450405752
 Root      3 :     4.237991859056380
 Root      4 :     5.263765098426643
 Root      5 :     5.794954278238987
 Root      6 :     6.077484557747121
 Iteration     2 Dimension    18 NMult     6 NNew     12
 CISAX will form    12 AO SS matrices at one time.
 NMat=    12 NSing=    12 JSym2X= 0.
 Root      1 not converged, maximum delta is    0.099620882683363
 Root      2 not converged, maximum delta is    0.114343410150884
 Root      3 not converged, maximum delta is    0.002307380182351
 Root      4 not converged, maximum delta is    0.261260836453795
 Root      5 not converged, maximum delta is    0.284554264403437
 Root      6 not converged, maximum delta is    0.021489786876675
 Excitation Energies [eV] at current iteration:
 Root      1 :     3.242076079297088   Change is   -0.212267887780151
 Root      2 :     3.563257153581429   Change is   -0.035481296824322
 Root      3 :     4.207011033866603   Change is   -0.030980825189776
 Root      4 :     5.051650569416881   Change is   -0.212114529009762
 Root      5 :     5.489205822869294   Change is   -0.305748455369693
 Root      6 :     6.066686342699808   Change is   -0.010798215047314
 Iteration     3 Dimension    30 NMult    18 NNew     12
 CISAX will form    12 AO SS matrices at one time.
 NMat=    12 NSing=    12 JSym2X= 0.
 Root      1 not converged, maximum delta is    0.002521153007561
 Root      2 not converged, maximum delta is    0.000773825844080
 Root      3 not converged, maximum delta is    0.000977556421317
 Root      4 not converged, maximum delta is    0.013303683942911
 Root      5 not converged, maximum delta is    0.010463775209362
 Root      6 not converged, maximum delta is    0.005434508928084
 Excitation Energies [eV] at current iteration:
 Root      1 :     3.239146655492942   Change is   -0.002929423804146
 Root      2 :     3.562995586576868   Change is   -0.000261567004561
 Root      3 :     4.206751447908788   Change is   -0.000259585957815
 Root      4 :     5.042558393880775   Change is   -0.009092175536106
 Root      5 :     5.480975570270615   Change is   -0.008230252598679
 Root      6 :     6.066001298403169   Change is   -0.000685044296639
 Iteration     4 Dimension    42 NMult    30 NNew     12
 CISAX will form    12 AO SS matrices at one time.
 NMat=    12 NSing=    12 JSym2X= 0.
 Root      1 not converged, maximum delta is    0.001851603141536
 Root      2 not converged, maximum delta is    0.000277940324471
 Root      3 not converged, maximum delta is    0.000276410168660
 Root      4 not converged, maximum delta is    0.003470911883645
 Root      5 not converged, maximum delta is    0.004372141921689
 Root      6 not converged, maximum delta is    0.006480080141148
 Excitation Energies [eV] at current iteration:
 Root      1 :     3.238740668172957   Change is   -0.000405987319985
 Root      2 :     3.562979535223516   Change is   -0.000016051353353
 Root      3 :     4.206739158811489   Change is   -0.000012289097299
 Root      4 :     5.041178768366901   Change is   -0.001379625513874
 Root      5 :     5.479619010027762   Change is   -0.001356560242853
 Root      6 :     6.065767065353604   Change is   -0.000234233049565
 Iteration     5 Dimension    54 NMult    42 NNew     12
 CISAX will form    12 AO SS matrices at one time.
 NMat=    12 NSing=    12 JSym2X= 0.
 Root      1 not converged, maximum delta is    0.000515682486962
 Root      2 not converged, maximum delta is    0.000062274644588
 Root      3 not converged, maximum delta is    0.000094199386571
 Root      4 not converged, maximum delta is    0.001406467167426
 Root      5 not converged, maximum delta is    0.001155241961589
 Root      6 not converged, maximum delta is    0.003540879794722
 Excitation Energies [eV] at current iteration:
 Root      1 :     3.238709188404391   Change is   -0.000031479768566
 Root      2 :     3.562978644063411   Change is   -0.000000891160105
 Root      3 :     4.206738428606188   Change is   -0.000000730205302
 Root      4 :     5.041006451931509   Change is   -0.000172316435392
 Root      5 :     5.479456852988616   Change is   -0.000162157039146
 Root      6 :     6.065704621034260   Change is   -0.000062444319345
 Iteration     6 Dimension    66 NMult    54 NNew     12
 CISAX will form    12 AO SS matrices at one time.
 NMat=    12 NSing=    12 JSym2X= 0.
 Root      1 not converged, maximum delta is    0.000074513376006
 Root      2 not converged, maximum delta is    0.000013855063531
 Root      3 not converged, maximum delta is    0.000019314145684
 Root      4 not converged, maximum delta is    0.000536643588905
 Root      5 not converged, maximum delta is    0.000429054646613
 Root      6 not converged, maximum delta is    0.000690976770211
 Excitation Energies [eV] at current iteration:
 Root      1 :     3.238707115888686   Change is   -0.000002072515705
 Root      2 :     3.562978574055781   Change is   -0.000000070007630
 Root      3 :     4.206738375530988   Change is   -0.000000053075199
 Root      4 :     5.040988188519979   Change is   -0.000018263411530
 Root      5 :     5.479438824251292   Change is   -0.000018028737324
 Root      6 :     6.065696564228686   Change is   -0.000008056805574
 Iteration     7 Dimension    78 NMult    66 NNew     12
 CISAX will form    12 AO SS matrices at one time.
 NMat=    12 NSing=    12 JSym2X= 0.
 Root      1 not converged, maximum delta is    0.000015628621290
 Root      2 not converged, maximum delta is    0.000003181891052
 Root      3 not converged, maximum delta is    0.000006479603825
 Root      4 not converged, maximum delta is    0.000110985110549
 Root      5 not converged, maximum delta is    0.000148484351030
 Root      6 not converged, maximum delta is    0.000159298206065
 Excitation Energies [eV] at current iteration:
 Root      1 :     3.238707022924009   Change is   -0.000000092964677
 Root      2 :     3.562978570529027   Change is   -0.000000003526753
 Root      3 :     4.206738371492662   Change is   -0.000000004038326
 Root      4 :     5.040986610171113   Change is   -0.000001578348866
 Root      5 :     5.479437087950732   Change is   -0.000001736300561
 Root      6 :     6.065695669079692   Change is   -0.000000895148993
 Iteration     8 Dimension    90 NMult    78 NNew     12
 CISAX will form    12 AO SS matrices at one time.
 NMat=    12 NSing=    12 JSym2X= 0.
 Root      1 not converged, maximum delta is    0.000003281408760
 Root      2 has converged.
 Root      3 not converged, maximum delta is    0.000001683671086
 Root      4 not converged, maximum delta is    0.000028443098337
 Root      5 not converged, maximum delta is    0.000026765131284
 Root      6 not converged, maximum delta is    0.000062622465867
 Excitation Energies [eV] at current iteration:
 Root      1 :     3.238707017166069   Change is   -0.000000005757940
 Root      2 :     3.562978570384107   Change is   -0.000000000144920
 Root      3 :     4.206738371173543   Change is   -0.000000000319119
 Root      4 :     5.040986482445015   Change is   -0.000000127726099
 Root      5 :     5.479436919327263   Change is   -0.000000168623468
 Root      6 :     6.065695538047916   Change is   -0.000000131031776
 Iteration     9 Dimension   100 NMult    90 NNew     10
 CISAX will form    10 AO SS matrices at one time.
 NMat=    10 NSing=    10 JSym2X= 0.
 Root      1 has converged.
 Root      2 has converged.
 Root      3 has converged.
 Root      4 not converged, maximum delta is    0.000012773946191
 Root      5 not converged, maximum delta is    0.000015478617849
 Root      6 not converged, maximum delta is    0.000033665074971
 Excitation Energies [eV] at current iteration:
 Root      1 :     3.238707016999608   Change is   -0.000000000166461
 Root      2 :     3.562978570382816   Change is   -0.000000000001292
 Root      3 :     4.206738371157304   Change is   -0.000000000016240
 Root      4 :     5.040986473516841   Change is   -0.000000008928174
 Root      5 :     5.479436905239543   Change is   -0.000000014087721
 Root      6 :     6.065695516772449   Change is   -0.000000021275468
 Iteration    10 Dimension   106 NMult   100 NNew      6
 CISAX will form     6 AO SS matrices at one time.
 NMat=     6 NSing=     6 JSym2X= 0.
 Root      1 has converged.
 Root      2 has converged.
 Root      3 has converged.
 Root      4 not converged, maximum delta is    0.000004831092386
 Root      5 not converged, maximum delta is    0.000007373483476
 Root      6 not converged, maximum delta is    0.000016049160051
 Excitation Energies [eV] at current iteration:
 Root      1 :     3.238707016998542   Change is   -0.000000000001066
 Root      2 :     3.562978570382562   Change is   -0.000000000000254
 Root      3 :     4.206738371157090   Change is   -0.000000000000214
 Root      4 :     5.040986472759374   Change is   -0.000000000757466
 Root      5 :     5.479436903829733   Change is   -0.000000001409809
 Root      6 :     6.065695513645085   Change is   -0.000000003127363
 Iteration    11 Dimension   112 NMult   106 NNew      6
 CISAX will form     6 AO SS matrices at one time.
 NMat=     6 NSing=     6 JSym2X= 0.
 Root      1 has converged.
 Root      2 has converged.
 Root      3 has converged.
 Root      4 has converged.
 Root      5 not converged, maximum delta is    0.000001347685104
 Root      6 not converged, maximum delta is    0.000003255158738
 Excitation Energies [eV] at current iteration:
 Root      1 :     3.238707016998517   Change is   -0.000000000000026
 Root      2 :     3.562978570382354   Change is   -0.000000000000208
 Root      3 :     4.206738371156991   Change is   -0.000000000000098
 Root      4 :     5.040986472697830   Change is   -0.000000000061545
 Root      5 :     5.479436903707461   Change is   -0.000000000122273
 Root      6 :     6.065695513337775   Change is   -0.000000000307311
 Iteration    12 Dimension   116 NMult   112 NNew      4
 CISAX will form     4 AO SS matrices at one time.
 NMat=     4 NSing=     4 JSym2X= 0.
 Root      1 has converged.
 Root      2 has converged.
 Root      3 has converged.
 Root      4 has converged.
 Root      5 has converged.
 Root      6 has converged.
 Excitation Energies [eV] at current iteration:
 Root      1 :     3.238707016998415   Change is   -0.000000000000101
 Root      2 :     3.562978570382262   Change is   -0.000000000000093
 Root      3 :     4.206738371157030   Change is    0.000000000000039
 Root      4 :     5.040986472694241   Change is   -0.000000000003588
 Root      5 :     5.479436903698684   Change is   -0.000000000008777
 Root      6 :     6.065695513307782   Change is   -0.000000000029992
 Convergence achieved on expansion vectors.
 ***********************************************************************
 Excited states from <AA,BB:AA,BB> singles matrix:
 ***********************************************************************
 
 1PDM for each excited state written to RWF  633
 Ground to excited state transition densities written to RWF  633
 Ground to excited state transition electric dipole moments (Au):
       state          X           Y           Z        Dip. S.      Osc.
         1         1.6921     -0.0804     -0.0146      2.8698      0.2277
         2        -0.2276      0.0418      0.0429      0.0554      0.0048
         3        -0.0075     -0.0340      0.0380      0.0027      0.0003
         4        -0.0264     -1.8022      0.0421      3.2503      0.4014
         5         0.2987      1.3442     -0.0006      1.8961      0.2545
         6        -0.0002      0.0857      0.0239      0.0079      0.0012
 Ground to excited state transition velocity dipole moments (Au):
       state          X           Y           Z        Dip. S.      Osc.
         1        -0.1955      0.0080      0.0016      0.0383      0.2145
         2         0.0298     -0.0051     -0.0039      0.0009      0.0047
         3         0.0008      0.0052     -0.0026      0.0000      0.0001
         4         0.0103      0.3158     -0.0062      0.0999      0.3595
         5        -0.0573     -0.2667      0.0002      0.0744      0.2464
         6        -0.0012     -0.0173     -0.0251      0.0009      0.0028
 Ground to excited state transition magnetic dipole moments (Au):
       state          X           Y           Z
         1         0.0676     -0.0207      1.4443
         2         0.7503     -0.2740     -0.3008
         3        -0.0158      0.9471      0.0264
         4         0.0387     -0.0262      0.4282
         5        -0.0994      0.0388     -0.2646
         6        -0.0345     -0.0027     -0.0155
 Ground to excited state transition velocity quadrupole moments (Au):
       state          XX          YY          ZZ          XY          XZ          YZ
         1         0.3563     -0.1454     -0.0111      0.5058     -0.0189     -0.0031
         2        -0.0567     -0.0025      0.0004     -0.0802      0.0378      0.0397
         3        -0.0139      0.0081     -0.0070      0.0071     -0.0817      0.0034
         4        -1.4553      0.3203      0.0351      0.2474      0.0225     -0.0030
         5         0.6429     -0.4156     -0.0333     -0.0012     -0.0087     -0.0431
         6        -0.0660     -0.0414      0.0385     -0.0114      0.0126      0.0456
 <0|del|b> * <b|rxdel|0> + <0|del|b> * <b|delr+rdel|0>
 Rotatory Strengths (R) in cgs (10**-40 erg-esu-cm/Gauss)
       state          XX          YY          ZZ    R(velocity)    E-M Angle
         1         9.1772    -33.0309    -41.9764    -21.9434       92.24
         2         8.2988     65.8499     60.3981     44.8489       16.63
         3        12.0097     -0.1362     10.2315      7.3683       29.28
         4       -37.3414     -1.4439     -1.3956    -13.3936       94.43
         5       -22.3848     14.2265     -8.4359     -5.5314       93.48
         6         1.4882      0.1448     -0.1243      0.5029       65.71
 1/2[<0|r|b>*<b|rxdel|0> + (<0|rxdel|b>*<b|r|0>)*]
 Rotatory Strengths (R) in cgs (10**-40 erg-esu-cm/Gauss)
       state          XX          YY          ZZ     R(length)
         1       -80.8614     -1.1754     14.8859    -22.3836
         2       120.7432      8.1025      9.1224     45.9893
         3        -0.0839     22.7609     -0.7090      7.3226
         4         0.7217    -33.3525    -12.7487    -15.1265
         5        21.0036    -36.9080     -0.1115     -5.3386
         6        -0.0050      0.1639      0.2620      0.1403
  1/2[<0|del|b>*<b|r|0> + (<0|r|b>*<b|del|0>)*] (Au)
       state          X           Y           Z        Dip. S.   Osc.(frdel)
         1        -0.3308     -0.0006     -0.0000      0.3315      0.2210
         2        -0.0068     -0.0002     -0.0002      0.0072      0.0048
         3        -0.0000     -0.0002     -0.0001      0.0003      0.0002
         4        -0.0003     -0.5692     -0.0003      0.5697      0.3798
         5        -0.0171     -0.3585     -0.0000      0.3756      0.2504
         6         0.0000     -0.0015     -0.0006      0.0021      0.0014

 Excitation energies and oscillator strengths:
 
 Excited State   1:      Singlet-A      3.2387 eV  382.82 nm  f=0.2277  <S**2>=0.000
      52 -> 53         0.69723
 This state for optimization and/or second-order correction.
 Total Energy, E(TD-HF/TD-DFT) =  -633.198918212    
 Copying the excited state density for this state as the 1-particle RhoCI density.
 
 Excited State   2:      Singlet-A      3.5630 eV  347.98 nm  f=0.0048  <S**2>=0.000
      51 -> 53         0.61511
      51 -> 54        -0.29560
 
 Excited State   3:      Singlet-A      4.2067 eV  294.73 nm  f=0.0003  <S**2>=0.000
      50 -> 53         0.53641
      50 -> 54         0.41009
      50 -> 58         0.12343
      51 -> 54         0.10873
 
 Excited State   4:      Singlet-A      5.0410 eV  245.95 nm  f=0.4014  <S**2>=0.000
      49 -> 53        -0.11033
      52 -> 54         0.69138
 
 Excited State   5:      Singlet-A      5.4794 eV  226.27 nm  f=0.2545  <S**2>=0.000
      49 -> 53         0.68667
      52 -> 54         0.11173
 
 Excited State   6:      Singlet-A      6.0657 eV  204.40 nm  f=0.0012  <S**2>=0.000
      52 -> 55         0.65992
      52 -> 57        -0.13889
      52 -> 62        -0.10580
 SavETr:  write IOETrn=   770 NScale= 10 NData=  16 NLR=1 NState=    6 LETran=     118.
 The selected state is a singlet.
 CISGrd: IGrad=1 NXY=2 DFT=T
 CISAX will form     1 AO SS matrices at one time.
 NMat=     1 NSing=     1 JSym2X= 0.
 Leave Link  914 at Fri Jan 23 19:05:10 2026, MaxMem=  2147483648 cpu:            7721.6 elap:             484.8
 (Enter /data/home/wyx/g16/l1002.exe)
 Minotr:  Closed shell wavefunction.
          Computing CIS/TDA/TD derivatives.
          Using Z-Vector for PSCF gradient.
          Skipping F1 and S1 gradient terms here.
 NEqPCM:  Using equilibrium solvation (IEInf=0, Eps=   7.4257, EpsInf=   1.9740)
          Frozen-core window.
          Direct CPHF calculation.
          Differentiating once with respect to electric field.
                with respect to dipole field.
          Electric field/nuclear overlap derivatives assumed to be zero.
          Requested convergence is 1.0D-10 RMS, and 1.0D-09 maximum.
          NewPWx=F KeepS1=T KeepF1=T KeepIn=T MapXYZ=F SortEE=F KeepMc=T.
 Two-electron integral symmetry used by symmetrizing perturbed Fock matrices.
          MDV=    2147483648 using IRadAn=       5.
          Solving linear equations separately, MaxMat=     384.
          There are     1 degrees of freedom in the 1st order CPHF.  IDoFFX=0 NUNeed=     1.
 FoFJK:  IHMeth= 1 ICntrl=       0 DoSepK=T KAlg= 0 I1Cent=           0 FoldK=F
 IRaf=         1 NMat=       1 IRICut=       1 DoRegI=T DoRafI=F ISym2E=-1 IDoP0=0 IntGTp=1.
 FoFCou: FMM=F IPFlag=           0 FMFlag=      100000 FMFlg1=           0
         NFxFlg=           0 DoJE=T BraDBF=F KetDBF=F FulRan=T
         wScrn=  0.000000 ICntrl=       500 IOpCl=  0 I1Cent=           0 NGrid=           0
         NMat0=    1 NMatS0=      1 NMatT0=    0 NMatD0=    1 NMtDS0=    0 NMtDT0=    0
 Petite list used in FoFCou.
 LinEq1:  Iter=  0 NonCon=     1 RMS=3.53D-03 Max=1.61D-01 NDo=     1
 AX will form     1 AO Fock derivatives at one time.
 LinEq1:  Iter=  1 NonCon=     1 RMS=1.43D-03 Max=9.32D-02 NDo=     1
 LinEq1:  Iter=  2 NonCon=     1 RMS=6.52D-04 Max=3.64D-02 NDo=     1
 LinEq1:  Iter=  3 NonCon=     1 RMS=3.64D-04 Max=2.10D-02 NDo=     1
 LinEq1:  Iter=  4 NonCon=     1 RMS=1.72D-04 Max=3.94D-03 NDo=     1
 LinEq1:  Iter=  5 NonCon=     1 RMS=8.66D-05 Max=2.97D-03 NDo=     1
 LinEq1:  Iter=  6 NonCon=     1 RMS=5.76D-05 Max=1.71D-03 NDo=     1
 LinEq1:  Iter=  7 NonCon=     1 RMS=2.27D-05 Max=9.02D-04 NDo=     1
 LinEq1:  Iter=  8 NonCon=     1 RMS=1.45D-05 Max=6.22D-04 NDo=     1
 LinEq1:  Iter=  9 NonCon=     1 RMS=1.00D-05 Max=3.81D-04 NDo=     1
 LinEq1:  Iter= 10 NonCon=     1 RMS=5.69D-06 Max=2.10D-04 NDo=     1
 LinEq1:  Iter= 11 NonCon=     1 RMS=2.28D-06 Max=5.69D-05 NDo=     1
 LinEq1:  Iter= 12 NonCon=     1 RMS=8.89D-07 Max=1.87D-05 NDo=     1
 LinEq1:  Iter= 13 NonCon=     1 RMS=3.09D-07 Max=1.13D-05 NDo=     1
 LinEq1:  Iter= 14 NonCon=     1 RMS=1.12D-07 Max=6.97D-06 NDo=     1
 LinEq1:  Iter= 15 NonCon=     1 RMS=5.27D-08 Max=1.31D-06 NDo=     1
 LinEq1:  Iter= 16 NonCon=     1 RMS=2.87D-08 Max=1.65D-06 NDo=     1
 LinEq1:  Iter= 17 NonCon=     1 RMS=1.07D-08 Max=1.65D-07 NDo=     1
 LinEq1:  Iter= 18 NonCon=     1 RMS=4.83D-09 Max=1.35D-07 NDo=     1
 LinEq1:  Iter= 19 NonCon=     1 RMS=1.17D-09 Max=2.46D-08 NDo=     1
 LinEq1:  Iter= 20 NonCon=     1 RMS=2.91D-10 Max=6.60D-09 NDo=     1
 LinEq1:  Iter= 21 NonCon=     1 RMS=1.03D-10 Max=2.46D-09 NDo=     1
 LinEq1:  Iter= 22 NonCon=     1 RMS=4.80D-11 Max=1.45D-09 NDo=     1
 LinEq1:  Iter= 23 NonCon=     0 RMS=1.53D-11 Max=3.94D-10 NDo=     1
 Linear equations converged to 1.000D-10 1.000D-09 after    23 iterations.
 PCM Corrected Linear-Response - Equilibrium solvation:
 Corrected transition energy               =    3.3394          eV
 Total energy after correction             = -633.195218310     a.u.
 NEqPCM:  Using non-equilibrium solvation (IEInf=1, Eps=   7.4257, EpsInf=   1.9740)
 Inv3:  Mode=1 IEnd=    13242603.
 Iteration    1 A*A^-1 deviation from unit magnitude is 3.00D-15 for    214.
 Iteration    1 A*A^-1 deviation from orthogonality  is 2.19D-15 for    756    235.
 Iteration    1 A^-1*A deviation from unit magnitude is 3.11D-15 for    232.
 Iteration    1 A^-1*A deviation from orthogonality  is 2.31D-15 for   1732    754.
 NEqSol: Computing the dynamic-inertial partition of the PCM polarization charges.
 End of Minotr F.D. properties file   721 does not exist.
 End of Minotr F.D. properties file   722 does not exist.
 End of Minotr F.D. properties file   788 does not exist.
 Leave Link 1002 at Fri Jan 23 19:07:10 2026, MaxMem=  2147483648 cpu:            1889.4 elap:             118.8
 (Enter /data/home/wyx/g16/l601.exe)
 Copying SCF densities to generalized density rwf, IOpCl= 0 IROHF=0.

 **********************************************************************

            Population analysis using the CI density.

 **********************************************************************

 Orbital symmetries:
       Occupied  (A) (A) (A) (A) (A) (A) (A) (A) (A) (A) (A) (A)
                 (A) (A) (A) (A) (A) (A) (A) (A) (A) (A) (A) (A)
                 (A) (A) (A) (A) (A) (A) (A) (A) (A) (A) (A) (A)
                 (A) (A) (A) (A) (A) (A) (A) (A) (A) (A) (A) (A)
                 (A) (A) (A) (A)
       Virtual   (A) (A) (A) (A) (A) (A) (A) (A) (A) (A) (A) (A)
                 (A) (A) (A) (A) (A) (A) (A) (A) (A) (A) (A) (A)
                 (A) (A) (A) (A) (A) (A) (A) (A) (A) (A) (A) (A)
                 (A) (A) (A) (A) (A) (A) (A) (A) (A) (A) (A) (A)
                 (A) (A) (A) (A) (A) (A) (A) (A) (A) (A) (A) (A)
                 (A) (A) (A) (A) (A) (A) (A) (A) (A) (A) (A) (A)
                 (A) (A) (A) (A) (A) (A) (A) (A) (A) (A) (A) (A)
                 (A) (A) (A) (A) (A) (A) (A) (A) (A) (A) (A) (A)
                 (A) (A) (A) (A) (A) (A) (A) (A) (A) (A) (A) (A)
                 (A) (A) (A) (A) (A) (A) (A) (A) (A) (A) (A) (A)
                 (A) (A) (A) (A) (A) (A) (A) (A) (A) (A) (A) (A)
                 (A) (A) (A) (A) (A) (A) (A) (A) (A) (A) (A) (A)
                 (A) (A) (A) (A) (A) (A) (A) (A) (A) (A) (A) (A)
                 (A) (A) (A) (A) (A) (A) (A) (A) (A) (A) (A) (A)
                 (A) (A) (A) (A) (A) (A) (A) (A) (A) (A) (A) (A)
                 (A) (A) (A) (A) (A) (A) (A) (A) (A) (A) (A) (A)
                 (A) (A) (A) (A) (A) (A) (A) (A) (A) (A) (A) (A)
                 (A) (A) (A) (A) (A) (A) (A) (A) (A) (A) (A) (A)
                 (A) (A) (A) (A) (A) (A) (A) (A) (A) (A) (A) (A)
                 (A) (A) (A) (A) (A) (A) (A) (A) (A) (A) (A) (A)
                 (A) (A) (A) (A) (A) (A) (A) (A) (A) (A) (A) (A)
                 (A) (A) (A) (A) (A) (A) (A) (A) (A) (A) (A) (A)
                 (A) (A) (A) (A) (A) (A) (A) (A) (A) (A) (A) (A)
                 (A) (A) (A) (A) (A) (A) (A) (A) (A) (A) (A) (A)
                 (A) (A) (A) (A) (A) (A) (A) (A) (A) (A) (A) (A)
                 (A) (A) (A) (A)
 The electronic state is 1-A.
 Alpha  occ. eigenvalues --  -19.17714 -19.16545 -14.44491 -10.33219 -10.33149
 Alpha  occ. eigenvalues --  -10.32423 -10.32271 -10.26061 -10.25100 -10.25087
 Alpha  occ. eigenvalues --  -10.24956 -10.24444 -10.24033 -10.23726  -1.11748
 Alpha  occ. eigenvalues --   -1.09193  -1.07894  -0.91652  -0.90695  -0.83916
 Alpha  occ. eigenvalues --   -0.82572  -0.81548  -0.78797  -0.74429  -0.71712
 Alpha  occ. eigenvalues --   -0.69148  -0.62187  -0.58592  -0.57011  -0.55248
 Alpha  occ. eigenvalues --   -0.54860  -0.54154  -0.52477  -0.51917  -0.50678
 Alpha  occ. eigenvalues --   -0.49553  -0.49262  -0.49068  -0.48504  -0.48207
 Alpha  occ. eigenvalues --   -0.46694  -0.45164  -0.44641  -0.43859  -0.42938
 Alpha  occ. eigenvalues --   -0.42414  -0.41606  -0.40765  -0.33108  -0.32147
 Alpha  occ. eigenvalues --   -0.30699  -0.26228
 Alpha virt. eigenvalues --   -0.03262   0.02100   0.06293   0.08217   0.08454
 Alpha virt. eigenvalues --    0.09902   0.10708   0.11702   0.12707   0.13151
 Alpha virt. eigenvalues --    0.14229   0.15161   0.15683   0.16469   0.16967
 Alpha virt. eigenvalues --    0.17494   0.17576   0.17741   0.18757   0.19342
 Alpha virt. eigenvalues --    0.20024   0.20929   0.22879   0.23299   0.24308
 Alpha virt. eigenvalues --    0.24484   0.24984   0.25762   0.26384   0.26641
 Alpha virt. eigenvalues --    0.27105   0.27371   0.28724   0.29392   0.29842
 Alpha virt. eigenvalues --    0.31050   0.31144   0.33614   0.34170   0.34735
 Alpha virt. eigenvalues --    0.35229   0.35641   0.36662   0.37372   0.37605
 Alpha virt. eigenvalues --    0.40114   0.40954   0.41600   0.42704   0.43188
 Alpha virt. eigenvalues --    0.44429   0.45506   0.45755   0.46206   0.46456
 Alpha virt. eigenvalues --    0.47062   0.47877   0.48084   0.48659   0.48800
 Alpha virt. eigenvalues --    0.50192   0.51012   0.51107   0.51466   0.51812
 Alpha virt. eigenvalues --    0.52290   0.52855   0.52891   0.53727   0.53903
 Alpha virt. eigenvalues --    0.54944   0.55797   0.56231   0.57041   0.57497
 Alpha virt. eigenvalues --    0.58112   0.59207   0.61202   0.62760   0.62919
 Alpha virt. eigenvalues --    0.63591   0.64651   0.65991   0.67789   0.68067
 Alpha virt. eigenvalues --    0.68766   0.70671   0.71075   0.71817   0.72521
 Alpha virt. eigenvalues --    0.73553   0.75581   0.77543   0.78879   0.79585
 Alpha virt. eigenvalues --    0.82085   0.82366   0.84212   0.87727   0.89675
 Alpha virt. eigenvalues --    0.93174   0.95701   0.98420   1.03562   1.19512
 Alpha virt. eigenvalues --    1.23017   1.23292   1.24790   1.29778   1.30587
 Alpha virt. eigenvalues --    1.32542   1.33662   1.33910   1.35548   1.36524
 Alpha virt. eigenvalues --    1.37136   1.37615   1.39088   1.39456   1.39800
 Alpha virt. eigenvalues --    1.40129   1.40660   1.41138   1.41445   1.42147
 Alpha virt. eigenvalues --    1.42962   1.43771   1.44493   1.45052   1.45943
 Alpha virt. eigenvalues --    1.48383   1.49754   1.50501   1.50940   1.51568
 Alpha virt. eigenvalues --    1.52230   1.52879   1.56381   1.56841   1.57057
 Alpha virt. eigenvalues --    1.58279   1.59563   1.60401   1.60912   1.61882
 Alpha virt. eigenvalues --    1.62160   1.62679   1.64051   1.64686   1.64802
 Alpha virt. eigenvalues --    1.65541   1.65806   1.65977   1.67155   1.67634
 Alpha virt. eigenvalues --    1.69309   1.69649   1.70995   1.71702   1.72582
 Alpha virt. eigenvalues --    1.73822   1.75122   1.75329   1.76063   1.80438
 Alpha virt. eigenvalues --    1.81335   1.82820   1.83387   1.83800   1.86090
 Alpha virt. eigenvalues --    1.86439   1.86593   1.89065   1.90347   1.90812
 Alpha virt. eigenvalues --    1.91743   1.93340   1.96614   1.98039   2.01372
 Alpha virt. eigenvalues --    2.02190   2.05102   2.05643   2.07549   2.09480
 Alpha virt. eigenvalues --    2.10556   2.13558   2.15197   2.18204   2.19754
 Alpha virt. eigenvalues --    2.20108   2.23319   2.24726   2.25492   2.26118
 Alpha virt. eigenvalues --    2.26596   2.29214   2.30472   2.31669   2.33365
 Alpha virt. eigenvalues --    2.35328   2.35795   2.36857   2.37803   2.40103
 Alpha virt. eigenvalues --    2.40896   2.41853   2.43678   2.44828   2.46409
 Alpha virt. eigenvalues --    2.46673   2.47924   2.49443   2.50325   2.50989
 Alpha virt. eigenvalues --    2.53285   2.53461   2.54684   2.56025   2.56270
 Alpha virt. eigenvalues --    2.56406   2.59749   2.61054   2.62978   2.63497
 Alpha virt. eigenvalues --    2.64602   2.65175   2.66061   2.67285   2.67819
 Alpha virt. eigenvalues --    2.69395   2.71888   2.73861   2.74317   2.74922
 Alpha virt. eigenvalues --    2.76099   2.76388   2.77907   2.78420   2.79846
 Alpha virt. eigenvalues --    2.80553   2.82035   2.83604   2.84499   2.85614
 Alpha virt. eigenvalues --    2.85807   2.87823   2.89230   2.89935   2.93938
 Alpha virt. eigenvalues --    2.97067   2.98726   2.99100   3.04977   3.09203
 Alpha virt. eigenvalues --    3.09802   3.11688   3.14221   3.20790   3.21039
 Alpha virt. eigenvalues --    3.21713   3.22678   3.24600   3.25890   3.26341
 Alpha virt. eigenvalues --    3.30785   3.31871   3.34235   3.36368   3.38578
 Alpha virt. eigenvalues --    3.39034   3.39726   3.39990   3.41090   3.41486
 Alpha virt. eigenvalues --    3.41743   3.43726   3.45981   3.47530   3.49788
 Alpha virt. eigenvalues --    3.50238   3.54325   3.56851   3.59222   3.60923
 Alpha virt. eigenvalues --    3.64497   3.92692   4.01065   4.31449   4.37019
 Alpha virt. eigenvalues --   21.64908  21.77367  22.06326  22.10225  22.12628
 Alpha virt. eigenvalues --   22.13522  22.17402  22.20228  22.21701  22.28171
 Alpha virt. eigenvalues --   22.32011  31.92876  43.64604  43.66805
          Condensed to atoms (all electrons):
               1          2          3          4          5          6
     1  O    7.955525   0.000000  -0.000239   0.000017   0.020946   0.021224
     2  O    0.000000   8.116389   0.000348   0.000032  -0.193165   0.001773
     3  N   -0.000239   0.000348   6.163548   0.364770  -0.069215   0.422735
     4  H    0.000017   0.000032   0.364770   0.393192   0.013659  -0.038070
     5  C    0.020946  -0.193165  -0.069215   0.013659   7.380988   0.004190
     6  C    0.021224   0.001773   0.422735  -0.038070   0.004190   5.847953
     7  C   -0.000234  -0.007367   0.370457  -0.043511   0.118647  -0.254728
     8  C   -0.000338   0.607327   0.003840  -0.000801  -0.515053   0.052348
     9  C    0.001444   0.026688   0.007983  -0.000062  -0.685799  -0.109519
    10  H    0.008164  -0.000473  -0.001085  -0.000010  -0.074142   0.009398
    11  H    0.003761  -0.000267   0.000229   0.000040  -0.043704   0.009828
    12  C   -0.261870  -0.004024  -0.073647   0.018311   0.099367  -0.300708
    13  C    0.730898   0.000000  -0.000533   0.000634   0.073270   0.049049
    14  C   -0.000013  -0.067473  -0.049071  -0.001770   0.010636  -0.000857
    15  H    0.000000   0.004952   0.002845   0.000615   0.016482   0.005086
    16  H    0.000000   0.030898   0.003557   0.000688  -0.004391  -0.000102
    17  H    0.000000  -0.000747  -0.002411   0.000244  -0.019652   0.001923
    18  C   -0.000195  -0.100757  -0.000306   0.000018  -0.161259  -0.002164
    19  H   -0.000002   0.006448   0.000009  -0.000001   0.008079   0.000006
    20  H    0.000786   0.007402   0.000078   0.000000   0.081560  -0.001624
    21  H   -0.000014   0.001912  -0.000000  -0.000000  -0.012929   0.000092
    22  C   -0.129922   0.000000   0.000015   0.000119   0.001664  -0.005651
    23  H    0.003133   0.000000   0.000151  -0.000029  -0.000280   0.001404
    24  H    0.003545  -0.000000   0.000078  -0.000029  -0.000227  -0.007015
    25  H    0.011471  -0.000000   0.000012  -0.000003  -0.000069  -0.002213
    26  C    0.000765   0.000010  -0.033945  -0.012263   0.001490   0.264208
    27  H   -0.000110   0.000000  -0.001430   0.000897   0.000615  -0.047940
    28  H   -0.000144  -0.000000  -0.002374   0.000566  -0.000171  -0.064239
    29  H    0.000013   0.000000   0.004963   0.002612  -0.000433  -0.051197
               7          8          9         10         11         12
     1  O   -0.000234  -0.000338   0.001444   0.008164   0.003761  -0.261870
     2  O   -0.007367   0.607327   0.026688  -0.000473  -0.000267  -0.004024
     3  N    0.370457   0.003840   0.007983  -0.001085   0.000229  -0.073647
     4  H   -0.043511  -0.000801  -0.000062  -0.000010   0.000040   0.018311
     5  C    0.118647  -0.515053  -0.685799  -0.074142  -0.043704   0.099367
     6  C   -0.254728   0.052348  -0.109519   0.009398   0.009828  -0.300708
     7  C    6.081621  -0.352385  -0.302708   0.010548  -0.005784   0.111904
     8  C   -0.352385   5.845263   0.281646  -0.004848   0.005147  -0.103761
     9  C   -0.302708   0.281646   6.562696   0.488216   0.394424  -0.172130
    10  H    0.010548  -0.004848   0.488216   0.464607  -0.025459  -0.078817
    11  H   -0.005784   0.005147   0.394424  -0.025459   0.482707  -0.009283
    12  C    0.111904  -0.103761  -0.172130  -0.078817  -0.009283   7.692518
    13  C    0.028324  -0.010964  -0.189125  -0.001165  -0.008275  -0.480071
    14  C    0.176701  -0.076115   0.015338  -0.000080  -0.000391   0.006796
    15  H   -0.088583   0.008586  -0.000804  -0.000019   0.000088  -0.001390
    16  H   -0.035211  -0.019068   0.002106  -0.000010   0.000004  -0.000705
    17  H   -0.028111   0.005744  -0.000105   0.000108  -0.000043  -0.000749
    18  C    0.019660   0.319915  -0.010978  -0.003957  -0.009876   0.009431
    19  H    0.003249  -0.037978  -0.005113   0.001000  -0.000351  -0.000736
    20  H    0.006455  -0.132870  -0.013784  -0.004893  -0.003419   0.006161
    21  H   -0.002587  -0.027347  -0.001256  -0.001052   0.000954   0.000388
    22  C    0.000982  -0.000021   0.018588   0.001100   0.000831  -0.362327
    23  H   -0.000044   0.000005  -0.001924  -0.000136   0.000090   0.022634
    24  H   -0.000034   0.000001   0.000202   0.000053  -0.000124   0.031471
    25  H    0.000015  -0.000002  -0.000195  -0.000108  -0.000041   0.030403
    26  C    0.006284   0.000871   0.017554   0.000034  -0.000326  -0.107878
    27  H   -0.000612  -0.000009  -0.001518  -0.000024   0.000019  -0.007165
    28  H   -0.000571  -0.000010   0.001432   0.000029  -0.000024   0.004231
    29  H    0.003930   0.000029  -0.000734   0.000009   0.000008   0.023327
              13         14         15         16         17         18
     1  O    0.730898  -0.000013   0.000000   0.000000   0.000000  -0.000195
     2  O    0.000000  -0.067473   0.004952   0.030898  -0.000747  -0.100757
     3  N   -0.000533  -0.049071   0.002845   0.003557  -0.002411  -0.000306
     4  H    0.000634  -0.001770   0.000615   0.000688   0.000244   0.000018
     5  C    0.073270   0.010636   0.016482  -0.004391  -0.019652  -0.161259
     6  C    0.049049  -0.000857   0.005086  -0.000102   0.001923  -0.002164
     7  C    0.028324   0.176701  -0.088583  -0.035211  -0.028111   0.019660
     8  C   -0.010964  -0.076115   0.008586  -0.019068   0.005744   0.319915
     9  C   -0.189125   0.015338  -0.000804   0.002106  -0.000105  -0.010978
    10  H   -0.001165  -0.000080  -0.000019  -0.000010   0.000108  -0.003957
    11  H   -0.008275  -0.000391   0.000088   0.000004  -0.000043  -0.009876
    12  C   -0.480071   0.006796  -0.001390  -0.000705  -0.000749   0.009431
    13  C    5.541165  -0.000091  -0.000035   0.000004  -0.000029   0.001074
    14  C   -0.000091   5.280605   0.397836   0.404196   0.387209  -0.001509
    15  H   -0.000035   0.397836   0.591905  -0.024769  -0.039132   0.000236
    16  H    0.000004   0.404196  -0.024769   0.463235  -0.011123   0.001198
    17  H   -0.000029   0.387209  -0.039132  -0.011123   0.548770  -0.000011
    18  C    0.001074  -0.001509   0.000236   0.001198  -0.000011   5.214964
    19  H   -0.000005  -0.000581  -0.000022   0.000310   0.000049   0.385004
    20  H    0.002218   0.000443  -0.000029  -0.000178   0.000001   0.393974
    21  H   -0.000047   0.000129   0.000004  -0.000136  -0.000068   0.402569
    22  C    0.345821   0.000024   0.000002  -0.000000  -0.000001   0.000015
    23  H   -0.051007   0.000001   0.000000  -0.000000  -0.000000  -0.000001
    24  H   -0.056538   0.000000  -0.000000   0.000000   0.000000   0.000001
    25  H   -0.050376   0.000000   0.000000  -0.000000  -0.000000   0.000000
    26  C   -0.039703  -0.000448  -0.000067   0.000036  -0.000114  -0.000019
    27  H    0.001644  -0.000046   0.000035  -0.000002  -0.000054  -0.000002
    28  H    0.000436  -0.000030  -0.000043   0.000001   0.000027   0.000001
    29  H   -0.000237   0.000448   0.000028  -0.000000   0.000013   0.000000
              19         20         21         22         23         24
     1  O   -0.000002   0.000786  -0.000014  -0.129922   0.003133   0.003545
     2  O    0.006448   0.007402   0.001912   0.000000   0.000000  -0.000000
     3  N    0.000009   0.000078  -0.000000   0.000015   0.000151   0.000078
     4  H   -0.000001   0.000000  -0.000000   0.000119  -0.000029  -0.000029
     5  C    0.008079   0.081560  -0.012929   0.001664  -0.000280  -0.000227
     6  C    0.000006  -0.001624   0.000092  -0.005651   0.001404  -0.007015
     7  C    0.003249   0.006455  -0.002587   0.000982  -0.000044  -0.000034
     8  C   -0.037978  -0.132870  -0.027347  -0.000021   0.000005   0.000001
     9  C   -0.005113  -0.013784  -0.001256   0.018588  -0.001924   0.000202
    10  H    0.001000  -0.004893  -0.001052   0.001100  -0.000136   0.000053
    11  H   -0.000351  -0.003419   0.000954   0.000831   0.000090  -0.000124
    12  C   -0.000736   0.006161   0.000388  -0.362327   0.022634   0.031471
    13  C   -0.000005   0.002218  -0.000047   0.345821  -0.051007  -0.056538
    14  C   -0.000581   0.000443   0.000129   0.000024   0.000001   0.000000
    15  H   -0.000022  -0.000029   0.000004   0.000002   0.000000  -0.000000
    16  H    0.000310  -0.000178  -0.000136  -0.000000  -0.000000   0.000000
    17  H    0.000049   0.000001  -0.000068  -0.000001  -0.000000   0.000000
    18  C    0.385004   0.393974   0.402569   0.000015  -0.000001   0.000001
    19  H    0.554061  -0.026343  -0.034389  -0.000001  -0.000000   0.000000
    20  H   -0.026343   0.566122  -0.023950   0.000061  -0.000001  -0.000001
    21  H   -0.034389  -0.023950   0.539764  -0.000001   0.000000  -0.000000
    22  C   -0.000001   0.000061  -0.000001   5.484000   0.385333   0.388873
    23  H   -0.000000  -0.000001   0.000000   0.385333   0.540488  -0.034188
    24  H    0.000000  -0.000001  -0.000000   0.388873  -0.034188   0.538912
    25  H   -0.000000  -0.000000  -0.000000   0.377733  -0.012602  -0.012514
    26  C    0.000001  -0.000018   0.000000  -0.046785   0.001238  -0.001346
    27  H   -0.000000  -0.000000   0.000000  -0.003691  -0.000803  -0.002218
    28  H    0.000000   0.000001  -0.000000  -0.006016  -0.002670  -0.000364
    29  H    0.000000  -0.000000  -0.000000   0.002216   0.000290   0.000265
              25         26         27         28         29
     1  O    0.011471   0.000765  -0.000110  -0.000144   0.000013
     2  O   -0.000000   0.000010   0.000000  -0.000000   0.000000
     3  N    0.000012  -0.033945  -0.001430  -0.002374   0.004963
     4  H   -0.000003  -0.012263   0.000897   0.000566   0.002612
     5  C   -0.000069   0.001490   0.000615  -0.000171  -0.000433
     6  C   -0.002213   0.264208  -0.047940  -0.064239  -0.051197
     7  C    0.000015   0.006284  -0.000612  -0.000571   0.003930
     8  C   -0.000002   0.000871  -0.000009  -0.000010   0.000029
     9  C   -0.000195   0.017554  -0.001518   0.001432  -0.000734
    10  H   -0.000108   0.000034  -0.000024   0.000029   0.000009
    11  H   -0.000041  -0.000326   0.000019  -0.000024   0.000008
    12  C    0.030403  -0.107878  -0.007165   0.004231   0.023327
    13  C   -0.050376  -0.039703   0.001644   0.000436  -0.000237
    14  C    0.000000  -0.000448  -0.000046  -0.000030   0.000448
    15  H    0.000000  -0.000067   0.000035  -0.000043   0.000028
    16  H   -0.000000   0.000036  -0.000002   0.000001  -0.000000
    17  H   -0.000000  -0.000114  -0.000054   0.000027   0.000013
    18  C    0.000000  -0.000019  -0.000002   0.000001   0.000000
    19  H   -0.000000   0.000001  -0.000000   0.000000   0.000000
    20  H   -0.000000  -0.000018  -0.000000   0.000001  -0.000000
    21  H   -0.000000   0.000000   0.000000  -0.000000  -0.000000
    22  C    0.377733  -0.046785  -0.003691  -0.006016   0.002216
    23  H   -0.012602   0.001238  -0.000803  -0.002670   0.000290
    24  H   -0.012514  -0.001346  -0.002218  -0.000364   0.000265
    25  H    0.496591   0.002387   0.000162   0.000104  -0.000029
    26  C    0.002387   5.168268   0.428702   0.434759   0.381714
    27  H    0.000162   0.428702   0.525858  -0.044167  -0.018941
    28  H    0.000104   0.434759  -0.044167   0.527161  -0.018283
    29  H   -0.000029   0.381714  -0.018941  -0.018283   0.524465
 Mulliken charges:
               1
     1  O   -0.368611
     2  O   -0.429905
     3  N   -0.111360
     4  H    0.300135
     5  C   -0.051105
     6  C    0.194812
     7  C    0.183691
     8  C    0.150850
     9  C   -0.322561
    10  H    0.213012
    11  H    0.209237
    12  C   -0.091678
    13  C    0.113663
    14  C   -0.481886
    15  H    0.126192
    16  H    0.189462
    17  H    0.158263
    18  C   -0.457028
    19  H    0.147306
    20  H    0.141850
    21  H    0.157962
    22  C   -0.452961
    23  H    0.148921
    24  H    0.151196
    25  H    0.159273
    26  C   -0.465409
    27  H    0.170800
    28  H    0.170357
    29  H    0.145522
 Sum of Mulliken charges =  -0.00000
 Mulliken charges with hydrogens summed into heavy atoms:
               1
     1  O   -0.368611
     2  O   -0.429905
     3  N    0.188775
     5  C   -0.051105
     6  C    0.194812
     7  C    0.183691
     8  C    0.150850
     9  C    0.099688
    12  C   -0.091678
    13  C    0.113663
    14  C   -0.007969
    18  C   -0.009910
    22  C    0.006429
    26  C    0.021270
 Electronic spatial extent (au):  <R**2>=           3228.3564
 Charge=             -0.0000 electrons
 Dipole moment (field-independent basis, Debye):
    X=              5.4710    Y=              7.4500    Z=             -0.2865  Tot=              9.2475
 Quadrupole moment (field-independent basis, Debye-Ang):
   XX=           -106.2623   YY=            -79.3179   ZZ=            -84.4035
   XY=             12.8352   XZ=              1.5206   YZ=             -0.1149
 Traceless Quadrupole moment (field-independent basis, Debye-Ang):
   XX=            -16.2677   YY=             10.6767   ZZ=              5.5911
   XY=             12.8352   XZ=              1.5206   YZ=             -0.1149
 Octapole moment (field-independent basis, Debye-Ang**2):
  XXX=            128.8914  YYY=             66.1295  ZZZ=              1.1249  XYY=            -31.8671
  XXY=             29.5143  XXZ=             -5.0037  XZZ=              2.1249  YZZ=             -1.8233
  YYZ=             -0.3033  XYZ=             -0.8379
 Hexadecapole moment (field-independent basis, Debye-Ang**3):
 XXXX=          -3248.4782 YYYY=          -1295.6959 ZZZZ=           -125.0967 XXXY=             35.3767
 XXXZ=             27.1092 YYYX=             92.9362 YYYZ=             -5.2248 ZZZX=             -2.7290
 ZZZY=              1.1744 XXYY=           -716.2922 XXZZ=           -491.0199 YYZZ=           -238.3218
 XXYZ=              1.4453 YYXZ=              0.5447 ZZXY=              1.9634
 N-N= 8.996648903356D+02 E-N=-3.274850979128D+03  KE= 6.307617859223D+02
 No NMR shielding tensors so no spin-rotation constants.
 Leave Link  601 at Fri Jan 23 19:07:10 2026, MaxMem=  2147483648 cpu:               1.8 elap:               0.1
 (Enter /data/home/wyx/g16/l9999.exe)
 Electronic transition elements 
                 1             2             3             4             5 
      1  -0.633199D+03 -0.633187D+03 -0.633163D+03 -0.633133D+03 -0.633117D+03
      2   0.160207D+01 -0.231691D+00 -0.519050D-03  0.587849D+00 -0.183293D+00
      3   0.511605D+00 -0.394862D-01 -0.342672D-01 -0.169913D+01  0.136431D+01
      4   0.203621D+00  0.115313D-01  0.384976D-01  0.133161D+00 -0.335320D-01
      5  -0.184669D+00  0.299569D-01 -0.672647D-03 -0.979390D-01  0.382138D-01
      6  -0.603110D-01  0.552658D-02  0.513295D-02  0.299721D+00 -0.270022D+00
      7  -0.235530D-01  0.174028D-03 -0.271776D-02 -0.214636D-01  0.702736D-02
      8  -0.127640D+00  0.832386D+00 -0.343121D+00 -0.135955D-01 -0.695259D-01
      9   0.120396D-01  0.171477D-02  0.882888D+00 -0.873822D-02  0.459191D-03
     10   0.144035D+01 -0.188694D+00 -0.256829D-01  0.430426D+00 -0.276685D+00
     11  -0.275398D-01 -0.406955D-02  0.540133D-02 -0.138229D+01  0.504650D+00
     12   0.244066D+00 -0.606551D-01  0.986626D-02  0.267630D+00 -0.289422D+00
     13  -0.167261D-01  0.584284D-02 -0.279879D-01  0.147173D-01 -0.212705D-01
     14   0.543487D+00 -0.845903D-01  0.130837D-02 -0.386673D+00  0.346063D+00
     15  -0.219501D-01  0.215349D-01 -0.761466D-01 -0.171369D+00  0.790902D-01
     16   0.640956D-01  0.394737D-01 -0.253450D-01 -0.496874D-01  0.531546D-02
                 6 
      1  -0.633095D+03
      2  -0.328572D-01
      3   0.804657D-01
      4   0.191187D-01
      5   0.829240D-02
      6  -0.167872D-01
      7  -0.240573D-01
      8  -0.290142D-01
      9  -0.145905D-01
     10  -0.195887D-01
     11  -0.528387D-01
     12  -0.512078D-01
     13   0.351839D-01
     14  -0.230201D-01
     15  -0.164636D-01
     16   0.448761D-01
 1\1\GINC-CN013\SP\RCAM-B3LYP TD-FC\TZVP\C11H15N1O2\WYX\23-Jan-2026\0\\
 #p CAM-B3LYP TZVP em=gd3bj td(nstates=6,root=1) scrf=(Solvent=TetraHyd
 roFuran,CorrectedLR,NonEquilibrium=Save) Geom=Check Guess=Read\\Title 
 Card Required\\0,1\O,0,2.801652,-1.576247,0.37424\O,0,-3.444919,-1.650
 135,-0.345325\N,0,-0.649824,1.523349,-0.165338\H,0,-0.967504,2.477091,
 -0.206537\C,0,-1.242198,-0.764675,-0.190616\C,0,0.67903,1.310344,0.053
 458\C,0,-1.617567,0.53965,-0.254032\C,0,-2.187546,-1.82399,-0.264223\C
 ,0,0.213322,-1.130384,-0.058809\H,0,0.346963,-1.809359,0.78582\H,0,0.5
 40087,-1.684075,-0.944209\C,0,1.145473,0.040392,0.125838\C,0,2.517422,
 -0.379101,0.362302\C,0,-2.994568,1.075846,-0.403102\H,0,-3.011839,1.92
 8055,-1.087779\H,0,-3.701328,0.348882,-0.797621\H,0,-3.39656,1.405749,
 0.558009\C,0,-1.80273,-3.27243,-0.260862\H,0,-2.346136,-3.887441,-0.98
 0705\H,0,-0.747596,-3.439197,-0.470265\H,0,-1.981172,-3.717793,0.72288
 5\C,0,3.640052,0.594542,0.605705\H,0,3.814164,1.254356,-0.242419\H,0,3
 .477075,1.218102,1.483071\H,0,4.533252,-0.005019,0.764951\C,0,1.446157
 ,2.58722,0.183218\H,0,1.897091,2.700666,1.166588\H,0,2.235181,2.678103
 ,-0.559499\H,0,0.804564,3.457499,0.045253\\Version=ES64L-G16RevA.03\St
 ate=1-A\HF=-633.3179385\RMSD=1.767e-09\Dipole=1.0105204,3.495088,0.006
 1975\Quadrupole=-15.8127974,11.7399606,4.0728368,0.6891678,-1.6708003,
 0.3678491\PG=C01 [X(C11H15N1O2)]\\@


 POCKETA-POCKETA
 BARON VON RICHTOFEN
 SLAUGHTERED THE ALLIES WITH
 HARDLY A CARE.
 KILLED EIGHTY-ONE WITH HIS
 BLOOD-COLORED TRIPLANE, THEN
 UN-AEROBATICALLY
 PLUNGED FROM THE AIR.
   -- TONY HOFFMAN
 Job cpu time:       0 days  2 hours 41 minutes 48.9 seconds.
 Elapsed time:       0 days  0 hours 10 minutes 10.2 seconds.
 File lengths (MBytes):  RWF=    734 Int=      0 D2E=      0 Chk=     67 Scr=      1
 Normal termination of Gaussian 16 at Fri Jan 23 19:07:12 2026.
