 Entering Gaussian System, Link 0=g16
 Input=DDL-S1-cLR-gs-10.gjf
 Output=DDL-S1-cLR-gs-10.log
 Initial command:
 /data/home/wyx/g16/l1.exe "/scr/tmp/wyx/13109/Gau-1703885.inp" -scrdir="/scr/tmp/wyx/13109/"
 Entering Link 1 = /data/home/wyx/g16/l1.exe PID=   1703886.
  
 Copyright (c) 1988,1990,1992,1993,1995,1998,2003,2009,2016,
            Gaussian, Inc.  All Rights Reserved.
  
 This is part of the Gaussian(R) 16 program.  It is based on
 the Gaussian(R) 09 system (copyright 2009, Gaussian, Inc.),
 the Gaussian(R) 03 system (copyright 2003, Gaussian, Inc.),
 the Gaussian(R) 98 system (copyright 1998, Gaussian, Inc.),
 the Gaussian(R) 94 system (copyright 1995, Gaussian, Inc.),
 the Gaussian 92(TM) system (copyright 1992, Gaussian, Inc.),
 the Gaussian 90(TM) system (copyright 1990, Gaussian, Inc.),
 the Gaussian 88(TM) system (copyright 1988, Gaussian, Inc.),
 the Gaussian 86(TM) system (copyright 1986, Carnegie Mellon
 University), and the Gaussian 82(TM) system (copyright 1983,
 Carnegie Mellon University). Gaussian is a federally registered
 trademark of Gaussian, Inc.
  
 This software contains proprietary and confidential information,
 including trade secrets, belonging to Gaussian, Inc.
  
 This software is provided under written license and may be
 used, copied, transmitted, or stored only in accord with that
 written license.
  
 The following legend is applicable only to US Government
 contracts under FAR:
  
                    RESTRICTED RIGHTS LEGEND
  
 Use, reproduction and disclosure by the US Government is
 subject to restrictions as set forth in subparagraphs (a)
 and (c) of the Commercial Computer Software - Restricted
 Rights clause in FAR 52.227-19.
  
 Gaussian, Inc.
 340 Quinnipiac St., Bldg. 40, Wallingford CT 06492
  
  
 ---------------------------------------------------------------
 Warning -- This program may not be used in any manner that
 competes with the business of Gaussian, Inc. or will provide
 assistance to any competitor of Gaussian, Inc.  The licensee
 of this program is prohibited from giving any competitor of
 Gaussian, Inc. access to this program.  By using this program,
 the user acknowledges that Gaussian, Inc. is engaged in the
 business of creating and licensing software in the field of
 computational chemistry and represents and warrants to the
 licensee that it is not a competitor of Gaussian, Inc. and that
 it will not use this program in any manner prohibited above.
 ---------------------------------------------------------------
  

 Cite this work as:
 Gaussian 16, Revision A.03,
 M. J. Frisch, G. W. Trucks, H. B. Schlegel, G. E. Scuseria, 
 M. A. Robb, J. R. Cheeseman, G. Scalmani, V. Barone, 
 G. A. Petersson, H. Nakatsuji, X. Li, M. Caricato, A. V. Marenich, 
 J. Bloino, B. G. Janesko, R. Gomperts, B. Mennucci, H. P. Hratchian, 
 J. V. Ortiz, A. F. Izmaylov, J. L. Sonnenberg, D. Williams-Young, 
 F. Ding, F. Lipparini, F. Egidi, J. Goings, B. Peng, A. Petrone, 
 T. Henderson, D. Ranasinghe, V. G. Zakrzewski, J. Gao, N. Rega, 
 G. Zheng, W. Liang, M. Hada, M. Ehara, K. Toyota, R. Fukuda, 
 J. Hasegawa, M. Ishida, T. Nakajima, Y. Honda, O. Kitao, H. Nakai, 
 T. Vreven, K. Throssell, J. A. Montgomery, Jr., J. E. Peralta, 
 F. Ogliaro, M. J. Bearpark, J. J. Heyd, E. N. Brothers, K. N. Kudin, 
 V. N. Staroverov, T. A. Keith, R. Kobayashi, J. Normand, 
 K. Raghavachari, A. P. Rendell, J. C. Burant, S. S. Iyengar, 
 J. Tomasi, M. Cossi, J. M. Millam, M. Klene, C. Adamo, R. Cammi, 
 J. W. Ochterski, R. L. Martin, K. Morokuma, O. Farkas, 
 J. B. Foresman, and D. J. Fox, Gaussian, Inc., Wallingford CT, 2016.
 
 ******************************************
 Gaussian 16:  ES64L-G16RevA.03 25-Dec-2016
                23-Jan-2026 
 ******************************************
 %nprocshared=16
 Will use up to   16 processors via shared memory.
 %mem=16GB
 %oldchk=DDL-S1-cLR-10.chk
 %chk=DDL-S1-cLR-gs-10.chk
 Copying data from "DDL-S1-cLR-10.chk" to current chk file "DDL-S1-cLR-gs-10.chk"
 IOpt=  2 FromEx=T IUOpen= 4 IOptOp= 5 NList=   0 IFRang= 0 IUIn= 4 IUOut= 2.
 ----------------------------------------------------------------------
 #p CAM-B3LYP TZVP em=gd3bj scrf=(Solvent=TetraHydroFuran,NonEquilibriu
 m=Read) Geom=Check Guess=Read
 ----------------------------------------------------------------------
 1/29=2,38=1,172=1/1;
 2/12=2,40=1/2;
 3/5=19,7=101,11=2,14=-4,25=1,30=1,70=6002201,72=20,74=-40,116=-2,124=41/1,2,3;
 4/5=1/1;
 5/5=2,38=6,53=20/2;
 6/7=2,8=2,9=2,10=2,28=1/1;
 99/5=1,9=1/99;
 Leave Link    1 at Fri Jan 23 22:53:37 2026, MaxMem=  2147483648 cpu:               0.8 elap:               0.1
 (Enter /data/home/wyx/g16/l101.exe)
 -------------------
 Title Card Required
 -------------------
 Structure from the checkpoint file:  "DDL-S1-cLR-gs-10.chk"
 Charge =  0 Multiplicity = 1
 Z-Matrix found in chk file.
 O,0,2.812196,-1.577469,0.289801
 O,0,-3.447231,-1.638882,-0.163557
 N,0,-0.641454,1.519284,-0.253884
 H,0,-0.955101,2.474361,-0.297176
 C,0,-1.241723,-0.759305,-0.204004
 C,0,0.688402,1.304486,-0.013089
 C,0,-1.614106,0.541001,-0.27221
 C,0,-2.208707,-1.822224,-0.195632
 C,0,0.219247,-1.125259,-0.185402
 H,0,0.402316,-1.878405,0.581023
 H,0,0.503341,-1.591889,-1.135191
 C,0,1.147307,0.035446,0.068621
 C,0,2.513569,-0.386828,0.34729
 C,0,-2.998553,1.077381,-0.357905
 H,0,-3.017807,2.02342,-0.903448
 H,0,-3.687904,0.406098,-0.863943
 H,0,-3.412968,1.251371,0.636857
 C,0,-1.781276,-3.25898,-0.236183
 H,0,-2.510353,-3.926355,-0.696101
 H,0,-0.84727,-3.419096,-0.775117
 H,0,-1.609131,-3.640533,0.775061
 C,0,3.601359,0.578249,0.737044
 H,0,3.913986,1.200585,-0.100899
 H,0,3.322936,1.238162,1.555697
 H,0,4.450352,-0.028198,1.043941
 C,0,1.451715,2.58187,0.127238
 H,0,1.734458,2.77701,1.160968
 H,0,2.35317,2.605363,-0.4773
 H,0,0.85923,3.439335,-0.192501
 Recover connectivity data from disk.
 ITRead=  0  0  0  0  0  0  0  0  0  0  0  0  0  0  0  0  0  0  0  0
 ITRead=  0  0  0  0  0  0  0  0  0
 MicOpt= -1 -1 -1 -1 -1 -1 -1 -1 -1 -1 -1 -1 -1 -1 -1 -1 -1 -1 -1 -1
 MicOpt= -1 -1 -1 -1 -1 -1 -1 -1 -1
 NAtoms=     29 NQM=       29 NQMF=       0 NMMI=      0 NMMIF=      0
                NMic=       0 NMicF=      0.
                    Isotopes and Nuclear Properties:
 (Nuclear quadrupole moments (NQMom) in fm**2, nuclear magnetic moments (NMagM)
  in nuclear magnetons)

  Atom         1           2           3           4           5           6           7           8           9          10
 IAtWgt=          16          16          14           1          12          12          12          12          12           1
 AtmWgt=  15.9949146  15.9949146  14.0030740   1.0078250  12.0000000  12.0000000  12.0000000  12.0000000  12.0000000   1.0078250
 NucSpn=           0           0           2           1           0           0           0           0           0           1
 AtZEff=   5.6000000   5.6000000   4.5500000   1.0000000   3.6000000   3.6000000   3.6000000   3.6000000   3.6000000   1.0000000
 NQMom=    0.0000000   0.0000000   2.0440000   0.0000000   0.0000000   0.0000000   0.0000000   0.0000000   0.0000000   0.0000000
 NMagM=    0.0000000   0.0000000   0.4037610   2.7928460   0.0000000   0.0000000   0.0000000   0.0000000   0.0000000   2.7928460
 AtZNuc=   8.0000000   8.0000000   7.0000000   1.0000000   6.0000000   6.0000000   6.0000000   6.0000000   6.0000000   1.0000000

  Atom        11          12          13          14          15          16          17          18          19          20
 IAtWgt=           1          12          12          12           1           1           1          12           1           1
 AtmWgt=   1.0078250  12.0000000  12.0000000  12.0000000   1.0078250   1.0078250   1.0078250  12.0000000   1.0078250   1.0078250
 NucSpn=           1           0           0           0           1           1           1           0           1           1
 AtZEff=   1.0000000   3.6000000   3.6000000   3.6000000   1.0000000   1.0000000   1.0000000   3.6000000   1.0000000   1.0000000
 NQMom=    0.0000000   0.0000000   0.0000000   0.0000000   0.0000000   0.0000000   0.0000000   0.0000000   0.0000000   0.0000000
 NMagM=    2.7928460   0.0000000   0.0000000   0.0000000   2.7928460   2.7928460   2.7928460   0.0000000   2.7928460   2.7928460
 AtZNuc=   1.0000000   6.0000000   6.0000000   6.0000000   1.0000000   1.0000000   1.0000000   6.0000000   1.0000000   1.0000000

  Atom        21          22          23          24          25          26          27          28          29
 IAtWgt=           1          12           1           1           1          12           1           1           1
 AtmWgt=   1.0078250  12.0000000   1.0078250   1.0078250   1.0078250  12.0000000   1.0078250   1.0078250   1.0078250
 NucSpn=           1           0           1           1           1           0           1           1           1
 AtZEff=   1.0000000   3.6000000   1.0000000   1.0000000   1.0000000   3.6000000   1.0000000   1.0000000   1.0000000
 NQMom=    0.0000000   0.0000000   0.0000000   0.0000000   0.0000000   0.0000000   0.0000000   0.0000000   0.0000000
 NMagM=    2.7928460   0.0000000   2.7928460   2.7928460   2.7928460   0.0000000   2.7928460   2.7928460   2.7928460
 AtZNuc=   1.0000000   6.0000000   1.0000000   1.0000000   1.0000000   6.0000000   1.0000000   1.0000000   1.0000000
 Leave Link  101 at Fri Jan 23 22:53:39 2026, MaxMem=  2147483648 cpu:               0.9 elap:               0.1
 (Enter /data/home/wyx/g16/l202.exe)
                          Input orientation:                          
 ---------------------------------------------------------------------
 Center     Atomic      Atomic             Coordinates (Angstroms)
 Number     Number       Type             X           Y           Z
 ---------------------------------------------------------------------
      1          8           0        2.812196   -1.577469    0.289801
      2          8           0       -3.447231   -1.638882   -0.163557
      3          7           0       -0.641454    1.519284   -0.253884
      4          1           0       -0.955101    2.474361   -0.297176
      5          6           0       -1.241723   -0.759305   -0.204004
      6          6           0        0.688402    1.304486   -0.013089
      7          6           0       -1.614106    0.541001   -0.272210
      8          6           0       -2.208707   -1.822224   -0.195632
      9          6           0        0.219247   -1.125259   -0.185402
     10          1           0        0.402316   -1.878405    0.581023
     11          1           0        0.503341   -1.591889   -1.135191
     12          6           0        1.147307    0.035446    0.068621
     13          6           0        2.513569   -0.386828    0.347290
     14          6           0       -2.998553    1.077381   -0.357905
     15          1           0       -3.017807    2.023420   -0.903448
     16          1           0       -3.687904    0.406098   -0.863943
     17          1           0       -3.412968    1.251371    0.636857
     18          6           0       -1.781276   -3.258980   -0.236183
     19          1           0       -2.510353   -3.926355   -0.696101
     20          1           0       -0.847270   -3.419096   -0.775117
     21          1           0       -1.609131   -3.640533    0.775061
     22          6           0        3.601359    0.578249    0.737044
     23          1           0        3.913986    1.200585   -0.100899
     24          1           0        3.322936    1.238162    1.555697
     25          1           0        4.450352   -0.028198    1.043941
     26          6           0        1.451715    2.581870    0.127238
     27          1           0        1.734458    2.777010    1.160968
     28          1           0        2.353170    2.605363   -0.477300
     29          1           0        0.859230    3.439335   -0.192501
 ---------------------------------------------------------------------
                    Distance matrix (angstroms):
                    1          2          3          4          5
     1  O    0.000000
     2  O    6.276124   0.000000
     3  N    4.670457   4.225465   0.000000
     4  H    5.563667   4.811168   1.006191   0.000000
     5  C    4.165032   2.374775   2.356858   3.247681   0.000000
     6  C    3.592758   5.078338   1.368443   2.037257   2.832148
     7  C    4.939223   2.850271   1.379647   2.042741   1.354296
     8  C    5.050249   1.252432   3.691253   4.476883   1.436985
     9  C    2.674639   3.702343   2.781924   3.787988   1.506221
    10  H    2.445996   3.928204   3.651139   4.643316   2.138110
    11  H    2.713231   4.068575   3.430256   4.400422   2.146055
    12  C    2.328577   4.895616   2.346370   3.240715   2.532473
    13  C    1.228865   6.112261   3.734815   4.542401   3.813775
    14  C    6.421258   2.759922   2.400420   2.476073   2.546282
    15  H    6.955514   3.760891   2.514585   2.196741   3.374501
    16  H    6.893255   2.174950   3.300335   3.473780   2.788814
    17  H    6.846565   2.999233   2.923437   2.899868   3.076389
    18  C    4.919769   2.324951   4.912363   5.792882   2.557446
    19  H    5.900745   2.528612   5.774368   6.599024   3.446997
    20  H    4.232887   3.209823   4.970075   5.913788   2.748864
    21  H    4.903044   2.875104   5.349658   6.242546   3.065132
    22  C    2.338787   7.443747   4.457460   5.042438   5.111758
    23  H    3.013996   7.890121   4.569136   5.036769   5.516623
    24  H    3.129077   7.554362   4.366921   4.823166   5.284178
    25  H    2.377503   8.150103   5.477731   6.105761   5.872955
    26  C    4.379205   6.472942   2.378171   2.446313   4.304391
    27  H    4.569676   6.935731   3.037867   3.074330   4.819370
    28  H    4.277293   7.194213   3.193314   3.315760   4.931423
    29  H    5.405091   6.658433   2.437707   2.057651   4.694967
                    6          7          8          9         10
     6  C    0.000000
     7  C    2.439589   0.000000
     8  C    4.266483   2.438083   0.000000
     9  C    2.480617   2.478940   2.526030   0.000000
    10  H    3.250478   3.263049   2.724663   1.090023   0.000000
    11  H    3.111647   3.126905   2.879415   1.095697   1.742896
    12  C    1.351937   2.827924   3.844944   1.507667   2.116694
    13  C    2.514289   4.275786   4.965382   2.468391   2.595539
    14  C    3.710002   1.487192   3.009634   3.903283   4.602626
    15  H    3.878865   2.136915   3.993072   4.572558   5.396771
    16  H    4.547868   2.160783   2.756825   4.251035   4.902732
    17  H    4.152889   2.137038   3.404448   4.417858   4.935079
    18  C    5.193679   3.803827   1.499536   2.925310   2.709592
    19  H    6.169298   4.576048   2.183764   3.944321   3.782696
    20  H    5.025057   4.064889   2.176996   2.597482   2.402979
    21  H    5.509360   4.310688   2.146622   3.254544   2.681169
    22  C    3.094420   5.312349   6.355236   3.897631   4.036504
    23  H    3.228451   5.569937   6.828889   4.366668   4.719854
    24  H    3.066962   5.310524   6.559893   4.272010   4.380982
    25  H    4.128635   6.231685   7.007006   4.540603   4.474836
    26  C    1.494673   3.704587   5.735763   3.919123   4.604477
    27  H    2.154291   4.273946   6.208210   4.397304   4.876867
    28  H    2.163152   4.476933   6.363457   4.307711   5.003005
    29  H    2.149175   3.811048   6.090669   4.609246   5.393095
                   11         12         13         14         15
    11  H    0.000000
    12  C    2.124164   0.000000
    13  C    2.773254   1.456930   0.000000
    14  C    4.471290   4.296011   5.746712   0.000000
    15  H    5.051994   4.716475   6.161961   1.092235   0.000000
    16  H    4.651028   4.938251   6.368209   1.087152   1.751091
    17  H    5.153810   4.753680   6.155598   1.091588   1.767697
    18  C    2.967639   4.418455   5.199557   4.505619   5.466077
    19  H    3.837302   5.446021   6.233515   5.038858   5.974975
    20  H    2.300541   4.077265   4.663656   5.002039   5.860775
    21  H    3.508353   4.648637   5.269368   5.047060   6.073065
    22  C    4.220483   2.600730   1.505513   6.708717   6.970875
    23  H    4.527711   3.006792   2.163775   6.918412   7.026443
    24  H    4.816657   2.896771   2.180806   6.606735   6.846097
    25  H    4.772069   3.444620   2.089274   7.659874   7.985916
    26  C    4.462444   2.565224   3.160558   4.722683   4.620693
    27  H    5.086774   3.009010   3.358416   5.253295   5.235813
    28  H    4.633747   2.890780   3.107874   5.566859   5.419193
    29  H    5.131134   3.426023   4.203301   4.526442   4.188279
                   16         17         18         19         20
    16  H    0.000000
    17  H    1.744270   0.000000
    18  C    4.178769   4.875232   0.000000
    19  H    4.492766   5.422208   1.090168   0.000000
    20  H    4.765417   5.512689   1.090162   1.740517   0.000000
    21  H    4.835582   5.215712   1.094455   1.748775   1.741413
    22  C    7.464995   7.047263   6.681636   7.726473   6.168930
    23  H    7.681287   7.364178   7.234779   8.240868   6.668252
    24  H    7.463167   6.798297   7.034778   8.109876   6.671834
    25  H    8.370176   7.977143   7.135114   8.165463   6.547668
    26  C    5.668519   5.069031   6.685793   7.663737   6.489312
    27  H    6.254878   5.394280   7.123594   8.148756   6.986091
    28  H    6.440562   6.026856   7.179297   8.146476   6.828295
    29  H    5.507067   4.871006   7.200111   8.115485   7.091520
                   21         22         23         24         25
    21  H    0.000000
    22  C    6.704385   0.000000
    23  H    7.396523   1.089581   0.000000
    24  H    6.981142   1.087749   1.759279   0.000000
    25  H    7.059646   1.087544   1.763024   1.771053   0.000000
    26  C    6.964679   3.001221   2.832450   2.710630   4.079782
    27  H    7.246611   2.915404   2.971156   2.246581   3.906273
    28  H    7.501963   2.672414   2.133360   2.634912   3.694319
    29  H    7.559994   4.070521   3.788394   3.737808   5.142833
                   26         27         28         29
    26  C    0.000000
    27  H    1.089321   0.000000
    28  H    1.085652   1.759599   0.000000
    29  H    1.090192   1.742578   1.734496   0.000000
 Stoichiometry    C11H15NO2
 Framework group  C1[X(C11H15NO2)]
 Deg. of freedom    81
 Full point group                 C1      NOp   1
 RotChk:  IX=0 Diff= 5.50D-16
 Largest Abelian subgroup         C1      NOp   1
 Largest concise Abelian subgroup C1      NOp   1
                         Standard orientation:                         
 ---------------------------------------------------------------------
 Center     Atomic      Atomic             Coordinates (Angstroms)
 Number     Number       Type             X           Y           Z
 ---------------------------------------------------------------------
      1          8           0        2.264418   -2.305142   -0.084857
      2          8           0       -3.644036   -0.217107    0.261559
      3          7           0        0.044581    1.803612   -0.145079
      4          1           0        0.074853    2.809307   -0.135954
      5          6           0       -1.290943   -0.135913   -0.048143
      6          6           0        1.238358    1.137976   -0.078283
      7          6           0       -1.199862    1.215311   -0.051864
      8          6           0       -2.556060   -0.807109    0.069753
      9          6           0       -0.052405   -0.975603   -0.220326
     10          1           0       -0.051781   -1.787546    0.506928
     11          1           0       -0.057123   -1.457391   -1.204404
     12          6           0        1.240217   -0.213944   -0.071786
     13          6           0        2.401121   -1.088883    0.025302
     14          6           0       -2.316331    2.192870    0.046200
     15          1           0       -2.072611    3.118224   -0.480389
     16          1           0       -3.247571    1.824011   -0.376453
     17          1           0       -2.528310    2.441455    1.087754
     18          6           0       -2.655170   -2.299103   -0.043130
     19          1           0       -3.616786   -2.653393   -0.414936
     20          1           0       -1.901522   -2.735988   -0.698570
     21          1           0       -2.509033   -2.771926    0.933042
     22          6           0        3.791178   -0.572611    0.285638
     23          1           0        4.199531   -0.047488   -0.577310
     24          1           0        3.852375    0.096072    1.141392
     25          1           0        4.409947   -1.446860    0.474231
     26          6           0        2.404323    2.071347   -0.020050
     27          1           0        2.853993    2.101454    0.971671
     28          1           0        3.183053    1.821582   -0.734078
     29          1           0        2.109308    3.095173   -0.250845
 ---------------------------------------------------------------------
 Rotational constants (GHZ):           1.0964819           0.4864952           0.3422975
 Leave Link  202 at Fri Jan 23 22:53:39 2026, MaxMem=  2147483648 cpu:               0.1 elap:               0.0
 (Enter /data/home/wyx/g16/l301.exe)
 Standard basis: TZVP (5D, 7F)
 Ernie: Thresh=  0.10000D-02 Tol=  0.10000D-05 Strict=F.
 There are   370 symmetry adapted cartesian basis functions of A   symmetry.
 There are   356 symmetry adapted basis functions of A   symmetry.
   356 basis functions,   610 primitive gaussians,   370 cartesian basis functions
    52 alpha electrons       52 beta electrons
       nuclear repulsion energy       900.4665285323 Hartrees.
 IExCor=20419 DFT=T Ex+Corr=CAM-B3LYP ExCW=0 ScaHFX=  1.000000
 ScaDFX=  1.000000  1.000000  1.000000  0.810000 ScalE2=  1.000000  1.000000
 IRadAn=      5 IRanWt=     -1 IRanGd=            0 ICorTp=0 IEmpDi=141
 HFx  wShort=  0.000000 wLong=  0.330000 cFull=  0.190000 cShort=  0.000000 cLong=  0.460000
 DFx  wShort=  0.000000 wLong=  0.330000 cFull=  0.190000 cShort=  0.000000 cLong=  0.460000
 NAtoms=   29 NActive=   29 NUniq=   29 SFac= 1.00D+00 NAtFMM=   60 NAOKFM=F Big=F
 Integral buffers will be    131072 words long.
 Raffenetti 2 integral format.
 Two-electron integral symmetry is turned on.
 R6Disp:  Grimme-D3(BJ) Dispersion energy=       -0.0261516924 Hartrees.
 Nuclear repulsion after empirical dispersion term =      900.4403768399 Hartrees.
 ------------------------------------------------------------------------------
 Polarizable Continuum Model (PCM)
 =================================
 Model                : PCM.
 Atomic radii         : UFF (Universal Force Field).
 Polarization charges : Total charges.
 Charge compensation  : None.
 Solution method      : On-the-fly selection.
 Cavity type          : Scaled VdW (van der Waals Surface) (Alpha=1.100).
 Cavity algorithm     : GePol (No added spheres)
                        Default sphere list used, NSphG=   29.
                        Lebedev-Laikov grids with approx.  5.0 points / Ang**2.
                        Smoothing algorithm: York/Karplus (Gamma=1.0000).
                        Polarization charges: spherical gaussians, with
                                              point-specific exponents (IZeta= 3).
                        Self-potential: point-specific (ISelfS= 7).
                        Self-field    : sphere-specific E.n sum rule (ISelfD= 2).
 Solvent              : TetraHydroFuran, Eps=   7.425700 Eps(inf)=   1.974025
 ------------------------------------------------------------------------------
 GePol: Number of generator spheres                  =      29
 GePol: Total number of spheres                      =      29
 GePol: Number of exposed spheres                    =      29 (100.00%)
 GePol: Number of points                             =    2106
 GePol: Average weight of points                     =       0.13
 GePol: Minimum weight of points                     =   0.65D-08
 GePol: Maximum weight of points                     =    0.20577
 GePol: Number of points with low weight             =     134
 GePol: Fraction of low-weight points (<1% of avg)   =       6.36%
 GePol: Cavity surface area                          =    269.068 Ang**2
 GePol: Cavity volume                                =    286.676 Ang**3
 Leave Link  301 at Fri Jan 23 22:53:39 2026, MaxMem=  2147483648 cpu:               0.6 elap:               0.0
 (Enter /data/home/wyx/g16/l302.exe)
 NPDir=0 NMtPBC=     1 NCelOv=     1 NCel=       1 NClECP=     1 NCelD=      1
         NCelK=      1 NCelE2=     1 NClLst=     1 CellRange=     0.0.
 One-electron integrals computed using PRISM.
 One-electron integral symmetry used in STVInt
 NBasis=   356 RedAO= T EigKep=  3.94D-05  NBF=   356
 NBsUse=   356 1.00D-06 EigRej= -1.00D+00 NBFU=   356
 Precomputing XC quadrature grid using
 IXCGrd= 4 IRadAn=           5 IRanWt=          -1 IRanGd=           0 AccXCQ= 0.00D+00.
 Generated NRdTot=       0 NPtTot=           0 NUsed=           0 NTot=          32
 NSgBfM=   366   366   366   366   366 MxSgAt=    29 MxSgA2=    29.
 Leave Link  302 at Fri Jan 23 22:53:39 2026, MaxMem=  2147483648 cpu:               3.1 elap:               0.2
 (Enter /data/home/wyx/g16/l303.exe)
 DipDrv:  MaxL=1.
 Leave Link  303 at Fri Jan 23 22:53:39 2026, MaxMem=  2147483648 cpu:               0.6 elap:               0.0
 (Enter /data/home/wyx/g16/l401.exe)
 Initial guess from the checkpoint file:  "DDL-S1-cLR-gs-10.chk"
 B after Tr=     0.000000   -0.000000   -0.000000
         Rot=    1.000000    0.000000    0.000000    0.000000 Ang=   0.00 deg.
 Guess basis will be translated and rotated to current coordinates.
 JPrj=2 DoOrth=T DoCkMO=T.
 Leave Link  401 at Fri Jan 23 22:53:40 2026, MaxMem=  2147483648 cpu:               2.2 elap:               0.2
 (Enter /data/home/wyx/g16/l502.exe)
 Integral symmetry usage will be decided dynamically.
 Closed shell SCF:
 Using DIIS extrapolation, IDIIS=  1040.
 NGot=  2147483648 LenX=  2147200095 LenY=  2147062754
 Requested convergence on RMS density matrix=1.00D-08 within 128 cycles.
 Requested convergence on MAX density matrix=1.00D-06.
 Requested convergence on             energy=1.00D-06.
 No special actions if energy rises.
 Fock matrices will be formed incrementally for  20 cycles.

 Cycle   1  Pass 1  IDiag  1:
 FoFJK:  IHMeth= 1 ICntrl=       0 DoSepK=T KAlg= 0 I1Cent=           0 FoldK=F
 IRaf=         1 NMat=       1 IRICut=       1 DoRegI=T DoRafI=F ISym2E= 0 IDoP0=0 IntGTp=1.
 FoFCou: FMM=F IPFlag=           0 FMFlag=      100000 FMFlg1=           0
         NFxFlg=           0 DoJE=T BraDBF=F KetDBF=F FulRan=T
         wScrn=  0.000000 ICntrl=       500 IOpCl=  0 I1Cent=           0 NGrid=           0
         NMat0=    1 NMatS0=      1 NMatT0=    0 NMatD0=    1 NMtDS0=    0 NMtDT0=    0
 Symmetry not used in FoFCou.
 Inv3:  Mode=1 IEnd=    13305708.
 Iteration    1 A*A^-1 deviation from unit magnitude is 3.66D-15 for   1049.
 Iteration    1 A*A^-1 deviation from orthogonality  is 1.96D-15 for   1780    188.
 Iteration    1 A^-1*A deviation from unit magnitude is 3.33D-15 for   1270.
 Iteration    1 A^-1*A deviation from orthogonality  is 1.22D-15 for   2086   1055.
 NEqPCM:  Using non-equilibrium solvation (IEInf=1, Eps=   7.4257, EpsInf=   1.9740)
 Inv3:  Mode=1 IEnd=    13305708.
 Iteration    1 A*A^-1 deviation from unit magnitude is 3.33D-15 for   1137.
 Iteration    1 A*A^-1 deviation from orthogonality  is 1.96D-15 for   1811    220.
 Iteration    1 A^-1*A deviation from unit magnitude is 2.89D-15 for    158.
 Iteration    1 A^-1*A deviation from orthogonality  is 1.59D-15 for   1813    626.
 E= -633.322923210207    
 DIIS: error= 2.34D-04 at cycle   1 NSaved=   1.
 NSaved= 1 IEnMin= 1 EnMin= -633.322923210207     IErMin= 1 ErrMin= 2.34D-04
 ErrMax= 2.34D-04  0.00D+00 EMaxC= 1.00D-01 BMatC= 1.10D-05 BMatP= 1.10D-05
 IDIUse=3 WtCom= 9.98D-01 WtEn= 2.34D-03
 Coeff-Com:  0.100D+01
 Coeff-En:   0.100D+01
 Coeff:      0.100D+01
 Gap=     0.233 Goal=   None    Shift=    0.000
 RMSDP=1.35D-04 MaxDP=7.43D-03              OVMax= 3.37D-03

 Cycle   2  Pass 1  IDiag  1:
 RMSU=  1.34D-04    CP:  9.99D-01
 E= -633.322941973708     Delta-E=       -0.000018763501 Rises=F Damp=F
 DIIS: error= 1.50D-04 at cycle   2 NSaved=   2.
 NSaved= 2 IEnMin= 2 EnMin= -633.322941973708     IErMin= 2 ErrMin= 1.50D-04
 ErrMax= 1.50D-04  0.00D+00 EMaxC= 1.00D-01 BMatC= 8.69D-06 BMatP= 1.10D-05
 IDIUse=3 WtCom= 9.99D-01 WtEn= 1.50D-03
 Coeff-Com:  0.460D+00 0.540D+00
 Coeff-En:   0.000D+00 0.100D+01
 Coeff:      0.459D+00 0.541D+00
 Gap=     0.233 Goal=   None    Shift=    0.000
 RMSDP=3.48D-05 MaxDP=1.88D-03 DE=-1.88D-05 OVMax= 9.57D-04

 Cycle   3  Pass 1  IDiag  1:
 RMSU=  2.84D-05    CP:  1.00D+00  8.92D-01
 E= -633.322949164684     Delta-E=       -0.000007190976 Rises=F Damp=F
 DIIS: error= 8.20D-05 at cycle   3 NSaved=   3.
 NSaved= 3 IEnMin= 3 EnMin= -633.322949164684     IErMin= 3 ErrMin= 8.20D-05
 ErrMax= 8.20D-05  0.00D+00 EMaxC= 1.00D-01 BMatC= 1.48D-06 BMatP= 8.69D-06
 IDIUse=1 WtCom= 1.00D+00 WtEn= 0.00D+00
 Coeff-Com:  0.883D-01 0.275D+00 0.637D+00
 Coeff:      0.883D-01 0.275D+00 0.637D+00
 Gap=     0.233 Goal=   None    Shift=    0.000
 RMSDP=9.40D-06 MaxDP=4.13D-04 DE=-7.19D-06 OVMax= 4.89D-04

 Cycle   4  Pass 1  IDiag  1:
 RMSU=  8.95D-06    CP:  9.99D-01  8.83D-01  9.75D-01
 E= -633.322950300356     Delta-E=       -0.000001135672 Rises=F Damp=F
 DIIS: error= 1.64D-05 at cycle   4 NSaved=   4.
 NSaved= 4 IEnMin= 4 EnMin= -633.322950300356     IErMin= 4 ErrMin= 1.64D-05
 ErrMax= 1.64D-05  0.00D+00 EMaxC= 1.00D-01 BMatC= 1.29D-07 BMatP= 1.48D-06
 IDIUse=1 WtCom= 1.00D+00 WtEn= 0.00D+00
 Coeff-Com: -0.527D-02 0.439D-01 0.244D+00 0.717D+00
 Coeff:     -0.527D-02 0.439D-01 0.244D+00 0.717D+00
 Gap=     0.233 Goal=   None    Shift=    0.000
 RMSDP=5.60D-06 MaxDP=2.83D-04 DE=-1.14D-06 OVMax= 1.78D-04

 Cycle   5  Pass 1  IDiag  1:
 RMSU=  3.00D-06    CP:  1.00D+00  8.86D-01  1.12D+00  1.08D+00
 E= -633.322950413635     Delta-E=       -0.000000113279 Rises=F Damp=F
 DIIS: error= 7.58D-06 at cycle   5 NSaved=   5.
 NSaved= 5 IEnMin= 5 EnMin= -633.322950413635     IErMin= 5 ErrMin= 7.58D-06
 ErrMax= 7.58D-06  0.00D+00 EMaxC= 1.00D-01 BMatC= 2.56D-08 BMatP= 1.29D-07
 IDIUse=1 WtCom= 1.00D+00 WtEn= 0.00D+00
 Coeff-Com: -0.122D-01-0.214D-01 0.231D-01 0.335D+00 0.676D+00
 Coeff:     -0.122D-01-0.214D-01 0.231D-01 0.335D+00 0.676D+00
 Gap=     0.233 Goal=   None    Shift=    0.000
 RMSDP=1.50D-06 MaxDP=4.87D-05 DE=-1.13D-07 OVMax= 7.35D-05

 Cycle   6  Pass 1  IDiag  1:
 RMSU=  9.02D-07    CP:  1.00D+00  8.84D-01  1.15D+00  1.17D+00  1.08D+00
 E= -633.322950442266     Delta-E=       -0.000000028631 Rises=F Damp=F
 DIIS: error= 2.90D-06 at cycle   6 NSaved=   6.
 NSaved= 6 IEnMin= 6 EnMin= -633.322950442266     IErMin= 6 ErrMin= 2.90D-06
 ErrMax= 2.90D-06  0.00D+00 EMaxC= 1.00D-01 BMatC= 2.36D-09 BMatP= 2.56D-08
 IDIUse=1 WtCom= 1.00D+00 WtEn= 0.00D+00
 Coeff-Com: -0.276D-02-0.133D-01-0.106D-01 0.321D-01 0.220D+00 0.774D+00
 Coeff:     -0.276D-02-0.133D-01-0.106D-01 0.321D-01 0.220D+00 0.774D+00
 Gap=     0.233 Goal=   None    Shift=    0.000
 RMSDP=9.23D-07 MaxDP=3.32D-05 DE=-2.86D-08 OVMax= 5.29D-05

 Cycle   7  Pass 1  IDiag  1:
 RMSU=  3.64D-07    CP:  1.00D+00  8.81D-01  1.17D+00  1.22D+00  1.20D+00
                    CP:  1.16D+00
 E= -633.322950445998     Delta-E=       -0.000000003732 Rises=F Damp=F
 DIIS: error= 1.46D-06 at cycle   7 NSaved=   7.
 NSaved= 7 IEnMin= 7 EnMin= -633.322950445998     IErMin= 7 ErrMin= 1.46D-06
 ErrMax= 1.46D-06  0.00D+00 EMaxC= 1.00D-01 BMatC= 9.26D-10 BMatP= 2.36D-09
 IDIUse=1 WtCom= 1.00D+00 WtEn= 0.00D+00
 Coeff-Com:  0.949D-03-0.423D-02-0.672D-02-0.485D-01-0.299D-01 0.408D+00
 Coeff-Com:  0.681D+00
 Coeff:      0.949D-03-0.423D-02-0.672D-02-0.485D-01-0.299D-01 0.408D+00
 Coeff:      0.681D+00
 Gap=     0.233 Goal=   None    Shift=    0.000
 RMSDP=3.64D-07 MaxDP=1.62D-05 DE=-3.73D-09 OVMax= 2.55D-05

 Cycle   8  Pass 1  IDiag  1:
 RMSU=  1.38D-07    CP:  1.00D+00  8.80D-01  1.18D+00  1.23D+00  1.25D+00
                    CP:  1.32D+00  1.09D+00
 E= -633.322950447341     Delta-E=       -0.000000001342 Rises=F Damp=F
 DIIS: error= 6.16D-07 at cycle   8 NSaved=   8.
 NSaved= 8 IEnMin= 8 EnMin= -633.322950447341     IErMin= 8 ErrMin= 6.16D-07
 ErrMax= 6.16D-07  0.00D+00 EMaxC= 1.00D-01 BMatC= 7.95D-11 BMatP= 9.26D-10
 IDIUse=1 WtCom= 1.00D+00 WtEn= 0.00D+00
 Coeff-Com:  0.741D-03-0.130D-03 0.128D-02-0.179D-01-0.494D-01-0.505D-02
 Coeff-Com:  0.163D+00 0.908D+00
 Coeff:      0.741D-03-0.130D-03 0.128D-02-0.179D-01-0.494D-01-0.505D-02
 Coeff:      0.163D+00 0.908D+00
 Gap=     0.233 Goal=   None    Shift=    0.000
 RMSDP=1.75D-07 MaxDP=7.08D-06 DE=-1.34D-09 OVMax= 1.29D-05

 Cycle   9  Pass 1  IDiag  1:
 RMSU=  5.82D-08    CP:  1.00D+00  8.80D-01  1.18D+00  1.23D+00  1.27D+00
                    CP:  1.40D+00  1.27D+00  1.24D+00
 E= -633.322950447528     Delta-E=       -0.000000000187 Rises=F Damp=F
 DIIS: error= 2.66D-07 at cycle   9 NSaved=   9.
 NSaved= 9 IEnMin= 9 EnMin= -633.322950447528     IErMin= 9 ErrMin= 2.66D-07
 ErrMax= 2.66D-07  0.00D+00 EMaxC= 1.00D-01 BMatC= 9.28D-12 BMatP= 7.95D-11
 IDIUse=1 WtCom= 1.00D+00 WtEn= 0.00D+00
 Coeff-Com:  0.128D-03 0.271D-03 0.151D-02 0.127D-02-0.133D-01-0.575D-01
 Coeff-Com: -0.397D-01 0.308D+00 0.799D+00
 Coeff:      0.128D-03 0.271D-03 0.151D-02 0.127D-02-0.133D-01-0.575D-01
 Coeff:     -0.397D-01 0.308D+00 0.799D+00
 Gap=     0.233 Goal=   None    Shift=    0.000
 RMSDP=4.46D-08 MaxDP=1.22D-06 DE=-1.87D-10 OVMax= 5.11D-06

 Cycle  10  Pass 1  IDiag  1:
 RMSU=  1.92D-08    CP:  1.00D+00  8.80D-01  1.18D+00  1.23D+00  1.27D+00
                    CP:  1.42D+00  1.34D+00  1.36D+00  1.18D+00
 E= -633.322950447548     Delta-E=       -0.000000000020 Rises=F Damp=F
 DIIS: error= 8.22D-08 at cycle  10 NSaved=  10.
 NSaved=10 IEnMin=10 EnMin= -633.322950447548     IErMin=10 ErrMin= 8.22D-08
 ErrMax= 8.22D-08  0.00D+00 EMaxC= 1.00D-01 BMatC= 2.18D-12 BMatP= 9.28D-12
 IDIUse=1 WtCom= 1.00D+00 WtEn= 0.00D+00
 Coeff-Com: -0.315D-04 0.172D-03 0.465D-03 0.303D-02 0.288D-04-0.256D-01
 Coeff-Com: -0.376D-01 0.973D-02 0.360D+00 0.690D+00
 Coeff:     -0.315D-04 0.172D-03 0.465D-03 0.303D-02 0.288D-04-0.256D-01
 Coeff:     -0.376D-01 0.973D-02 0.360D+00 0.690D+00
 Gap=     0.233 Goal=   None    Shift=    0.000
 RMSDP=2.33D-08 MaxDP=1.36D-06 DE=-1.99D-11 OVMax= 1.47D-06

 Cycle  11  Pass 1  IDiag  1:
 RMSU=  1.21D-08    CP:  1.00D+00  8.80D-01  1.18D+00  1.23D+00  1.26D+00
                    CP:  1.42D+00  1.37D+00  1.41D+00  1.38D+00  1.14D+00
 E= -633.322950447552     Delta-E=       -0.000000000004 Rises=F Damp=F
 DIIS: error= 4.98D-08 at cycle  11 NSaved=  11.
 NSaved=11 IEnMin=11 EnMin= -633.322950447552     IErMin=11 ErrMin= 4.98D-08
 ErrMax= 4.98D-08  0.00D+00 EMaxC= 1.00D-01 BMatC= 4.08D-13 BMatP= 2.18D-12
 IDIUse=1 WtCom= 1.00D+00 WtEn= 0.00D+00
 Coeff-Com: -0.448D-04 0.363D-04-0.170D-03 0.133D-02 0.316D-02 0.660D-03
 Coeff-Com: -0.861D-02-0.677D-01 0.202D-01 0.311D+00 0.740D+00
 Coeff:     -0.448D-04 0.363D-04-0.170D-03 0.133D-02 0.316D-02 0.660D-03
 Coeff:     -0.861D-02-0.677D-01 0.202D-01 0.311D+00 0.740D+00
 Gap=     0.233 Goal=   None    Shift=    0.000
 RMSDP=7.70D-09 MaxDP=2.63D-07 DE=-4.21D-12 OVMax= 8.37D-07

 Error on total polarization charges =  0.00986
 SCF Done:  E(RCAM-B3LYP) =  -633.322950448     A.U. after   11 cycles
            NFock= 11  Conv=0.77D-08     -V/T= 2.0041
 KE= 6.307349470915D+02 PE=-3.276896572757D+03 EE= 1.112398298378D+03
 Leave Link  502 at Fri Jan 23 22:54:24 2026, MaxMem=  2147483648 cpu:             690.4 elap:              43.8
 (Enter /data/home/wyx/g16/l601.exe)
 Copying SCF densities to generalized density rwf, IOpCl= 0 IROHF=0.

 **********************************************************************

            Population analysis using the SCF density.

 **********************************************************************

 Orbital symmetries:
       Occupied  (A) (A) (A) (A) (A) (A) (A) (A) (A) (A) (A) (A)
                 (A) (A) (A) (A) (A) (A) (A) (A) (A) (A) (A) (A)
                 (A) (A) (A) (A) (A) (A) (A) (A) (A) (A) (A) (A)
                 (A) (A) (A) (A) (A) (A) (A) (A) (A) (A) (A) (A)
                 (A) (A) (A) (A)
       Virtual   (A) (A) (A) (A) (A) (A) (A) (A) (A) (A) (A) (A)
                 (A) (A) (A) (A) (A) (A) (A) (A) (A) (A) (A) (A)
                 (A) (A) (A) (A) (A) (A) (A) (A) (A) (A) (A) (A)
                 (A) (A) (A) (A) (A) (A) (A) (A) (A) (A) (A) (A)
                 (A) (A) (A) (A) (A) (A) (A) (A) (A) (A) (A) (A)
                 (A) (A) (A) (A) (A) (A) (A) (A) (A) (A) (A) (A)
                 (A) (A) (A) (A) (A) (A) (A) (A) (A) (A) (A) (A)
                 (A) (A) (A) (A) (A) (A) (A) (A) (A) (A) (A) (A)
                 (A) (A) (A) (A) (A) (A) (A) (A) (A) (A) (A) (A)
                 (A) (A) (A) (A) (A) (A) (A) (A) (A) (A) (A) (A)
                 (A) (A) (A) (A) (A) (A) (A) (A) (A) (A) (A) (A)
                 (A) (A) (A) (A) (A) (A) (A) (A) (A) (A) (A) (A)
                 (A) (A) (A) (A) (A) (A) (A) (A) (A) (A) (A) (A)
                 (A) (A) (A) (A) (A) (A) (A) (A) (A) (A) (A) (A)
                 (A) (A) (A) (A) (A) (A) (A) (A) (A) (A) (A) (A)
                 (A) (A) (A) (A) (A) (A) (A) (A) (A) (A) (A) (A)
                 (A) (A) (A) (A) (A) (A) (A) (A) (A) (A) (A) (A)
                 (A) (A) (A) (A) (A) (A) (A) (A) (A) (A) (A) (A)
                 (A) (A) (A) (A) (A) (A) (A) (A) (A) (A) (A) (A)
                 (A) (A) (A) (A) (A) (A) (A) (A) (A) (A) (A) (A)
                 (A) (A) (A) (A) (A) (A) (A) (A) (A) (A) (A) (A)
                 (A) (A) (A) (A) (A) (A) (A) (A) (A) (A) (A) (A)
                 (A) (A) (A) (A) (A) (A) (A) (A) (A) (A) (A) (A)
                 (A) (A) (A) (A) (A) (A) (A) (A) (A) (A) (A) (A)
                 (A) (A) (A) (A) (A) (A) (A) (A) (A) (A) (A) (A)
                 (A) (A) (A) (A)
 The electronic state is 1-A.
 Alpha  occ. eigenvalues --  -19.17690 -19.16855 -14.44170 -10.33188 -10.33087
 Alpha  occ. eigenvalues --  -10.32128 -10.31817 -10.25911 -10.24917 -10.24740
 Alpha  occ. eigenvalues --  -10.24682 -10.24610 -10.24041 -10.23727  -1.11784
 Alpha  occ. eigenvalues --   -1.10132  -1.07662  -0.91442  -0.90445  -0.83839
 Alpha  occ. eigenvalues --   -0.82493  -0.81522  -0.78666  -0.74168  -0.71439
 Alpha  occ. eigenvalues --   -0.68863  -0.61956  -0.58421  -0.56886  -0.55095
 Alpha  occ. eigenvalues --   -0.54645  -0.54054  -0.52461  -0.51903  -0.50605
 Alpha  occ. eigenvalues --   -0.49623  -0.49322  -0.49102  -0.48334  -0.48186
 Alpha  occ. eigenvalues --   -0.46725  -0.45131  -0.44721  -0.43615  -0.42879
 Alpha  occ. eigenvalues --   -0.42345  -0.41678  -0.41221  -0.32973  -0.32113
 Alpha  occ. eigenvalues --   -0.30974  -0.26057
 Alpha virt. eigenvalues --   -0.02718   0.02360   0.06411   0.08267   0.08495
 Alpha virt. eigenvalues --    0.09970   0.10680   0.12071   0.12733   0.13552
 Alpha virt. eigenvalues --    0.14055   0.15129   0.15640   0.16704   0.16961
 Alpha virt. eigenvalues --    0.17590   0.17667   0.17799   0.18369   0.19369
 Alpha virt. eigenvalues --    0.19922   0.21641   0.23001   0.23491   0.24008
 Alpha virt. eigenvalues --    0.24553   0.24695   0.25898   0.26110   0.26753
 Alpha virt. eigenvalues --    0.27373   0.27753   0.28129   0.29533   0.29923
 Alpha virt. eigenvalues --    0.31241   0.31835   0.32879   0.33644   0.34771
 Alpha virt. eigenvalues --    0.35462   0.35701   0.36785   0.37834   0.38608
 Alpha virt. eigenvalues --    0.39800   0.41341   0.41924   0.42469   0.43189
 Alpha virt. eigenvalues --    0.44176   0.45212   0.45707   0.46191   0.46595
 Alpha virt. eigenvalues --    0.46794   0.48172   0.48480   0.48823   0.49206
 Alpha virt. eigenvalues --    0.49869   0.50365   0.50888   0.51319   0.52063
 Alpha virt. eigenvalues --    0.52518   0.52932   0.53450   0.54079   0.54415
 Alpha virt. eigenvalues --    0.54846   0.55712   0.55944   0.57044   0.57668
 Alpha virt. eigenvalues --    0.58264   0.59664   0.60024   0.62161   0.63004
 Alpha virt. eigenvalues --    0.63307   0.65105   0.66006   0.68008   0.68256
 Alpha virt. eigenvalues --    0.70227   0.70933   0.71418   0.72006   0.73088
 Alpha virt. eigenvalues --    0.73910   0.75073   0.76911   0.77569   0.78681
 Alpha virt. eigenvalues --    0.80463   0.81062   0.82614   0.85898   0.87841
 Alpha virt. eigenvalues --    0.90823   0.90953   0.95759   1.01880   1.22268
 Alpha virt. eigenvalues --    1.25169   1.25760   1.27701   1.29793   1.30721
 Alpha virt. eigenvalues --    1.32696   1.33191   1.33997   1.35626   1.36005
 Alpha virt. eigenvalues --    1.37056   1.37335   1.38512   1.39113   1.39617
 Alpha virt. eigenvalues --    1.39892   1.41051   1.41135   1.41495   1.42311
 Alpha virt. eigenvalues --    1.43052   1.44237   1.44437   1.44936   1.47101
 Alpha virt. eigenvalues --    1.47943   1.49800   1.50101   1.50958   1.51778
 Alpha virt. eigenvalues --    1.52173   1.52856   1.53861   1.55723   1.57753
 Alpha virt. eigenvalues --    1.58741   1.59586   1.60663   1.61338   1.61871
 Alpha virt. eigenvalues --    1.63118   1.63489   1.64553   1.65308   1.66075
 Alpha virt. eigenvalues --    1.66201   1.66561   1.67383   1.68008   1.68652
 Alpha virt. eigenvalues --    1.69154   1.69955   1.71229   1.72505   1.73279
 Alpha virt. eigenvalues --    1.74436   1.74730   1.76091   1.76571   1.79163
 Alpha virt. eigenvalues --    1.81138   1.82722   1.83859   1.84312   1.86257
 Alpha virt. eigenvalues --    1.86866   1.87432   1.88394   1.89904   1.90422
 Alpha virt. eigenvalues --    1.91698   1.93624   1.95900   1.98069   2.00414
 Alpha virt. eigenvalues --    2.01587   2.04822   2.05084   2.06854   2.09669
 Alpha virt. eigenvalues --    2.10718   2.13403   2.15192   2.18392   2.19473
 Alpha virt. eigenvalues --    2.19943   2.22400   2.23599   2.24652   2.25364
 Alpha virt. eigenvalues --    2.26943   2.29024   2.30575   2.31308   2.33451
 Alpha virt. eigenvalues --    2.34545   2.35229   2.36461   2.37988   2.39393
 Alpha virt. eigenvalues --    2.40719   2.41620   2.42134   2.44974   2.45609
 Alpha virt. eigenvalues --    2.45931   2.48710   2.49387   2.50502   2.51842
 Alpha virt. eigenvalues --    2.52935   2.53302   2.54510   2.56055   2.57202
 Alpha virt. eigenvalues --    2.57303   2.60712   2.60892   2.62411   2.63199
 Alpha virt. eigenvalues --    2.64327   2.65709   2.66457   2.67316   2.69083
 Alpha virt. eigenvalues --    2.70208   2.72778   2.73432   2.74338   2.74990
 Alpha virt. eigenvalues --    2.76548   2.76936   2.77731   2.78205   2.79436
 Alpha virt. eigenvalues --    2.80565   2.81703   2.83314   2.84270   2.84916
 Alpha virt. eigenvalues --    2.85998   2.86432   2.88620   2.90028   2.93639
 Alpha virt. eigenvalues --    2.97405   2.99030   2.99322   3.05679   3.09826
 Alpha virt. eigenvalues --    3.10465   3.11982   3.14091   3.19602   3.20948
 Alpha virt. eigenvalues --    3.21650   3.23621   3.24262   3.25645   3.26493
 Alpha virt. eigenvalues --    3.28964   3.31912   3.32839   3.35898   3.37768
 Alpha virt. eigenvalues --    3.38459   3.39633   3.39906   3.40703   3.41868
 Alpha virt. eigenvalues --    3.42664   3.43495   3.46043   3.47777   3.48105
 Alpha virt. eigenvalues --    3.50189   3.53754   3.55015   3.58031   3.60062
 Alpha virt. eigenvalues --    3.62522   3.91819   4.00709   4.33377   4.36338
 Alpha virt. eigenvalues --   21.64307  21.77843  22.07260  22.10381  22.12103
 Alpha virt. eigenvalues --   22.13433  22.16745  22.19429  22.21749  22.27617
 Alpha virt. eigenvalues --   22.31696  31.93098  43.63465  43.65841
          Condensed to atoms (all electrons):
               1          2          3          4          5          6
     1  O    7.925798   0.000000  -0.000202   0.000017   0.015000   0.015938
     2  O    0.000000   8.036909   0.000479   0.000031  -0.185415   0.001513
     3  N   -0.000202   0.000479   6.362970   0.372777  -0.111959   0.357777
     4  H    0.000017   0.000031   0.372777   0.405132   0.014310  -0.041600
     5  C    0.015000  -0.185415  -0.111959   0.014310   7.105551  -0.056869
     6  C    0.015938   0.001513   0.357777  -0.041600  -0.056869   5.538730
     7  C   -0.000122  -0.027782   0.375220  -0.044672   0.397624  -0.131386
     8  C   -0.000405   0.666552   0.003887  -0.000869  -0.402018   0.040127
     9  C   -0.008397   0.021964   0.017140   0.000397  -0.610947  -0.078118
    10  H    0.011364  -0.000199  -0.001269   0.000007  -0.118417   0.020438
    11  H    0.003937   0.000045   0.002574   0.000016  -0.040698  -0.003456
    12  C   -0.236827  -0.003244  -0.092409   0.017878   0.193071  -0.113935
    13  C    0.744366  -0.000012   0.000211   0.000458   0.067648   0.106384
    14  C   -0.000008  -0.041097  -0.043335  -0.003076  -0.051857  -0.000474
    15  H    0.000000   0.004855   0.004901   0.000203   0.014738   0.006038
    16  H    0.000000   0.013027   0.003163   0.000748  -0.000844  -0.000476
    17  H   -0.000000   0.000963  -0.003908   0.000756  -0.012949  -0.001046
    18  C   -0.000192  -0.101729  -0.000353   0.000018  -0.202993  -0.001019
    19  H   -0.000002   0.005558   0.000005  -0.000001   0.016125   0.000028
    20  H    0.000357   0.005662   0.000108   0.000001   0.065249  -0.001390
    21  H    0.000015  -0.000188   0.000014  -0.000001  -0.007930   0.000170
    22  C   -0.126995   0.000000  -0.000045   0.000122   0.002252  -0.001538
    23  H    0.002494   0.000000   0.000088  -0.000023  -0.000168   0.007938
    24  H    0.003862  -0.000000   0.000079  -0.000036  -0.000271  -0.021627
    25  H    0.010823   0.000000   0.000015  -0.000003  -0.000081  -0.002023
    26  C    0.000807   0.000007  -0.028937  -0.010472   0.000208   0.224227
    27  H   -0.000034  -0.000000  -0.003200   0.000569   0.000463  -0.040968
    28  H   -0.000084  -0.000000   0.000280   0.000869   0.000148  -0.040017
    29  H    0.000016   0.000000   0.003848   0.001949  -0.000366  -0.051181
               7          8          9         10         11         12
     1  O   -0.000122  -0.000405  -0.008397   0.011364   0.003937  -0.236827
     2  O   -0.027782   0.666552   0.021964  -0.000199   0.000045  -0.003244
     3  N    0.375220   0.003887   0.017140  -0.001269   0.002574  -0.092409
     4  H   -0.044672  -0.000869   0.000397   0.000007   0.000016   0.017878
     5  C    0.397624  -0.402018  -0.610947  -0.118417  -0.040698   0.193071
     6  C   -0.131386   0.040127  -0.078118   0.020438  -0.003456  -0.113935
     7  C    5.480362  -0.267547  -0.202551   0.016979  -0.005277   0.021811
     8  C   -0.267547   5.590635   0.180429  -0.009079   0.000957  -0.063744
     9  C   -0.202551   0.180429   6.332826   0.548150   0.404232  -0.114977
    10  H    0.016979  -0.009079   0.548150   0.502477  -0.034778  -0.102371
    11  H   -0.005277   0.000957   0.404232  -0.034778   0.540203  -0.015183
    12  C    0.021811  -0.063744  -0.114977  -0.102371  -0.015183   7.421870
    13  C    0.020375  -0.009193  -0.223519  -0.002687  -0.006295  -0.444819
    14  C    0.236891  -0.061185   0.013996   0.000493  -0.001191   0.001343
    15  H   -0.073956   0.006358  -0.000545  -0.000009   0.000107  -0.001113
    16  H   -0.037786  -0.015628   0.001164  -0.000062   0.000111  -0.000352
    17  H   -0.015774   0.003673  -0.000314   0.000061  -0.000043   0.000274
    18  C    0.008333   0.329901  -0.000223   0.002022  -0.011916   0.004262
    19  H    0.000311  -0.043245  -0.001796   0.000499   0.000222  -0.000186
    20  H    0.004371  -0.103697  -0.015832  -0.006209   0.001663   0.006832
    21  H   -0.000534  -0.011434  -0.003392  -0.000619   0.000514  -0.002193
    22  C    0.000455  -0.000021   0.009290   0.000934   0.001524  -0.328952
    23  H   -0.000018   0.000005  -0.002098  -0.000138   0.000149   0.005591
    24  H   -0.000034  -0.000001   0.001828   0.000031  -0.000142   0.047404
    25  H    0.000014   0.000000  -0.000009  -0.000104  -0.000042   0.027871
    26  C    0.006287   0.000706   0.019120   0.000103  -0.000540  -0.094512
    27  H   -0.001236  -0.000014   0.000197   0.000037  -0.000010  -0.011278
    28  H   -0.000859  -0.000003  -0.000803   0.000001  -0.000022  -0.003677
    29  H    0.003787   0.000013  -0.000645  -0.000003   0.000040   0.020881
              13         14         15         16         17         18
     1  O    0.744366  -0.000008   0.000000   0.000000  -0.000000  -0.000192
     2  O   -0.000012  -0.041097   0.004855   0.013027   0.000963  -0.101729
     3  N    0.000211  -0.043335   0.004901   0.003163  -0.003908  -0.000353
     4  H    0.000458  -0.003076   0.000203   0.000748   0.000756   0.000018
     5  C    0.067648  -0.051857   0.014738  -0.000844  -0.012949  -0.202993
     6  C    0.106384  -0.000474   0.006038  -0.000476  -0.001046  -0.001019
     7  C    0.020375   0.236891  -0.073956  -0.037786  -0.015774   0.008333
     8  C   -0.009193  -0.061185   0.006358  -0.015628   0.003673   0.329901
     9  C   -0.223519   0.013996  -0.000545   0.001164  -0.000314  -0.000223
    10  H   -0.002687   0.000493  -0.000009  -0.000062   0.000061   0.002022
    11  H   -0.006295  -0.001191   0.000107   0.000111  -0.000043  -0.011916
    12  C   -0.444819   0.001343  -0.001113  -0.000352   0.000274   0.004262
    13  C    5.474748  -0.000010  -0.000026   0.000001  -0.000021   0.000759
    14  C   -0.000010   5.195133   0.382852   0.422053   0.400808   0.000282
    15  H   -0.000026   0.382852   0.581756  -0.027812  -0.028298   0.000186
    16  H    0.000001   0.422053  -0.027812   0.484182  -0.021089   0.000382
    17  H   -0.000021   0.400808  -0.028298  -0.021089   0.506861   0.000004
    18  C    0.000759   0.000282   0.000186   0.000382   0.000004   5.247659
    19  H   -0.000013  -0.000001  -0.000002   0.000087  -0.000015   0.401202
    20  H    0.001228   0.000268  -0.000019  -0.000094  -0.000001   0.396339
    21  H   -0.000077  -0.000283  -0.000005   0.000024   0.000014   0.391018
    22  C    0.332383   0.000001   0.000003  -0.000000  -0.000001   0.000015
    23  H   -0.037452  -0.000001   0.000000  -0.000000  -0.000000  -0.000002
    24  H   -0.067019   0.000000  -0.000000   0.000000   0.000000   0.000002
    25  H   -0.050340   0.000000   0.000000  -0.000000  -0.000000  -0.000000
    26  C   -0.046464   0.000679  -0.000219   0.000043  -0.000107  -0.000000
    27  H    0.004173  -0.000087   0.000017   0.000002  -0.000012  -0.000000
    28  H   -0.004283   0.000081  -0.000018  -0.000002   0.000004   0.000000
    29  H   -0.000297  -0.000050   0.000110  -0.000001  -0.000001   0.000000
              19         20         21         22         23         24
     1  O   -0.000002   0.000357   0.000015  -0.126995   0.002494   0.003862
     2  O    0.005558   0.005662  -0.000188   0.000000   0.000000  -0.000000
     3  N    0.000005   0.000108   0.000014  -0.000045   0.000088   0.000079
     4  H   -0.000001   0.000001  -0.000001   0.000122  -0.000023  -0.000036
     5  C    0.016125   0.065249  -0.007930   0.002252  -0.000168  -0.000271
     6  C    0.000028  -0.001390   0.000170  -0.001538   0.007938  -0.021627
     7  C    0.000311   0.004371  -0.000534   0.000455  -0.000018  -0.000034
     8  C   -0.043245  -0.103697  -0.011434  -0.000021   0.000005  -0.000001
     9  C   -0.001796  -0.015832  -0.003392   0.009290  -0.002098   0.001828
    10  H    0.000499  -0.006209  -0.000619   0.000934  -0.000138   0.000031
    11  H    0.000222   0.001663   0.000514   0.001524   0.000149  -0.000142
    12  C   -0.000186   0.006832  -0.002193  -0.328952   0.005591   0.047404
    13  C   -0.000013   0.001228  -0.000077   0.332383  -0.037452  -0.067019
    14  C   -0.000001   0.000268  -0.000283   0.000001  -0.000001   0.000000
    15  H   -0.000002  -0.000019  -0.000005   0.000003   0.000000  -0.000000
    16  H    0.000087  -0.000094   0.000024  -0.000000  -0.000000   0.000000
    17  H   -0.000015  -0.000001   0.000014  -0.000001  -0.000000   0.000000
    18  C    0.401202   0.396339   0.391018   0.000015  -0.000002   0.000002
    19  H    0.507003  -0.029543  -0.012187  -0.000000   0.000000   0.000000
    20  H   -0.029543   0.542079  -0.021286   0.000034  -0.000001  -0.000001
    21  H   -0.012187  -0.021286   0.496194  -0.000004   0.000000  -0.000000
    22  C   -0.000000   0.000034  -0.000004   5.464931   0.396456   0.383400
    23  H    0.000000  -0.000001   0.000000   0.396456   0.515364  -0.032313
    24  H    0.000000  -0.000001  -0.000000   0.383400  -0.032313   0.548399
    25  H   -0.000000  -0.000000  -0.000000   0.383052  -0.008899  -0.018193
    26  C    0.000000  -0.000017   0.000002  -0.044176  -0.011239   0.012366
    27  H    0.000000   0.000000  -0.000000  -0.010265   0.001025  -0.001267
    28  H   -0.000000   0.000000   0.000000   0.005452  -0.000865  -0.004952
    29  H    0.000000  -0.000000  -0.000000   0.002112   0.000189   0.000452
              25         26         27         28         29
     1  O    0.010823   0.000807  -0.000034  -0.000084   0.000016
     2  O    0.000000   0.000007  -0.000000  -0.000000   0.000000
     3  N    0.000015  -0.028937  -0.003200   0.000280   0.003848
     4  H   -0.000003  -0.010472   0.000569   0.000869   0.001949
     5  C   -0.000081   0.000208   0.000463   0.000148  -0.000366
     6  C   -0.002023   0.224227  -0.040968  -0.040017  -0.051181
     7  C    0.000014   0.006287  -0.001236  -0.000859   0.003787
     8  C    0.000000   0.000706  -0.000014  -0.000003   0.000013
     9  C   -0.000009   0.019120   0.000197  -0.000803  -0.000645
    10  H   -0.000104   0.000103   0.000037   0.000001  -0.000003
    11  H   -0.000042  -0.000540  -0.000010  -0.000022   0.000040
    12  C    0.027871  -0.094512  -0.011278  -0.003677   0.020881
    13  C   -0.050340  -0.046464   0.004173  -0.004283  -0.000297
    14  C    0.000000   0.000679  -0.000087   0.000081  -0.000050
    15  H    0.000000  -0.000219   0.000017  -0.000018   0.000110
    16  H   -0.000000   0.000043   0.000002  -0.000002  -0.000001
    17  H   -0.000000  -0.000107  -0.000012   0.000004  -0.000001
    18  C   -0.000000  -0.000000  -0.000000   0.000000   0.000000
    19  H   -0.000000   0.000000   0.000000  -0.000000   0.000000
    20  H   -0.000000  -0.000017   0.000000   0.000000  -0.000000
    21  H   -0.000000   0.000002  -0.000000   0.000000  -0.000000
    22  C    0.383052  -0.044176  -0.010265   0.005452   0.002112
    23  H   -0.008899  -0.011239   0.001025  -0.000865   0.000189
    24  H   -0.018193   0.012366  -0.001267  -0.004952   0.000452
    25  H    0.496624   0.002238   0.000064   0.000387  -0.000033
    26  C    0.002238   5.212781   0.434531   0.420845   0.388565
    27  H    0.000064   0.434531   0.487833  -0.031382  -0.016759
    28  H    0.000387   0.420845  -0.031382   0.516066  -0.023721
    29  H   -0.000033   0.388565  -0.016759  -0.023721   0.519101
 Mulliken charges:
               1
     1  O   -0.361526
     2  O   -0.397899
     3  N   -0.219918
     4  H    0.284495
     5  C   -0.088602
     6  C    0.267812
     7  C    0.236712
     8  C    0.164837
     9  C   -0.286566
    10  H    0.172345
    11  H    0.163298
    12  C   -0.139317
    13  C    0.139793
    14  C   -0.452224
    15  H    0.129901
    16  H    0.179160
    17  H    0.170161
    18  C   -0.463957
    19  H    0.155949
    20  H    0.153897
    21  H    0.172169
    22  C   -0.470422
    23  H    0.163917
    24  H    0.148032
    25  H    0.158636
    26  C   -0.486832
    27  H    0.187601
    28  H    0.166554
    29  H    0.151993
 Sum of Mulliken charges =  -0.00000
 Mulliken charges with hydrogens summed into heavy atoms:
               1
     1  O   -0.361526
     2  O   -0.397899
     3  N    0.064576
     5  C   -0.088602
     6  C    0.267812
     7  C    0.236712
     8  C    0.164837
     9  C    0.049077
    12  C   -0.139317
    13  C    0.139793
    14  C    0.026998
    18  C    0.018058
    22  C    0.000163
    26  C    0.019317
 Electronic spatial extent (au):  <R**2>=           3208.7888
 Charge=             -0.0000 electrons
 Dipole moment (field-independent basis, Debye):
    X=              4.1888    Y=              7.1671    Z=             -0.2658  Tot=              8.3057
 Quadrupole moment (field-independent basis, Debye-Ang):
   XX=            -99.3754   YY=            -78.6875   ZZ=            -84.4718
   XY=             12.9761   XZ=              3.0492   YZ=             -0.7065
 Traceless Quadrupole moment (field-independent basis, Debye-Ang):
   XX=            -11.8639   YY=              8.8241   ZZ=              3.0398
   XY=             12.9761   XZ=              3.0492   YZ=             -0.7065
 Octapole moment (field-independent basis, Debye-Ang**2):
  XXX=            112.5850  YYY=             61.9320  ZZZ=              2.1200  XYY=            -35.7717
  XXY=             28.6872  XXZ=             -8.1566  XZZ=              1.5168  YZZ=             -1.6010
  YYZ=              1.5554  XYZ=             -2.3852
 Hexadecapole moment (field-independent basis, Debye-Ang**3):
 XXXX=          -3126.9582 YYYY=          -1280.0497 ZZZZ=           -133.1654 XXXY=             42.4260
 XXXZ=             43.3759 YYYX=             93.0424 YYYZ=            -13.3088 ZZZX=             -4.1321
 ZZZY=              3.2110 XXYY=           -689.7616 XXZZ=           -485.0949 YYZZ=           -238.5329
 XXYZ=             -0.5841 YYXZ=              1.9158 ZZXY=              0.7454
 N-N= 9.004403768399D+02 E-N=-3.276896569117D+03  KE= 6.307349470915D+02
 No NMR shielding tensors so no spin-rotation constants.
 Leave Link  601 at Fri Jan 23 22:54:24 2026, MaxMem=  2147483648 cpu:               1.8 elap:               0.1
 (Enter /data/home/wyx/g16/l9999.exe)
 1\1\GINC-CN013\SP\RCAM-B3LYP\TZVP\C11H15N1O2\WYX\23-Jan-2026\0\\#p CAM
 -B3LYP TZVP em=gd3bj scrf=(Solvent=TetraHydroFuran,NonEquilibrium=Read
 ) Geom=Check Guess=Read\\Title Card Required\\0,1\O,0,2.812196,-1.5774
 69,0.289801\O,0,-3.447231,-1.638882,-0.163557\N,0,-0.641454,1.519284,-
 0.253884\H,0,-0.955101,2.474361,-0.297176\C,0,-1.241723,-0.759305,-0.2
 04004\C,0,0.688402,1.304486,-0.013089\C,0,-1.614106,0.541001,-0.27221\
 C,0,-2.208707,-1.822224,-0.195632\C,0,0.219247,-1.125259,-0.185402\H,0
 ,0.402316,-1.878405,0.581023\H,0,0.503341,-1.591889,-1.135191\C,0,1.14
 7307,0.035446,0.068621\C,0,2.513569,-0.386828,0.34729\C,0,-2.998553,1.
 077381,-0.357905\H,0,-3.017807,2.02342,-0.903448\H,0,-3.687904,0.40609
 8,-0.863943\H,0,-3.412968,1.251371,0.636857\C,0,-1.781276,-3.25898,-0.
 236183\H,0,-2.510353,-3.926355,-0.696101\H,0,-0.84727,-3.419096,-0.775
 117\H,0,-1.609131,-3.640533,0.775061\C,0,3.601359,0.578249,0.737044\H,
 0,3.913986,1.200585,-0.100899\H,0,3.322936,1.238162,1.555697\H,0,4.450
 352,-0.028198,1.043941\C,0,1.451715,2.58187,0.127238\H,0,1.734458,2.77
 701,1.160968\H,0,2.35317,2.605363,-0.4773\H,0,0.85923,3.439335,-0.1925
 01\\Version=ES64L-G16RevA.03\State=1-A\HF=-633.3229504\RMSD=7.702e-09\
 Dipole=0.594353,3.2124211,-0.0703108\Quadrupole=-13.5525979,10.9738395
 ,2.5787584,2.4066378,0.2498369,0.4840194\PG=C01 [X(C11H15N1O2)]\\@


 OF ALL THE WONDERS OF THE UNIVERSE, THE GREATEST IS MAN.

                                    -- ARISTOTLE
 Job cpu time:       0 days  0 hours 11 minutes 40.7 seconds.
 Elapsed time:       0 days  0 hours  0 minutes 44.6 seconds.
 File lengths (MBytes):  RWF=    341 Int=      0 D2E=      0 Chk=     67 Scr=      1
 Normal termination of Gaussian 16 at Fri Jan 23 22:54:25 2026.
