 Entering Gaussian System, Link 0=g16
 Input=DDL-LR-11.gjf
 Output=DDL-LR-11.log
 Initial command:
 /data/home/wyx/g16/l1.exe "/scr/tmp/wyx/13109/Gau-1687137.inp" -scrdir="/scr/tmp/wyx/13109/"
 Entering Link 1 = /data/home/wyx/g16/l1.exe PID=   1687138.
  
 Copyright (c) 1988,1990,1992,1993,1995,1998,2003,2009,2016,
            Gaussian, Inc.  All Rights Reserved.
  
 This is part of the Gaussian(R) 16 program.  It is based on
 the Gaussian(R) 09 system (copyright 2009, Gaussian, Inc.),
 the Gaussian(R) 03 system (copyright 2003, Gaussian, Inc.),
 the Gaussian(R) 98 system (copyright 1998, Gaussian, Inc.),
 the Gaussian(R) 94 system (copyright 1995, Gaussian, Inc.),
 the Gaussian 92(TM) system (copyright 1992, Gaussian, Inc.),
 the Gaussian 90(TM) system (copyright 1990, Gaussian, Inc.),
 the Gaussian 88(TM) system (copyright 1988, Gaussian, Inc.),
 the Gaussian 86(TM) system (copyright 1986, Carnegie Mellon
 University), and the Gaussian 82(TM) system (copyright 1983,
 Carnegie Mellon University). Gaussian is a federally registered
 trademark of Gaussian, Inc.
  
 This software contains proprietary and confidential information,
 including trade secrets, belonging to Gaussian, Inc.
  
 This software is provided under written license and may be
 used, copied, transmitted, or stored only in accord with that
 written license.
  
 The following legend is applicable only to US Government
 contracts under FAR:
  
                    RESTRICTED RIGHTS LEGEND
  
 Use, reproduction and disclosure by the US Government is
 subject to restrictions as set forth in subparagraphs (a)
 and (c) of the Commercial Computer Software - Restricted
 Rights clause in FAR 52.227-19.
  
 Gaussian, Inc.
 340 Quinnipiac St., Bldg. 40, Wallingford CT 06492
  
  
 ---------------------------------------------------------------
 Warning -- This program may not be used in any manner that
 competes with the business of Gaussian, Inc. or will provide
 assistance to any competitor of Gaussian, Inc.  The licensee
 of this program is prohibited from giving any competitor of
 Gaussian, Inc. access to this program.  By using this program,
 the user acknowledges that Gaussian, Inc. is engaged in the
 business of creating and licensing software in the field of
 computational chemistry and represents and warrants to the
 licensee that it is not a competitor of Gaussian, Inc. and that
 it will not use this program in any manner prohibited above.
 ---------------------------------------------------------------
  

 Cite this work as:
 Gaussian 16, Revision A.03,
 M. J. Frisch, G. W. Trucks, H. B. Schlegel, G. E. Scuseria, 
 M. A. Robb, J. R. Cheeseman, G. Scalmani, V. Barone, 
 G. A. Petersson, H. Nakatsuji, X. Li, M. Caricato, A. V. Marenich, 
 J. Bloino, B. G. Janesko, R. Gomperts, B. Mennucci, H. P. Hratchian, 
 J. V. Ortiz, A. F. Izmaylov, J. L. Sonnenberg, D. Williams-Young, 
 F. Ding, F. Lipparini, F. Egidi, J. Goings, B. Peng, A. Petrone, 
 T. Henderson, D. Ranasinghe, V. G. Zakrzewski, J. Gao, N. Rega, 
 G. Zheng, W. Liang, M. Hada, M. Ehara, K. Toyota, R. Fukuda, 
 J. Hasegawa, M. Ishida, T. Nakajima, Y. Honda, O. Kitao, H. Nakai, 
 T. Vreven, K. Throssell, J. A. Montgomery, Jr., J. E. Peralta, 
 F. Ogliaro, M. J. Bearpark, J. J. Heyd, E. N. Brothers, K. N. Kudin, 
 V. N. Staroverov, T. A. Keith, R. Kobayashi, J. Normand, 
 K. Raghavachari, A. P. Rendell, J. C. Burant, S. S. Iyengar, 
 J. Tomasi, M. Cossi, J. M. Millam, M. Klene, C. Adamo, R. Cammi, 
 J. W. Ochterski, R. L. Martin, K. Morokuma, O. Farkas, 
 J. B. Foresman, and D. J. Fox, Gaussian, Inc., Wallingford CT, 2016.
 
 ******************************************
 Gaussian 16:  ES64L-G16RevA.03 25-Dec-2016
                23-Jan-2026 
 ******************************************
 %nprocshared=16
 Will use up to   16 processors via shared memory.
 %mem=16GB
 %chk=DDL-LR-11.chk
 ----------------------------------------------------------------------
 #p CAM-B3LYP TZVP em=gd3bj td(nstates=6,root=1) scrf=(Solvent=TetraHyd
 roFuran)
 ----------------------------------------------------------------------
 1/38=1,172=1/1;
 2/12=2,17=6,18=5,40=1/2;
 3/5=19,7=101,11=9,25=1,30=1,70=2201,72=20,74=-40,124=41/1,2,3,8;
 4//1;
 5/5=2,38=5,53=20/2;
 8/6=1,10=1,107=1,108=6/1;
 9/8=1,41=6,42=1,70=2/14;
 6/7=2,8=2,9=2,10=2/1;
 99/5=1,9=1/99;
 Leave Link    1 at Fri Jan 23 16:07:29 2026, MaxMem=  2147483648 cpu:               0.4 elap:               0.1
 (Enter /data/home/wyx/g16/l101.exe)
 -------------------
 Title Card Required
 -------------------
 Symbolic Z-matrix:
 Charge =  0 Multiplicity = 1
 O                     2.81562  -1.57624   0.26871 
 O                    -3.44501  -1.63548  -0.11791 
 N                    -0.63957   1.51792  -0.27638 
 H                    -0.95211   2.47338  -0.32066 
 C                    -1.24116  -0.75848  -0.20743 
 C                     0.69085   1.30283  -0.03003 
 C                    -1.61312   0.54111  -0.27665 
 C                    -2.2128   -1.82233  -0.17781 
 C                     0.2204   -1.12394  -0.21784 
 H                     0.416    -1.89454   0.52717 
 H                     0.49241  -1.56911  -1.18178 
 C                     1.14787   0.03372   0.05378 
 C                     2.51302  -0.38811   0.34374 
 C                    -2.99923   1.07792  -0.34608 
 H                    -3.01789   2.0444   -0.85382 
 H                    -3.68316   0.42184  -0.87834 
 H                    -3.41615   1.21182   0.65352 
 C                    -1.77433  -3.25608  -0.22939 
 H                    -2.537    -3.93084  -0.61721 
 H                    -0.88535  -3.41352  -0.84092 
 H                    -1.51784  -3.61961   0.77033 
 C                     3.59042   0.5737    0.76995 
 H                     3.93729   1.18623  -0.06208 
 H                     3.28413   1.24244   1.57106 
 H                     4.42471  -0.03378   1.11295 
 C                     1.45354   2.58055   0.11307 
 H                     1.69289   2.79619   1.15404 
 H                     2.37939   2.58743  -0.45295 
 H                     0.87616   3.43058  -0.25105 
 
 ITRead=  0  0  0  0  0  0  0  0  0  0  0  0  0  0  0  0  0  0  0  0
 ITRead=  0  0  0  0  0  0  0  0  0
 MicOpt= -1 -1 -1 -1 -1 -1 -1 -1 -1 -1 -1 -1 -1 -1 -1 -1 -1 -1 -1 -1
 MicOpt= -1 -1 -1 -1 -1 -1 -1 -1 -1
 NAtoms=     29 NQM=       29 NQMF=       0 NMMI=      0 NMMIF=      0
                NMic=       0 NMicF=      0.
                    Isotopes and Nuclear Properties:
 (Nuclear quadrupole moments (NQMom) in fm**2, nuclear magnetic moments (NMagM)
  in nuclear magnetons)

  Atom         1           2           3           4           5           6           7           8           9          10
 IAtWgt=          16          16          14           1          12          12          12          12          12           1
 AtmWgt=  15.9949146  15.9949146  14.0030740   1.0078250  12.0000000  12.0000000  12.0000000  12.0000000  12.0000000   1.0078250
 NucSpn=           0           0           2           1           0           0           0           0           0           1
 AtZEff=  -0.0000000  -0.0000000  -0.0000000  -0.0000000  -0.0000000  -0.0000000  -0.0000000  -0.0000000  -0.0000000  -0.0000000
 NQMom=    0.0000000   0.0000000   2.0440000   0.0000000   0.0000000   0.0000000   0.0000000   0.0000000   0.0000000   0.0000000
 NMagM=    0.0000000   0.0000000   0.4037610   2.7928460   0.0000000   0.0000000   0.0000000   0.0000000   0.0000000   2.7928460
 AtZNuc=   8.0000000   8.0000000   7.0000000   1.0000000   6.0000000   6.0000000   6.0000000   6.0000000   6.0000000   1.0000000

  Atom        11          12          13          14          15          16          17          18          19          20
 IAtWgt=           1          12          12          12           1           1           1          12           1           1
 AtmWgt=   1.0078250  12.0000000  12.0000000  12.0000000   1.0078250   1.0078250   1.0078250  12.0000000   1.0078250   1.0078250
 NucSpn=           1           0           0           0           1           1           1           0           1           1
 AtZEff=  -0.0000000  -0.0000000  -0.0000000  -0.0000000  -0.0000000  -0.0000000  -0.0000000  -0.0000000  -0.0000000  -0.0000000
 NQMom=    0.0000000   0.0000000   0.0000000   0.0000000   0.0000000   0.0000000   0.0000000   0.0000000   0.0000000   0.0000000
 NMagM=    2.7928460   0.0000000   0.0000000   0.0000000   2.7928460   2.7928460   2.7928460   0.0000000   2.7928460   2.7928460
 AtZNuc=   1.0000000   6.0000000   6.0000000   6.0000000   1.0000000   1.0000000   1.0000000   6.0000000   1.0000000   1.0000000

  Atom        21          22          23          24          25          26          27          28          29
 IAtWgt=           1          12           1           1           1          12           1           1           1
 AtmWgt=   1.0078250  12.0000000   1.0078250   1.0078250   1.0078250  12.0000000   1.0078250   1.0078250   1.0078250
 NucSpn=           1           0           1           1           1           0           1           1           1
 AtZEff=  -0.0000000  -0.0000000  -0.0000000  -0.0000000  -0.0000000  -0.0000000  -0.0000000  -0.0000000  -0.0000000
 NQMom=    0.0000000   0.0000000   0.0000000   0.0000000   0.0000000   0.0000000   0.0000000   0.0000000   0.0000000
 NMagM=    2.7928460   0.0000000   2.7928460   2.7928460   2.7928460   0.0000000   2.7928460   2.7928460   2.7928460
 AtZNuc=   1.0000000   6.0000000   1.0000000   1.0000000   1.0000000   6.0000000   1.0000000   1.0000000   1.0000000
 Leave Link  101 at Fri Jan 23 16:07:29 2026, MaxMem=  2147483648 cpu:               0.8 elap:               0.1
 (Enter /data/home/wyx/g16/l202.exe)
                          Input orientation:                          
 ---------------------------------------------------------------------
 Center     Atomic      Atomic             Coordinates (Angstroms)
 Number     Number       Type             X           Y           Z
 ---------------------------------------------------------------------
      1          8           0        2.815621   -1.576243    0.268713
      2          8           0       -3.445005   -1.635482   -0.117911
      3          7           0       -0.639568    1.517918   -0.276379
      4          1           0       -0.952106    2.473375   -0.320663
      5          6           0       -1.241157   -0.758478   -0.207429
      6          6           0        0.690852    1.302832   -0.030027
      7          6           0       -1.613122    0.541105   -0.276652
      8          6           0       -2.212799   -1.822330   -0.177811
      9          6           0        0.220402   -1.123938   -0.217835
     10          1           0        0.415998   -1.894536    0.527171
     11          1           0        0.492414   -1.569109   -1.181776
     12          6           0        1.147875    0.033718    0.053776
     13          6           0        2.513020   -0.388108    0.343741
     14          6           0       -2.999234    1.077919   -0.346075
     15          1           0       -3.017890    2.044402   -0.853819
     16          1           0       -3.683159    0.421840   -0.878341
     17          1           0       -3.416146    1.211824    0.653520
     18          6           0       -1.774326   -3.256080   -0.229394
     19          1           0       -2.537000   -3.930844   -0.617207
     20          1           0       -0.885348   -3.413517   -0.840920
     21          1           0       -1.517841   -3.619608    0.770330
     22          6           0        3.590415    0.573699    0.769951
     23          1           0        3.937285    1.186228   -0.062084
     24          1           0        3.284130    1.242443    1.571062
     25          1           0        4.424707   -0.033782    1.112948
     26          6           0        1.453539    2.580551    0.113073
     27          1           0        1.692889    2.796192    1.154036
     28          1           0        2.379391    2.587432   -0.452949
     29          1           0        0.876162    3.430577   -0.251047
 ---------------------------------------------------------------------
                    Distance matrix (angstroms):
                    1          2          3          4          5
     1  O    0.000000
     2  O    6.272832   0.000000
     3  N    4.670042   4.223686   0.000000
     4  H    5.562602   4.810235   1.006250   0.000000
     5  C    4.165681   2.373625   2.355556   3.246729   0.000000
     6  C    3.590677   5.074123   1.370025   2.038124   2.830747
     7  C    4.939064   2.849303   1.379120   2.042681   1.353538
     8  C    5.054201   1.247731   3.693512   4.479156   1.441092
     9  C    2.678894   3.702279   2.778917   3.784972   1.506594
    10  H    2.434400   3.923083   3.661250   4.655016   2.139259
    11  H    2.738843   4.079152   3.410405   4.378337   2.147497
    12  C    2.327992   4.889811   2.346658   3.240687   2.530470
    13  C    1.228357   6.104681   3.735812   4.542754   3.812454
    14  C    6.421455   2.759224   2.401350   2.477635   2.546058
    15  H    6.956939   3.776974   2.503405   2.176175   3.380937
    16  H    6.895086   2.206251   3.290470   3.460990   2.794038
    17  H    6.837859   2.950100   2.944111   2.934627   3.058415
    18  C    4.913001   2.330222   4.907233   5.788871   2.553971
    19  H    5.914351   2.518423   5.779742   6.604078   3.451236
    20  H    4.278321   3.199374   4.969725   5.910213   2.752661
    21  H    4.817245   2.905114   5.316120   6.215687   3.036220
    22  C    2.339614   7.427376   4.458600   5.043085   5.106276
    23  H    2.999800   7.903377   4.593857   5.062584   5.533468
    24  H    3.140160   7.511081   4.345611   4.799949   5.257845
    25  H    2.383501   8.124828   5.475845   6.103376   5.862644
    26  C    4.377034   6.467149   2.379487   2.446782   4.302699
    27  H    4.600273   6.903299   3.020004   3.045480   4.806027
    28  H    4.248209   7.202003   3.207671   3.336073   4.935966
    29  H    5.394432   6.659967   2.440562   2.064860   4.693945
                    6          7          8          9         10
     6  C    0.000000
     7  C    2.439129   0.000000
     8  C    4.268450   2.440329   0.000000
     9  C    2.479074   2.477426   2.531762   0.000000
    10  H    3.257173   3.270444   2.722643   1.089547   0.000000
    11  H    3.100637   3.115371   2.896592   1.096061   1.741333
    12  C    1.351497   2.826611   3.846125   1.508027   2.116107
    13  C    2.513817   4.274736   4.966123   2.472430   2.588527
    14  C    3.710419   1.488051   3.009691   3.902650   4.611058
    15  H    3.870830   2.136913   4.007091   4.574865   5.404993
    16  H    4.541779   2.159006   2.772905   4.250116   4.913670
    17  H    4.164487   2.136815   3.368270   4.409028   4.934649
    18  C    5.186572   3.800899   1.500186   2.919778   2.687696
    19  H    6.176987   4.579067   2.178074   3.954932   3.765149
    20  H    5.038442   4.060430   2.175710   2.617841   2.423320
    21  H    5.454293   4.291478   2.147591   3.197863   2.602832
    22  C    3.095007   5.307847   6.349528   3.900600   4.028405
    23  H    3.248685   5.591891   6.847507   4.379080   4.715696
    24  H    3.048315   5.281004   6.532046   4.264545   4.376817
    25  H    4.127300   6.222288   6.994387   4.542643   4.458171
    26  C    1.494903   3.703463   5.736899   3.918337   4.612415
    27  H    2.153185   4.249941   6.193461   4.406548   4.901667
    28  H    2.163383   4.489844   6.372591   4.300091   4.990349
    29  H    2.147205   3.813953   6.094266   4.601601   5.401315
                   11         12         13         14         15
    11  H    0.000000
    12  C    2.127269   0.000000
    13  C    2.793710   1.457957   0.000000
    14  C    4.460578   4.295201   5.745435   0.000000
    15  H    5.048490   4.713828   6.159726   1.091898   0.000000
    16  H    4.635878   4.935420   6.367271   1.086968   1.753822
    17  H    5.136024   4.751622   6.149045   1.091300   1.767446
    18  C    2.981780   4.409333   5.189902   4.505282   5.480097
    19  H    3.882509   5.454014   6.243164   5.037348   5.999234
    20  H    2.327284   4.100964   4.701641   4.988625   5.859760
    21  H    3.472231   4.578895   5.183861   5.050509   6.080215
    22  C    4.242461   2.602016   1.505825   6.702479   6.961989
    23  H    4.551124   3.020349   2.161425   6.943175   7.052501
    24  H    4.824585   2.885612   2.181656   6.571388   6.799900
    25  H    4.804780   3.444420   2.090879   7.647191   7.973661
    26  C    4.451974   2.565795   3.160482   4.721854   4.606084
    27  H    5.094410   3.023057   3.386585   5.217165   5.175723
    28  H    4.622630   2.880079   3.083247   5.587455   5.439322
    29  H    5.100037   3.421315   4.197074   4.534614   4.177135
                   16         17         18         19         20
    16  H    0.000000
    17  H    1.744124   0.000000
    18  C    4.194266   4.841206   0.000000
    19  H    4.508628   5.369793   1.089668   0.000000
    20  H    4.747537   5.480152   1.090428   1.745173   0.000000
    21  H    4.872373   5.192296   1.094251   1.749518   1.743172
    22  C    7.459545   7.036523   6.666809   7.730481   6.206871
    23  H    7.702060   7.388213   7.237720   8.270971   6.709846
    24  H    7.430752   6.762878   7.004736   8.089312   6.699266
    25  H    8.361239   7.952458   7.114288   8.163694   6.590667
    26  C    5.659382   5.087173   6.678522   7.671765   6.504563
    27  H    6.218520   5.372427   7.110939   8.141393   7.013390
    28  H    6.451764   6.058450   7.172864   8.166138   6.842546
    29  H    5.498491   4.915792   7.192839   8.122455   7.091720
                   21         22         23         24         25
    21  H    0.000000
    22  C    6.608941   0.000000
    23  H    7.317607   1.089859   0.000000
    24  H    6.880381   1.087570   1.759812   0.000000
    25  H    6.949058   1.087531   1.762585   1.771873   0.000000
    26  C    6.906740   3.004194   2.853736   2.695798   4.081951
    27  H    7.184602   2.947474   3.017987   2.262763   3.933608
    28  H    7.430490   2.648997   2.131474   2.593100   3.675067
    29  H    7.515289   4.070793   3.800432   3.729118   5.143388
                   26         27         28         29
    26  C    0.000000
    27  H    1.089676   0.000000
    28  H    1.085187   1.759905   0.000000
    29  H    1.090180   1.744633   1.735326   0.000000
 Stoichiometry    C11H15NO2
 Framework group  C1[X(C11H15NO2)]
 Deg. of freedom    81
 Full point group                 C1      NOp   1
 Largest Abelian subgroup         C1      NOp   1
 Largest concise Abelian subgroup C1      NOp   1
                         Standard orientation:                         
 ---------------------------------------------------------------------
 Center     Atomic      Atomic             Coordinates (Angstroms)
 Number     Number       Type             X           Y           Z
 ---------------------------------------------------------------------
      1          8           0        2.267870   -2.301544   -0.101041
      2          8           0       -3.636507   -0.220962    0.296377
      3          7           0        0.041687    1.803245   -0.165141
      4          1           0        0.071993    2.808998   -0.156093
      5          6           0       -1.290540   -0.136252   -0.054846
      6          6           0        1.236971    1.137946   -0.090030
      7          6           0       -1.200753    1.214301   -0.058094
      8          6           0       -2.557612   -0.809304    0.080345
      9          6           0       -0.053216   -0.972660   -0.253028
     10          1           0       -0.050618   -1.804713    0.450389
     11          1           0       -0.060091   -1.428480   -1.249788
     12          6           0        1.238598   -0.213529   -0.082495
     13          6           0        2.400456   -1.087256    0.028528
     14          6           0       -2.318045    2.190721    0.053972
     15          1           0       -2.061892    3.133690   -0.433302
     16          1           0       -3.240360    1.835278   -0.398239
     17          1           0       -2.548825    2.401019    1.099654
     18          6           0       -2.644829   -2.301570   -0.046519
     19          1           0       -3.630765   -2.656111   -0.345862
     20          1           0       -1.938080   -2.715278   -0.766508
     21          1           0       -2.417539   -2.786075    0.907933
     22          6           0        3.782513   -0.571480    0.330851
     23          1           0        4.222135   -0.066250   -0.528956
     24          1           0        3.815595    0.115148    1.173618
     25          1           0        4.391577   -1.443338    0.558069
     26          6           0        2.401681    2.072778   -0.024656
     27          1           0        2.815751    2.135896    0.981304
     28          1           0        3.204158    1.798438   -0.701708
     29          1           0        2.112897    3.086939   -0.301372
 ---------------------------------------------------------------------
 Rotational constants (GHZ):           1.0944382           0.4871695           0.3430034
 Leave Link  202 at Fri Jan 23 16:07:29 2026, MaxMem=  2147483648 cpu:               0.0 elap:               0.0
 (Enter /data/home/wyx/g16/l301.exe)
 Standard basis: TZVP (5D, 7F)
 Ernie: Thresh=  0.10000D-02 Tol=  0.10000D-05 Strict=F.
 There are   370 symmetry adapted cartesian basis functions of A   symmetry.
 There are   356 symmetry adapted basis functions of A   symmetry.
   356 basis functions,   610 primitive gaussians,   370 cartesian basis functions
    52 alpha electrons       52 beta electrons
       nuclear repulsion energy       900.6037425925 Hartrees.
 IExCor=20419 DFT=T Ex+Corr=CAM-B3LYP ExCW=0 ScaHFX=  1.000000
 ScaDFX=  1.000000  1.000000  1.000000  0.810000 ScalE2=  1.000000  1.000000
 IRadAn=      5 IRanWt=     -1 IRanGd=            0 ICorTp=0 IEmpDi=141
 HFx  wShort=  0.000000 wLong=  0.330000 cFull=  0.190000 cShort=  0.000000 cLong=  0.460000
 DFx  wShort=  0.000000 wLong=  0.330000 cFull=  0.190000 cShort=  0.000000 cLong=  0.460000
 NAtoms=   29 NActive=   29 NUniq=   29 SFac= 1.00D+00 NAtFMM=   60 NAOKFM=F Big=F
 Integral buffers will be    131072 words long.
 Raffenetti 1 integral format.
 Two-electron integral symmetry is turned on.
 R6Disp:  Grimme-D3(BJ) Dispersion energy=       -0.0261622880 Hartrees.
 Nuclear repulsion after empirical dispersion term =      900.5775803045 Hartrees.
 ------------------------------------------------------------------------------
 Polarizable Continuum Model (PCM)
 =================================
 Model                : PCM.
 Atomic radii         : UFF (Universal Force Field).
 Polarization charges : Total charges.
 Charge compensation  : None.
 Solution method      : On-the-fly selection.
 Cavity type          : Scaled VdW (van der Waals Surface) (Alpha=1.100).
 Cavity algorithm     : GePol (No added spheres)
                        Default sphere list used, NSphG=   29.
                        Lebedev-Laikov grids with approx.  5.0 points / Ang**2.
                        Smoothing algorithm: York/Karplus (Gamma=1.0000).
                        Polarization charges: spherical gaussians, with
                                              point-specific exponents (IZeta= 3).
                        Self-potential: point-specific (ISelfS= 7).
                        Self-field    : sphere-specific E.n sum rule (ISelfD= 2).
 Solvent              : TetraHydroFuran, Eps=   7.425700 Eps(inf)=   1.974025
 ------------------------------------------------------------------------------
 GePol: Number of generator spheres                  =      29
 GePol: Total number of spheres                      =      29
 GePol: Number of exposed spheres                    =      29 (100.00%)
 GePol: Number of points                             =    2114
 GePol: Average weight of points                     =       0.13
 GePol: Minimum weight of points                     =   0.28D-11
 GePol: Maximum weight of points                     =    0.20577
 GePol: Number of points with low weight             =     158
 GePol: Fraction of low-weight points (<1% of avg)   =       7.47%
 GePol: Cavity surface area                          =    268.870 Ang**2
 GePol: Cavity volume                                =    286.500 Ang**3
 Leave Link  301 at Fri Jan 23 16:07:29 2026, MaxMem=  2147483648 cpu:               0.6 elap:               0.0
 (Enter /data/home/wyx/g16/l302.exe)
 NPDir=0 NMtPBC=     1 NCelOv=     1 NCel=       1 NClECP=     1 NCelD=      1
         NCelK=      1 NCelE2=     1 NClLst=     1 CellRange=     0.0.
 One-electron integrals computed using PRISM.
 One-electron integral symmetry used in STVInt
 NBasis=   356 RedAO= T EigKep=  4.06D-05  NBF=   356
 NBsUse=   356 1.00D-06 EigRej= -1.00D+00 NBFU=   356
 Precomputing XC quadrature grid using
 IXCGrd= 4 IRadAn=           5 IRanWt=          -1 IRanGd=           0 AccXCQ= 0.00D+00.
 Generated NRdTot=       0 NPtTot=           0 NUsed=           0 NTot=          32
 NSgBfM=   366   366   366   366   366 MxSgAt=    29 MxSgA2=    29.
 Leave Link  302 at Fri Jan 23 16:07:30 2026, MaxMem=  2147483648 cpu:               3.1 elap:               0.2
 (Enter /data/home/wyx/g16/l303.exe)
 DipDrv:  MaxL=1.
 Leave Link  303 at Fri Jan 23 16:07:30 2026, MaxMem=  2147483648 cpu:               0.6 elap:               0.0
 (Enter /data/home/wyx/g16/l308.exe)
 Leave Link  308 at Fri Jan 23 16:07:30 2026, MaxMem=  2147483648 cpu:               0.7 elap:               0.1
 (Enter /data/home/wyx/g16/l401.exe)
 ExpMin= 9.52D-02 ExpMax= 2.70D+04 ExpMxC= 9.22D+02 IAcc=3 IRadAn=         5 AccDes= 0.00D+00
 Harris functional with IExCor=20419 and IRadAn=       5 diagonalized for initial guess.
 HarFok:  IExCor=20419 AccDes= 0.00D+00 IRadAn=         5 IDoV= 1 UseB2=F ITyADJ=14
 ICtDFT=  3500011 ScaDFX=  1.000000  1.000000  1.000000  1.000000
 FoFCou: FMM=F IPFlag=           0 FMFlag=      100000 FMFlg1=           0
         NFxFlg=           0 DoJE=T BraDBF=F KetDBF=T FulRan=T
         wScrn=  0.000000 ICntrl=       500 IOpCl=  0 I1Cent=   200000004 NGrid=           0
         NMat0=    1 NMatS0=      1 NMatT0=    0 NMatD0=    1 NMtDS0=    0 NMtDT0=    0
 Petite list used in FoFCou.
 Harris En= -608.710165805002    
 JPrj=0 DoOrth=F DoCkMO=F.
 Leave Link  401 at Fri Jan 23 16:07:31 2026, MaxMem=  2147483648 cpu:              11.7 elap:               0.7
 (Enter /data/home/wyx/g16/l502.exe)
 Integral symmetry usage will be decided dynamically.
 Closed shell SCF:
 Using DIIS extrapolation, IDIIS=  1040.
 NGot=  2147483648 LenX=  2147200095 LenY=  2147062754
 Requested convergence on RMS density matrix=1.00D-08 within 128 cycles.
 Requested convergence on MAX density matrix=1.00D-06.
 Requested convergence on             energy=1.00D-06.
 No special actions if energy rises.
 Fock matrices will be formed incrementally for  20 cycles.

 Cycle   1  Pass 1  IDiag  1:
 FoFJK:  IHMeth= 1 ICntrl=       0 DoSepK=T KAlg= 0 I1Cent=           0 FoldK=F
 IRaf=         1 NMat=       1 IRICut=       1 DoRegI=T DoRafI=F ISym2E= 0 IDoP0=0 IntGTp=1.
 FoFCou: FMM=F IPFlag=           0 FMFlag=      100000 FMFlg1=           0
         NFxFlg=           0 DoJE=T BraDBF=F KetDBF=F FulRan=T
         wScrn=  0.000000 ICntrl=       500 IOpCl=  0 I1Cent=           0 NGrid=           0
         NMat0=    1 NMatS0=      1 NMatT0=    0 NMatD0=    1 NMtDS0=    0 NMtDT0=    0
 Symmetry not used in FoFCou.
 Inv3:  Mode=1 IEnd=    13406988.
 Iteration    1 A*A^-1 deviation from unit magnitude is 3.77D-15 for    875.
 Iteration    1 A*A^-1 deviation from orthogonality  is 1.55D-15 for   1316    440.
 Iteration    1 A^-1*A deviation from unit magnitude is 3.55D-15 for    221.
 Iteration    1 A^-1*A deviation from orthogonality  is 1.93D-15 for   1775    620.
 E= -633.125741171648    
 DIIS: error= 4.11D-02 at cycle   1 NSaved=   1.
 NSaved= 1 IEnMin= 1 EnMin= -633.125741171648     IErMin= 1 ErrMin= 4.11D-02
 ErrMax= 4.11D-02  0.00D+00 EMaxC= 1.00D-01 BMatC= 1.10D+00 BMatP= 1.10D+00
 IDIUse=3 WtCom= 5.89D-01 WtEn= 4.11D-01
 Coeff-Com:  0.100D+01
 Coeff-En:   0.100D+01
 Coeff:      0.100D+01
 Gap=     0.229 Goal=   None    Shift=    0.000
 GapD=    0.229 DampG=1.000 DampE=0.500 DampFc=0.5000 IDamp=-1.
 Damping current iteration by 5.00D-01
 RMSDP=4.13D-03 MaxDP=1.52D-01              OVMax= 1.48D-01

 Cycle   2  Pass 1  IDiag  1:
 RMSU=  1.81D-03    CP:  9.28D-01
 E= -633.221924220152     Delta-E=       -0.096183048504 Rises=F Damp=T
 DIIS: error= 1.84D-02 at cycle   2 NSaved=   2.
 NSaved= 2 IEnMin= 2 EnMin= -633.221924220152     IErMin= 2 ErrMin= 1.84D-02
 ErrMax= 1.84D-02  0.00D+00 EMaxC= 1.00D-01 BMatC= 2.24D-01 BMatP= 1.10D+00
 IDIUse=3 WtCom= 8.16D-01 WtEn= 1.84D-01
 Coeff-Com: -0.593D+00 0.159D+01
 Coeff-En:   0.000D+00 0.100D+01
 Coeff:     -0.484D+00 0.148D+01
 Gap=     0.241 Goal=   None    Shift=    0.000
 RMSDP=1.59D-03 MaxDP=5.10D-02 DE=-9.62D-02 OVMax= 1.40D-01

 Cycle   3  Pass 1  IDiag  1:
 RMSU=  1.47D-03    CP:  8.99D-01  1.25D+00
 E= -633.270027998987     Delta-E=       -0.048103778836 Rises=F Damp=F
 DIIS: error= 1.31D-02 at cycle   3 NSaved=   3.
 NSaved= 3 IEnMin= 3 EnMin= -633.270027998987     IErMin= 3 ErrMin= 1.31D-02
 ErrMax= 1.31D-02  0.00D+00 EMaxC= 1.00D-01 BMatC= 6.53D-02 BMatP= 2.24D-01
 IDIUse=3 WtCom= 8.69D-01 WtEn= 1.31D-01
 Coeff-Com: -0.366D+00 0.802D+00 0.564D+00
 Coeff-En:   0.000D+00 0.000D+00 0.100D+01
 Coeff:     -0.318D+00 0.697D+00 0.621D+00
 Gap=     0.240 Goal=   None    Shift=    0.000
 RMSDP=1.43D-03 MaxDP=7.58D-02 DE=-4.81D-02 OVMax= 8.00D-02

 Cycle   4  Pass 1  IDiag  1:
 RMSU=  5.52D-04    CP:  8.49D-01  1.74D+00  5.31D-01
 E= -633.318852567831     Delta-E=       -0.048824568844 Rises=F Damp=F
 DIIS: error= 4.35D-03 at cycle   4 NSaved=   4.
 NSaved= 4 IEnMin= 4 EnMin= -633.318852567831     IErMin= 4 ErrMin= 4.35D-03
 ErrMax= 4.35D-03  0.00D+00 EMaxC= 1.00D-01 BMatC= 7.43D-03 BMatP= 6.53D-02
 IDIUse=3 WtCom= 9.56D-01 WtEn= 4.35D-02
 Coeff-Com: -0.167D+00 0.363D+00 0.362D+00 0.443D+00
 Coeff-En:   0.000D+00 0.000D+00 0.303D-01 0.970D+00
 Coeff:     -0.160D+00 0.347D+00 0.348D+00 0.466D+00
 Gap=     0.234 Goal=   None    Shift=    0.000
 RMSDP=3.59D-04 MaxDP=2.20D-02 DE=-4.88D-02 OVMax= 1.70D-02

 Cycle   5  Pass 1  IDiag  1:
 RMSU=  1.03D-04    CP:  8.61D-01  1.67D+00  6.69D-01  6.69D-01
 E= -633.324580390205     Delta-E=       -0.005727822374 Rises=F Damp=F
 DIIS: error= 4.31D-04 at cycle   5 NSaved=   5.
 NSaved= 5 IEnMin= 5 EnMin= -633.324580390205     IErMin= 5 ErrMin= 4.31D-04
 ErrMax= 4.31D-04  0.00D+00 EMaxC= 1.00D-01 BMatC= 7.63D-05 BMatP= 7.43D-03
 IDIUse=3 WtCom= 9.96D-01 WtEn= 4.31D-03
 Coeff-Com: -0.295D-01 0.631D-01 0.762D-01 0.152D+00 0.738D+00
 Coeff-En:   0.000D+00 0.000D+00 0.000D+00 0.000D+00 0.100D+01
 Coeff:     -0.294D-01 0.628D-01 0.759D-01 0.151D+00 0.739D+00
 Gap=     0.235 Goal=   None    Shift=    0.000
 RMSDP=1.29D-04 MaxDP=6.59D-03 DE=-5.73D-03 OVMax= 2.19D-03

 Cycle   6  Pass 1  IDiag  1:
 RMSU=  5.10D-05    CP:  8.55D-01  1.70D+00  6.72D-01  7.98D-01  1.10D+00
 E= -633.324626129052     Delta-E=       -0.000045738848 Rises=F Damp=F
 DIIS: error= 4.24D-04 at cycle   6 NSaved=   6.
 NSaved= 6 IEnMin= 6 EnMin= -633.324626129052     IErMin= 6 ErrMin= 4.24D-04
 ErrMax= 4.24D-04  0.00D+00 EMaxC= 1.00D-01 BMatC= 2.68D-05 BMatP= 7.63D-05
 IDIUse=3 WtCom= 9.96D-01 WtEn= 4.24D-03
 Coeff-Com:  0.175D-01-0.382D-01-0.297D-01-0.640D-02 0.439D+00 0.618D+00
 Coeff-En:   0.000D+00 0.000D+00 0.000D+00 0.000D+00 0.148D+00 0.852D+00
 Coeff:      0.174D-01-0.381D-01-0.296D-01-0.637D-02 0.437D+00 0.619D+00
 Gap=     0.235 Goal=   None    Shift=    0.000
 RMSDP=2.66D-05 MaxDP=1.43D-03 DE=-4.57D-05 OVMax= 2.89D-03

 Cycle   7  Pass 1  IDiag  1:
 RMSU=  1.91D-05    CP:  8.55D-01  1.70D+00  6.75D-01  7.95D-01  1.22D+00
                    CP:  7.80D-01
 E= -633.324650544307     Delta-E=       -0.000024415254 Rises=F Damp=F
 DIIS: error= 4.10D-05 at cycle   7 NSaved=   7.
 NSaved= 7 IEnMin= 7 EnMin= -633.324650544307     IErMin= 7 ErrMin= 4.10D-05
 ErrMax= 4.10D-05  0.00D+00 EMaxC= 1.00D-01 BMatC= 9.14D-07 BMatP= 2.68D-05
 IDIUse=1 WtCom= 1.00D+00 WtEn= 0.00D+00
 Coeff-Com:  0.423D-02-0.913D-02-0.810D-02-0.107D-01 0.785D-02 0.152D+00
 Coeff-Com:  0.863D+00
 Coeff:      0.423D-02-0.913D-02-0.810D-02-0.107D-01 0.785D-02 0.152D+00
 Coeff:      0.863D+00
 Gap=     0.235 Goal=   None    Shift=    0.000
 RMSDP=1.70D-05 MaxDP=7.03D-04 DE=-2.44D-05 OVMax= 5.90D-04

 Cycle   8  Pass 1  IDiag  1:
 RMSU=  5.42D-06    CP:  8.55D-01  1.70D+00  6.77D-01  8.12D-01  1.27D+00
                    CP:  9.07D-01  1.04D+00
 E= -633.324651872939     Delta-E=       -0.000001328632 Rises=F Damp=F
 DIIS: error= 2.40D-05 at cycle   8 NSaved=   8.
 NSaved= 8 IEnMin= 8 EnMin= -633.324651872939     IErMin= 8 ErrMin= 2.40D-05
 ErrMax= 2.40D-05  0.00D+00 EMaxC= 1.00D-01 BMatC= 1.29D-07 BMatP= 9.14D-07
 IDIUse=1 WtCom= 1.00D+00 WtEn= 0.00D+00
 Coeff-Com: -0.331D-03 0.782D-03 0.151D-03-0.465D-02-0.607D-01-0.957D-02
 Coeff-Com:  0.315D+00 0.759D+00
 Coeff:     -0.331D-03 0.782D-03 0.151D-03-0.465D-02-0.607D-01-0.957D-02
 Coeff:      0.315D+00 0.759D+00
 Gap=     0.235 Goal=   None    Shift=    0.000
 RMSDP=5.04D-06 MaxDP=2.70D-04 DE=-1.33D-06 OVMax= 3.77D-04

 Cycle   9  Pass 1  IDiag  1:
 RMSU=  1.64D-06    CP:  8.55D-01  1.71D+00  6.77D-01  8.17D-01  1.28D+00
                    CP:  9.37D-01  1.15D+00  1.16D+00
 E= -633.324652077760     Delta-E=       -0.000000204821 Rises=F Damp=F
 DIIS: error= 5.15D-06 at cycle   9 NSaved=   9.
 NSaved= 9 IEnMin= 9 EnMin= -633.324652077760     IErMin= 9 ErrMin= 5.15D-06
 ErrMax= 5.15D-06  0.00D+00 EMaxC= 1.00D-01 BMatC= 1.98D-08 BMatP= 1.29D-07
 IDIUse=1 WtCom= 1.00D+00 WtEn= 0.00D+00
 Coeff-Com: -0.855D-03 0.187D-02 0.154D-02 0.465D-04-0.244D-01-0.207D-01
 Coeff-Com: -0.214D-01 0.291D+00 0.773D+00
 Coeff:     -0.855D-03 0.187D-02 0.154D-02 0.465D-04-0.244D-01-0.207D-01
 Coeff:     -0.214D-01 0.291D+00 0.773D+00
 Gap=     0.235 Goal=   None    Shift=    0.000
 RMSDP=1.82D-06 MaxDP=6.60D-05 DE=-2.05D-07 OVMax= 1.18D-04

 Cycle  10  Pass 1  IDiag  1:
 RMSU=  8.03D-07    CP:  8.55D-01  1.71D+00  6.77D-01  8.18D-01  1.29D+00
                    CP:  9.53D-01  1.18D+00  1.29D+00  1.00D+00
 E= -633.324652104484     Delta-E=       -0.000000026724 Rises=F Damp=F
 DIIS: error= 2.62D-06 at cycle  10 NSaved=  10.
 NSaved=10 IEnMin=10 EnMin= -633.324652104484     IErMin=10 ErrMin= 2.62D-06
 ErrMax= 2.62D-06  0.00D+00 EMaxC= 1.00D-01 BMatC= 2.71D-09 BMatP= 1.98D-08
 IDIUse=1 WtCom= 1.00D+00 WtEn= 0.00D+00
 Coeff-Com: -0.377D-03 0.817D-03 0.731D-03 0.397D-03-0.647D-02-0.798D-02
 Coeff-Com: -0.416D-01 0.691D-01 0.355D+00 0.630D+00
 Coeff:     -0.377D-03 0.817D-03 0.731D-03 0.397D-03-0.647D-02-0.798D-02
 Coeff:     -0.416D-01 0.691D-01 0.355D+00 0.630D+00
 Gap=     0.235 Goal=   None    Shift=    0.000
 RMSDP=5.59D-07 MaxDP=3.63D-05 DE=-2.67D-08 OVMax= 2.67D-05

 Cycle  11  Pass 1  IDiag  1:
 RMSU=  2.62D-07    CP:  8.55D-01  1.71D+00  6.77D-01  8.19D-01  1.29D+00
                    CP:  9.56D-01  1.18D+00  1.31D+00  1.16D+00  9.32D-01
 E= -633.324652107135     Delta-E=       -0.000000002651 Rises=F Damp=F
 DIIS: error= 1.14D-06 at cycle  11 NSaved=  11.
 NSaved=11 IEnMin=11 EnMin= -633.324652107135     IErMin=11 ErrMin= 1.14D-06
 ErrMax= 1.14D-06  0.00D+00 EMaxC= 1.00D-01 BMatC= 4.91D-10 BMatP= 2.71D-09
 IDIUse=1 WtCom= 1.00D+00 WtEn= 0.00D+00
 Coeff-Com:  0.118D-04-0.288D-04 0.381D-05 0.132D-03 0.197D-02 0.124D-02
 Coeff-Com: -0.161D-01-0.264D-01 0.344D-02 0.321D+00 0.715D+00
 Coeff:      0.118D-04-0.288D-04 0.381D-05 0.132D-03 0.197D-02 0.124D-02
 Coeff:     -0.161D-01-0.264D-01 0.344D-02 0.321D+00 0.715D+00
 Gap=     0.235 Goal=   None    Shift=    0.000
 RMSDP=2.37D-07 MaxDP=1.36D-05 DE=-2.65D-09 OVMax= 1.40D-05

 Cycle  12  Pass 1  IDiag  1:
 RMSU=  1.25D-07    CP:  8.55D-01  1.71D+00  6.76D-01  8.19D-01  1.29D+00
                    CP:  9.57D-01  1.18D+00  1.34D+00  1.14D+00  1.05D+00
                    CP:  8.48D-01
 E= -633.324652107675     Delta-E=       -0.000000000540 Rises=F Damp=F
 DIIS: error= 2.75D-07 at cycle  12 NSaved=  12.
 NSaved=12 IEnMin=12 EnMin= -633.324652107675     IErMin=12 ErrMin= 2.75D-07
 ErrMax= 2.75D-07  0.00D+00 EMaxC= 1.00D-01 BMatC= 3.47D-11 BMatP= 4.91D-10
 IDIUse=1 WtCom= 1.00D+00 WtEn= 0.00D+00
 Coeff-Com:  0.266D-04-0.590D-04-0.403D-04 0.353D-04 0.125D-02 0.104D-02
 Coeff-Com: -0.364D-02-0.150D-01-0.285D-01 0.784D-01 0.290D+00 0.676D+00
 Coeff:      0.266D-04-0.590D-04-0.403D-04 0.353D-04 0.125D-02 0.104D-02
 Coeff:     -0.364D-02-0.150D-01-0.285D-01 0.784D-01 0.290D+00 0.676D+00
 Gap=     0.235 Goal=   None    Shift=    0.000
 RMSDP=5.05D-08 MaxDP=2.15D-06 DE=-5.40D-10 OVMax= 3.52D-06

 Cycle  13  Pass 1  IDiag  1:
 RMSU=  2.69D-08    CP:  8.55D-01  1.71D+00  6.76D-01  8.19D-01  1.29D+00
                    CP:  9.57D-01  1.18D+00  1.34D+00  1.15D+00  1.07D+00
                    CP:  9.30D-01  1.04D+00
 E= -633.324652107728     Delta-E=       -0.000000000053 Rises=F Damp=F
 DIIS: error= 1.25D-07 at cycle  13 NSaved=  13.
 NSaved=13 IEnMin=13 EnMin= -633.324652107728     IErMin=13 ErrMin= 1.25D-07
 ErrMax= 1.25D-07  0.00D+00 EMaxC= 1.00D-01 BMatC= 3.48D-12 BMatP= 3.47D-11
 IDIUse=1 WtCom= 1.00D+00 WtEn= 0.00D+00
 Coeff-Com:  0.570D-05-0.120D-04-0.133D-04-0.167D-04-0.201D-04 0.493D-04
 Coeff-Com:  0.190D-02 0.137D-02-0.950D-02-0.352D-01-0.508D-01 0.165D+00
 Coeff-Com:  0.927D+00
 Coeff:      0.570D-05-0.120D-04-0.133D-04-0.167D-04-0.201D-04 0.493D-04
 Coeff:      0.190D-02 0.137D-02-0.950D-02-0.352D-01-0.508D-01 0.165D+00
 Coeff:      0.927D+00
 Gap=     0.235 Goal=   None    Shift=    0.000
 RMSDP=3.12D-08 MaxDP=1.27D-06 DE=-5.32D-11 OVMax= 3.03D-06

 Cycle  14  Pass 1  IDiag  1:
 RMSU=  1.51D-08    CP:  8.55D-01  1.71D+00  6.76D-01  8.19D-01  1.29D+00
                    CP:  9.57D-01  1.18D+00  1.34D+00  1.15D+00  1.09D+00
                    CP:  9.52D-01  1.21D+00  1.20D+00
 E= -633.324652107748     Delta-E=       -0.000000000020 Rises=F Damp=F
 DIIS: error= 5.19D-08 at cycle  14 NSaved=  14.
 NSaved=14 IEnMin=14 EnMin= -633.324652107748     IErMin=14 ErrMin= 5.19D-08
 ErrMax= 5.19D-08  0.00D+00 EMaxC= 1.00D-01 BMatC= 3.46D-13 BMatP= 3.48D-12
 IDIUse=1 WtCom= 1.00D+00 WtEn= 0.00D+00
 Coeff-Com: -0.225D-05 0.505D-05 0.310D-05-0.505D-05-0.132D-03-0.981D-04
 Coeff-Com:  0.538D-03 0.182D-02 0.239D-02-0.981D-02-0.361D-01-0.665D-01
 Coeff-Com:  0.258D-01 0.108D+01
 Coeff:     -0.225D-05 0.505D-05 0.310D-05-0.505D-05-0.132D-03-0.981D-04
 Coeff:      0.538D-03 0.182D-02 0.239D-02-0.981D-02-0.361D-01-0.665D-01
 Coeff:      0.258D-01 0.108D+01
 Gap=     0.235 Goal=   None    Shift=    0.000
 RMSDP=1.29D-08 MaxDP=6.20D-07 DE=-1.97D-11 OVMax= 1.62D-06

 Cycle  15  Pass 1  IDiag  1:
 RMSU=  5.18D-09    CP:  8.55D-01  1.71D+00  6.76D-01  8.19D-01  1.29D+00
                    CP:  9.57D-01  1.18D+00  1.34D+00  1.15D+00  1.09D+00
                    CP:  9.54D-01  1.27D+00  1.41D+00  1.35D+00
 E= -633.324652107750     Delta-E=       -0.000000000001 Rises=F Damp=F
 DIIS: error= 1.90D-08 at cycle  15 NSaved=  15.
 NSaved=15 IEnMin=15 EnMin= -633.324652107750     IErMin=15 ErrMin= 1.90D-08
 ErrMax= 1.90D-08  0.00D+00 EMaxC= 1.00D-01 BMatC= 1.05D-13 BMatP= 3.46D-13
 IDIUse=1 WtCom= 1.00D+00 WtEn= 0.00D+00
 Coeff-Com: -0.164D-05 0.354D-05 0.308D-05 0.641D-06-0.441D-04-0.492D-04
 Coeff-Com: -0.123D-03 0.316D-03 0.229D-02 0.224D-02-0.528D-02-0.482D-01
 Coeff-Com: -0.150D+00 0.375D+00 0.823D+00
 Coeff:     -0.164D-05 0.354D-05 0.308D-05 0.641D-06-0.441D-04-0.492D-04
 Coeff:     -0.123D-03 0.316D-03 0.229D-02 0.224D-02-0.528D-02-0.482D-01
 Coeff:     -0.150D+00 0.375D+00 0.823D+00
 Gap=     0.235 Goal=   None    Shift=    0.000
 RMSDP=5.31D-09 MaxDP=1.51D-07 DE=-1.48D-12 OVMax= 6.45D-07

 Error on total polarization charges =  0.01443
 SCF Done:  E(RCAM-B3LYP) =  -633.324652108     A.U. after   15 cycles
            NFock= 15  Conv=0.53D-08     -V/T= 2.0041
 KE= 6.307390896863D+02 PE=-3.277225150863D+03 EE= 1.112583828765D+03
 Leave Link  502 at Fri Jan 23 16:08:30 2026, MaxMem=  2147483648 cpu:             932.4 elap:              58.7
 (Enter /data/home/wyx/g16/l801.exe)
 DoSCS=F DFT=T ScalE2(SS,OS)=  1.000000  1.000000
 ExpMin= 9.52D-02 ExpMax= 2.70D+04 ExpMxC= 9.22D+02 IAcc=3 IRadAn=         5 AccDes= 0.00D+00
 HarFok:  IExCor=  205 AccDes= 0.00D+00 IRadAn=         5 IDoV=-2 UseB2=F ITyADJ=14
 ICtDFT= 12500011 ScaDFX=  1.000000  1.000000  1.000000  1.000000
 Largest valence mixing into a core orbital is  5.63D-05
 Largest core mixing into a valence orbital is  1.17D-05
 Range of M.O.s used for correlation:    15   356
 NBasis=   356 NAE=    52 NBE=    52 NFC=    14 NFV=     0
 NROrb=    342 NOA=    38 NOB=    38 NVA=   304 NVB=   304

 **** Warning!!: The largest alpha MO coefficient is  0.42110169D+02

 Leave Link  801 at Fri Jan 23 16:08:30 2026, MaxMem=  2147483648 cpu:               1.0 elap:               0.1
 (Enter /data/home/wyx/g16/l914.exe)
 RHF ground state
 Two-electron integrals replicated using symmetry.
 MDV=  2147483648 DFT=T DoStab=F Mixed=T DoRPA=T DoScal=F NonHer=T
 NEqPCM:  Using non-equilibrium solvation (IEInf=1, Eps=   7.4257, EpsInf=   1.9740)
 Inv3:  Mode=1 IEnd=    13406988.
 Iteration    1 A*A^-1 deviation from unit magnitude is 3.22D-15 for    874.
 Iteration    1 A*A^-1 deviation from orthogonality  is 1.74D-15 for   1789    224.
 Iteration    1 A^-1*A deviation from unit magnitude is 3.44D-15 for    888.
 Iteration    1 A^-1*A deviation from orthogonality  is 2.09D-15 for   1403    944.
 Making orbital integer symmetry assigments:
 Orbital symmetries:
       Occupied  (A) (A) (A) (A) (A) (A) (A) (A) (A) (A) (A) (A)
                 (A) (A) (A) (A) (A) (A) (A) (A) (A) (A) (A) (A)
                 (A) (A) (A) (A) (A) (A) (A) (A) (A) (A) (A) (A)
                 (A) (A) (A) (A) (A) (A) (A) (A) (A) (A) (A) (A)
                 (A) (A) (A) (A)
       Virtual   (A) (A) (A) (A) (A) (A) (A) (A) (A) (A) (A) (A)
                 (A) (A) (A) (A) (A) (A) (A) (A) (A) (A) (A) (A)
                 (A) (A) (A) (A) (A) (A) (A) (A) (A) (A) (A) (A)
                 (A) (A) (A) (A) (A) (A) (A) (A) (A) (A) (A) (A)
                 (A) (A) (A) (A) (A) (A) (A) (A) (A) (A) (A) (A)
                 (A) (A) (A) (A) (A) (A) (A) (A) (A) (A) (A) (A)
                 (A) (A) (A) (A) (A) (A) (A) (A) (A) (A) (A) (A)
                 (A) (A) (A) (A) (A) (A) (A) (A) (A) (A) (A) (A)
                 (A) (A) (A) (A) (A) (A) (A) (A) (A) (A) (A) (A)
                 (A) (A) (A) (A) (A) (A) (A) (A) (A) (A) (A) (A)
                 (A) (A) (A) (A) (A) (A) (A) (A) (A) (A) (A) (A)
                 (A) (A) (A) (A) (A) (A) (A) (A) (A) (A) (A) (A)
                 (A) (A) (A) (A) (A) (A) (A) (A) (A) (A) (A) (A)
                 (A) (A) (A) (A) (A) (A) (A) (A) (A) (A) (A) (A)
                 (A) (A) (A) (A) (A) (A) (A) (A) (A) (A) (A) (A)
                 (A) (A) (A) (A) (A) (A) (A) (A) (A) (A) (A) (A)
                 (A) (A) (A) (A) (A) (A) (A) (A) (A) (A) (A) (A)
                 (A) (A) (A) (A) (A) (A) (A) (A) (A) (A) (A) (A)
                 (A) (A) (A) (A) (A) (A) (A) (A) (A) (A) (A) (A)
                 (A) (A) (A) (A) (A) (A) (A) (A) (A) (A) (A) (A)
                 (A) (A) (A) (A) (A) (A) (A) (A) (A) (A) (A) (A)
                 (A) (A) (A) (A) (A) (A) (A) (A) (A) (A) (A) (A)
                 (A) (A) (A) (A) (A) (A) (A) (A) (A) (A) (A) (A)
                 (A) (A) (A) (A) (A) (A) (A) (A) (A) (A) (A) (A)
                 (A) (A) (A) (A) (A) (A) (A) (A) (A) (A) (A) (A)
                 (A) (A) (A) (A)
    24 initial guesses have been made.
 Convergence on wavefunction:    0.001000000000000
 Davidson Disk Diagonalization:  ConvIn= 1.00D-03 SkipCon=T Conv= 1.00D-03.
 Max sub-space:  2000 roots to seek:    24 dimension of matrix:        23104
 Iteration     1 Dimension    24 NMult     0 NNew     24
 CISAX will form    24 AO SS matrices at one time.
 NMat=    24 NSing=    24 JSym2X= 0.
 FoFJK:  IHMeth= 1 ICntrl=       0 DoSepK=T KAlg= 0 I1Cent=           0 FoldK=F
 IRaf=         1 NMat=      48 IRICut=       1 DoRegI=T DoRafI=F ISym2E= 0 IDoP0=3 IntGTp=3.
 New state      3 was old state      4
 New state      4 was old state      3
 New state      5 was old state      6
 New state      6 was old state      5
 Excitation Energies [eV] at current iteration:
 Root      1 :     3.880338811548413
 Root      2 :     4.105190790625389
 Root      3 :     4.505907275615557
 Root      4 :     5.559279673976511
 Root      5 :     6.216539055160094
 Root      6 :     6.478642756202888
 Root      7 :     6.746816860607439
 Root      8 :     6.776743829243791
 Root      9 :     6.881926076463290
 Root     10 :     7.092871762673679
 Root     11 :     7.331707708532581
 Root     12 :     7.479091863817168
 Root     13 :     7.525450837303126
 Root     14 :     7.635984992545315
 Root     15 :     7.751030033062398
 Root     16 :     8.057401707876950
 Root     17 :     8.189630625199134
 Root     18 :     8.262718043189739
 Root     19 :     8.309652108938151
 Root     20 :     8.557627364102775
 Root     21 :     8.715116501462720
 Root     22 :     8.862823353568054
 Root     23 :     8.972727506097305
 Root     24 :     9.127098435407932
 Iteration     2 Dimension    36 NMult    24 NNew     12
 CISAX will form    12 AO SS matrices at one time.
 NMat=    12 NSing=    12 JSym2X= 0.
 Root      1 not converged, maximum delta is    0.109520081941325
 Root      2 not converged, maximum delta is    0.104169082508950
 Root      3 not converged, maximum delta is    0.097312593188224
 Root      4 not converged, maximum delta is    0.293727519269781
 New state      5 was old state      6
 Root      5 not converged, maximum delta is    0.259963423680351
 New state      6 was old state      5
 Root      6 not converged, maximum delta is    0.130694480602301
 Excitation Energies [eV] at current iteration:
 Root      1 :     3.449851980618143   Change is   -0.430486830930269
 Root      2 :     3.863577982267493   Change is   -0.241612808357897
 Root      3 :     4.244754272137388   Change is   -0.261153003478169
 Root      4 :     5.201472243355687   Change is   -0.357807430620824
 Root      5 :     5.682297538563479   Change is   -0.796345217639408
 Root      6 :     6.085277679973473   Change is   -0.131261375186622
 Iteration     3 Dimension    48 NMult    36 NNew     12
 CISAX will form    12 AO SS matrices at one time.
 NMat=    12 NSing=    12 JSym2X= 0.
 Root      1 not converged, maximum delta is    0.009655762057125
 Root      2 not converged, maximum delta is    0.010940953819616
 Root      3 not converged, maximum delta is    0.017042179390871
 Root      4 not converged, maximum delta is    0.022494418325373
 Root      5 not converged, maximum delta is    0.021847195279739
 Root      6 not converged, maximum delta is    0.017955576531527
 Excitation Energies [eV] at current iteration:
 Root      1 :     3.432745914500098   Change is   -0.017106066118045
 Root      2 :     3.851621642522278   Change is   -0.011956339745215
 Root      3 :     4.231106281263205   Change is   -0.013647990874182
 Root      4 :     5.178887756972100   Change is   -0.022584486383587
 Root      5 :     5.654989684041023   Change is   -0.027307854522456
 Root      6 :     6.076640121705746   Change is   -0.008637558267726
 Iteration     4 Dimension    60 NMult    48 NNew     12
 CISAX will form    12 AO SS matrices at one time.
 NMat=    12 NSing=    12 JSym2X= 0.
 Root      1 not converged, maximum delta is    0.002410609996888
 Root      2 not converged, maximum delta is    0.001818542122802
 Root      3 not converged, maximum delta is    0.002152056416962
 Root      4 not converged, maximum delta is    0.002804856998218
 Root      5 not converged, maximum delta is    0.003782789553873
 Root      6 not converged, maximum delta is    0.004207418568734
 Excitation Energies [eV] at current iteration:
 Root      1 :     3.431249005686282   Change is   -0.001496908813817
 Root      2 :     3.850703522208665   Change is   -0.000918120313612
 Root      3 :     4.230509073364809   Change is   -0.000597207898396
 Root      4 :     5.176717994798180   Change is   -0.002169762173920
 Root      5 :     5.651917989887614   Change is   -0.003071694153410
 Root      6 :     6.076031070549810   Change is   -0.000609051155936
 Iteration     5 Dimension    72 NMult    60 NNew     12
 CISAX will form    12 AO SS matrices at one time.
 NMat=    12 NSing=    12 JSym2X= 0.
 Root      1 has converged.
 Root      2 has converged.
 Root      3 has converged.
 Root      4 has converged.
 Root      5 not converged, maximum delta is    0.001037299087289
 Root      6 not converged, maximum delta is    0.001092586766608
 Excitation Energies [eV] at current iteration:
 Root      1 :     3.431167040155722   Change is   -0.000081965530560
 Root      2 :     3.850663048995565   Change is   -0.000040473213100
 Root      3 :     4.230470676556083   Change is   -0.000038396808727
 Root      4 :     5.176546145881484   Change is   -0.000171848916696
 Root      5 :     5.651653789169411   Change is   -0.000264200718203
 Root      6 :     6.075981944135942   Change is   -0.000049126413869
 Iteration     6 Dimension    76 NMult    72 NNew      4
 CISAX will form     4 AO SS matrices at one time.
 NMat=     4 NSing=     4 JSym2X= 0.
 Root      1 has converged.
 Root      2 has converged.
 Root      3 has converged.
 Root      4 has converged.
 Root      5 has converged.
 Root      6 has converged.
 Excitation Energies [eV] at current iteration:
 Root      1 :     3.431166763494957   Change is   -0.000000276660765
 Root      2 :     3.850662916855347   Change is   -0.000000132140218
 Root      3 :     4.230470570093530   Change is   -0.000000106462552
 Root      4 :     5.176539296248381   Change is   -0.000006849633102
 Root      5 :     5.651634393914671   Change is   -0.000019395254739
 Root      6 :     6.075977961469725   Change is   -0.000003982666216
 Convergence achieved on expansion vectors.
 ***********************************************************************
 Excited states from <AA,BB:AA,BB> singles matrix:
 ***********************************************************************
 
 1PDM for each excited state written to RWF  633
 Ground to excited state transition densities written to RWF  633
 Ground to excited state transition electric dipole moments (Au):
       state          X           Y           Z        Dip. S.      Osc.
         1         1.5008     -0.1078     -0.0296      2.2648      0.1904
         2         0.2316     -0.0331     -0.0441      0.0567      0.0053
         3        -0.0047     -0.0722      0.0376      0.0066      0.0007
         4        -0.0634     -1.3505      0.0856      1.8351      0.2327
         5         0.1737      1.4542     -0.0285      2.1457      0.2971
         6         0.0230      0.1598      0.0608      0.0298      0.0044
 Ground to excited state transition velocity dipole moments (Au):
       state          X           Y           Z        Dip. S.      Osc.
         1        -0.1820      0.0106      0.0039      0.0332      0.1757
         2        -0.0323      0.0038      0.0043      0.0011      0.0051
         3         0.0005      0.0107     -0.0024      0.0001      0.0005
         4         0.0158      0.2424     -0.0126      0.0592      0.2074
         5        -0.0357     -0.2957      0.0061      0.0887      0.2848
         6        -0.0063     -0.0326     -0.0330      0.0022      0.0065
 Ground to excited state transition magnetic dipole moments (Au):
       state          X           Y           Z
         1         0.0985     -0.0270      1.4544
         2        -0.7887      0.2614      0.4110
         3        -0.0430      0.9631      0.0725
         4         0.0418     -0.0505      0.2028
         5        -0.1998      0.0916     -0.2637
         6        -0.0509      0.0066     -0.0137
 Ground to excited state transition velocity quadrupole moments (Au):
       state          XX          YY          ZZ          XY          XZ          YZ
         1         0.2279     -0.1058     -0.0046      0.5046     -0.0445     -0.0052
         2         0.0333      0.0063     -0.0015      0.0953     -0.0355     -0.0642
         3        -0.0059      0.0069     -0.0172      0.0234     -0.0715      0.0028
         4        -1.2065      0.2411      0.0126      0.1281      0.0518     -0.0268
         5         0.7684     -0.3499     -0.0468     -0.0988     -0.0512     -0.0612
         6        -0.1184     -0.1199      0.1110      0.0018      0.0117      0.0312
 <0|del|b> * <b|rxdel|0> + <0|del|b> * <b|delr+rdel|0>
 Rotatory Strengths (R) in cgs (10**-40 erg-esu-cm/Gauss)
       state          XX          YY          ZZ    R(velocity)    E-M Angle
         1        21.8556    -37.2850    -55.0092    -23.4795       92.71
         2         8.2182     72.1761     60.5766     46.9903       21.85
         3        24.7593     -0.3207     21.7404     15.3930       17.87
         4       -53.8572     -1.3071      2.5665    -17.5326      105.84
         5       -75.6649     14.1450    -11.9249    -24.4816      102.18
         6         0.8829      1.0041     -0.1327      0.5848       77.12
 1/2[<0|r|b>*<b|rxdel|0> + (<0|rxdel|b>*<b|r|0>)*]
 Rotatory Strengths (R) in cgs (10**-40 erg-esu-cm/Gauss)
       state          XX          YY          ZZ     R(length)
         1      -104.5419     -2.0593     30.4524    -25.3829
         2       129.1685      6.1187     12.8250     49.3707
         3        -0.1425     49.1601     -1.9263     15.6971
         4         1.8722    -48.2745    -12.2798    -19.5607
         5        24.5367    -94.2439     -5.3178    -25.0083
         6         0.8269     -0.7487      0.5880      0.2221
  1/2[<0|del|b>*<b|r|0> + (<0|r|b>*<b|del|0>)*] (Au)
       state          X           Y           Z        Dip. S.   Osc.(frdel)
         1        -0.2731     -0.0011     -0.0001      0.2743      0.1829
         2        -0.0075     -0.0001     -0.0002      0.0078      0.0052
         3        -0.0000     -0.0008     -0.0001      0.0009      0.0006
         4        -0.0010     -0.3274     -0.0011      0.3295      0.2197
         5        -0.0062     -0.4300     -0.0002      0.4363      0.2909
         6        -0.0001     -0.0052     -0.0020      0.0074      0.0049

 Excitation energies and oscillator strengths:
 
 Excited State   1:      Singlet-A      3.4312 eV  361.35 nm  f=0.1904  <S**2>=0.000
      52 -> 53         0.69681
 This state for optimization and/or second-order correction.
 Total Energy, E(TD-HF/TD-DFT) =  -633.198559049    
 Copying the excited state density for this state as the 1-particle RhoCI density.
 
 Excited State   2:      Singlet-A      3.8507 eV  321.98 nm  f=0.0053  <S**2>=0.000
      50 -> 54        -0.10217
      51 -> 53         0.58639
      51 -> 54        -0.33092
 
 Excited State   3:      Singlet-A      4.2305 eV  293.07 nm  f=0.0007  <S**2>=0.000
      50 -> 53         0.54630
      50 -> 54         0.36392
      50 -> 58         0.12219
      51 -> 54        -0.13962
 
 Excited State   4:      Singlet-A      5.1765 eV  239.51 nm  f=0.2327  <S**2>=0.000
      52 -> 54         0.69907
 
 Excited State   5:      Singlet-A      5.6516 eV  219.38 nm  f=0.2971  <S**2>=0.000
      49 -> 53         0.68079
      50 -> 53        -0.12549
 
 Excited State   6:      Singlet-A      6.0760 eV  204.06 nm  f=0.0044  <S**2>=0.000
      52 -> 55         0.66323
      52 -> 56         0.11184
      52 -> 57         0.11128
 SavETr:  write IOETrn=   770 NScale= 10 NData=  16 NLR=1 NState=    6 LETran=     118.
 Leave Link  914 at Fri Jan 23 16:10:42 2026, MaxMem=  2147483648 cpu:            2090.4 elap:             131.2
 (Enter /data/home/wyx/g16/l601.exe)
 Copying SCF densities to generalized density rwf, IOpCl= 0 IROHF=0.

 **********************************************************************

            Population analysis using the SCF density.

 **********************************************************************

 Orbital symmetries:
       Occupied  (A) (A) (A) (A) (A) (A) (A) (A) (A) (A) (A) (A)
                 (A) (A) (A) (A) (A) (A) (A) (A) (A) (A) (A) (A)
                 (A) (A) (A) (A) (A) (A) (A) (A) (A) (A) (A) (A)
                 (A) (A) (A) (A) (A) (A) (A) (A) (A) (A) (A) (A)
                 (A) (A) (A) (A)
       Virtual   (A) (A) (A) (A) (A) (A) (A) (A) (A) (A) (A) (A)
                 (A) (A) (A) (A) (A) (A) (A) (A) (A) (A) (A) (A)
                 (A) (A) (A) (A) (A) (A) (A) (A) (A) (A) (A) (A)
                 (A) (A) (A) (A) (A) (A) (A) (A) (A) (A) (A) (A)
                 (A) (A) (A) (A) (A) (A) (A) (A) (A) (A) (A) (A)
                 (A) (A) (A) (A) (A) (A) (A) (A) (A) (A) (A) (A)
                 (A) (A) (A) (A) (A) (A) (A) (A) (A) (A) (A) (A)
                 (A) (A) (A) (A) (A) (A) (A) (A) (A) (A) (A) (A)
                 (A) (A) (A) (A) (A) (A) (A) (A) (A) (A) (A) (A)
                 (A) (A) (A) (A) (A) (A) (A) (A) (A) (A) (A) (A)
                 (A) (A) (A) (A) (A) (A) (A) (A) (A) (A) (A) (A)
                 (A) (A) (A) (A) (A) (A) (A) (A) (A) (A) (A) (A)
                 (A) (A) (A) (A) (A) (A) (A) (A) (A) (A) (A) (A)
                 (A) (A) (A) (A) (A) (A) (A) (A) (A) (A) (A) (A)
                 (A) (A) (A) (A) (A) (A) (A) (A) (A) (A) (A) (A)
                 (A) (A) (A) (A) (A) (A) (A) (A) (A) (A) (A) (A)
                 (A) (A) (A) (A) (A) (A) (A) (A) (A) (A) (A) (A)
                 (A) (A) (A) (A) (A) (A) (A) (A) (A) (A) (A) (A)
                 (A) (A) (A) (A) (A) (A) (A) (A) (A) (A) (A) (A)
                 (A) (A) (A) (A) (A) (A) (A) (A) (A) (A) (A) (A)
                 (A) (A) (A) (A) (A) (A) (A) (A) (A) (A) (A) (A)
                 (A) (A) (A) (A) (A) (A) (A) (A) (A) (A) (A) (A)
                 (A) (A) (A) (A) (A) (A) (A) (A) (A) (A) (A) (A)
                 (A) (A) (A) (A) (A) (A) (A) (A) (A) (A) (A) (A)
                 (A) (A) (A) (A) (A) (A) (A) (A) (A) (A) (A) (A)
                 (A) (A) (A) (A)
 The electronic state is 1-A.
 Alpha  occ. eigenvalues --  -19.17792 -19.16933 -14.44283 -10.33293 -10.33079
 Alpha  occ. eigenvalues --  -10.32222 -10.31812 -10.25992 -10.25052 -10.24863
 Alpha  occ. eigenvalues --  -10.24780 -10.24677 -10.24076 -10.23703  -1.11900
 Alpha  occ. eigenvalues --   -1.10357  -1.07768  -0.91509  -0.90540  -0.83871
 Alpha  occ. eigenvalues --   -0.82556  -0.81567  -0.78682  -0.74286  -0.71463
 Alpha  occ. eigenvalues --   -0.68900  -0.61974  -0.58480  -0.56936  -0.55210
 Alpha  occ. eigenvalues --   -0.54746  -0.54070  -0.52529  -0.51939  -0.50680
 Alpha  occ. eigenvalues --   -0.49717  -0.49391  -0.49121  -0.48390  -0.48272
 Alpha  occ. eigenvalues --   -0.46775  -0.45161  -0.44817  -0.43706  -0.43030
 Alpha  occ. eigenvalues --   -0.42391  -0.41806  -0.41337  -0.33051  -0.32194
 Alpha  occ. eigenvalues --   -0.31023  -0.26206
 Alpha virt. eigenvalues --   -0.02672   0.02333   0.06291   0.08100   0.08463
 Alpha virt. eigenvalues --    0.09926   0.10646   0.12021   0.12662   0.13573
 Alpha virt. eigenvalues --    0.13944   0.15033   0.15554   0.16650   0.16987
 Alpha virt. eigenvalues --    0.17559   0.17613   0.17820   0.18270   0.19325
 Alpha virt. eigenvalues --    0.19856   0.21720   0.22847   0.23450   0.23780
 Alpha virt. eigenvalues --    0.24509   0.24626   0.25805   0.25993   0.26706
 Alpha virt. eigenvalues --    0.27272   0.27592   0.28186   0.29344   0.29988
 Alpha virt. eigenvalues --    0.31193   0.31883   0.32597   0.33499   0.34606
 Alpha virt. eigenvalues --    0.35350   0.35705   0.36731   0.37934   0.38786
 Alpha virt. eigenvalues --    0.39561   0.41242   0.41794   0.42306   0.42930
 Alpha virt. eigenvalues --    0.44114   0.44943   0.45642   0.46156   0.46517
 Alpha virt. eigenvalues --    0.46858   0.48162   0.48449   0.48763   0.49102
 Alpha virt. eigenvalues --    0.49820   0.50056   0.50762   0.51276   0.51850
 Alpha virt. eigenvalues --    0.52738   0.52883   0.53455   0.54052   0.54410
 Alpha virt. eigenvalues --    0.54719   0.55677   0.55801   0.56932   0.57848
 Alpha virt. eigenvalues --    0.58174   0.59358   0.60123   0.62027   0.62570
 Alpha virt. eigenvalues --    0.63240   0.65276   0.65849   0.67688   0.68125
 Alpha virt. eigenvalues --    0.70199   0.70824   0.71538   0.71995   0.72955
 Alpha virt. eigenvalues --    0.73856   0.74923   0.76332   0.77150   0.77872
 Alpha virt. eigenvalues --    0.79986   0.80618   0.82872   0.85566   0.87202
 Alpha virt. eigenvalues --    0.89619   0.90782   0.95388   1.01311   1.22899
 Alpha virt. eigenvalues --    1.25408   1.26220   1.28078   1.29598   1.30994
 Alpha virt. eigenvalues --    1.32522   1.32947   1.33898   1.35534   1.35835
 Alpha virt. eigenvalues --    1.37100   1.37279   1.38222   1.38932   1.39569
 Alpha virt. eigenvalues --    1.39873   1.40886   1.41131   1.41391   1.42117
 Alpha virt. eigenvalues --    1.43122   1.44073   1.44293   1.44923   1.47234
 Alpha virt. eigenvalues --    1.47700   1.49584   1.49904   1.50773   1.51679
 Alpha virt. eigenvalues --    1.52055   1.52885   1.53397   1.55373   1.57646
 Alpha virt. eigenvalues --    1.58488   1.59806   1.60564   1.61352   1.61947
 Alpha virt. eigenvalues --    1.63065   1.63452   1.64582   1.65573   1.66119
 Alpha virt. eigenvalues --    1.66363   1.66595   1.67943   1.68118   1.68814
 Alpha virt. eigenvalues --    1.69019   1.69777   1.71101   1.72340   1.73155
 Alpha virt. eigenvalues --    1.74257   1.74515   1.76116   1.76622   1.78776
 Alpha virt. eigenvalues --    1.80889   1.82569   1.83869   1.84626   1.86243
 Alpha virt. eigenvalues --    1.86954   1.87660   1.88167   1.89706   1.90238
 Alpha virt. eigenvalues --    1.91537   1.93648   1.95578   1.98009   2.00082
 Alpha virt. eigenvalues --    2.01319   2.04555   2.04853   2.06649   2.09482
 Alpha virt. eigenvalues --    2.10703   2.13261   2.15011   2.18004   2.19424
 Alpha virt. eigenvalues --    2.20032   2.22035   2.23079   2.24283   2.25372
 Alpha virt. eigenvalues --    2.26879   2.28774   2.30337   2.31132   2.33228
 Alpha virt. eigenvalues --    2.34388   2.34910   2.36180   2.37990   2.39095
 Alpha virt. eigenvalues --    2.39863   2.41502   2.41872   2.44745   2.45328
 Alpha virt. eigenvalues --    2.45743   2.48983   2.49140   2.50520   2.51944
 Alpha virt. eigenvalues --    2.52782   2.53092   2.54351   2.56173   2.57404
 Alpha virt. eigenvalues --    2.57724   2.60715   2.60853   2.62150   2.62969
 Alpha virt. eigenvalues --    2.64012   2.65849   2.66303   2.67153   2.69154
 Alpha virt. eigenvalues --    2.70553   2.72321   2.73605   2.74085   2.75034
 Alpha virt. eigenvalues --    2.75871   2.76837   2.77952   2.78227   2.79295
 Alpha virt. eigenvalues --    2.80675   2.81533   2.82982   2.83962   2.84891
 Alpha virt. eigenvalues --    2.86027   2.86273   2.88397   2.90093   2.93412
 Alpha virt. eigenvalues --    2.97355   2.99060   2.99494   3.05391   3.10296
 Alpha virt. eigenvalues --    3.10562   3.12338   3.14303   3.19185   3.20608
 Alpha virt. eigenvalues --    3.21184   3.23478   3.24724   3.25469   3.26490
 Alpha virt. eigenvalues --    3.28251   3.31250   3.32836   3.35636   3.37340
 Alpha virt. eigenvalues --    3.38069   3.39583   3.39978   3.40442   3.41880
 Alpha virt. eigenvalues --    3.42804   3.43653   3.45909   3.47333   3.47622
 Alpha virt. eigenvalues --    3.50220   3.53238   3.54470   3.57615   3.59684
 Alpha virt. eigenvalues --    3.61893   3.91364   4.00327   4.33875   4.36017
 Alpha virt. eigenvalues --   21.63960  21.77852  22.07508  22.10396  22.11889
 Alpha virt. eigenvalues --   22.13432  22.16426  22.19073  22.21553  22.27172
 Alpha virt. eigenvalues --   22.31487  31.92975  43.63206  43.65617
          Condensed to atoms (all electrons):
               1          2          3          4          5          6
     1  O    7.926168   0.000000  -0.000204   0.000017   0.015316   0.016389
     2  O    0.000000   8.020796   0.000480   0.000036  -0.186861   0.001415
     3  N   -0.000204   0.000480   6.379247   0.373982  -0.114918   0.351506
     4  H    0.000017   0.000036   0.373982   0.407378   0.014729  -0.043117
     5  C    0.015316  -0.186861  -0.114918   0.014729   7.089968  -0.055492
     6  C    0.016389   0.001415   0.351506  -0.043117  -0.055492   5.572266
     7  C   -0.000201  -0.029059   0.374197  -0.044593   0.394301  -0.126064
     8  C   -0.000358   0.676329   0.003993  -0.000774  -0.371508   0.037257
     9  C   -0.010817   0.021109   0.016491   0.000187  -0.591350  -0.087797
    10  H    0.012286  -0.000170  -0.001285   0.000012  -0.118220   0.021609
    11  H    0.003767   0.000069   0.002871   0.000013  -0.037598  -0.006116
    12  C   -0.232703  -0.003015  -0.093784   0.017105   0.179669  -0.141254
    13  C    0.737539  -0.000014   0.000344   0.000451   0.069542   0.121005
    14  C   -0.000008  -0.035225  -0.041591  -0.003808  -0.056227   0.000448
    15  H   -0.000000   0.004798   0.004508   0.000434   0.016510   0.006320
    16  H    0.000000   0.010518   0.003063   0.000742  -0.003599  -0.000516
    17  H   -0.000000   0.000806  -0.003947   0.000792  -0.012020  -0.001240
    18  C   -0.000168  -0.103548  -0.000371   0.000019  -0.219933  -0.000732
    19  H   -0.000002   0.006489   0.000004  -0.000001   0.017835   0.000027
    20  H    0.000280   0.005252   0.000112   0.000001   0.060762  -0.001355
    21  H    0.000015   0.000130   0.000014  -0.000001  -0.005373   0.000187
    22  C   -0.123938   0.000000  -0.000021   0.000121   0.002755  -0.002713
    23  H    0.002292   0.000000   0.000063  -0.000022  -0.000159   0.009259
    24  H    0.003980  -0.000000   0.000057  -0.000039  -0.000308  -0.024953
    25  H    0.010330   0.000000   0.000018  -0.000003  -0.000095  -0.001749
    26  C    0.000836   0.000006  -0.029397  -0.009474  -0.000045   0.216151
    27  H   -0.000034  -0.000000  -0.003187   0.000538   0.000460  -0.039284
    28  H   -0.000104  -0.000000   0.000875   0.000886   0.000092  -0.038991
    29  H    0.000017   0.000000   0.002950   0.001758  -0.000403  -0.052222
               7          8          9         10         11         12
     1  O   -0.000201  -0.000358  -0.010817   0.012286   0.003767  -0.232703
     2  O   -0.029059   0.676329   0.021109  -0.000170   0.000069  -0.003015
     3  N    0.374197   0.003993   0.016491  -0.001285   0.002871  -0.093784
     4  H   -0.044593  -0.000774   0.000187   0.000012   0.000013   0.017105
     5  C    0.394301  -0.371508  -0.591350  -0.118220  -0.037598   0.179669
     6  C   -0.126064   0.037257  -0.087797   0.021609  -0.006116  -0.141254
     7  C    5.473762  -0.251196  -0.193449   0.017288  -0.006056   0.019207
     8  C   -0.251196   5.533691   0.161317  -0.009115   0.000359  -0.056253
     9  C   -0.193449   0.161317   6.328087   0.548055   0.400286  -0.095298
    10  H    0.017288  -0.009115   0.548055   0.500819  -0.034776  -0.104778
    11  H   -0.006056   0.000359   0.400286  -0.034776   0.546689  -0.016014
    12  C    0.019207  -0.056253  -0.095298  -0.104778  -0.016014   7.415823
    13  C    0.017936  -0.008309  -0.228275  -0.002239  -0.005222  -0.430315
    14  C    0.237961  -0.056792   0.013947   0.000517  -0.001284   0.000083
    15  H   -0.075230   0.006288  -0.000548  -0.000008   0.000108  -0.001118
    16  H   -0.034501  -0.013949   0.000796  -0.000061   0.000126  -0.000306
    17  H   -0.016354   0.002853  -0.000164   0.000059  -0.000048   0.000377
    18  C    0.006590   0.333618   0.001555   0.003059  -0.011563   0.002545
    19  H    0.000378  -0.044709  -0.001656   0.000487   0.000179  -0.000204
    20  H    0.003677  -0.096544  -0.014329  -0.005976   0.001794   0.007236
    21  H   -0.000343  -0.014134  -0.004289  -0.000789   0.000568  -0.002521
    22  C    0.000307  -0.000014   0.007921   0.000949   0.001551  -0.314683
    23  H   -0.000006   0.000005  -0.002142  -0.000134   0.000154   0.001697
    24  H   -0.000033  -0.000003   0.002204   0.000013  -0.000141   0.051410
    25  H    0.000014   0.000001  -0.000056  -0.000107  -0.000040   0.026860
    26  C    0.005408   0.000637   0.019431   0.000104  -0.000562  -0.092310
    27  H   -0.001158  -0.000014   0.000121   0.000038  -0.000010  -0.013834
    28  H   -0.000800  -0.000003  -0.000837   0.000003  -0.000039  -0.004762
    29  H    0.003868   0.000009  -0.000615  -0.000005   0.000051   0.022476
              13         14         15         16         17         18
     1  O    0.737539  -0.000008  -0.000000   0.000000  -0.000000  -0.000168
     2  O   -0.000014  -0.035225   0.004798   0.010518   0.000806  -0.103548
     3  N    0.000344  -0.041591   0.004508   0.003063  -0.003947  -0.000371
     4  H    0.000451  -0.003808   0.000434   0.000742   0.000792   0.000019
     5  C    0.069542  -0.056227   0.016510  -0.003599  -0.012020  -0.219933
     6  C    0.121005   0.000448   0.006320  -0.000516  -0.001240  -0.000732
     7  C    0.017936   0.237961  -0.075230  -0.034501  -0.016354   0.006590
     8  C   -0.008309  -0.056792   0.006288  -0.013949   0.002853   0.333618
     9  C   -0.228275   0.013947  -0.000548   0.000796  -0.000164   0.001555
    10  H   -0.002239   0.000517  -0.000008  -0.000061   0.000059   0.003059
    11  H   -0.005222  -0.001284   0.000108   0.000126  -0.000048  -0.011563
    12  C   -0.430315   0.000083  -0.001118  -0.000306   0.000377   0.002545
    13  C    5.455699  -0.000031  -0.000023   0.000000  -0.000021   0.000724
    14  C   -0.000031   5.174785   0.381738   0.422673   0.402502   0.000587
    15  H   -0.000023   0.381738   0.585243  -0.028305  -0.028137   0.000205
    16  H    0.000000   0.422673  -0.028305   0.486175  -0.021388   0.000280
    17  H   -0.000021   0.402502  -0.028137  -0.021388   0.505123  -0.000019
    18  C    0.000724   0.000587   0.000205   0.000280  -0.000019   5.267730
    19  H   -0.000013   0.000003  -0.000003   0.000080  -0.000015   0.399327
    20  H    0.001038   0.000245  -0.000019  -0.000087  -0.000000   0.392609
    21  H   -0.000084  -0.000289  -0.000006   0.000025   0.000011   0.391487
    22  C    0.325079  -0.000003   0.000003  -0.000000  -0.000001   0.000017
    23  H   -0.034193  -0.000001   0.000000   0.000000  -0.000000  -0.000002
    24  H   -0.071224   0.000000  -0.000000   0.000000   0.000000   0.000003
    25  H   -0.048988   0.000000   0.000000  -0.000000  -0.000000  -0.000000
    26  C   -0.046766   0.000947  -0.000213   0.000045  -0.000120   0.000005
    27  H    0.004902  -0.000094   0.000016   0.000002  -0.000012  -0.000001
    28  H   -0.004870   0.000090  -0.000019  -0.000002   0.000003  -0.000000
    29  H   -0.000373  -0.000146   0.000118  -0.000001  -0.000000   0.000000
              19         20         21         22         23         24
     1  O   -0.000002   0.000280   0.000015  -0.123938   0.002292   0.003980
     2  O    0.006489   0.005252   0.000130   0.000000   0.000000  -0.000000
     3  N    0.000004   0.000112   0.000014  -0.000021   0.000063   0.000057
     4  H   -0.000001   0.000001  -0.000001   0.000121  -0.000022  -0.000039
     5  C    0.017835   0.060762  -0.005373   0.002755  -0.000159  -0.000308
     6  C    0.000027  -0.001355   0.000187  -0.002713   0.009259  -0.024953
     7  C    0.000378   0.003677  -0.000343   0.000307  -0.000006  -0.000033
     8  C   -0.044709  -0.096544  -0.014134  -0.000014   0.000005  -0.000003
     9  C   -0.001656  -0.014329  -0.004289   0.007921  -0.002142   0.002204
    10  H    0.000487  -0.005976  -0.000789   0.000949  -0.000134   0.000013
    11  H    0.000179   0.001794   0.000568   0.001551   0.000154  -0.000141
    12  C   -0.000204   0.007236  -0.002521  -0.314683   0.001697   0.051410
    13  C   -0.000013   0.001038  -0.000084   0.325079  -0.034193  -0.071224
    14  C    0.000003   0.000245  -0.000289  -0.000003  -0.000001   0.000000
    15  H   -0.000003  -0.000019  -0.000006   0.000003   0.000000  -0.000000
    16  H    0.000080  -0.000087   0.000025  -0.000000   0.000000   0.000000
    17  H   -0.000015  -0.000000   0.000011  -0.000001  -0.000000   0.000000
    18  C    0.399327   0.392609   0.391487   0.000017  -0.000002   0.000003
    19  H    0.504377  -0.028623  -0.010893  -0.000000   0.000000   0.000000
    20  H   -0.028623   0.545534  -0.022576   0.000029  -0.000000  -0.000001
    21  H   -0.010893  -0.022576   0.495519  -0.000005   0.000000  -0.000000
    22  C   -0.000000   0.000029  -0.000005   5.455498   0.398043   0.384922
    23  H    0.000000  -0.000000   0.000000   0.398043   0.509754  -0.031527
    24  H    0.000000  -0.000001  -0.000000   0.384922  -0.031527   0.548465
    25  H   -0.000000  -0.000000  -0.000000   0.383877  -0.008222  -0.019233
    26  C    0.000000  -0.000016   0.000003  -0.041858  -0.013110   0.014416
    27  H    0.000000  -0.000000  -0.000000  -0.010893   0.001227  -0.001381
    28  H   -0.000000  -0.000000   0.000000   0.007088  -0.000764  -0.005988
    29  H    0.000000   0.000000  -0.000000   0.002083   0.000195   0.000512
              25         26         27         28         29
     1  O    0.010330   0.000836  -0.000034  -0.000104   0.000017
     2  O    0.000000   0.000006  -0.000000  -0.000000   0.000000
     3  N    0.000018  -0.029397  -0.003187   0.000875   0.002950
     4  H   -0.000003  -0.009474   0.000538   0.000886   0.001758
     5  C   -0.000095  -0.000045   0.000460   0.000092  -0.000403
     6  C   -0.001749   0.216151  -0.039284  -0.038991  -0.052222
     7  C    0.000014   0.005408  -0.001158  -0.000800   0.003868
     8  C    0.000001   0.000637  -0.000014  -0.000003   0.000009
     9  C   -0.000056   0.019431   0.000121  -0.000837  -0.000615
    10  H   -0.000107   0.000104   0.000038   0.000003  -0.000005
    11  H   -0.000040  -0.000562  -0.000010  -0.000039   0.000051
    12  C    0.026860  -0.092310  -0.013834  -0.004762   0.022476
    13  C   -0.048988  -0.046766   0.004902  -0.004870  -0.000373
    14  C    0.000000   0.000947  -0.000094   0.000090  -0.000146
    15  H    0.000000  -0.000213   0.000016  -0.000019   0.000118
    16  H   -0.000000   0.000045   0.000002  -0.000002  -0.000001
    17  H   -0.000000  -0.000120  -0.000012   0.000003  -0.000000
    18  C   -0.000000   0.000005  -0.000001  -0.000000   0.000000
    19  H   -0.000000   0.000000   0.000000  -0.000000   0.000000
    20  H   -0.000000  -0.000016  -0.000000  -0.000000   0.000000
    21  H   -0.000000   0.000003  -0.000000   0.000000  -0.000000
    22  C    0.383877  -0.041858  -0.010893   0.007088   0.002083
    23  H   -0.008222  -0.013110   0.001227  -0.000764   0.000195
    24  H   -0.019233   0.014416  -0.001381  -0.005988   0.000512
    25  H    0.495203   0.002101   0.000070   0.000475  -0.000036
    26  C    0.002101   5.220548   0.434592   0.419937   0.388723
    27  H    0.000070   0.434592   0.483228  -0.029749  -0.017015
    28  H    0.000475   0.419937  -0.029749   0.514993  -0.024857
    29  H   -0.000036   0.388723  -0.017015  -0.024857   0.521953
 Mulliken charges:
               1
     1  O   -0.360694
     2  O   -0.390341
     3  N   -0.226069
     4  H    0.282632
     5  C   -0.087831
     6  C    0.269758
     7  C    0.224150
     8  C    0.167316
     9  C   -0.289884
    10  H    0.172365
    11  H    0.160884
    12  C   -0.141335
    13  C    0.146702
    14  C   -0.441028
    15  H    0.127340
    16  H    0.178190
    17  H    0.170961
    18  C   -0.464022
    19  H    0.156932
    20  H    0.150961
    21  H    0.173346
    22  C   -0.476113
    23  H    0.167594
    24  H    0.148850
    25  H    0.159581
    26  C   -0.490018
    27  H    0.191469
    28  H    0.167342
    29  H    0.150962
 Sum of Mulliken charges =  -0.00000
 Mulliken charges with hydrogens summed into heavy atoms:
               1
     1  O   -0.360694
     2  O   -0.390341
     3  N    0.056562
     5  C   -0.087831
     6  C    0.269758
     7  C    0.224150
     8  C    0.167316
     9  C    0.043365
    12  C   -0.141335
    13  C    0.146702
    14  C    0.035463
    18  C    0.017218
    22  C   -0.000088
    26  C    0.019755
 Electronic spatial extent (au):  <R**2>=           3204.1174
 Charge=             -0.0000 electrons
 Dipole moment (field-independent basis, Debye):
    X=              4.0737    Y=              7.0823    Z=             -0.2494  Tot=              8.1741
 Quadrupole moment (field-independent basis, Debye-Ang):
   XX=            -98.3332   YY=            -78.7373   ZZ=            -84.5684
   XY=             12.8781   XZ=              3.4531   YZ=             -0.8479
 Traceless Quadrupole moment (field-independent basis, Debye-Ang):
   XX=            -11.1202   YY=              8.4756   ZZ=              2.6446
   XY=             12.8781   XZ=              3.4531   YZ=             -0.8479
 Octapole moment (field-independent basis, Debye-Ang**2):
  XXX=            110.4141  YYY=             61.2213  ZZZ=              2.2729  XYY=            -35.5849
  XXY=             28.4612  XXZ=             -8.6275  XZZ=              1.6790  YZZ=             -1.5972
  YYZ=              1.9964  XYZ=             -2.7894
 Hexadecapole moment (field-independent basis, Debye-Ang**3):
 XXXX=          -3096.6485 YYYY=          -1279.4063 ZZZZ=           -136.6706 XXXY=             41.9076
 XXXZ=             47.0099 YYYX=             92.1611 YYYZ=            -15.1639 ZZZX=             -4.0986
 ZZZY=              3.8088 XXYY=           -687.2236 XXZZ=           -485.0202 YYZZ=           -239.1911
 XXYZ=             -1.4776 YYXZ=              2.5351 ZZXY=              0.2292
 N-N= 9.005775803045D+02 E-N=-3.277225151236D+03  KE= 6.307390896863D+02
 Leave Link  601 at Fri Jan 23 16:10:43 2026, MaxMem=  2147483648 cpu:               0.7 elap:               0.1
 (Enter /data/home/wyx/g16/l9999.exe)
 Electronic transition elements 
                 1             2             3             4             5 
      1  -0.633199D+03 -0.633183D+03 -0.633169D+03 -0.633134D+03 -0.633117D+03
      2   0.144018D+01  0.232752D+00  0.153124D-01  0.386296D+00 -0.325544D+00
      3   0.411735D+00  0.474851D-01 -0.688714D-01 -0.128927D+01  0.142529D+01
      4   0.145386D+00 -0.158743D-01  0.408339D-01  0.153911D+00 -0.906974D-01
      5  -0.173804D+00 -0.319315D-01 -0.282418D-02 -0.655907D-01  0.658188D-01
      6  -0.522472D-01 -0.742604D-02  0.102472D-01  0.232999D+00 -0.289912D+00
      7  -0.171943D-01  0.400077D-03 -0.295993D-02 -0.243769D-01  0.186709D-01
      8  -0.806005D-01 -0.875387D+00 -0.374447D+00  0.307216D-01 -0.184388D+00
      9   0.295397D-01 -0.182037D-01  0.891229D+00 -0.302399D-01  0.139140D-01
     10   0.145543D+01  0.304404D+00  0.127906D-01  0.208738D+00 -0.289254D+00
     11  -0.121854D+00 -0.275165D-01 -0.252249D-02 -0.111741D+01  0.697195D+00
     12   0.257032D+00  0.686407D-01  0.198025D-01  0.153766D+00 -0.284658D+00
     13  -0.176914D-01 -0.303291D-02 -0.334805D-01  0.108267D-01 -0.407828D-01
     14   0.492207D+00  0.900407D-01  0.155395D-01 -0.362268D+00  0.290122D+00
     15  -0.621031D-01 -0.161351D-01 -0.665241D-01 -0.791026D-01  0.620357D-01
     16   0.378851D-01 -0.627752D-01 -0.206224D-01 -0.551802D-01 -0.355944D-01
                 6 
      1  -0.633101D+03
      2  -0.401455D-01
      3   0.158906D+00
      4   0.539361D-01
      5   0.927047D-02
      6  -0.332173D-01
      7  -0.315863D-01
      8  -0.480188D-01
      9  -0.113889D-01
     10  -0.196535D-01
     11  -0.116261D+00
     12  -0.117531D+00
     13   0.106516D+00
     14  -0.272371D-02
     15  -0.281500D-01
     16   0.366281D-01
 1\1\GINC-CN013\SP\RCAM-B3LYP TD-FC\TZVP\C11H15N1O2\WYX\23-Jan-2026\0\\
 #p CAM-B3LYP TZVP em=gd3bj td(nstates=6,root=1) scrf=(Solvent=TetraHyd
 roFuran)\\Title Card Required\\0,1\O,0,2.815621,-1.576243,0.268713\O,0
 ,-3.445005,-1.635482,-0.117911\N,0,-0.639568,1.517918,-0.276379\H,0,-0
 .952106,2.473375,-0.320663\C,0,-1.241157,-0.758478,-0.207429\C,0,0.690
 852,1.302832,-0.030027\C,0,-1.613122,0.541105,-0.276652\C,0,-2.212799,
 -1.82233,-0.177811\C,0,0.220402,-1.123938,-0.217835\H,0,0.415998,-1.89
 4536,0.527171\H,0,0.492414,-1.569109,-1.181776\C,0,1.147875,0.033718,0
 .053776\C,0,2.51302,-0.388108,0.343741\C,0,-2.999234,1.077919,-0.34607
 5\H,0,-3.01789,2.044402,-0.853819\H,0,-3.683159,0.42184,-0.878341\H,0,
 -3.416146,1.211824,0.65352\C,0,-1.774326,-3.25608,-0.229394\H,0,-2.537
 ,-3.930844,-0.617207\H,0,-0.885348,-3.413517,-0.84092\H,0,-1.517841,-3
 .619608,0.77033\C,0,3.590415,0.573699,0.769951\H,0,3.937285,1.186228,-
 0.062084\H,0,3.28413,1.242443,1.571062\H,0,4.424707,-0.033782,1.112948
 \C,0,1.453539,2.580551,0.113073\H,0,1.692889,2.796192,1.154036\H,0,2.3
 79391,2.587432,-0.452949\H,0,0.876162,3.430577,-0.251047\\Version=ES64
 L-G16RevA.03\State=1-A\HF=-633.3246521\RMSD=5.313e-09\PG=C01 [X(C11H15
 N1O2)]\\@


 DESK:  A WASTEBASKET WITH DRAWERS.
 Job cpu time:       0 days  0 hours 50 minutes 42.9 seconds.
 Elapsed time:       0 days  0 hours  3 minutes 11.4 seconds.
 File lengths (MBytes):  RWF=    834 Int=      0 D2E=      0 Chk=     34 Scr=      1
 Normal termination of Gaussian 16 at Fri Jan 23 16:10:44 2026.
