 Entering Gaussian System, Link 0=g16
 Input=DDL-LR-13.gjf
 Output=DDL-LR-13.log
 Initial command:
 /data/home/wyx/g16/l1.exe "/scr/tmp/wyx/13109/Gau-1688035.inp" -scrdir="/scr/tmp/wyx/13109/"
 Entering Link 1 = /data/home/wyx/g16/l1.exe PID=   1688036.
  
 Copyright (c) 1988,1990,1992,1993,1995,1998,2003,2009,2016,
            Gaussian, Inc.  All Rights Reserved.
  
 This is part of the Gaussian(R) 16 program.  It is based on
 the Gaussian(R) 09 system (copyright 2009, Gaussian, Inc.),
 the Gaussian(R) 03 system (copyright 2003, Gaussian, Inc.),
 the Gaussian(R) 98 system (copyright 1998, Gaussian, Inc.),
 the Gaussian(R) 94 system (copyright 1995, Gaussian, Inc.),
 the Gaussian 92(TM) system (copyright 1992, Gaussian, Inc.),
 the Gaussian 90(TM) system (copyright 1990, Gaussian, Inc.),
 the Gaussian 88(TM) system (copyright 1988, Gaussian, Inc.),
 the Gaussian 86(TM) system (copyright 1986, Carnegie Mellon
 University), and the Gaussian 82(TM) system (copyright 1983,
 Carnegie Mellon University). Gaussian is a federally registered
 trademark of Gaussian, Inc.
  
 This software contains proprietary and confidential information,
 including trade secrets, belonging to Gaussian, Inc.
  
 This software is provided under written license and may be
 used, copied, transmitted, or stored only in accord with that
 written license.
  
 The following legend is applicable only to US Government
 contracts under FAR:
  
                    RESTRICTED RIGHTS LEGEND
  
 Use, reproduction and disclosure by the US Government is
 subject to restrictions as set forth in subparagraphs (a)
 and (c) of the Commercial Computer Software - Restricted
 Rights clause in FAR 52.227-19.
  
 Gaussian, Inc.
 340 Quinnipiac St., Bldg. 40, Wallingford CT 06492
  
  
 ---------------------------------------------------------------
 Warning -- This program may not be used in any manner that
 competes with the business of Gaussian, Inc. or will provide
 assistance to any competitor of Gaussian, Inc.  The licensee
 of this program is prohibited from giving any competitor of
 Gaussian, Inc. access to this program.  By using this program,
 the user acknowledges that Gaussian, Inc. is engaged in the
 business of creating and licensing software in the field of
 computational chemistry and represents and warrants to the
 licensee that it is not a competitor of Gaussian, Inc. and that
 it will not use this program in any manner prohibited above.
 ---------------------------------------------------------------
  

 Cite this work as:
 Gaussian 16, Revision A.03,
 M. J. Frisch, G. W. Trucks, H. B. Schlegel, G. E. Scuseria, 
 M. A. Robb, J. R. Cheeseman, G. Scalmani, V. Barone, 
 G. A. Petersson, H. Nakatsuji, X. Li, M. Caricato, A. V. Marenich, 
 J. Bloino, B. G. Janesko, R. Gomperts, B. Mennucci, H. P. Hratchian, 
 J. V. Ortiz, A. F. Izmaylov, J. L. Sonnenberg, D. Williams-Young, 
 F. Ding, F. Lipparini, F. Egidi, J. Goings, B. Peng, A. Petrone, 
 T. Henderson, D. Ranasinghe, V. G. Zakrzewski, J. Gao, N. Rega, 
 G. Zheng, W. Liang, M. Hada, M. Ehara, K. Toyota, R. Fukuda, 
 J. Hasegawa, M. Ishida, T. Nakajima, Y. Honda, O. Kitao, H. Nakai, 
 T. Vreven, K. Throssell, J. A. Montgomery, Jr., J. E. Peralta, 
 F. Ogliaro, M. J. Bearpark, J. J. Heyd, E. N. Brothers, K. N. Kudin, 
 V. N. Staroverov, T. A. Keith, R. Kobayashi, J. Normand, 
 K. Raghavachari, A. P. Rendell, J. C. Burant, S. S. Iyengar, 
 J. Tomasi, M. Cossi, J. M. Millam, M. Klene, C. Adamo, R. Cammi, 
 J. W. Ochterski, R. L. Martin, K. Morokuma, O. Farkas, 
 J. B. Foresman, and D. J. Fox, Gaussian, Inc., Wallingford CT, 2016.
 
 ******************************************
 Gaussian 16:  ES64L-G16RevA.03 25-Dec-2016
                23-Jan-2026 
 ******************************************
 %nprocshared=16
 Will use up to   16 processors via shared memory.
 %mem=16GB
 %chk=DDL-LR-13.chk
 ----------------------------------------------------------------------
 #p CAM-B3LYP TZVP em=gd3bj td(nstates=6,root=1) scrf=(Solvent=TetraHyd
 roFuran)
 ----------------------------------------------------------------------
 1/38=1,172=1/1;
 2/12=2,17=6,18=5,40=1/2;
 3/5=19,7=101,11=9,25=1,30=1,70=2201,72=20,74=-40,124=41/1,2,3,8;
 4//1;
 5/5=2,38=5,53=20/2;
 8/6=1,10=1,107=1,108=6/1;
 9/8=1,41=6,42=1,70=2/14;
 6/7=2,8=2,9=2,10=2/1;
 99/5=1,9=1/99;
 Leave Link    1 at Fri Jan 23 16:18:21 2026, MaxMem=  2147483648 cpu:               0.4 elap:               0.1
 (Enter /data/home/wyx/g16/l101.exe)
 -------------------
 Title Card Required
 -------------------
 Symbolic Z-matrix:
 Charge =  0 Multiplicity = 1
 O                     2.82331  -1.57192   0.22631 
 O                    -3.43691  -1.62862  -0.02532 
 N                    -0.63611   1.51479  -0.32209 
 H                    -0.94669   2.47093  -0.36905 
 C                    -1.23945  -0.75745  -0.21453 
 C                     0.69588   1.2994   -0.06471 
 C                    -1.61105   0.54102  -0.28528 
 C                    -2.21927  -1.82334  -0.1412 
 C                     0.22237  -1.12103  -0.28408 
 H                     0.44305  -1.92529   0.41562 
 H                     0.46866  -1.52242  -1.27464 
 C                     1.14927   0.02981   0.02301 
 C                     2.51241  -0.38989   0.33709 
 C                    -3.00021   1.07938  -0.32102 
 H                    -3.01564   2.08262  -0.74993 
 H                    -3.67243   0.45564  -0.90385 
 H                    -3.42129   1.13178   0.68378 
 C                    -1.75857  -3.25127  -0.21555 
 H                    -2.57199  -3.93269  -0.45842 
 H                    -0.97076  -3.40346  -0.95433 
 H                    -1.34509  -3.576     0.74337 
 C                     3.56689   0.56393   0.8362 
 H                     3.98159   1.15631   0.02002 
 H                     3.20616   1.2499    1.59873 
 H                     4.36759  -0.0445    1.25008 
 C                     1.45785   2.57802   0.08407 
 H                     1.60933   2.83443   1.13295 
 H                     2.42735   2.55178  -0.40065 
 H                     0.91377   3.40816  -0.36659 
 
 ITRead=  0  0  0  0  0  0  0  0  0  0  0  0  0  0  0  0  0  0  0  0
 ITRead=  0  0  0  0  0  0  0  0  0
 MicOpt= -1 -1 -1 -1 -1 -1 -1 -1 -1 -1 -1 -1 -1 -1 -1 -1 -1 -1 -1 -1
 MicOpt= -1 -1 -1 -1 -1 -1 -1 -1 -1
 NAtoms=     29 NQM=       29 NQMF=       0 NMMI=      0 NMMIF=      0
                NMic=       0 NMicF=      0.
                    Isotopes and Nuclear Properties:
 (Nuclear quadrupole moments (NQMom) in fm**2, nuclear magnetic moments (NMagM)
  in nuclear magnetons)

  Atom         1           2           3           4           5           6           7           8           9          10
 IAtWgt=          16          16          14           1          12          12          12          12          12           1
 AtmWgt=  15.9949146  15.9949146  14.0030740   1.0078250  12.0000000  12.0000000  12.0000000  12.0000000  12.0000000   1.0078250
 NucSpn=           0           0           2           1           0           0           0           0           0           1
 AtZEff=  -0.0000000  -0.0000000  -0.0000000  -0.0000000  -0.0000000  -0.0000000  -0.0000000  -0.0000000  -0.0000000  -0.0000000
 NQMom=    0.0000000   0.0000000   2.0440000   0.0000000   0.0000000   0.0000000   0.0000000   0.0000000   0.0000000   0.0000000
 NMagM=    0.0000000   0.0000000   0.4037610   2.7928460   0.0000000   0.0000000   0.0000000   0.0000000   0.0000000   2.7928460
 AtZNuc=   8.0000000   8.0000000   7.0000000   1.0000000   6.0000000   6.0000000   6.0000000   6.0000000   6.0000000   1.0000000

  Atom        11          12          13          14          15          16          17          18          19          20
 IAtWgt=           1          12          12          12           1           1           1          12           1           1
 AtmWgt=   1.0078250  12.0000000  12.0000000  12.0000000   1.0078250   1.0078250   1.0078250  12.0000000   1.0078250   1.0078250
 NucSpn=           1           0           0           0           1           1           1           0           1           1
 AtZEff=  -0.0000000  -0.0000000  -0.0000000  -0.0000000  -0.0000000  -0.0000000  -0.0000000  -0.0000000  -0.0000000  -0.0000000
 NQMom=    0.0000000   0.0000000   0.0000000   0.0000000   0.0000000   0.0000000   0.0000000   0.0000000   0.0000000   0.0000000
 NMagM=    2.7928460   0.0000000   0.0000000   0.0000000   2.7928460   2.7928460   2.7928460   0.0000000   2.7928460   2.7928460
 AtZNuc=   1.0000000   6.0000000   6.0000000   6.0000000   1.0000000   1.0000000   1.0000000   6.0000000   1.0000000   1.0000000

  Atom        21          22          23          24          25          26          27          28          29
 IAtWgt=           1          12           1           1           1          12           1           1           1
 AtmWgt=   1.0078250  12.0000000   1.0078250   1.0078250   1.0078250  12.0000000   1.0078250   1.0078250   1.0078250
 NucSpn=           1           0           1           1           1           0           1           1           1
 AtZEff=  -0.0000000  -0.0000000  -0.0000000  -0.0000000  -0.0000000  -0.0000000  -0.0000000  -0.0000000  -0.0000000
 NQMom=    0.0000000   0.0000000   0.0000000   0.0000000   0.0000000   0.0000000   0.0000000   0.0000000   0.0000000
 NMagM=    2.7928460   0.0000000   2.7928460   2.7928460   2.7928460   0.0000000   2.7928460   2.7928460   2.7928460
 AtZNuc=   1.0000000   6.0000000   1.0000000   1.0000000   1.0000000   6.0000000   1.0000000   1.0000000   1.0000000
 Leave Link  101 at Fri Jan 23 16:18:22 2026, MaxMem=  2147483648 cpu:               0.8 elap:               0.1
 (Enter /data/home/wyx/g16/l202.exe)
                          Input orientation:                          
 ---------------------------------------------------------------------
 Center     Atomic      Atomic             Coordinates (Angstroms)
 Number     Number       Type             X           Y           Z
 ---------------------------------------------------------------------
      1          8           0        2.823309   -1.571917    0.226312
      2          8           0       -3.436910   -1.628622   -0.025317
      3          7           0       -0.636108    1.514788   -0.322093
      4          1           0       -0.946690    2.470928   -0.369045
      5          6           0       -1.239446   -0.757451   -0.214530
      6          6           0        0.695881    1.299398   -0.064709
      7          6           0       -1.611050    0.541021   -0.285275
      8          6           0       -2.219268   -1.823338   -0.141202
      9          6           0        0.222365   -1.121029   -0.284076
     10          1           0        0.443052   -1.925290    0.415621
     11          1           0        0.468655   -1.522421   -1.274644
     12          6           0        1.149267    0.029813    0.023014
     13          6           0        2.512405   -0.389892    0.337086
     14          6           0       -3.000206    1.079376   -0.321017
     15          1           0       -3.015643    2.082621   -0.749928
     16          1           0       -3.672431    0.455635   -0.903850
     17          1           0       -3.421290    1.131777    0.683783
     18          6           0       -1.758574   -3.251268   -0.215546
     19          1           0       -2.571994   -3.932686   -0.458416
     20          1           0       -0.970756   -3.403459   -0.954330
     21          1           0       -1.345091   -3.576004    0.743372
     22          6           0        3.566886    0.563926    0.836195
     23          1           0        3.981588    1.156312    0.020017
     24          1           0        3.206157    1.249899    1.598725
     25          1           0        4.367587   -0.044502    1.250077
     26          6           0        1.457849    2.578016    0.084068
     27          1           0        1.609332    2.834429    1.132945
     28          1           0        2.427350    2.551775   -0.400645
     29          1           0        0.913772    3.408164   -0.366591
 ---------------------------------------------------------------------
                    Distance matrix (angstroms):
                    1          2          3          4          5
     1  O    0.000000
     2  O    6.265531   0.000000
     3  N    4.668625   4.220615   0.000000
     4  H    5.559851   4.808914   1.006414   0.000000
     5  C    4.166974   2.371411   2.353435   3.245306   0.000000
     6  C    3.585400   5.065058   1.373621   2.040378   2.828173
     7  C    4.938600   2.847577   1.378437   2.042776   1.352451
     8  C    5.062199   1.238546   3.698946   4.484650   1.449670
     9  C    2.688625   3.703363   2.772355   3.778368   1.507951
    10  H    2.413780   3.916190   3.680074   4.676945   2.142834
    11  H    2.792797   4.101894   3.369346   4.332453   2.150960
    12  C    2.325787   4.877065   2.347725   3.241263   2.526294
    13  C    1.227239   6.087704   3.738376   4.544035   3.809956
    14  C    6.422013   2.758877   2.403860   2.481059   2.546674
    15  H    6.957158   3.804714   2.483478   2.139257   3.392276
    16  H    6.898034   2.274075   3.267951   3.431776   2.804667
    17  H    6.820136   2.850065   2.985921   3.004233   3.022680
    18  C    4.899909   2.342217   4.897609   5.781543   2.547277
    19  H    5.928860   2.498873   5.782838   6.607259   3.452142
    20  H    4.375316   3.177267   4.969997   5.903521   2.760590
    21  H    4.653953   2.959542   5.249194   6.161297   2.978754
    22  C    2.342368   7.389359   4.462166   5.045952   5.094201
    23  H    2.971094   7.924142   4.644207   5.115419   5.565671
    24  H    3.161129   7.419820   4.303802   4.754910   5.203915
    25  H    2.401226   8.065125   5.471752   6.098400   5.838852
    26  C    4.371116   6.454954   2.383291   2.449201   4.299989
    27  H    4.659572   6.835565   2.983385   2.986864   4.778371
    28  H    4.189832   7.211528   3.235164   3.375156   4.942773
    29  H    5.366477   6.664392   2.447239   2.083203   4.691675
                    6          7          8          9         10
     6  C    0.000000
     7  C    2.438384   0.000000
     8  C    4.272637   2.445584   0.000000
     9  C    2.476046   2.474636   2.544646   0.000000
    10  H    3.270054   3.285313   2.721836   1.088630   0.000000
    11  H    3.078675   3.092219   2.932605   1.096813   1.737802
    12  C    1.350963   2.824133   3.848138   1.509268   2.115492
    13  C    2.512946   4.272799   4.967117   2.482879   2.577952
    14  C    3.711491   1.490254   3.011303   3.902321   4.628896
    15  H    3.854656   2.136660   4.032527   4.578765   5.420740
    16  H    4.527499   2.153884   2.808386   4.247284   4.934269
    17  H    4.188011   2.136594   3.295172   4.391823   4.934644
    18  C    5.172588   3.795798   1.502248   2.909765   2.646459
    19  H    6.181320   4.579022   2.162034   3.967903   3.726135
    20  H    5.068133   4.051732   2.171806   2.661252   2.461829
    21  H    5.346785   4.251911   2.149068   3.088603   2.455551
    22  C    3.097615   5.298041   6.335133   3.908951   4.016394
    23  H    3.289912   5.634659   6.881491   4.405736   4.708929
    24  H    3.011802   5.220867   6.473590   4.250795   4.372220
    25  H    4.125064   6.200342   6.963230   4.549220   4.431214
    26  C    1.495859   3.701878   5.739674   3.917255   4.628121
    27  H    2.150602   4.200230   6.162501   4.424621   4.952745
    28  H    2.163166   4.512773   6.387486   4.285445   4.964659
    29  H    2.141379   3.821236   6.102078   4.582406   5.411023
                   11         12         13         14         15
    11  H    0.000000
    12  C    2.134615   0.000000
    13  C    2.838522   1.460458   0.000000
    14  C    4.439792   4.293957   5.742885   0.000000
    15  H    5.041030   4.707222   6.152580   1.091194   0.000000
    16  H    4.604214   4.928405   6.364514   1.086570   1.761291
    17  H    5.100184   4.747729   6.135504   1.090725   1.767535
    18  C    3.011835   4.390665   5.170506   4.506357   5.506011
    19  H    3.964991   5.457193   6.247826   5.032197   6.038685
    20  H    2.390148   4.151753   4.783487   4.961407   5.858363
    21  H    3.402832   4.443271   5.019627   5.054196   6.086109
    22  C    4.290399   2.606036   1.506920   6.688163   6.939158
    23  H    4.603526   3.048123   2.156334   6.990542   7.100148
    24  H    4.841066   2.863961   2.182187   6.498725   6.702268
    25  H    4.874437   3.445111   2.096318   7.616811   7.939569
    26  C    4.431499   2.567545   3.159839   4.720622   4.577455
    27  H    5.106836   3.051144   3.441682   5.142184   5.049834
    28  H    4.604284   2.858894   3.033956   5.624292   5.474329
    29  H    5.033225   3.408886   4.180433   4.554619   4.164650
                   16         17         18         19         20
    16  H    0.000000
    17  H    1.743794   0.000000
    18  C    4.228208   4.773311   0.000000
    19  H    4.546068   5.260676   1.088563   0.000000
    20  H    4.711072   5.408964   1.090698   1.757832   0.000000
    21  H    4.938012   5.145615   1.093593   1.754083   1.747023
    22  C    7.446287   7.012866   6.634937   7.718898   6.287791
    23  H    7.741349   7.432617   7.240974   8.311211   6.801954
    24  H    7.362656   6.691347   6.942668   8.029822   6.754142
    25  H    8.338551   7.897527   7.068327   8.136013   6.681310
    26  C    5.639172   5.124184   6.664510   7.676143   6.538688
    27  H    6.140376   5.329909   7.084979   8.112322   7.065750
    28  H    6.469494   6.115470   7.157620   8.188102   6.878845
    29  H    5.480815   5.007793   7.177206   8.126935   7.091903
                   21         22         23         24         25
    21  H    0.000000
    22  C    6.424574   0.000000
    23  H    7.161813   1.090434   0.000000
    24  H    6.688410   1.087261   1.761355   0.000000
    25  H    6.735202   1.087476   1.761816   1.773682   0.000000
    26  C    6.794344   3.011692   2.897344   2.667332   4.087022
    27  H    7.069231   3.012518   3.111637   2.297289   3.988726
    28  H    7.286272   2.603816   2.130711   2.509761   3.637315
    29  H    7.423819   4.071289   3.825153   3.711550   5.144255
                   26         27         28         29
    26  C    0.000000
    27  H    1.090338   0.000000
    28  H    1.084236   1.760950   0.000000
    29  H    1.090073   1.749738   1.739391   0.000000
 Stoichiometry    C11H15NO2
 Framework group  C1[X(C11H15NO2)]
 Deg. of freedom    81
 Full point group                 C1      NOp   1
 Largest Abelian subgroup         C1      NOp   1
 Largest concise Abelian subgroup C1      NOp   1
                         Standard orientation:                         
 ---------------------------------------------------------------------
 Center     Atomic      Atomic             Coordinates (Angstroms)
 Number     Number       Type             X           Y           Z
 ---------------------------------------------------------------------
      1          8           0        2.275730   -2.292871   -0.133382
      2          8           0       -3.619138   -0.229449    0.366314
      3          7           0        0.035612    1.802577   -0.205759
      4          1           0        0.065794    2.808504   -0.197400
      5          6           0       -1.289808   -0.137309   -0.068794
      6          6           0        1.234173    1.137855   -0.113959
      7          6           0       -1.202683    1.212331   -0.070388
      8          6           0       -2.560121   -0.814644    0.101695
      9          6           0       -0.055194   -0.965942   -0.319821
     10          1           0       -0.048175   -1.836832    0.333337
     11          1           0       -0.067155   -1.368437   -1.340043
     12          6           0        1.235093   -0.213077   -0.104781
     13          6           0        2.399270   -1.083639    0.035766
     14          6           0       -2.321156    2.187002    0.070659
     15          1           0       -2.039871    3.160307   -0.334630
     16          1           0       -3.223507    1.860195   -0.438845
     17          1           0       -2.589739    2.319263    1.119492
     18          6           0       -2.623512   -2.307477   -0.053811
     19          1           0       -3.641203   -2.660855   -0.210004
     20          1           0       -2.017927   -2.672161   -0.884409
     21          1           0       -2.245594   -2.807350    0.842432
     22          6           0        3.762156   -0.570004    0.422458
     23          1           0        4.264267   -0.104893   -0.426425
     24          1           0        3.739752    0.151719    1.235323
     25          1           0        4.347270   -1.434934    0.726007
     26          6           0        2.396988    2.075431   -0.033920
     27          1           0        2.737455    2.204670    0.993804
     28          1           0        3.242227    1.753385   -0.631770
     29          1           0        2.123161    3.064776   -0.400629
 ---------------------------------------------------------------------
 Rotational constants (GHZ):           1.0892909           0.4885504           0.3445927
 Leave Link  202 at Fri Jan 23 16:18:22 2026, MaxMem=  2147483648 cpu:               0.0 elap:               0.0
 (Enter /data/home/wyx/g16/l301.exe)
 Standard basis: TZVP (5D, 7F)
 Ernie: Thresh=  0.10000D-02 Tol=  0.10000D-05 Strict=F.
 There are   370 symmetry adapted cartesian basis functions of A   symmetry.
 There are   356 symmetry adapted basis functions of A   symmetry.
   356 basis functions,   610 primitive gaussians,   370 cartesian basis functions
    52 alpha electrons       52 beta electrons
       nuclear repulsion energy       900.7893226350 Hartrees.
 IExCor=20419 DFT=T Ex+Corr=CAM-B3LYP ExCW=0 ScaHFX=  1.000000
 ScaDFX=  1.000000  1.000000  1.000000  0.810000 ScalE2=  1.000000  1.000000
 IRadAn=      5 IRanWt=     -1 IRanGd=            0 ICorTp=0 IEmpDi=141
 HFx  wShort=  0.000000 wLong=  0.330000 cFull=  0.190000 cShort=  0.000000 cLong=  0.460000
 DFx  wShort=  0.000000 wLong=  0.330000 cFull=  0.190000 cShort=  0.000000 cLong=  0.460000
 NAtoms=   29 NActive=   29 NUniq=   29 SFac= 1.00D+00 NAtFMM=   60 NAOKFM=F Big=F
 Integral buffers will be    131072 words long.
 Raffenetti 1 integral format.
 Two-electron integral symmetry is turned on.
 R6Disp:  Grimme-D3(BJ) Dispersion energy=       -0.0261833944 Hartrees.
 Nuclear repulsion after empirical dispersion term =      900.7631392405 Hartrees.
 ------------------------------------------------------------------------------
 Polarizable Continuum Model (PCM)
 =================================
 Model                : PCM.
 Atomic radii         : UFF (Universal Force Field).
 Polarization charges : Total charges.
 Charge compensation  : None.
 Solution method      : On-the-fly selection.
 Cavity type          : Scaled VdW (van der Waals Surface) (Alpha=1.100).
 Cavity algorithm     : GePol (No added spheres)
                        Default sphere list used, NSphG=   29.
                        Lebedev-Laikov grids with approx.  5.0 points / Ang**2.
                        Smoothing algorithm: York/Karplus (Gamma=1.0000).
                        Polarization charges: spherical gaussians, with
                                              point-specific exponents (IZeta= 3).
                        Self-potential: point-specific (ISelfS= 7).
                        Self-field    : sphere-specific E.n sum rule (ISelfD= 2).
 Solvent              : TetraHydroFuran, Eps=   7.425700 Eps(inf)=   1.974025
 ------------------------------------------------------------------------------
 GePol: Number of generator spheres                  =      29
 GePol: Total number of spheres                      =      29
 GePol: Number of exposed spheres                    =      29 (100.00%)
 GePol: Number of points                             =    2113
 GePol: Average weight of points                     =       0.13
 GePol: Minimum weight of points                     =   0.33D-08
 GePol: Maximum weight of points                     =    0.20577
 GePol: Number of points with low weight             =     146
 GePol: Fraction of low-weight points (<1% of avg)   =       6.91%
 GePol: Cavity surface area                          =    268.186 Ang**2
 GePol: Cavity volume                                =    286.052 Ang**3
 Leave Link  301 at Fri Jan 23 16:18:22 2026, MaxMem=  2147483648 cpu:               0.6 elap:               0.0
 (Enter /data/home/wyx/g16/l302.exe)
 NPDir=0 NMtPBC=     1 NCelOv=     1 NCel=       1 NClECP=     1 NCelD=      1
         NCelK=      1 NCelE2=     1 NClLst=     1 CellRange=     0.0.
 One-electron integrals computed using PRISM.
 One-electron integral symmetry used in STVInt
 NBasis=   356 RedAO= T EigKep=  4.32D-05  NBF=   356
 NBsUse=   356 1.00D-06 EigRej= -1.00D+00 NBFU=   356
 Precomputing XC quadrature grid using
 IXCGrd= 4 IRadAn=           5 IRanWt=          -1 IRanGd=           0 AccXCQ= 0.00D+00.
 Generated NRdTot=       0 NPtTot=           0 NUsed=           0 NTot=          32
 NSgBfM=   366   366   366   366   366 MxSgAt=    29 MxSgA2=    29.
 Leave Link  302 at Fri Jan 23 16:18:22 2026, MaxMem=  2147483648 cpu:               3.1 elap:               0.2
 (Enter /data/home/wyx/g16/l303.exe)
 DipDrv:  MaxL=1.
 Leave Link  303 at Fri Jan 23 16:18:23 2026, MaxMem=  2147483648 cpu:               0.6 elap:               0.0
 (Enter /data/home/wyx/g16/l308.exe)
 Leave Link  308 at Fri Jan 23 16:18:23 2026, MaxMem=  2147483648 cpu:               0.7 elap:               0.1
 (Enter /data/home/wyx/g16/l401.exe)
 ExpMin= 9.52D-02 ExpMax= 2.70D+04 ExpMxC= 9.22D+02 IAcc=3 IRadAn=         5 AccDes= 0.00D+00
 Harris functional with IExCor=20419 and IRadAn=       5 diagonalized for initial guess.
 HarFok:  IExCor=20419 AccDes= 0.00D+00 IRadAn=         5 IDoV= 1 UseB2=F ITyADJ=14
 ICtDFT=  3500011 ScaDFX=  1.000000  1.000000  1.000000  1.000000
 FoFCou: FMM=F IPFlag=           0 FMFlag=      100000 FMFlg1=           0
         NFxFlg=           0 DoJE=T BraDBF=F KetDBF=T FulRan=T
         wScrn=  0.000000 ICntrl=       500 IOpCl=  0 I1Cent=   200000004 NGrid=           0
         NMat0=    1 NMatS0=      1 NMatT0=    0 NMatD0=    1 NMtDS0=    0 NMtDT0=    0
 Petite list used in FoFCou.
 Harris En= -608.711695822737    
 JPrj=0 DoOrth=F DoCkMO=F.
 Leave Link  401 at Fri Jan 23 16:18:23 2026, MaxMem=  2147483648 cpu:              11.8 elap:               0.8
 (Enter /data/home/wyx/g16/l502.exe)
 Integral symmetry usage will be decided dynamically.
 Closed shell SCF:
 Using DIIS extrapolation, IDIIS=  1040.
 NGot=  2147483648 LenX=  2147200095 LenY=  2147062754
 Requested convergence on RMS density matrix=1.00D-08 within 128 cycles.
 Requested convergence on MAX density matrix=1.00D-06.
 Requested convergence on             energy=1.00D-06.
 No special actions if energy rises.
 Fock matrices will be formed incrementally for  20 cycles.

 Cycle   1  Pass 1  IDiag  1:
 FoFJK:  IHMeth= 1 ICntrl=       0 DoSepK=T KAlg= 0 I1Cent=           0 FoldK=F
 IRaf=         1 NMat=       1 IRICut=       1 DoRegI=T DoRafI=F ISym2E= 0 IDoP0=0 IntGTp=1.
 FoFCou: FMM=F IPFlag=           0 FMFlag=      100000 FMFlg1=           0
         NFxFlg=           0 DoJE=T BraDBF=F KetDBF=F FulRan=T
         wScrn=  0.000000 ICntrl=       500 IOpCl=  0 I1Cent=           0 NGrid=           0
         NMat0=    1 NMatS0=      1 NMatT0=    0 NMatD0=    1 NMtDS0=    0 NMtDT0=    0
 Symmetry not used in FoFCou.
 Inv3:  Mode=1 IEnd=    13394307.
 Iteration    1 A*A^-1 deviation from unit magnitude is 2.89D-15 for    571.
 Iteration    1 A*A^-1 deviation from orthogonality  is 1.67D-15 for   2033   1568.
 Iteration    1 A^-1*A deviation from unit magnitude is 2.89D-15 for    571.
 Iteration    1 A^-1*A deviation from orthogonality  is 1.82D-15 for   1762    742.
 E= -633.128913336050    
 DIIS: error= 4.07D-02 at cycle   1 NSaved=   1.
 NSaved= 1 IEnMin= 1 EnMin= -633.128913336050     IErMin= 1 ErrMin= 4.07D-02
 ErrMax= 4.07D-02  0.00D+00 EMaxC= 1.00D-01 BMatC= 1.09D+00 BMatP= 1.09D+00
 IDIUse=3 WtCom= 5.93D-01 WtEn= 4.07D-01
 Coeff-Com:  0.100D+01
 Coeff-En:   0.100D+01
 Coeff:      0.100D+01
 Gap=     0.231 Goal=   None    Shift=    0.000
 GapD=    0.231 DampG=1.000 DampE=0.500 DampFc=0.5000 IDamp=-1.
 Damping current iteration by 5.00D-01
 RMSDP=4.12D-03 MaxDP=1.67D-01              OVMax= 1.46D-01

 Cycle   2  Pass 1  IDiag  1:
 RMSU=  1.81D-03    CP:  9.29D-01
 E= -633.224780180759     Delta-E=       -0.095866844709 Rises=F Damp=T
 DIIS: error= 1.86D-02 at cycle   2 NSaved=   2.
 NSaved= 2 IEnMin= 2 EnMin= -633.224780180759     IErMin= 2 ErrMin= 1.86D-02
 ErrMax= 1.86D-02  0.00D+00 EMaxC= 1.00D-01 BMatC= 2.24D-01 BMatP= 1.09D+00
 IDIUse=3 WtCom= 8.14D-01 WtEn= 1.86D-01
 Coeff-Com: -0.594D+00 0.159D+01
 Coeff-En:   0.000D+00 0.100D+01
 Coeff:     -0.484D+00 0.148D+01
 Gap=     0.244 Goal=   None    Shift=    0.000
 RMSDP=1.56D-03 MaxDP=4.89D-02 DE=-9.59D-02 OVMax= 1.39D-01

 Cycle   3  Pass 1  IDiag  1:
 RMSU=  1.44D-03    CP:  9.01D-01  1.25D+00
 E= -633.272775138912     Delta-E=       -0.047994958153 Rises=F Damp=F
 DIIS: error= 1.17D-02 at cycle   3 NSaved=   3.
 NSaved= 3 IEnMin= 3 EnMin= -633.272775138912     IErMin= 3 ErrMin= 1.17D-02
 ErrMax= 1.17D-02  0.00D+00 EMaxC= 1.00D-01 BMatC= 6.50D-02 BMatP= 2.24D-01
 IDIUse=3 WtCom= 8.83D-01 WtEn= 1.17D-01
 Coeff-Com: -0.366D+00 0.802D+00 0.564D+00
 Coeff-En:   0.000D+00 0.000D+00 0.100D+01
 Coeff:     -0.323D+00 0.708D+00 0.615D+00
 Gap=     0.242 Goal=   None    Shift=    0.000
 RMSDP=1.38D-03 MaxDP=7.31D-02 DE=-4.80D-02 OVMax= 7.87D-02

 Cycle   4  Pass 1  IDiag  1:
 RMSU=  5.41D-04    CP:  8.53D-01  1.73D+00  5.46D-01
 E= -633.321836492632     Delta-E=       -0.049061353720 Rises=F Damp=F
 DIIS: error= 4.10D-03 at cycle   4 NSaved=   4.
 NSaved= 4 IEnMin= 4 EnMin= -633.321836492632     IErMin= 4 ErrMin= 4.10D-03
 ErrMax= 4.10D-03  0.00D+00 EMaxC= 1.00D-01 BMatC= 6.79D-03 BMatP= 6.50D-02
 IDIUse=3 WtCom= 9.59D-01 WtEn= 4.10D-02
 Coeff-Com: -0.169D+00 0.365D+00 0.357D+00 0.447D+00
 Coeff-En:   0.000D+00 0.000D+00 0.129D-01 0.987D+00
 Coeff:     -0.162D+00 0.350D+00 0.343D+00 0.469D+00
 Gap=     0.237 Goal=   None    Shift=    0.000
 RMSDP=3.32D-04 MaxDP=2.11D-02 DE=-4.91D-02 OVMax= 1.60D-02

 Cycle   5  Pass 1  IDiag  1:
 RMSU=  1.02D-04    CP:  8.64D-01  1.66D+00  6.74D-01  6.78D-01
 E= -633.327058268608     Delta-E=       -0.005221775977 Rises=F Damp=F
 DIIS: error= 4.21D-04 at cycle   5 NSaved=   5.
 NSaved= 5 IEnMin= 5 EnMin= -633.327058268608     IErMin= 5 ErrMin= 4.21D-04
 ErrMax= 4.21D-04  0.00D+00 EMaxC= 1.00D-01 BMatC= 7.19D-05 BMatP= 6.79D-03
 IDIUse=3 WtCom= 9.96D-01 WtEn= 4.21D-03
 Coeff-Com: -0.288D-01 0.615D-01 0.722D-01 0.150D+00 0.746D+00
 Coeff-En:   0.000D+00 0.000D+00 0.000D+00 0.000D+00 0.100D+01
 Coeff:     -0.287D-01 0.612D-01 0.719D-01 0.149D+00 0.747D+00
 Gap=     0.237 Goal=   None    Shift=    0.000
 RMSDP=1.20D-04 MaxDP=5.91D-03 DE=-5.22D-03 OVMax= 2.07D-03

 Cycle   6  Pass 1  IDiag  1:
 RMSU=  5.08D-05    CP:  8.59D-01  1.69D+00  6.80D-01  8.01D-01  1.12D+00
 E= -633.327101638735     Delta-E=       -0.000043370127 Rises=F Damp=F
 DIIS: error= 3.93D-04 at cycle   6 NSaved=   6.
 NSaved= 6 IEnMin= 6 EnMin= -633.327101638735     IErMin= 6 ErrMin= 3.93D-04
 ErrMax= 3.93D-04  0.00D+00 EMaxC= 1.00D-01 BMatC= 2.58D-05 BMatP= 7.19D-05
 IDIUse=3 WtCom= 9.96D-01 WtEn= 3.93D-03
 Coeff-Com:  0.175D-01-0.381D-01-0.295D-01-0.693D-02 0.441D+00 0.616D+00
 Coeff-En:   0.000D+00 0.000D+00 0.000D+00 0.000D+00 0.144D+00 0.856D+00
 Coeff:      0.174D-01-0.380D-01-0.294D-01-0.690D-02 0.440D+00 0.617D+00
 Gap=     0.238 Goal=   None    Shift=    0.000
 RMSDP=2.55D-05 MaxDP=1.22D-03 DE=-4.34D-05 OVMax= 2.83D-03

 Cycle   7  Pass 1  IDiag  1:
 RMSU=  1.86D-05    CP:  8.59D-01  1.69D+00  6.83D-01  8.00D-01  1.23D+00
                    CP:  7.90D-01
 E= -633.327125133862     Delta-E=       -0.000023495126 Rises=F Damp=F
 DIIS: error= 4.10D-05 at cycle   7 NSaved=   7.
 NSaved= 7 IEnMin= 7 EnMin= -633.327125133862     IErMin= 7 ErrMin= 4.10D-05
 ErrMax= 4.10D-05  0.00D+00 EMaxC= 1.00D-01 BMatC= 8.82D-07 BMatP= 2.58D-05
 IDIUse=1 WtCom= 1.00D+00 WtEn= 0.00D+00
 Coeff-Com:  0.421D-02-0.908D-02-0.792D-02-0.108D-01 0.622D-02 0.151D+00
 Coeff-Com:  0.867D+00
 Coeff:      0.421D-02-0.908D-02-0.792D-02-0.108D-01 0.622D-02 0.151D+00
 Coeff:      0.867D+00
 Gap=     0.238 Goal=   None    Shift=    0.000
 RMSDP=1.62D-05 MaxDP=7.68D-04 DE=-2.35D-05 OVMax= 5.83D-04

 Cycle   8  Pass 1  IDiag  1:
 RMSU=  5.00D-06    CP:  8.58D-01  1.70D+00  6.85D-01  8.17D-01  1.28D+00
                    CP:  9.18D-01  1.05D+00
 E= -633.327126426803     Delta-E=       -0.000001292942 Rises=F Damp=F
 DIIS: error= 2.32D-05 at cycle   8 NSaved=   8.
 NSaved= 8 IEnMin= 8 EnMin= -633.327126426803     IErMin= 8 ErrMin= 2.32D-05
 ErrMax= 2.32D-05  0.00D+00 EMaxC= 1.00D-01 BMatC= 1.18D-07 BMatP= 8.82D-07
 IDIUse=1 WtCom= 1.00D+00 WtEn= 0.00D+00
 Coeff-Com: -0.337D-03 0.796D-03 0.230D-03-0.449D-02-0.603D-01-0.972D-02
 Coeff-Com:  0.307D+00 0.766D+00
 Coeff:     -0.337D-03 0.796D-03 0.230D-03-0.449D-02-0.603D-01-0.972D-02
 Coeff:      0.307D+00 0.766D+00
 Gap=     0.238 Goal=   None    Shift=    0.000
 RMSDP=4.58D-06 MaxDP=2.64D-04 DE=-1.29D-06 OVMax= 3.74D-04

 Cycle   9  Pass 1  IDiag  1:
 RMSU=  1.40D-06    CP:  8.58D-01  1.70D+00  6.85D-01  8.21D-01  1.30D+00
                    CP:  9.48D-01  1.15D+00  1.19D+00
 E= -633.327126620793     Delta-E=       -0.000000193990 Rises=F Damp=F
 DIIS: error= 4.81D-06 at cycle   9 NSaved=   9.
 NSaved= 9 IEnMin= 9 EnMin= -633.327126620793     IErMin= 9 ErrMin= 4.81D-06
 ErrMax= 4.81D-06  0.00D+00 EMaxC= 1.00D-01 BMatC= 1.70D-08 BMatP= 1.18D-07
 IDIUse=1 WtCom= 1.00D+00 WtEn= 0.00D+00
 Coeff-Com: -0.858D-03 0.187D-02 0.156D-02 0.249D-03-0.226D-01-0.203D-01
 Coeff-Com: -0.324D-01 0.273D+00 0.799D+00
 Coeff:     -0.858D-03 0.187D-02 0.156D-02 0.249D-03-0.226D-01-0.203D-01
 Coeff:     -0.324D-01 0.273D+00 0.799D+00
 Gap=     0.238 Goal=   None    Shift=    0.000
 RMSDP=1.74D-06 MaxDP=7.38D-05 DE=-1.94D-07 OVMax= 1.12D-04

 Cycle  10  Pass 1  IDiag  1:
 RMSU=  6.80D-07    CP:  8.58D-01  1.70D+00  6.85D-01  8.22D-01  1.30D+00
                    CP:  9.65D-01  1.18D+00  1.32D+00  1.16D+00
 E= -633.327126645936     Delta-E=       -0.000000025142 Rises=F Damp=F
 DIIS: error= 1.43D-06 at cycle  10 NSaved=  10.
 NSaved=10 IEnMin=10 EnMin= -633.327126645936     IErMin=10 ErrMin= 1.43D-06
 ErrMax= 1.43D-06  0.00D+00 EMaxC= 1.00D-01 BMatC= 1.28D-09 BMatP= 1.70D-08
 IDIUse=1 WtCom= 1.00D+00 WtEn= 0.00D+00
 Coeff-Com: -0.240D-03 0.518D-03 0.472D-03 0.333D-03-0.317D-02-0.461D-02
 Coeff-Com: -0.370D-01 0.317D-01 0.253D+00 0.759D+00
 Coeff:     -0.240D-03 0.518D-03 0.472D-03 0.333D-03-0.317D-02-0.461D-02
 Coeff:     -0.370D-01 0.317D-01 0.253D+00 0.759D+00
 Gap=     0.238 Goal=   None    Shift=    0.000
 RMSDP=4.47D-07 MaxDP=2.84D-05 DE=-2.51D-08 OVMax= 2.74D-05

 Cycle  11  Pass 1  IDiag  1:
 RMSU=  2.24D-07    CP:  8.58D-01  1.70D+00  6.85D-01  8.23D-01  1.30D+00
                    CP:  9.67D-01  1.18D+00  1.35D+00  1.27D+00  1.02D+00
 E= -633.327126647501     Delta-E=       -0.000000001565 Rises=F Damp=F
 DIIS: error= 1.09D-06 at cycle  11 NSaved=  11.
 NSaved=11 IEnMin=11 EnMin= -633.327126647501     IErMin=11 ErrMin= 1.09D-06
 ErrMax= 1.09D-06  0.00D+00 EMaxC= 1.00D-01 BMatC= 4.02D-10 BMatP= 1.28D-09
 IDIUse=1 WtCom= 1.00D+00 WtEn= 0.00D+00
 Coeff-Com:  0.143D-04-0.340D-04-0.444D-05 0.117D-03 0.193D-02 0.125D-02
 Coeff-Com: -0.144D-01-0.259D-01-0.130D-02 0.415D+00 0.624D+00
 Coeff:      0.143D-04-0.340D-04-0.444D-05 0.117D-03 0.193D-02 0.125D-02
 Coeff:     -0.144D-01-0.259D-01-0.130D-02 0.415D+00 0.624D+00
 Gap=     0.238 Goal=   None    Shift=    0.000
 RMSDP=1.72D-07 MaxDP=8.32D-06 DE=-1.57D-09 OVMax= 9.21D-06

 Cycle  12  Pass 1  IDiag  1:
 RMSU=  1.16D-07    CP:  8.58D-01  1.70D+00  6.85D-01  8.23D-01  1.30D+00
                    CP:  9.68D-01  1.18D+00  1.36D+00  1.27D+00  1.10D+00
                    CP:  8.01D-01
 E= -633.327126647872     Delta-E=       -0.000000000371 Rises=F Damp=F
 DIIS: error= 2.48D-07 at cycle  12 NSaved=  12.
 NSaved=12 IEnMin=12 EnMin= -633.327126647872     IErMin=12 ErrMin= 2.48D-07
 ErrMax= 2.48D-07  0.00D+00 EMaxC= 1.00D-01 BMatC= 3.52D-11 BMatP= 4.02D-10
 IDIUse=1 WtCom= 1.00D+00 WtEn= 0.00D+00
 Coeff-Com:  0.241D-04-0.535D-04-0.363D-04 0.334D-04 0.119D-02 0.964D-03
 Coeff-Com: -0.366D-02-0.147D-01-0.270D-01 0.122D+00 0.295D+00 0.626D+00
 Coeff:      0.241D-04-0.535D-04-0.363D-04 0.334D-04 0.119D-02 0.964D-03
 Coeff:     -0.366D-02-0.147D-01-0.270D-01 0.122D+00 0.295D+00 0.626D+00
 Gap=     0.238 Goal=   None    Shift=    0.000
 RMSDP=5.02D-08 MaxDP=3.31D-06 DE=-3.71D-10 OVMax= 2.69D-06

 Cycle  13  Pass 1  IDiag  1:
 RMSU=  2.61D-08    CP:  8.58D-01  1.70D+00  6.85D-01  8.23D-01  1.30D+00
                    CP:  9.68D-01  1.18D+00  1.37D+00  1.28D+00  1.12D+00
                    CP:  9.16D-01  9.27D-01
 E= -633.327126647914     Delta-E=       -0.000000000042 Rises=F Damp=F
 DIIS: error= 1.05D-07 at cycle  13 NSaved=  13.
 NSaved=13 IEnMin=13 EnMin= -633.327126647914     IErMin=13 ErrMin= 1.05D-07
 ErrMax= 1.05D-07  0.00D+00 EMaxC= 1.00D-01 BMatC= 3.27D-12 BMatP= 3.52D-11
 IDIUse=1 WtCom= 1.00D+00 WtEn= 0.00D+00
 Coeff-Com:  0.592D-05-0.126D-04-0.129D-04-0.144D-04 0.176D-04 0.736D-04
 Coeff-Com:  0.160D-02 0.758D-03-0.979D-02-0.379D-01-0.249D-01 0.198D+00
 Coeff-Com:  0.872D+00
 Coeff:      0.592D-05-0.126D-04-0.129D-04-0.144D-04 0.176D-04 0.736D-04
 Coeff:      0.160D-02 0.758D-03-0.979D-02-0.379D-01-0.249D-01 0.198D+00
 Coeff:      0.872D+00
 Gap=     0.238 Goal=   None    Shift=    0.000
 RMSDP=2.47D-08 MaxDP=1.18D-06 DE=-4.24D-11 OVMax= 2.39D-06

 Cycle  14  Pass 1  IDiag  1:
 RMSU=  1.31D-08    CP:  8.58D-01  1.70D+00  6.85D-01  8.23D-01  1.30D+00
                    CP:  9.68D-01  1.18D+00  1.37D+00  1.28D+00  1.13D+00
                    CP:  9.44D-01  1.08D+00  1.09D+00
 E= -633.327126647926     Delta-E=       -0.000000000011 Rises=F Damp=F
 DIIS: error= 4.71D-08 at cycle  14 NSaved=  14.
 NSaved=14 IEnMin=14 EnMin= -633.327126647926     IErMin=14 ErrMin= 4.71D-08
 ErrMax= 4.71D-08  0.00D+00 EMaxC= 1.00D-01 BMatC= 2.67D-13 BMatP= 3.27D-12
 IDIUse=1 WtCom= 1.00D+00 WtEn= 0.00D+00
 Coeff-Com: -0.169D-05 0.382D-05 0.224D-05-0.473D-05-0.112D-03-0.789D-04
 Coeff-Com:  0.519D-03 0.163D-02 0.172D-02-0.150D-01-0.323D-01-0.479D-01
 Coeff-Com:  0.543D-01 0.104D+01
 Coeff:     -0.169D-05 0.382D-05 0.224D-05-0.473D-05-0.112D-03-0.789D-04
 Coeff:      0.519D-03 0.163D-02 0.172D-02-0.150D-01-0.323D-01-0.479D-01
 Coeff:      0.543D-01 0.104D+01
 Gap=     0.238 Goal=   None    Shift=    0.000
 RMSDP=9.39D-09 MaxDP=4.97D-07 DE=-1.15D-11 OVMax= 1.30D-06

 Error on total polarization charges =  0.01419
 SCF Done:  E(RCAM-B3LYP) =  -633.327126648     A.U. after   14 cycles
            NFock= 14  Conv=0.94D-08     -V/T= 2.0041
 KE= 6.307362398920D+02 PE=-3.277609671374D+03 EE= 1.112783165594D+03
 Leave Link  502 at Fri Jan 23 16:19:19 2026, MaxMem=  2147483648 cpu:             876.8 elap:              55.2
 (Enter /data/home/wyx/g16/l801.exe)
 DoSCS=F DFT=T ScalE2(SS,OS)=  1.000000  1.000000
 ExpMin= 9.52D-02 ExpMax= 2.70D+04 ExpMxC= 9.22D+02 IAcc=3 IRadAn=         5 AccDes= 0.00D+00
 HarFok:  IExCor=  205 AccDes= 0.00D+00 IRadAn=         5 IDoV=-2 UseB2=F ITyADJ=14
 ICtDFT= 12500011 ScaDFX=  1.000000  1.000000  1.000000  1.000000
 Largest valence mixing into a core orbital is  5.64D-05
 Largest core mixing into a valence orbital is  1.19D-05
 Range of M.O.s used for correlation:    15   356
 NBasis=   356 NAE=    52 NBE=    52 NFC=    14 NFV=     0
 NROrb=    342 NOA=    38 NOB=    38 NVA=   304 NVB=   304

 **** Warning!!: The largest alpha MO coefficient is  0.53285196D+02

 Leave Link  801 at Fri Jan 23 16:19:19 2026, MaxMem=  2147483648 cpu:               1.0 elap:               0.1
 (Enter /data/home/wyx/g16/l914.exe)
 RHF ground state
 Two-electron integrals replicated using symmetry.
 MDV=  2147483648 DFT=T DoStab=F Mixed=T DoRPA=T DoScal=F NonHer=T
 NEqPCM:  Using non-equilibrium solvation (IEInf=1, Eps=   7.4257, EpsInf=   1.9740)
 Inv3:  Mode=1 IEnd=    13394307.
 Iteration    1 A*A^-1 deviation from unit magnitude is 3.11D-15 for   1407.
 Iteration    1 A*A^-1 deviation from orthogonality  is 1.67D-15 for    825    324.
 Iteration    1 A^-1*A deviation from unit magnitude is 3.00D-15 for   1973.
 Iteration    1 A^-1*A deviation from orthogonality  is 1.54D-15 for   1330    427.
 Making orbital integer symmetry assigments:
 Orbital symmetries:
       Occupied  (A) (A) (A) (A) (A) (A) (A) (A) (A) (A) (A) (A)
                 (A) (A) (A) (A) (A) (A) (A) (A) (A) (A) (A) (A)
                 (A) (A) (A) (A) (A) (A) (A) (A) (A) (A) (A) (A)
                 (A) (A) (A) (A) (A) (A) (A) (A) (A) (A) (A) (A)
                 (A) (A) (A) (A)
       Virtual   (A) (A) (A) (A) (A) (A) (A) (A) (A) (A) (A) (A)
                 (A) (A) (A) (A) (A) (A) (A) (A) (A) (A) (A) (A)
                 (A) (A) (A) (A) (A) (A) (A) (A) (A) (A) (A) (A)
                 (A) (A) (A) (A) (A) (A) (A) (A) (A) (A) (A) (A)
                 (A) (A) (A) (A) (A) (A) (A) (A) (A) (A) (A) (A)
                 (A) (A) (A) (A) (A) (A) (A) (A) (A) (A) (A) (A)
                 (A) (A) (A) (A) (A) (A) (A) (A) (A) (A) (A) (A)
                 (A) (A) (A) (A) (A) (A) (A) (A) (A) (A) (A) (A)
                 (A) (A) (A) (A) (A) (A) (A) (A) (A) (A) (A) (A)
                 (A) (A) (A) (A) (A) (A) (A) (A) (A) (A) (A) (A)
                 (A) (A) (A) (A) (A) (A) (A) (A) (A) (A) (A) (A)
                 (A) (A) (A) (A) (A) (A) (A) (A) (A) (A) (A) (A)
                 (A) (A) (A) (A) (A) (A) (A) (A) (A) (A) (A) (A)
                 (A) (A) (A) (A) (A) (A) (A) (A) (A) (A) (A) (A)
                 (A) (A) (A) (A) (A) (A) (A) (A) (A) (A) (A) (A)
                 (A) (A) (A) (A) (A) (A) (A) (A) (A) (A) (A) (A)
                 (A) (A) (A) (A) (A) (A) (A) (A) (A) (A) (A) (A)
                 (A) (A) (A) (A) (A) (A) (A) (A) (A) (A) (A) (A)
                 (A) (A) (A) (A) (A) (A) (A) (A) (A) (A) (A) (A)
                 (A) (A) (A) (A) (A) (A) (A) (A) (A) (A) (A) (A)
                 (A) (A) (A) (A) (A) (A) (A) (A) (A) (A) (A) (A)
                 (A) (A) (A) (A) (A) (A) (A) (A) (A) (A) (A) (A)
                 (A) (A) (A) (A) (A) (A) (A) (A) (A) (A) (A) (A)
                 (A) (A) (A) (A) (A) (A) (A) (A) (A) (A) (A) (A)
                 (A) (A) (A) (A) (A) (A) (A) (A) (A) (A) (A) (A)
                 (A) (A) (A) (A)
    24 initial guesses have been made.
 Convergence on wavefunction:    0.001000000000000
 Davidson Disk Diagonalization:  ConvIn= 1.00D-03 SkipCon=T Conv= 1.00D-03.
 Max sub-space:  2000 roots to seek:    24 dimension of matrix:        23104
 Iteration     1 Dimension    24 NMult     0 NNew     24
 CISAX will form    24 AO SS matrices at one time.
 NMat=    24 NSing=    24 JSym2X= 0.
 FoFJK:  IHMeth= 1 ICntrl=       0 DoSepK=T KAlg= 0 I1Cent=           0 FoldK=F
 IRaf=         1 NMat=      48 IRICut=       1 DoRegI=T DoRafI=F ISym2E= 0 IDoP0=3 IntGTp=3.
 New state      2 was old state      3
 New state      3 was old state      4
 New state      4 was old state      2
 New state      5 was old state      6
 New state      6 was old state      5
 Excitation Energies [eV] at current iteration:
 Root      1 :     3.938567798389963
 Root      2 :     4.217134074682050
 Root      3 :     4.519870714123496
 Root      4 :     5.573256041353254
 Root      5 :     6.224716201003226
 Root      6 :     6.500389719249352
 Root      7 :     6.763205086334899
 Root      8 :     6.792242665547856
 Root      9 :     6.950935559480939
 Root     10 :     7.097233616057025
 Root     11 :     7.309734098636375
 Root     12 :     7.476481392206495
 Root     13 :     7.593826022219043
 Root     14 :     7.638384174490094
 Root     15 :     7.770293623658754
 Root     16 :     8.064937797339482
 Root     17 :     8.177378948335049
 Root     18 :     8.277542828081112
 Root     19 :     8.302398373209348
 Root     20 :     8.595882629707134
 Root     21 :     8.722540728384619
 Root     22 :     8.928590204886566
 Root     23 :     9.011745897844353
 Root     24 :     9.149315974341294
 Iteration     2 Dimension    36 NMult    24 NNew     12
 CISAX will form    12 AO SS matrices at one time.
 NMat=    12 NSing=    12 JSym2X= 0.
 Root      1 not converged, maximum delta is    0.082232783135391
 Root      2 not converged, maximum delta is    0.078478108794137
 Root      3 not converged, maximum delta is    0.095804259838018
 Root      4 not converged, maximum delta is    0.287418301126213
 New state      5 was old state      6
 Root      5 not converged, maximum delta is    0.250318172360369
 New state      6 was old state      5
 Root      6 not converged, maximum delta is    0.159803211754502
 Excitation Energies [eV] at current iteration:
 Root      1 :     3.505631407419210   Change is   -0.432936390970753
 Root      2 :     3.974034641683197   Change is   -0.243099432998853
 Root      3 :     4.251312885836930   Change is   -0.268557828286567
 Root      4 :     5.215407850538931   Change is   -0.357848190814324
 Root      5 :     5.698920985234609   Change is   -0.801468734014743
 Root      6 :     6.091773102043034   Change is   -0.132943098960191
 Iteration     3 Dimension    48 NMult    36 NNew     12
 CISAX will form    12 AO SS matrices at one time.
 NMat=    12 NSing=    12 JSym2X= 0.
 Root      1 not converged, maximum delta is    0.009649125004294
 Root      2 not converged, maximum delta is    0.011873955759164
 Root      3 not converged, maximum delta is    0.015874294358932
 Root      4 not converged, maximum delta is    0.021260473795953
 Root      5 not converged, maximum delta is    0.020955468932651
 Root      6 not converged, maximum delta is    0.020093016977422
 Excitation Energies [eV] at current iteration:
 Root      1 :     3.488440865866669   Change is   -0.017190541552540
 Root      2 :     3.961326494417982   Change is   -0.012708147265215
 Root      3 :     4.237298457859486   Change is   -0.014014427977443
 Root      4 :     5.193193559578028   Change is   -0.022214290960902
 Root      5 :     5.671568024676616   Change is   -0.027352960557992
 Root      6 :     6.081272955540138   Change is   -0.010500146502897
 Iteration     4 Dimension    60 NMult    48 NNew     12
 CISAX will form    12 AO SS matrices at one time.
 NMat=    12 NSing=    12 JSym2X= 0.
 Root      1 not converged, maximum delta is    0.002406972363009
 Root      2 not converged, maximum delta is    0.001929732988797
 Root      3 not converged, maximum delta is    0.002217287937054
 Root      4 not converged, maximum delta is    0.002825850215794
 Root      5 not converged, maximum delta is    0.003508101867201
 Root      6 not converged, maximum delta is    0.004133969487296
 Excitation Energies [eV] at current iteration:
 Root      1 :     3.486927100328637   Change is   -0.001513765538033
 Root      2 :     3.960389830779217   Change is   -0.000936663638765
 Root      3 :     4.236604247993619   Change is   -0.000694209865867
 Root      4 :     5.191265900724551   Change is   -0.001927658853477
 Root      5 :     5.668834590417628   Change is   -0.002733434258988
 Root      6 :     6.080522914019910   Change is   -0.000750041520228
 Iteration     5 Dimension    72 NMult    60 NNew     12
 CISAX will form    12 AO SS matrices at one time.
 NMat=    12 NSing=    12 JSym2X= 0.
 Root      1 has converged.
 Root      2 has converged.
 Root      3 has converged.
 Root      4 has converged.
 Root      5 not converged, maximum delta is    0.001176362885304
 Root      6 not converged, maximum delta is    0.001050942194221
 Excitation Energies [eV] at current iteration:
 Root      1 :     3.486845279181138   Change is   -0.000081821147499
 Root      2 :     3.960345576686963   Change is   -0.000044254092254
 Root      3 :     4.236561856030781   Change is   -0.000042391962839
 Root      4 :     5.191100198198463   Change is   -0.000165702526089
 Root      5 :     5.668571084824616   Change is   -0.000263505593012
 Root      6 :     6.080464769080058   Change is   -0.000058144939853
 Iteration     6 Dimension    76 NMult    72 NNew      4
 CISAX will form     4 AO SS matrices at one time.
 NMat=     4 NSing=     4 JSym2X= 0.
 Root      1 has converged.
 Root      2 has converged.
 Root      3 has converged.
 Root      4 has converged.
 Root      5 has converged.
 Root      6 has converged.
 Excitation Energies [eV] at current iteration:
 Root      1 :     3.486845166786687   Change is   -0.000000112394451
 Root      2 :     3.960345418928582   Change is   -0.000000157758381
 Root      3 :     4.236561735844660   Change is   -0.000000120186120
 Root      4 :     5.191093965862794   Change is   -0.000006232335669
 Root      5 :     5.668553069686875   Change is   -0.000018015137741
 Root      6 :     6.080460242787268   Change is   -0.000004526292789
 Convergence achieved on expansion vectors.
 ***********************************************************************
 Excited states from <AA,BB:AA,BB> singles matrix:
 ***********************************************************************
 
 1PDM for each excited state written to RWF  633
 Ground to excited state transition densities written to RWF  633
 Ground to excited state transition electric dipole moments (Au):
       state          X           Y           Z        Dip. S.      Osc.
         1         1.4862     -0.1276     -0.0347      2.2263      0.1902
         2         0.2144     -0.0257     -0.0441      0.0486      0.0047
         3        -0.0037     -0.0905      0.0377      0.0096      0.0010
         4        -0.1046     -1.3483      0.1030      1.8395      0.2340
         5         0.1296      1.4658     -0.0379      2.1669      0.3009
         6         0.0270      0.1856      0.0712      0.0403      0.0060
 Ground to excited state transition velocity dipole moments (Au):
       state          X           Y           Z        Dip. S.      Osc.
         1        -0.1827      0.0126      0.0049      0.0336      0.1747
         2        -0.0305      0.0029      0.0043      0.0010      0.0044
         3         0.0004      0.0134     -0.0024      0.0002      0.0008
         4         0.0229      0.2437     -0.0153      0.0601      0.2102
         5        -0.0271     -0.2990      0.0081      0.0902      0.2886
         6        -0.0069     -0.0380     -0.0351      0.0027      0.0081
 Ground to excited state transition magnetic dipole moments (Au):
       state          X           Y           Z
         1         0.1029     -0.0240      1.4453
         2        -0.8009      0.2415      0.4233
         3        -0.0676      0.9752      0.1002
         4         0.0458     -0.0640      0.1321
         5        -0.2175      0.1019     -0.2621
         6        -0.0590      0.0039     -0.0093
 Ground to excited state transition velocity quadrupole moments (Au):
       state          XX          YY          ZZ          XY          XZ          YZ
         1         0.1935     -0.0980     -0.0024      0.5146     -0.0531     -0.0063
         2         0.0187      0.0060     -0.0028      0.0888     -0.0326     -0.0730
         3        -0.0040      0.0066     -0.0217      0.0302     -0.0681      0.0010
         4        -1.1712      0.2437      0.0025      0.0920      0.0622     -0.0387
         5         0.7396     -0.3193     -0.0507     -0.1366     -0.0630     -0.0559
         6        -0.1459     -0.1513      0.1412      0.0059      0.0177      0.0236
 <0|del|b> * <b|rxdel|0> + <0|del|b> * <b|delr+rdel|0>
 Rotatory Strengths (R) in cgs (10**-40 erg-esu-cm/Gauss)
       state          XX          YY          ZZ    R(velocity)    E-M Angle
         1        27.3274    -36.2329    -57.7227    -22.2094       92.61
         2         7.3232     68.2306     55.4137     43.6558       21.65
         3        30.9755     -0.4330     27.4796     19.3407       16.81
         4       -63.3256     -0.8375      2.7883    -20.4583      116.06
         5       -89.1511     10.8350    -12.2945    -30.2035      104.48
         6         1.0284      1.2311     -0.3999      0.6198       79.16
 1/2[<0|r|b>*<b|rxdel|0> + (<0|rxdel|b>*<b|r|0>)*]
 Rotatory Strengths (R) in cgs (10**-40 erg-esu-cm/Gauss)
       state          XX          YY          ZZ     R(length)
         1      -108.1496     -2.1682     35.4547    -24.9544
         2       121.4140      4.3857     13.1951     46.3316
         3        -0.1748     62.3888     -2.6705     19.8478
         4         3.3835    -60.9904     -9.6199    -22.4089
         5        19.9284   -105.5979     -7.0283    -30.8993
         6         1.1263     -0.5063      0.4701      0.3634
  1/2[<0|del|b>*<b|r|0> + (<0|r|b>*<b|del|0>)*] (Au)
       state          X           Y           Z        Dip. S.   Osc.(frdel)
         1        -0.2716     -0.0016     -0.0002      0.2734      0.1822
         2        -0.0065     -0.0001     -0.0002      0.0068      0.0045
         3        -0.0000     -0.0012     -0.0001      0.0013      0.0009
         4        -0.0024     -0.3286     -0.0016      0.3325      0.2217
         5        -0.0035     -0.4382     -0.0003      0.4420      0.2947
         6        -0.0002     -0.0071     -0.0025      0.0097      0.0065

 Excitation energies and oscillator strengths:
 
 Excited State   1:      Singlet-A      3.4868 eV  355.58 nm  f=0.1902  <S**2>=0.000
      52 -> 53         0.69719
 This state for optimization and/or second-order correction.
 Total Energy, E(TD-HF/TD-DFT) =  -633.198987446    
 Copying the excited state density for this state as the 1-particle RhoCI density.
 
 Excited State   2:      Singlet-A      3.9603 eV  313.06 nm  f=0.0047  <S**2>=0.000
      50 -> 54        -0.13009
      51 -> 53         0.57380
      51 -> 54        -0.34037
 
 Excited State   3:      Singlet-A      4.2366 eV  292.65 nm  f=0.0010  <S**2>=0.000
      49 -> 53         0.12551
      50 -> 53         0.54542
      50 -> 54         0.33543
      50 -> 58         0.11940
      51 -> 53        -0.10790
      51 -> 54        -0.16078
 
 Excited State   4:      Singlet-A      5.1911 eV  238.84 nm  f=0.2340  <S**2>=0.000
      52 -> 54         0.69833
 
 Excited State   5:      Singlet-A      5.6686 eV  218.72 nm  f=0.3009  <S**2>=0.000
      49 -> 53         0.66866
      50 -> 53        -0.16116
 
 Excited State   6:      Singlet-A      6.0805 eV  203.91 nm  f=0.0060  <S**2>=0.000
      52 -> 55         0.66377
      52 -> 56         0.11726
      52 -> 57         0.10410
 SavETr:  write IOETrn=   770 NScale= 10 NData=  16 NLR=1 NState=    6 LETran=     118.
 Leave Link  914 at Fri Jan 23 16:21:31 2026, MaxMem=  2147483648 cpu:            2100.2 elap:             131.8
 (Enter /data/home/wyx/g16/l601.exe)
 Copying SCF densities to generalized density rwf, IOpCl= 0 IROHF=0.

 **********************************************************************

            Population analysis using the SCF density.

 **********************************************************************

 Orbital symmetries:
       Occupied  (A) (A) (A) (A) (A) (A) (A) (A) (A) (A) (A) (A)
                 (A) (A) (A) (A) (A) (A) (A) (A) (A) (A) (A) (A)
                 (A) (A) (A) (A) (A) (A) (A) (A) (A) (A) (A) (A)
                 (A) (A) (A) (A) (A) (A) (A) (A) (A) (A) (A) (A)
                 (A) (A) (A) (A)
       Virtual   (A) (A) (A) (A) (A) (A) (A) (A) (A) (A) (A) (A)
                 (A) (A) (A) (A) (A) (A) (A) (A) (A) (A) (A) (A)
                 (A) (A) (A) (A) (A) (A) (A) (A) (A) (A) (A) (A)
                 (A) (A) (A) (A) (A) (A) (A) (A) (A) (A) (A) (A)
                 (A) (A) (A) (A) (A) (A) (A) (A) (A) (A) (A) (A)
                 (A) (A) (A) (A) (A) (A) (A) (A) (A) (A) (A) (A)
                 (A) (A) (A) (A) (A) (A) (A) (A) (A) (A) (A) (A)
                 (A) (A) (A) (A) (A) (A) (A) (A) (A) (A) (A) (A)
                 (A) (A) (A) (A) (A) (A) (A) (A) (A) (A) (A) (A)
                 (A) (A) (A) (A) (A) (A) (A) (A) (A) (A) (A) (A)
                 (A) (A) (A) (A) (A) (A) (A) (A) (A) (A) (A) (A)
                 (A) (A) (A) (A) (A) (A) (A) (A) (A) (A) (A) (A)
                 (A) (A) (A) (A) (A) (A) (A) (A) (A) (A) (A) (A)
                 (A) (A) (A) (A) (A) (A) (A) (A) (A) (A) (A) (A)
                 (A) (A) (A) (A) (A) (A) (A) (A) (A) (A) (A) (A)
                 (A) (A) (A) (A) (A) (A) (A) (A) (A) (A) (A) (A)
                 (A) (A) (A) (A) (A) (A) (A) (A) (A) (A) (A) (A)
                 (A) (A) (A) (A) (A) (A) (A) (A) (A) (A) (A) (A)
                 (A) (A) (A) (A) (A) (A) (A) (A) (A) (A) (A) (A)
                 (A) (A) (A) (A) (A) (A) (A) (A) (A) (A) (A) (A)
                 (A) (A) (A) (A) (A) (A) (A) (A) (A) (A) (A) (A)
                 (A) (A) (A) (A) (A) (A) (A) (A) (A) (A) (A) (A)
                 (A) (A) (A) (A) (A) (A) (A) (A) (A) (A) (A) (A)
                 (A) (A) (A) (A) (A) (A) (A) (A) (A) (A) (A) (A)
                 (A) (A) (A) (A) (A) (A) (A) (A) (A) (A) (A) (A)
                 (A) (A) (A) (A)
 The electronic state is 1-A.
 Alpha  occ. eigenvalues --  -19.17831 -19.17114 -14.44198 -10.33352 -10.33064
 Alpha  occ. eigenvalues --  -10.32123 -10.31639 -10.25969 -10.25052 -10.24845
 Alpha  occ. eigenvalues --  -10.24749 -10.24663 -10.24141 -10.23718  -1.11981
 Alpha  occ. eigenvalues --   -1.10853  -1.07646  -0.91409  -0.90431  -0.83849
 Alpha  occ. eigenvalues --   -0.82545  -0.81574  -0.78614  -0.74196  -0.71315
 Alpha  occ. eigenvalues --   -0.68778  -0.61826  -0.58387  -0.56877  -0.55189
 Alpha  occ. eigenvalues --   -0.54670  -0.54039  -0.52552  -0.51935  -0.50695
 Alpha  occ. eigenvalues --   -0.49821  -0.49472  -0.49096  -0.48437  -0.48241
 Alpha  occ. eigenvalues --   -0.46808  -0.45234  -0.44921  -0.43601  -0.43060
 Alpha  occ. eigenvalues --   -0.42383  -0.41903  -0.41619  -0.32972  -0.32214
 Alpha  occ. eigenvalues --   -0.31141  -0.26222
 Alpha virt. eigenvalues --   -0.02454   0.02403   0.06294   0.08077   0.08486
 Alpha virt. eigenvalues --    0.09966   0.10661   0.12034   0.12638   0.13590
 Alpha virt. eigenvalues --    0.14068   0.14934   0.15550   0.16484   0.17019
 Alpha virt. eigenvalues --    0.17524   0.17659   0.17877   0.18142   0.19274
 Alpha virt. eigenvalues --    0.19836   0.21979   0.22749   0.23439   0.23608
 Alpha virt. eigenvalues --    0.24332   0.24672   0.25668   0.25952   0.26689
 Alpha virt. eigenvalues --    0.27053   0.27375   0.28608   0.29053   0.30105
 Alpha virt. eigenvalues --    0.31318   0.32018   0.32460   0.33542   0.34409
 Alpha virt. eigenvalues --    0.35290   0.35832   0.36781   0.38222   0.38891
 Alpha virt. eigenvalues --    0.39644   0.41069   0.41845   0.42281   0.42694
 Alpha virt. eigenvalues --    0.44114   0.44532   0.45594   0.46088   0.46375
 Alpha virt. eigenvalues --    0.47119   0.48142   0.48498   0.48524   0.48874
 Alpha virt. eigenvalues --    0.49666   0.49881   0.50836   0.51309   0.51508
 Alpha virt. eigenvalues --    0.52788   0.53127   0.53671   0.54020   0.54360
 Alpha virt. eigenvalues --    0.54647   0.55805   0.55852   0.56818   0.58071
 Alpha virt. eigenvalues --    0.58459   0.58968   0.60548   0.61651   0.62196
 Alpha virt. eigenvalues --    0.63191   0.65590   0.65800   0.67016   0.68095
 Alpha virt. eigenvalues --    0.69795   0.70580   0.71700   0.72589   0.73014
 Alpha virt. eigenvalues --    0.73684   0.74849   0.75179   0.76373   0.77292
 Alpha virt. eigenvalues --    0.79129   0.80080   0.83191   0.84716   0.85668
 Alpha virt. eigenvalues --    0.89016   0.91934   0.95280   1.00401   1.24227
 Alpha virt. eigenvalues --    1.25606   1.26918   1.28185   1.29366   1.31620
 Alpha virt. eigenvalues --    1.32513   1.32779   1.33843   1.35341   1.35772
 Alpha virt. eigenvalues --    1.36902   1.37413   1.37846   1.38935   1.39667
 Alpha virt. eigenvalues --    1.39965   1.40588   1.41261   1.41360   1.41840
 Alpha virt. eigenvalues --    1.43405   1.43986   1.44177   1.45163   1.47279
 Alpha virt. eigenvalues --    1.47662   1.49317   1.49777   1.50644   1.51485
 Alpha virt. eigenvalues --    1.52181   1.52802   1.53306   1.54879   1.57615
 Alpha virt. eigenvalues --    1.58280   1.60293   1.60523   1.61414   1.62120
 Alpha virt. eigenvalues --    1.62799   1.63535   1.64416   1.65713   1.66189
 Alpha virt. eigenvalues --    1.66721   1.67209   1.68065   1.68536   1.68951
 Alpha virt. eigenvalues --    1.69143   1.69883   1.70886   1.71874   1.72971
 Alpha virt. eigenvalues --    1.73607   1.74757   1.76154   1.76773   1.78494
 Alpha virt. eigenvalues --    1.80430   1.82727   1.84077   1.85377   1.86351
 Alpha virt. eigenvalues --    1.87036   1.87711   1.88099   1.89434   1.90390
 Alpha virt. eigenvalues --    1.91325   1.93945   1.95302   1.98082   1.99653
 Alpha virt. eigenvalues --    2.00962   2.04194   2.04584   2.06452   2.09388
 Alpha virt. eigenvalues --    2.10948   2.13156   2.14724   2.17393   2.19384
 Alpha virt. eigenvalues --    2.20726   2.21462   2.22167   2.23497   2.25700
 Alpha virt. eigenvalues --    2.26804   2.28269   2.29761   2.30991   2.32581
 Alpha virt. eigenvalues --    2.34115   2.34740   2.35880   2.37834   2.38189
 Alpha virt. eigenvalues --    2.38973   2.41061   2.41826   2.44609   2.44862
 Alpha virt. eigenvalues --    2.45615   2.48590   2.49681   2.50651   2.52261
 Alpha virt. eigenvalues --    2.52693   2.52788   2.54331   2.56543   2.57929
 Alpha virt. eigenvalues --    2.58698   2.60606   2.60999   2.61649   2.62671
 Alpha virt. eigenvalues --    2.63801   2.65526   2.66624   2.67130   2.69437
 Alpha virt. eigenvalues --    2.70856   2.71793   2.73495   2.74032   2.74422
 Alpha virt. eigenvalues --    2.75646   2.77047   2.77700   2.78147   2.79377
 Alpha virt. eigenvalues --    2.80881   2.81420   2.82552   2.83802   2.84787
 Alpha virt. eigenvalues --    2.85990   2.86089   2.88110   2.90426   2.92903
 Alpha virt. eigenvalues --    2.97467   2.99364   3.00116   3.04736   3.10330
 Alpha virt. eigenvalues --    3.11870   3.13111   3.15691   3.18477   3.19050
 Alpha virt. eigenvalues --    3.21212   3.22567   3.25145   3.25954   3.26714
 Alpha virt. eigenvalues --    3.27283   3.30136   3.33257   3.35132   3.36681
 Alpha virt. eigenvalues --    3.37474   3.39303   3.39952   3.40352   3.41946
 Alpha virt. eigenvalues --    3.42940   3.44304   3.45880   3.46033   3.47578
 Alpha virt. eigenvalues --    3.49872   3.51576   3.54399   3.57568   3.59394
 Alpha virt. eigenvalues --    3.60947   3.90685   3.99851   4.34698   4.35582
 Alpha virt. eigenvalues --   21.63469  21.78178  22.07948  22.10631  22.11592
 Alpha virt. eigenvalues --   22.13639  22.15894  22.18513  22.21405  22.26440
 Alpha virt. eigenvalues --   22.31255  31.93084  43.62941  43.65313
          Condensed to atoms (all electrons):
               1          2          3          4          5          6
     1  O    7.929760   0.000000  -0.000215   0.000017   0.015214   0.017161
     2  O    0.000000   7.997497   0.000454   0.000037  -0.193003   0.001194
     3  N   -0.000215   0.000454   6.392745   0.375168  -0.115360   0.340817
     4  H    0.000017   0.000037   0.375168   0.409401   0.015737  -0.045286
     5  C    0.015214  -0.193003  -0.115360   0.015737   7.024269  -0.057211
     6  C    0.017161   0.001194   0.340817  -0.045286  -0.057211   5.608618
     7  C   -0.000328  -0.030079   0.373548  -0.043466   0.385820  -0.107042
     8  C   -0.000256   0.695039   0.004321  -0.000679  -0.309525   0.031777
     9  C   -0.018823   0.019227   0.015336  -0.000055  -0.524145  -0.108954
    10  H    0.014363  -0.000109  -0.001333   0.000017  -0.114093   0.023463
    11  H    0.003455   0.000091   0.003308   0.000006  -0.033021  -0.010204
    12  C   -0.224757  -0.002588  -0.092917   0.015949   0.161117  -0.173516
    13  C    0.726672  -0.000020   0.000425   0.000417   0.070803   0.152957
    14  C   -0.000006  -0.024717  -0.038363  -0.005624  -0.062740   0.003348
    15  H   -0.000000   0.004645   0.003726   0.000715   0.017344   0.006618
    16  H    0.000000   0.006234   0.002688   0.000747  -0.007091  -0.000608
    17  H   -0.000000   0.000758  -0.003757   0.000849  -0.008768  -0.001592
    18  C   -0.000152  -0.106197  -0.000458   0.000019  -0.249435  -0.000084
    19  H   -0.000003   0.008010   0.000002  -0.000001   0.020983   0.000026
    20  H    0.000163   0.004382   0.000117   0.000001   0.052072  -0.001239
    21  H    0.000017   0.000703   0.000014  -0.000001  -0.000978   0.000219
    22  C   -0.117845   0.000000   0.000002   0.000118   0.003437  -0.003352
    23  H    0.001853   0.000000   0.000015  -0.000020  -0.000132   0.010637
    24  H    0.004245  -0.000000   0.000001  -0.000043  -0.000381  -0.030158
    25  H    0.009517   0.000000   0.000023  -0.000002  -0.000118  -0.001486
    26  C    0.000866   0.000004  -0.030500  -0.007774  -0.000308   0.196764
    27  H   -0.000035  -0.000000  -0.002960   0.000491   0.000431  -0.037144
    28  H   -0.000146  -0.000000   0.001961   0.000911   0.000022  -0.040309
    29  H    0.000020  -0.000000   0.001661   0.001316  -0.000450  -0.052062
               7          8          9         10         11         12
     1  O   -0.000328  -0.000256  -0.018823   0.014363   0.003455  -0.224757
     2  O   -0.030079   0.695039   0.019227  -0.000109   0.000091  -0.002588
     3  N    0.373548   0.004321   0.015336  -0.001333   0.003308  -0.092917
     4  H   -0.043466  -0.000679  -0.000055   0.000017   0.000006   0.015949
     5  C    0.385820  -0.309525  -0.524145  -0.114093  -0.033021   0.161117
     6  C   -0.107042   0.031777  -0.108954   0.023463  -0.010204  -0.173516
     7  C    5.448335  -0.217565  -0.173335   0.018020  -0.006315   0.004656
     8  C   -0.217565   5.440690   0.118815  -0.009422  -0.001296  -0.042254
     9  C   -0.173335   0.118815   6.271104   0.540133   0.395774  -0.031012
    10  H    0.018020  -0.009422   0.540133   0.498291  -0.033528  -0.106821
    11  H   -0.006315  -0.001296   0.395774  -0.033528   0.547024  -0.016731
    12  C    0.004656  -0.042254  -0.031012  -0.106821  -0.016731   7.360506
    13  C    0.014164  -0.006844  -0.241922  -0.001450  -0.002719  -0.413480
    14  C    0.241932  -0.049755   0.013125   0.000510  -0.001355  -0.002304
    15  H   -0.074653   0.006099  -0.000443  -0.000005   0.000099  -0.001098
    16  H   -0.031483  -0.011113   0.000188  -0.000057   0.000152  -0.000222
    17  H   -0.019195   0.001037   0.000102   0.000056  -0.000056   0.000618
    18  C    0.003932   0.331412   0.003851   0.005764  -0.010517  -0.000915
    19  H    0.000432  -0.048451  -0.000970   0.000497   0.000067  -0.000211
    20  H    0.002139  -0.081005  -0.011983  -0.005425   0.002003   0.007136
    21  H    0.000281  -0.018869  -0.006108  -0.001492   0.000737  -0.003098
    22  C    0.000057  -0.000016   0.005017   0.001125   0.001526  -0.291486
    23  H    0.000015   0.000004  -0.002083  -0.000128   0.000150  -0.004283
    24  H   -0.000025  -0.000007   0.002775  -0.000029  -0.000131   0.058768
    25  H    0.000013   0.000002   0.000031  -0.000124  -0.000037   0.025288
    26  C    0.004133   0.000510   0.019517   0.000075  -0.000623  -0.084197
    27  H   -0.000986  -0.000012   0.000004   0.000040  -0.000015  -0.017310
    28  H   -0.000764  -0.000001  -0.000863   0.000003  -0.000062  -0.006056
    29  H    0.003905   0.000003  -0.000578  -0.000007   0.000072   0.023593
              13         14         15         16         17         18
     1  O    0.726672  -0.000006  -0.000000   0.000000  -0.000000  -0.000152
     2  O   -0.000020  -0.024717   0.004645   0.006234   0.000758  -0.106197
     3  N    0.000425  -0.038363   0.003726   0.002688  -0.003757  -0.000458
     4  H    0.000417  -0.005624   0.000715   0.000747   0.000849   0.000019
     5  C    0.070803  -0.062740   0.017344  -0.007091  -0.008768  -0.249435
     6  C    0.152957   0.003348   0.006618  -0.000608  -0.001592  -0.000084
     7  C    0.014164   0.241932  -0.074653  -0.031483  -0.019195   0.003932
     8  C   -0.006844  -0.049755   0.006099  -0.011113   0.001037   0.331412
     9  C   -0.241922   0.013125  -0.000443   0.000188   0.000102   0.003851
    10  H   -0.001450   0.000510  -0.000005  -0.000057   0.000056   0.005764
    11  H   -0.002719  -0.001355   0.000099   0.000152  -0.000056  -0.010517
    12  C   -0.413480  -0.002304  -0.001098  -0.000222   0.000618  -0.000915
    13  C    5.440982  -0.000047  -0.000018  -0.000000  -0.000022   0.000565
    14  C   -0.000047   5.134426   0.381745   0.424548   0.404897   0.001119
    15  H   -0.000018   0.381745   0.585753  -0.028813  -0.027451   0.000249
    16  H   -0.000000   0.424548  -0.028813   0.495301  -0.023358   0.000053
    17  H   -0.000022   0.404897  -0.027451  -0.023358   0.507396  -0.000062
    18  C    0.000565   0.001119   0.000249   0.000053  -0.000062   5.310634
    19  H   -0.000013   0.000027  -0.000004   0.000060  -0.000016   0.395626
    20  H    0.000721   0.000179  -0.000018  -0.000071   0.000002   0.386975
    21  H   -0.000081  -0.000300  -0.000006   0.000028   0.000006   0.392213
    22  C    0.307884  -0.000014   0.000003  -0.000000  -0.000000   0.000019
    23  H   -0.028626  -0.000001   0.000000   0.000000  -0.000000  -0.000002
    24  H   -0.079513  -0.000001  -0.000000   0.000000   0.000000   0.000003
    25  H   -0.046316   0.000000   0.000000  -0.000000  -0.000000  -0.000001
    26  C   -0.049504   0.001329  -0.000175   0.000051  -0.000150   0.000016
    27  H    0.005790  -0.000096   0.000012   0.000002  -0.000013  -0.000001
    28  H   -0.005530   0.000101  -0.000017  -0.000001   0.000002  -0.000000
    29  H   -0.000449  -0.000273   0.000138  -0.000003   0.000002   0.000000
              19         20         21         22         23         24
     1  O   -0.000003   0.000163   0.000017  -0.117845   0.001853   0.004245
     2  O    0.008010   0.004382   0.000703   0.000000   0.000000  -0.000000
     3  N    0.000002   0.000117   0.000014   0.000002   0.000015   0.000001
     4  H   -0.000001   0.000001  -0.000001   0.000118  -0.000020  -0.000043
     5  C    0.020983   0.052072  -0.000978   0.003437  -0.000132  -0.000381
     6  C    0.000026  -0.001239   0.000219  -0.003352   0.010637  -0.030158
     7  C    0.000432   0.002139   0.000281   0.000057   0.000015  -0.000025
     8  C   -0.048451  -0.081005  -0.018869  -0.000016   0.000004  -0.000007
     9  C   -0.000970  -0.011983  -0.006108   0.005017  -0.002083   0.002775
    10  H    0.000497  -0.005425  -0.001492   0.001125  -0.000128  -0.000029
    11  H    0.000067   0.002003   0.000737   0.001526   0.000150  -0.000131
    12  C   -0.000211   0.007136  -0.003098  -0.291486  -0.004283   0.058768
    13  C   -0.000013   0.000721  -0.000081   0.307884  -0.028626  -0.079513
    14  C    0.000027   0.000179  -0.000300  -0.000014  -0.000001  -0.000001
    15  H   -0.000004  -0.000018  -0.000006   0.000003   0.000000  -0.000000
    16  H    0.000060  -0.000071   0.000028  -0.000000   0.000000   0.000000
    17  H   -0.000016   0.000002   0.000006  -0.000000  -0.000000   0.000000
    18  C    0.395626   0.386975   0.392213   0.000019  -0.000002   0.000003
    19  H    0.504008  -0.025838  -0.010092  -0.000000   0.000000   0.000000
    20  H   -0.025838   0.543079  -0.024351   0.000021  -0.000000  -0.000000
    21  H   -0.010092  -0.024351   0.498804  -0.000008   0.000000  -0.000000
    22  C   -0.000000   0.000021  -0.000008   5.444094   0.399514   0.389436
    23  H    0.000000  -0.000000   0.000000   0.399514   0.502140  -0.029792
    24  H    0.000000  -0.000000  -0.000000   0.389436  -0.029792   0.546386
    25  H   -0.000000  -0.000000  -0.000000   0.384670  -0.007575  -0.020749
    26  C    0.000000  -0.000015   0.000004  -0.036445  -0.015282   0.016271
    27  H    0.000000  -0.000000  -0.000000  -0.011264   0.001353  -0.001499
    28  H   -0.000000  -0.000000   0.000000   0.009010  -0.000729  -0.007959
    29  H    0.000000   0.000000  -0.000000   0.002008   0.000212   0.000616
              25         26         27         28         29
     1  O    0.009517   0.000866  -0.000035  -0.000146   0.000020
     2  O    0.000000   0.000004  -0.000000  -0.000000  -0.000000
     3  N    0.000023  -0.030500  -0.002960   0.001961   0.001661
     4  H   -0.000002  -0.007774   0.000491   0.000911   0.001316
     5  C   -0.000118  -0.000308   0.000431   0.000022  -0.000450
     6  C   -0.001486   0.196764  -0.037144  -0.040309  -0.052062
     7  C    0.000013   0.004133  -0.000986  -0.000764   0.003905
     8  C    0.000002   0.000510  -0.000012  -0.000001   0.000003
     9  C    0.000031   0.019517   0.000004  -0.000863  -0.000578
    10  H   -0.000124   0.000075   0.000040   0.000003  -0.000007
    11  H   -0.000037  -0.000623  -0.000015  -0.000062   0.000072
    12  C    0.025288  -0.084197  -0.017310  -0.006056   0.023593
    13  C   -0.046316  -0.049504   0.005790  -0.005530  -0.000449
    14  C    0.000000   0.001329  -0.000096   0.000101  -0.000273
    15  H    0.000000  -0.000175   0.000012  -0.000017   0.000138
    16  H   -0.000000   0.000051   0.000002  -0.000001  -0.000003
    17  H   -0.000000  -0.000150  -0.000013   0.000002   0.000002
    18  C   -0.000001   0.000016  -0.000001  -0.000000   0.000000
    19  H   -0.000000   0.000000   0.000000  -0.000000   0.000000
    20  H   -0.000000  -0.000015  -0.000000  -0.000000   0.000000
    21  H   -0.000000   0.000004  -0.000000   0.000000  -0.000000
    22  C    0.384670  -0.036445  -0.011264   0.009010   0.002008
    23  H   -0.007575  -0.015282   0.001353  -0.000729   0.000212
    24  H   -0.020749   0.016271  -0.001499  -0.007959   0.000616
    25  H    0.494407   0.001927   0.000087   0.000655  -0.000041
    26  C    0.001927   5.239566   0.432954   0.421045   0.389565
    27  H    0.000087   0.432954   0.480775  -0.027470  -0.017880
    28  H    0.000655   0.421045  -0.027470   0.514498  -0.026366
    29  H   -0.000041   0.389565  -0.017880  -0.026366   0.523443
 Mulliken charges:
               1
     1  O   -0.360759
     2  O   -0.381562
     3  N   -0.230474
     4  H    0.281036
     5  C   -0.090490
     6  C    0.276648
     7  C    0.203854
     8  C    0.167360
     9  C   -0.283726
    10  H    0.171666
    11  H    0.162145
    12  C   -0.142373
    13  C    0.155173
    14  C   -0.421691
    15  H    0.125555
    16  H    0.172769
    17  H    0.168717
    18  C   -0.464628
    19  H    0.155860
    20  H    0.150955
    21  H    0.172358
    22  C   -0.487513
    23  H    0.172759
    24  H    0.151786
    25  H    0.159828
    26  C   -0.499624
    27  H    0.194745
    28  H    0.168067
    29  H    0.151556
 Sum of Mulliken charges =  -0.00000
 Mulliken charges with hydrogens summed into heavy atoms:
               1
     1  O   -0.360759
     2  O   -0.381562
     3  N    0.050562
     5  C   -0.090490
     6  C    0.276648
     7  C    0.203854
     8  C    0.167360
     9  C    0.050085
    12  C   -0.142373
    13  C    0.155173
    14  C    0.045349
    18  C    0.014546
    22  C   -0.003139
    26  C    0.014745
 Electronic spatial extent (au):  <R**2>=           3195.4096
 Charge=             -0.0000 electrons
 Dipole moment (field-independent basis, Debye):
    X=              3.9710    Y=              7.0067    Z=             -0.2943  Tot=              8.0591
 Quadrupole moment (field-independent basis, Debye-Ang):
   XX=            -97.8274   YY=            -78.7825   ZZ=            -84.7408
   XY=             12.6318   XZ=              4.3152   YZ=             -1.0834
 Traceless Quadrupole moment (field-independent basis, Debye-Ang):
   XX=            -10.7105   YY=              8.3344   ZZ=              2.3761
   XY=             12.6318   XZ=              4.3152   YZ=             -1.0834
 Octapole moment (field-independent basis, Debye-Ang**2):
  XXX=            107.7993  YYY=             60.7590  ZZZ=              2.2527  XYY=            -34.7980
  XXY=             28.5191  XXZ=             -9.6802  XZZ=              2.0592  YZZ=             -1.5802
  YYZ=              2.4663  XYZ=             -3.6692
 Hexadecapole moment (field-independent basis, Debye-Ang**3):
 XXXX=          -3061.7992 YYYY=          -1277.4434 ZZZZ=           -145.0680 XXXY=             39.4902
 XXXZ=             54.1564 YYYX=             89.5025 YYYZ=            -18.3448 ZZZX=             -3.6367
 ZZZY=              5.0326 XXYY=           -687.8834 XXZZ=           -486.1083 YYZZ=           -240.5682
 XXYZ=             -3.4095 YYXZ=              3.9804 ZZXY=             -0.7105
 N-N= 9.007631392405D+02 E-N=-3.277609670794D+03  KE= 6.307362398920D+02
 Leave Link  601 at Fri Jan 23 16:21:32 2026, MaxMem=  2147483648 cpu:               0.7 elap:               0.1
 (Enter /data/home/wyx/g16/l9999.exe)
 Electronic transition elements 
                 1             2             3             4             5 
      1  -0.633199D+03 -0.633182D+03 -0.633171D+03 -0.633136D+03 -0.633119D+03
      2   0.143553D+01  0.214181D+00  0.224453D-01  0.342701D+00 -0.366605D+00
      3   0.385152D+00  0.479774D-01 -0.855950D-01 -0.130130D+01  0.142148D+01
      4   0.131240D+00 -0.194371D-01  0.422814D-01  0.169478D+00 -0.109029D+00
      5  -0.175542D+00 -0.299898D-01 -0.384624D-02 -0.585837D-01  0.741285D-01
      6  -0.502490D-01 -0.752258D-02  0.126551D-01  0.236614D+00 -0.290120D+00
      7  -0.153603D-01  0.859118D-03 -0.307721D-02 -0.268902D-01  0.225332D-01
      8  -0.690670D-01 -0.880132D+00 -0.402672D+00  0.483925D-01 -0.205969D+00
      9   0.392202D-01 -0.376830D-01  0.895684D+00 -0.421191D-01  0.169074D-01
     10   0.144701D+01  0.320840D+00  0.355712D-01  0.139674D+00 -0.289288D+00
     11  -0.153662D+00 -0.373502D-01 -0.673427D-02 -0.106956D+01  0.704173D+00
     12   0.264100D+00  0.613400D-01  0.239025D-01  0.138080D+00 -0.286794D+00
     13  -0.173444D-01 -0.208403D-02 -0.362482D-01  0.644450D-02 -0.478498D-01
     14   0.487658D+00  0.813570D-01  0.212695D-01 -0.375886D+00  0.239766D+00
     15  -0.752000D-01 -0.116642D-01 -0.630200D-01 -0.508153D-01  0.463063D-01
     16   0.298055D-01 -0.716669D-01 -0.206918D-01 -0.632938D-01 -0.412127D-01
                 6 
      1  -0.633104D+03
      2  -0.456340D-01
      3   0.185009D+00
      4   0.627855D-01
      5   0.105393D-01
      6  -0.387448D-01
      7  -0.333838D-01
      8  -0.552780D-01
      9  -0.166157D-01
     10  -0.157681D-01
     11  -0.148177D+00
     12  -0.145790D+00
     13   0.137963D+00
     14   0.232446D-02
     15  -0.262612D-01
     16   0.340335D-01
 1\1\GINC-CN013\SP\RCAM-B3LYP TD-FC\TZVP\C11H15N1O2\WYX\23-Jan-2026\0\\
 #p CAM-B3LYP TZVP em=gd3bj td(nstates=6,root=1) scrf=(Solvent=TetraHyd
 roFuran)\\Title Card Required\\0,1\O,0,2.823309,-1.571917,0.226312\O,0
 ,-3.43691,-1.628622,-0.025317\N,0,-0.636108,1.514788,-0.322093\H,0,-0.
 94669,2.470928,-0.369045\C,0,-1.239446,-0.757451,-0.21453\C,0,0.695881
 ,1.299398,-0.064709\C,0,-1.61105,0.541021,-0.285275\C,0,-2.219268,-1.8
 23338,-0.141202\C,0,0.222365,-1.121029,-0.284076\H,0,0.443052,-1.92529
 ,0.415621\H,0,0.468655,-1.522421,-1.274644\C,0,1.149267,0.029813,0.023
 014\C,0,2.512405,-0.389892,0.337086\C,0,-3.000206,1.079376,-0.321017\H
 ,0,-3.015643,2.082621,-0.749928\H,0,-3.672431,0.455635,-0.90385\H,0,-3
 .42129,1.131777,0.683783\C,0,-1.758574,-3.251268,-0.215546\H,0,-2.5719
 94,-3.932686,-0.458416\H,0,-0.970756,-3.403459,-0.95433\H,0,-1.345091,
 -3.576004,0.743372\C,0,3.566886,0.563926,0.836195\H,0,3.981588,1.15631
 2,0.020017\H,0,3.206157,1.249899,1.598725\H,0,4.367587,-0.044502,1.250
 077\C,0,1.457849,2.578016,0.084068\H,0,1.609332,2.834429,1.132945\H,0,
 2.42735,2.551775,-0.400645\H,0,0.913772,3.408164,-0.366591\\Version=ES
 64L-G16RevA.03\State=1-A\HF=-633.3271266\RMSD=9.394e-09\PG=C01 [X(C11H
 15N1O2)]\\@


 IF IT'S NOT TRUE, IT'S WELL INVENTED -- DANTE
 Job cpu time:       0 days  0 hours 49 minutes 57.2 seconds.
 Elapsed time:       0 days  0 hours  3 minutes  8.6 seconds.
 File lengths (MBytes):  RWF=    833 Int=      0 D2E=      0 Chk=     34 Scr=      1
 Normal termination of Gaussian 16 at Fri Jan 23 16:21:35 2026.
