 Entering Gaussian System, Link 0=g16
 Input=DDL-S2-cLR-4.gjf
 Output=DDL-S2-cLR-4.log
 Initial command:
 /data/home/wyx/g16/l1.exe "/scr/tmp/wyx/13109/Gau-1692406.inp" -scrdir="/scr/tmp/wyx/13109/"
 Entering Link 1 = /data/home/wyx/g16/l1.exe PID=   1692407.
  
 Copyright (c) 1988,1990,1992,1993,1995,1998,2003,2009,2016,
            Gaussian, Inc.  All Rights Reserved.
  
 This is part of the Gaussian(R) 16 program.  It is based on
 the Gaussian(R) 09 system (copyright 2009, Gaussian, Inc.),
 the Gaussian(R) 03 system (copyright 2003, Gaussian, Inc.),
 the Gaussian(R) 98 system (copyright 1998, Gaussian, Inc.),
 the Gaussian(R) 94 system (copyright 1995, Gaussian, Inc.),
 the Gaussian 92(TM) system (copyright 1992, Gaussian, Inc.),
 the Gaussian 90(TM) system (copyright 1990, Gaussian, Inc.),
 the Gaussian 88(TM) system (copyright 1988, Gaussian, Inc.),
 the Gaussian 86(TM) system (copyright 1986, Carnegie Mellon
 University), and the Gaussian 82(TM) system (copyright 1983,
 Carnegie Mellon University). Gaussian is a federally registered
 trademark of Gaussian, Inc.
  
 This software contains proprietary and confidential information,
 including trade secrets, belonging to Gaussian, Inc.
  
 This software is provided under written license and may be
 used, copied, transmitted, or stored only in accord with that
 written license.
  
 The following legend is applicable only to US Government
 contracts under FAR:
  
                    RESTRICTED RIGHTS LEGEND
  
 Use, reproduction and disclosure by the US Government is
 subject to restrictions as set forth in subparagraphs (a)
 and (c) of the Commercial Computer Software - Restricted
 Rights clause in FAR 52.227-19.
  
 Gaussian, Inc.
 340 Quinnipiac St., Bldg. 40, Wallingford CT 06492
  
  
 ---------------------------------------------------------------
 Warning -- This program may not be used in any manner that
 competes with the business of Gaussian, Inc. or will provide
 assistance to any competitor of Gaussian, Inc.  The licensee
 of this program is prohibited from giving any competitor of
 Gaussian, Inc. access to this program.  By using this program,
 the user acknowledges that Gaussian, Inc. is engaged in the
 business of creating and licensing software in the field of
 computational chemistry and represents and warrants to the
 licensee that it is not a competitor of Gaussian, Inc. and that
 it will not use this program in any manner prohibited above.
 ---------------------------------------------------------------
  

 Cite this work as:
 Gaussian 16, Revision A.03,
 M. J. Frisch, G. W. Trucks, H. B. Schlegel, G. E. Scuseria, 
 M. A. Robb, J. R. Cheeseman, G. Scalmani, V. Barone, 
 G. A. Petersson, H. Nakatsuji, X. Li, M. Caricato, A. V. Marenich, 
 J. Bloino, B. G. Janesko, R. Gomperts, B. Mennucci, H. P. Hratchian, 
 J. V. Ortiz, A. F. Izmaylov, J. L. Sonnenberg, D. Williams-Young, 
 F. Ding, F. Lipparini, F. Egidi, J. Goings, B. Peng, A. Petrone, 
 T. Henderson, D. Ranasinghe, V. G. Zakrzewski, J. Gao, N. Rega, 
 G. Zheng, W. Liang, M. Hada, M. Ehara, K. Toyota, R. Fukuda, 
 J. Hasegawa, M. Ishida, T. Nakajima, Y. Honda, O. Kitao, H. Nakai, 
 T. Vreven, K. Throssell, J. A. Montgomery, Jr., J. E. Peralta, 
 F. Ogliaro, M. J. Bearpark, J. J. Heyd, E. N. Brothers, K. N. Kudin, 
 V. N. Staroverov, T. A. Keith, R. Kobayashi, J. Normand, 
 K. Raghavachari, A. P. Rendell, J. C. Burant, S. S. Iyengar, 
 J. Tomasi, M. Cossi, J. M. Millam, M. Klene, C. Adamo, R. Cammi, 
 J. W. Ochterski, R. L. Martin, K. Morokuma, O. Farkas, 
 J. B. Foresman, and D. J. Fox, Gaussian, Inc., Wallingford CT, 2016.
 
 ******************************************
 Gaussian 16:  ES64L-G16RevA.03 25-Dec-2016
                23-Jan-2026 
 ******************************************
 %nprocshared=16
 Will use up to   16 processors via shared memory.
 %mem=16GB
 %oldchk=DDL-LR-4.chk
 %chk=DDL-S2-cLR-4.chk
 Copying data from "DDL-LR-4.chk" to current chk file "DDL-S2-cLR-4.chk"
 IOpt=  2 FromEx=T IUOpen= 4 IOptOp= 5 NList=   0 IFRang= 0 IUIn= 4 IUOut= 2.
 ----------------------------------------------------------------------
 #p CAM-B3LYP TZVP em=gd3bj td(nstates=6,root=2) scrf=(Solvent=TetraHyd
 roFuran,CorrectedLR,NonEquilibrium=Save) Geom=Check Guess=Read
 ----------------------------------------------------------------------
 1/29=2,30=1,38=1,172=1/1;
 2/12=2,40=1/2;
 3/5=19,7=101,11=9,14=-4,25=1,30=1,70=9002201,71=1,72=20,74=-40,116=-2,124=41/1,2,3,8;
 4/5=1/1;
 5/5=2,38=6,53=20/2;
 8/6=1,10=1,107=2,108=6/1;
 9/8=2,15=1,41=6,42=1,70=2,73=22/14;
 10/5=4,13=10,28=2,74=20/2;
 6/7=2,8=2,9=2,10=2,22=-1/1;
 99/5=1,9=1/99;
 Leave Link    1 at Fri Jan 23 18:05:03 2026, MaxMem=  2147483648 cpu:               0.8 elap:               0.1
 (Enter /data/home/wyx/g16/l101.exe)
 -------------------
 Title Card Required
 -------------------
 Structure from the checkpoint file:  "DDL-S2-cLR-4.chk"
 Charge =  0 Multiplicity = 1
 Z-Matrix found in chk file.
 O,0,2.798035,-1.572028,0.417829
 O,0,-3.437111,-1.653321,-0.43864
 N,0,-0.654499,1.524434,-0.120601
 H,0,-0.973501,2.477794,-0.161363
 C,0,-1.241474,-0.768716,-0.183694
 C,0,0.674573,1.312704,0.087494
 C,0,-1.618978,0.538403,-0.244897
 C,0,-2.17453,-1.826255,-0.297965
 C,0,0.209314,-1.133434,0.005091
 H,0,0.317558,-1.77306,0.884487
 H,0,0.554957,-1.732344,-0.841891
 C,0,1.144524,0.0414,0.15485
 C,0,2.52047,-0.373637,0.370227
 C,0,-2.991841,1.075036,-0.42639
 H,0,-3.006357,1.873184,-1.173932
 H,0,-3.703838,0.322532,-0.760528
 H,0,-3.386173,1.481203,0.509033
 C,0,-1.810302,-3.280677,-0.270984
 H,0,-2.239637,-3.858895,-1.091914
 H,0,-0.735758,-3.443892,-0.310817
 H,0,-2.154384,-3.749835,0.655524
 C,0,3.656826,0.601779,0.538556
 H,0,3.760292,1.279296,-0.306625
 H,0,3.554519,1.206571,1.438632
 H,0,4.563556,0.007354,0.621762
 C,0,1.44429,2.58998,0.212239
 H,0,1.975773,2.662621,1.15755
 H,0,2.168686,2.715323,-0.590069
 H,0,0.785009,3.45648,0.167035
 Recover connectivity data from disk.
 ITRead=  0  0  0  0  0  0  0  0  0  0  0  0  0  0  0  0  0  0  0  0
 ITRead=  0  0  0  0  0  0  0  0  0
 MicOpt= -1 -1 -1 -1 -1 -1 -1 -1 -1 -1 -1 -1 -1 -1 -1 -1 -1 -1 -1 -1
 MicOpt= -1 -1 -1 -1 -1 -1 -1 -1 -1
 NAtoms=     29 NQM=       29 NQMF=       0 NMMI=      0 NMMIF=      0
                NMic=       0 NMicF=      0.
                    Isotopes and Nuclear Properties:
 (Nuclear quadrupole moments (NQMom) in fm**2, nuclear magnetic moments (NMagM)
  in nuclear magnetons)

  Atom         1           2           3           4           5           6           7           8           9          10
 IAtWgt=          16          16          14           1          12          12          12          12          12           1
 AtmWgt=  15.9949146  15.9949146  14.0030740   1.0078250  12.0000000  12.0000000  12.0000000  12.0000000  12.0000000   1.0078250
 NucSpn=           0           0           2           1           0           0           0           0           0           1
 AtZEff=   5.6000000   5.6000000   4.5500000   1.0000000   3.6000000   3.6000000   3.6000000   3.6000000   3.6000000   1.0000000
 NQMom=    0.0000000   0.0000000   2.0440000   0.0000000   0.0000000   0.0000000   0.0000000   0.0000000   0.0000000   0.0000000
 NMagM=    0.0000000   0.0000000   0.4037610   2.7928460   0.0000000   0.0000000   0.0000000   0.0000000   0.0000000   2.7928460
 AtZNuc=   8.0000000   8.0000000   7.0000000   1.0000000   6.0000000   6.0000000   6.0000000   6.0000000   6.0000000   1.0000000

  Atom        11          12          13          14          15          16          17          18          19          20
 IAtWgt=           1          12          12          12           1           1           1          12           1           1
 AtmWgt=   1.0078250  12.0000000  12.0000000  12.0000000   1.0078250   1.0078250   1.0078250  12.0000000   1.0078250   1.0078250
 NucSpn=           1           0           0           0           1           1           1           0           1           1
 AtZEff=   1.0000000   3.6000000   3.6000000   3.6000000   1.0000000   1.0000000   1.0000000   3.6000000   1.0000000   1.0000000
 NQMom=    0.0000000   0.0000000   0.0000000   0.0000000   0.0000000   0.0000000   0.0000000   0.0000000   0.0000000   0.0000000
 NMagM=    2.7928460   0.0000000   0.0000000   0.0000000   2.7928460   2.7928460   2.7928460   0.0000000   2.7928460   2.7928460
 AtZNuc=   1.0000000   6.0000000   6.0000000   6.0000000   1.0000000   1.0000000   1.0000000   6.0000000   1.0000000   1.0000000

  Atom        21          22          23          24          25          26          27          28          29
 IAtWgt=           1          12           1           1           1          12           1           1           1
 AtmWgt=   1.0078250  12.0000000   1.0078250   1.0078250   1.0078250  12.0000000   1.0078250   1.0078250   1.0078250
 NucSpn=           1           0           1           1           1           0           1           1           1
 AtZEff=   1.0000000   3.6000000   1.0000000   1.0000000   1.0000000   3.6000000   1.0000000   1.0000000   1.0000000
 NQMom=    0.0000000   0.0000000   0.0000000   0.0000000   0.0000000   0.0000000   0.0000000   0.0000000   0.0000000
 NMagM=    2.7928460   0.0000000   2.7928460   2.7928460   2.7928460   0.0000000   2.7928460   2.7928460   2.7928460
 AtZNuc=   1.0000000   6.0000000   1.0000000   1.0000000   1.0000000   6.0000000   1.0000000   1.0000000   1.0000000
 Leave Link  101 at Fri Jan 23 18:05:06 2026, MaxMem=  2147483648 cpu:               0.9 elap:               0.1
 (Enter /data/home/wyx/g16/l202.exe)
                          Input orientation:                          
 ---------------------------------------------------------------------
 Center     Atomic      Atomic             Coordinates (Angstroms)
 Number     Number       Type             X           Y           Z
 ---------------------------------------------------------------------
      1          8           0        2.798035   -1.572028    0.417829
      2          8           0       -3.437111   -1.653321   -0.438640
      3          7           0       -0.654499    1.524434   -0.120601
      4          1           0       -0.973501    2.477794   -0.161363
      5          6           0       -1.241474   -0.768716   -0.183694
      6          6           0        0.674573    1.312704    0.087494
      7          6           0       -1.618978    0.538403   -0.244897
      8          6           0       -2.174530   -1.826255   -0.297965
      9          6           0        0.209314   -1.133434    0.005091
     10          1           0        0.317558   -1.773060    0.884487
     11          1           0        0.554957   -1.732344   -0.841891
     12          6           0        1.144524    0.041400    0.154850
     13          6           0        2.520470   -0.373637    0.370227
     14          6           0       -2.991841    1.075036   -0.426390
     15          1           0       -3.006357    1.873184   -1.173932
     16          1           0       -3.703838    0.322532   -0.760528
     17          1           0       -3.386173    1.481203    0.509033
     18          6           0       -1.810302   -3.280677   -0.270984
     19          1           0       -2.239637   -3.858895   -1.091914
     20          1           0       -0.735758   -3.443892   -0.310817
     21          1           0       -2.154384   -3.749835    0.655524
     22          6           0        3.656826    0.601779    0.538556
     23          1           0        3.760292    1.279296   -0.306625
     24          1           0        3.554519    1.206571    1.438632
     25          1           0        4.563556    0.007354    0.621762
     26          6           0        1.444290    2.589980    0.212239
     27          1           0        1.975773    2.662621    1.157550
     28          1           0        2.168686    2.715323   -0.590069
     29          1           0        0.785009    3.456480    0.167035
 ---------------------------------------------------------------------
                    Distance matrix (angstroms):
                    1          2          3          4          5
     1  O    0.000000
     2  O    6.294219   0.000000
     3  N    4.668830   4.235824   0.000000
     4  H    5.564261   4.817922   1.006141   0.000000
     5  C    4.162304   2.380829   2.367923   3.257627   0.000000
     6  C    3.597206   5.097065   1.361824   2.033596   2.842022
     7  C    4.939952   2.854260   1.384892   2.045692   1.361916
     8  C    5.030248   1.282110   3.683622   4.470567   1.414935
     9  C    2.657855   3.709932   2.797541   3.803646   1.507795
    10  H    2.531985   3.982781   3.581698   4.564033   2.140163
    11  H    2.577595   4.013161   3.548189   4.530404   2.142187
    12  C    2.325168   4.920944   2.347711   3.243769   2.542417
    13  C    1.231036   6.146920   3.731489   4.541044   3.822975
    14  C    6.422018   2.764480   2.399715   2.472178   2.553842
    15  H    6.934995   3.628008   2.600456   2.350181   3.327915
    16  H    6.874026   2.019592   3.339542   3.529716   2.754414
    17  H    6.897461   3.275045   2.803632   2.695109   3.184610
    18  C    4.962934   2.307142   4.944450   5.819986   2.577040
    19  H    5.734738   2.593312   5.695291   6.528603   3.372002
    20  H    4.064787   3.243423   4.972630   5.928341   2.725523
    21  H    5.415330   2.690345   5.538045   6.391021   3.228740
    22  C    2.340413   7.507618   4.457948   5.044725   5.137436
    23  H    3.095290   7.773048   4.425503   4.885314   5.406212
    24  H    3.055310   7.783702   4.499786   4.967792   5.434634
    25  H    2.377625   8.239719   5.484590   6.113539   5.911803
    26  C    4.381461   6.500563   2.377201   2.449056   4.318672
    27  H    4.376706   7.104540   3.138068   3.236033   4.891185
    28  H    4.448968   7.108653   3.099837   3.180180   4.892122
    29  H    5.422275   6.656065   2.426462   2.039125   4.699141
                    6          7          8          9         10
     6  C    0.000000
     7  C    2.443441   0.000000
     8  C    4.256645   2.429622   0.000000
     9  C    2.491355   2.490017   2.500911   0.000000
    10  H    3.206961   3.220022   2.758899   1.092783   0.000000
    11  H    3.185966   3.199795   2.784739   1.093408   1.743100
    12  C    1.357057   2.836151   3.835270   1.509066   2.123325
    13  C    2.516152   4.283133   4.959799   2.460093   2.660013
    14  C    3.709873   1.485149   3.016949   3.912916   4.558747
    15  H    3.931231   2.137655   3.891671   4.557454   5.346082
    16  H    4.568377   2.158499   2.677692   4.244852   4.823817
    17  H    4.086043   2.140154   3.613669   4.474127   4.944574
    18  C    5.234717   3.823958   1.499578   2.960696   2.852334
    19  H    6.052195   4.520939   2.183167   3.824777   3.846572
    20  H    4.977237   4.079595   2.164943   2.516183   2.308659
    21  H    5.827088   4.414341   2.147023   3.585483   3.173415
    22  C    3.098823   5.334034   6.371800   3.896266   4.112206
    23  H    3.110966   5.430403   6.698256   4.304402   4.752688
    24  H    3.182912   5.481404   6.710872   4.326784   4.434320
    25  H    4.136855   6.265528   7.043424   4.543248   4.611659
    26  C    1.496482   3.715044   5.732303   3.928344   4.556047
    27  H    2.158800   4.404701   6.284389   4.342646   4.743364
    28  H    2.158427   4.382297   6.290849   4.359620   5.074108
    29  H    2.148092   3.803159   6.073087   4.628711   5.299183
                   11         12         13         14         15
    11  H    0.000000
    12  C    2.118313   0.000000
    13  C    2.679283   1.453228   0.000000
    14  C    4.542444   4.302994   5.754896   0.000000
    15  H    5.078685   4.727675   6.162666   1.093650   0.000000
    16  H    4.729320   4.942020   6.364375   1.088508   1.749830
    17  H    5.261595   4.767147   6.192587   1.093383   1.769260
    18  C    2.884046   4.466377   5.255247   4.515797   5.367322
    19  H    3.520580   5.312181   6.078116   5.035117   5.783711
    20  H    2.208479   3.987426   4.526953   5.052126   5.845672
    21  H    3.695003   5.050439   5.773592   5.015102   5.974204
    22  C    4.120116   2.602483   1.507009   6.734973   6.996220
    23  H    4.430650   2.930459   2.174276   6.756283   6.847807
    24  H    4.778638   2.968804   2.169747   6.808116   7.093304
    25  H    4.608437   3.450934   2.093472   7.702116   8.000589
    26  C    4.537024   2.566790   3.156921   4.730979   4.716304
    27  H    5.033110   2.926975   3.183620   5.450365   5.557035
    28  H    4.738067   2.958661   3.253858   5.417414   5.275525
    29  H    5.291007   3.433973   4.209858   4.504223   4.321976
                   16         17         18         19         20
    16  H    0.000000
    17  H    1.747917   0.000000
    18  C    4.099786   5.076150   0.000000
    19  H    4.442751   5.691592   1.092058   0.000000
    20  H    4.816398   5.652735   1.087599   1.744704   0.000000
    21  H    4.581505   5.376107   1.094038   1.752912   1.743535
    22  C    7.479637   7.097753   6.754133   7.571283   6.031889
    23  H    7.538877   7.195695   7.199038   7.938314   6.520965
    24  H    7.635547   7.008051   7.199964   8.101534   6.564591
    25  H    8.388079   8.085984   7.227324   8.010493   6.392459
    26  C    5.708837   4.964962   6.729821   7.540565   6.436910
    27  H    6.435295   5.528724   7.190123   8.084550   6.840907
    28  H    6.343583   5.795475   7.203206   7.931299   6.815402
    29  H    5.552635   4.627898   7.233034   8.015494   7.082105
                   21         22         23         24         25
    21  H    0.000000
    22  C    7.260881   0.000000
    23  H    7.823125   1.088148   0.000000
    24  H    7.600710   1.089209   1.758850   0.000000
    25  H    7.697293   1.087393   1.767759   1.767358   0.000000
    26  C    7.303438   2.992447   2.711269   2.805517   4.070318
    27  H    7.643940   2.730597   2.691079   2.165993   3.746216
    28  H    7.876465   2.820536   2.162342   2.883140   3.812746
    29  H    7.798053   4.066286   3.717095   3.788038   5.136211
                   26         27         28         29
    26  C    0.000000
    27  H    1.086906   0.000000
    28  H    1.088190   1.759024   0.000000
    29  H    1.089733   1.740474   1.742723   0.000000
 Stoichiometry    C11H15NO2
 Framework group  C1[X(C11H15NO2)]
 Deg. of freedom    81
 Full point group                 C1      NOp   1
 RotChk:  IX=0 Diff= 5.95D-16
 Largest Abelian subgroup         C1      NOp   1
 Largest concise Abelian subgroup C1      NOp   1
                         Standard orientation:                         
 ---------------------------------------------------------------------
 Center     Atomic      Atomic             Coordinates (Angstroms)
 Number     Number       Type             X           Y           Z
 ---------------------------------------------------------------------
      1          8           0        2.253211   -2.315570    0.012476
      2          8           0       -3.673415   -0.196361    0.047782
      3          7           0        0.058911    1.805307   -0.024820
      4          1           0        0.090118    2.810940   -0.017948
      5          6           0       -1.293979   -0.138014   -0.009006
      6          6           0        1.245686    1.137600   -0.007559
      7          6           0       -1.196345    1.220391   -0.013328
      8          6           0       -2.543701   -0.801303    0.007805
      9          6           0       -0.050190   -0.990103   -0.028430
     10          1           0       -0.056777   -1.672093    0.825397
     11          1           0       -0.050243   -1.627119   -0.917110
     12          6           0        1.247133   -0.219454   -0.010167
     13          6           0        2.407439   -1.094245    0.007228
     14          6           0       -2.306899    2.206334    0.002641
     15          1           0       -2.140640    2.997771   -0.733603
     16          1           0       -3.274136    1.763943   -0.228863
     17          1           0       -2.407581    2.674969    0.985356
     18          6           0       -2.709557   -2.291417   -0.020183
     19          1           0       -3.418004   -2.642982   -0.773241
     20          1           0       -1.774753   -2.813093   -0.212189
     21          1           0       -3.070141   -2.659999    0.944724
     22          6           0        3.824279   -0.580845    0.014954
     23          1           0        4.045034    0.061849   -0.834916
     24          1           0        4.059170   -0.025006    0.921732
     25          1           0        4.469201   -1.455063   -0.032399
     26          6           0        2.421892    2.062642    0.009605
     27          1           0        3.065172    1.898752    0.870242
     28          1           0        3.031807    1.971400   -0.886965
     29          1           0        2.106490    3.104510    0.060101
 ---------------------------------------------------------------------
 Rotational constants (GHZ):           1.1027059           0.4826739           0.3392595
 Leave Link  202 at Fri Jan 23 18:05:06 2026, MaxMem=  2147483648 cpu:               0.0 elap:               0.0
 (Enter /data/home/wyx/g16/l301.exe)
 Standard basis: TZVP (5D, 7F)
 Ernie: Thresh=  0.10000D-02 Tol=  0.10000D-05 Strict=F.
 There are   370 symmetry adapted cartesian basis functions of A   symmetry.
 There are   356 symmetry adapted basis functions of A   symmetry.
   356 basis functions,   610 primitive gaussians,   370 cartesian basis functions
    52 alpha electrons       52 beta electrons
       nuclear repulsion energy       899.1439204817 Hartrees.
 IExCor=20419 DFT=T Ex+Corr=CAM-B3LYP ExCW=0 ScaHFX=  1.000000
 ScaDFX=  1.000000  1.000000  1.000000  0.810000 ScalE2=  1.000000  1.000000
 IRadAn=      5 IRanWt=     -1 IRanGd=            0 ICorTp=0 IEmpDi=141
 HFx  wShort=  0.000000 wLong=  0.330000 cFull=  0.190000 cShort=  0.000000 cLong=  0.460000
 DFx  wShort=  0.000000 wLong=  0.330000 cFull=  0.190000 cShort=  0.000000 cLong=  0.460000
 NAtoms=   29 NActive=   29 NUniq=   29 SFac= 1.00D+00 NAtFMM=   60 NAOKFM=F Big=F
 Integral buffers will be    131072 words long.
 Raffenetti 1 integral format.
 Two-electron integral symmetry is turned on.
 R6Disp:  Grimme-D3(BJ) Dispersion energy=       -0.0260904230 Hartrees.
 Nuclear repulsion after empirical dispersion term =      899.1178300587 Hartrees.
 ------------------------------------------------------------------------------
 Polarizable Continuum Model (PCM)
 =================================
 Model                : PCM.
 Atomic radii         : UFF (Universal Force Field).
 Polarization charges : Total charges.
 Charge compensation  : None.
 Solution method      : On-the-fly selection.
 Cavity type          : Scaled VdW (van der Waals Surface) (Alpha=1.100).
 Cavity algorithm     : GePol (No added spheres)
                        Default sphere list used, NSphG=   29.
                        Lebedev-Laikov grids with approx.  5.0 points / Ang**2.
                        Smoothing algorithm: York/Karplus (Gamma=1.0000).
                        Polarization charges: spherical gaussians, with
                                              point-specific exponents (IZeta= 3).
                        Self-potential: point-specific (ISelfS= 7).
                        Self-field    : sphere-specific E.n sum rule (ISelfD= 2).
 1st derivatives      : Analytical E(r).r(x)/FMM algorithm (CHGder, D1EAlg=3).
                        Cavity 1st derivative terms included.
 Solvent              : TetraHydroFuran, Eps=   7.425700 Eps(inf)=   1.974025
 ------------------------------------------------------------------------------
 GePol: Number of generator spheres                  =      29
 GePol: Total number of spheres                      =      29
 GePol: Number of exposed spheres                    =      29 (100.00%)
 GePol: Number of points                             =    2120
 GePol: Average weight of points                     =       0.13
 GePol: Minimum weight of points                     =   0.32D-11
 GePol: Maximum weight of points                     =    0.20577
 GePol: Number of points with low weight             =     144
 GePol: Fraction of low-weight points (<1% of avg)   =       6.79%
 GePol: Cavity surface area                          =    268.995 Ang**2
 GePol: Cavity volume                                =    286.447 Ang**3
 Leave Link  301 at Fri Jan 23 18:05:06 2026, MaxMem=  2147483648 cpu:               0.5 elap:               0.0
 (Enter /data/home/wyx/g16/l302.exe)
 NPDir=0 NMtPBC=     1 NCelOv=     1 NCel=       1 NClECP=     1 NCelD=      1
         NCelK=      1 NCelE2=     1 NClLst=     1 CellRange=     0.0.
 One-electron integrals computed using PRISM.
 One-electron integral symmetry used in STVInt
 NBasis=   356 RedAO= T EigKep=  3.34D-05  NBF=   356
 NBsUse=   356 1.00D-06 EigRej= -1.00D+00 NBFU=   356
 Precomputing XC quadrature grid using
 IXCGrd= 4 IRadAn=           5 IRanWt=          -1 IRanGd=           0 AccXCQ= 0.00D+00.
 Generated NRdTot=       0 NPtTot=           0 NUsed=           0 NTot=          32
 NSgBfM=   366   366   366   366   366 MxSgAt=    29 MxSgA2=    29.
 Leave Link  302 at Fri Jan 23 18:05:06 2026, MaxMem=  2147483648 cpu:               3.1 elap:               0.2
 (Enter /data/home/wyx/g16/l303.exe)
 DipDrv:  MaxL=1.
 Leave Link  303 at Fri Jan 23 18:05:07 2026, MaxMem=  2147483648 cpu:               0.5 elap:               0.0
 (Enter /data/home/wyx/g16/l308.exe)
 Leave Link  308 at Fri Jan 23 18:05:07 2026, MaxMem=  2147483648 cpu:               0.7 elap:               0.1
 (Enter /data/home/wyx/g16/l401.exe)
 Initial guess from the checkpoint file:  "DDL-S2-cLR-4.chk"
 B after Tr=     0.000000   -0.000000    0.000000
         Rot=    1.000000    0.000000   -0.000000   -0.000000 Ang=   0.00 deg.
 Guess basis will be translated and rotated to current coordinates.
 JPrj=2 DoOrth=T DoCkMO=T.
 Leave Link  401 at Fri Jan 23 18:05:07 2026, MaxMem=  2147483648 cpu:               2.2 elap:               0.2
 (Enter /data/home/wyx/g16/l502.exe)
 Integral symmetry usage will be decided dynamically.
 Closed shell SCF:
 Using DIIS extrapolation, IDIIS=  1040.
 NGot=  2147483648 LenX=  2147200095 LenY=  2147062754
 Requested convergence on RMS density matrix=1.00D-08 within 128 cycles.
 Requested convergence on MAX density matrix=1.00D-06.
 Requested convergence on             energy=1.00D-06.
 No special actions if energy rises.
 Fock matrices will be formed incrementally for  20 cycles.

 Cycle   1  Pass 1  IDiag  1:
 FoFJK:  IHMeth= 1 ICntrl=       0 DoSepK=T KAlg= 0 I1Cent=           0 FoldK=F
 IRaf=         1 NMat=       1 IRICut=       1 DoRegI=T DoRafI=F ISym2E= 0 IDoP0=0 IntGTp=1.
 FoFCou: FMM=F IPFlag=           0 FMFlag=      100000 FMFlg1=           0
         NFxFlg=           0 DoJE=T BraDBF=F KetDBF=F FulRan=T
         wScrn=  0.000000 ICntrl=       500 IOpCl=  0 I1Cent=           0 NGrid=           0
         NMat0=    1 NMatS0=      1 NMatT0=    0 NMatD0=    1 NMtDS0=    0 NMtDT0=    0
 Symmetry not used in FoFCou.
 Inv3:  Mode=1 IEnd=    13483200.
 Iteration    1 A*A^-1 deviation from unit magnitude is 3.00D-15 for   1422.
 Iteration    1 A*A^-1 deviation from orthogonality  is 2.12D-15 for   1933     85.
 Iteration    1 A^-1*A deviation from unit magnitude is 3.00D-15 for   1422.
 Iteration    1 A^-1*A deviation from orthogonality  is 2.63D-15 for   1371   1349.
 E= -633.315785549739    
 DIIS: error= 6.67D-09 at cycle   1 NSaved=   1.
 NSaved= 1 IEnMin= 1 EnMin= -633.315785549739     IErMin= 1 ErrMin= 6.67D-09
 ErrMax= 6.67D-09  0.00D+00 EMaxC= 1.00D-01 BMatC= 2.03D-14 BMatP= 2.03D-14
 IDIUse=1 WtCom= 1.00D+00 WtEn= 0.00D+00
 Coeff-Com:  0.100D+01
 Coeff:      0.100D+01
 Gap=     0.228 Goal=   None    Shift=    0.000
 RMSDP=1.89D-09 MaxDP=1.11D-07              OVMax= 1.19D-07

 Error on total polarization charges =  0.01466
 SCF Done:  E(RCAM-B3LYP) =  -633.315785550     A.U. after    1 cycles
            NFock=  1  Conv=0.19D-08     -V/T= 2.0042
 KE= 6.306665958042D+02 PE=-3.274213540968D+03 EE= 1.111113329555D+03
 Leave Link  502 at Fri Jan 23 18:05:13 2026, MaxMem=  2147483648 cpu:              85.1 elap:               5.6
 (Enter /data/home/wyx/g16/l801.exe)
 DoSCS=F DFT=T ScalE2(SS,OS)=  1.000000  1.000000
 ExpMin= 9.52D-02 ExpMax= 2.70D+04 ExpMxC= 9.22D+02 IAcc=3 IRadAn=         5 AccDes= 0.00D+00
 HarFok:  IExCor=  205 AccDes= 0.00D+00 IRadAn=         5 IDoV=-2 UseB2=F ITyADJ=14
 ICtDFT= 12500011 ScaDFX=  1.000000  1.000000  1.000000  1.000000
 Largest valence mixing into a core orbital is  5.63D-05
 Largest core mixing into a valence orbital is  1.05D-05
 Range of M.O.s used for correlation:    15   356
 NBasis=   356 NAE=    52 NBE=    52 NFC=    14 NFV=     0
 NROrb=    342 NOA=    38 NOB=    38 NVA=   304 NVB=   304

 **** Warning!!: The largest alpha MO coefficient is  0.43803060D+02

 Leave Link  801 at Fri Jan 23 18:05:13 2026, MaxMem=  2147483648 cpu:               1.0 elap:               0.1
 (Enter /data/home/wyx/g16/l914.exe)
 RHF ground state
 Two-electron integrals replicated using symmetry.
 MDV=  2147483648 DFT=T DoStab=F Mixed=T DoRPA=T DoScal=F NonHer=T
 NEqPCM:  Using equilibrium solvation (IEInf=0, Eps=   7.4257, EpsInf=   1.9740)
 Making orbital integer symmetry assigments:
 Orbital symmetries:
       Occupied  (A) (A) (A) (A) (A) (A) (A) (A) (A) (A) (A) (A)
                 (A) (A) (A) (A) (A) (A) (A) (A) (A) (A) (A) (A)
                 (A) (A) (A) (A) (A) (A) (A) (A) (A) (A) (A) (A)
                 (A) (A) (A) (A) (A) (A) (A) (A) (A) (A) (A) (A)
                 (A) (A) (A) (A)
       Virtual   (A) (A) (A) (A) (A) (A) (A) (A) (A) (A) (A) (A)
                 (A) (A) (A) (A) (A) (A) (A) (A) (A) (A) (A) (A)
                 (A) (A) (A) (A) (A) (A) (A) (A) (A) (A) (A) (A)
                 (A) (A) (A) (A) (A) (A) (A) (A) (A) (A) (A) (A)
                 (A) (A) (A) (A) (A) (A) (A) (A) (A) (A) (A) (A)
                 (A) (A) (A) (A) (A) (A) (A) (A) (A) (A) (A) (A)
                 (A) (A) (A) (A) (A) (A) (A) (A) (A) (A) (A) (A)
                 (A) (A) (A) (A) (A) (A) (A) (A) (A) (A) (A) (A)
                 (A) (A) (A) (A) (A) (A) (A) (A) (A) (A) (A) (A)
                 (A) (A) (A) (A) (A) (A) (A) (A) (A) (A) (A) (A)
                 (A) (A) (A) (A) (A) (A) (A) (A) (A) (A) (A) (A)
                 (A) (A) (A) (A) (A) (A) (A) (A) (A) (A) (A) (A)
                 (A) (A) (A) (A) (A) (A) (A) (A) (A) (A) (A) (A)
                 (A) (A) (A) (A) (A) (A) (A) (A) (A) (A) (A) (A)
                 (A) (A) (A) (A) (A) (A) (A) (A) (A) (A) (A) (A)
                 (A) (A) (A) (A) (A) (A) (A) (A) (A) (A) (A) (A)
                 (A) (A) (A) (A) (A) (A) (A) (A) (A) (A) (A) (A)
                 (A) (A) (A) (A) (A) (A) (A) (A) (A) (A) (A) (A)
                 (A) (A) (A) (A) (A) (A) (A) (A) (A) (A) (A) (A)
                 (A) (A) (A) (A) (A) (A) (A) (A) (A) (A) (A) (A)
                 (A) (A) (A) (A) (A) (A) (A) (A) (A) (A) (A) (A)
                 (A) (A) (A) (A) (A) (A) (A) (A) (A) (A) (A) (A)
                 (A) (A) (A) (A) (A) (A) (A) (A) (A) (A) (A) (A)
                 (A) (A) (A) (A) (A) (A) (A) (A) (A) (A) (A) (A)
                 (A) (A) (A) (A) (A) (A) (A) (A) (A) (A) (A) (A)
                 (A) (A) (A) (A)
 PCM Corrected Linear-Response:
 Compute the excitation energies in the ground state reaction field.
    24 initial guesses have been made.
 Convergence on wavefunction:    0.000001000000000
 Davidson Disk Diagonalization:  ConvIn= 1.00D-06 SkipCon=T Conv= 1.00D-06.
 Max sub-space:  2000 roots to seek:    24 dimension of matrix:        23104
 Iteration     1 Dimension    24 NMult     0 NNew     24
 CISAX will form    24 AO SS matrices at one time.
 NMat=    24 NSing=    24 JSym2X= 0.
 FoFJK:  IHMeth= 1 ICntrl=       0 DoSepK=T KAlg= 0 I1Cent=           0 FoldK=F
 IRaf=         1 NMat=      48 IRICut=       1 DoRegI=T DoRafI=F ISym2E= 0 IDoP0=3 IntGTp=3.
 FoFCou: FMM=F IPFlag=           0 FMFlag=      100000 FMFlg1=           0
         NFxFlg=           0 DoJE=F BraDBF=F KetDBF=F FulRan=T
         wScrn=  0.000000 ICntrl=       500 IOpCl=  0 I1Cent=           0 NGrid=           0
         NMat0=   24 NMatS0=     24 NMatT0=    0 NMatD0=   24 NMtDS0=    0 NMtDT0=    0
 Symmetry not used in FoFCou.
 New state      1 was old state      2
 New state      2 was old state      1
 New state      3 was old state      4
 New state      4 was old state      3
 New state      5 was old state      6
 New state      6 was old state      5
 Excitation Energies [eV] at current iteration:
 Root      1 :     3.671069125347305
 Root      2 :     3.815510685087849
 Root      3 :     4.452418971050592
 Root      4 :     5.495129862473743
 Root      5 :     6.234058534749668
 Root      6 :     6.508225077610624
 Root      7 :     6.585723790057330
 Root      8 :     6.679355056578856
 Root      9 :     6.829407728397240
 Root     10 :     7.123072098324060
 Root     11 :     7.189845438048125
 Root     12 :     7.362331598693465
 Root     13 :     7.495305749468263
 Root     14 :     7.703009025551957
 Root     15 :     7.721584609520617
 Root     16 :     7.836414220089853
 Root     17 :     8.212076637332132
 Root     18 :     8.269208116276703
 Root     19 :     8.349895350893750
 Root     20 :     8.453139207341986
 Root     21 :     8.590900363527751
 Root     22 :     8.658148318327411
 Root     23 :     8.801095757912069
 Root     24 :     9.016103430821691
 Iteration     2 Dimension    36 NMult    24 NNew     12
 CISAX will form    12 AO SS matrices at one time.
 NMat=    12 NSing=    12 JSym2X= 0.
 New state      1 was old state      2
 Root      1 not converged, maximum delta is    0.270385547982040
 New state      2 was old state      1
 Root      2 not converged, maximum delta is    0.275484013464596
 Root      3 not converged, maximum delta is    0.095312346590136
 Root      4 not converged, maximum delta is    0.236194022204682
 New state      5 was old state      6
 Root      5 not converged, maximum delta is    0.211470288390415
 New state      6 was old state      5
 Root      6 not converged, maximum delta is    0.045424566960117
 Excitation Energies [eV] at current iteration:
 Root      1 :     3.341782926197506   Change is   -0.473727758890343
 Root      2 :     3.474787038456558   Change is   -0.196282086890747
 Root      3 :     4.213519129411577   Change is   -0.238899841639014
 Root      4 :     5.193003308194820   Change is   -0.302126554278924
 Root      5 :     5.590282467005648   Change is   -0.917942610604976
 Root      6 :     6.120942357685850   Change is   -0.113116177063818
 Iteration     3 Dimension    48 NMult    36 NNew     12
 CISAX will form    12 AO SS matrices at one time.
 NMat=    12 NSing=    12 JSym2X= 0.
 Root      1 not converged, maximum delta is    0.010365698358077
 Root      2 not converged, maximum delta is    0.011150286982412
 Root      3 not converged, maximum delta is    0.018822650005075
 Root      4 not converged, maximum delta is    0.034523048630244
 Root      5 not converged, maximum delta is    0.033529300052987
 Root      6 not converged, maximum delta is    0.009033385140514
 Excitation Energies [eV] at current iteration:
 Root      1 :     3.322161442960402   Change is   -0.019621483237105
 Root      2 :     3.465478412325757   Change is   -0.009308626130801
 Root      3 :     4.200592822849059   Change is   -0.012926306562518
 Root      4 :     5.170233146059215   Change is   -0.022770162135604
 Root      5 :     5.550244052268013   Change is   -0.040038414737635
 Root      6 :     6.116008276895328   Change is   -0.004934080790522
 Iteration     4 Dimension    60 NMult    48 NNew     12
 CISAX will form    12 AO SS matrices at one time.
 NMat=    12 NSing=    12 JSym2X= 0.
 Root      1 not converged, maximum delta is    0.002615540520027
 Root      2 not converged, maximum delta is    0.001894923089405
 Root      3 not converged, maximum delta is    0.001954083704978
 Root      4 not converged, maximum delta is    0.004376129804065
 Root      5 not converged, maximum delta is    0.006836745282013
 Root      6 not converged, maximum delta is    0.001798896170531
 Excitation Energies [eV] at current iteration:
 Root      1 :     3.320531123726979   Change is   -0.001630319233422
 Root      2 :     3.464877897192375   Change is   -0.000600515133381
 Root      3 :     4.200134071245037   Change is   -0.000458751604023
 Root      4 :     5.167669239755398   Change is   -0.002563906303817
 Root      5 :     5.544484354481073   Change is   -0.005759697786940
 Root      6 :     6.115733019140433   Change is   -0.000275257754895
 Iteration     5 Dimension    72 NMult    60 NNew     12
 CISAX will form    12 AO SS matrices at one time.
 NMat=    12 NSing=    12 JSym2X= 0.
 Root      1 not converged, maximum delta is    0.000918227184250
 Root      2 not converged, maximum delta is    0.000308186083810
 Root      3 not converged, maximum delta is    0.000615964348946
 Root      4 not converged, maximum delta is    0.000677224751095
 Root      5 not converged, maximum delta is    0.001357784276503
 Root      6 not converged, maximum delta is    0.000395983435138
 Excitation Energies [eV] at current iteration:
 Root      1 :     3.320423821521040   Change is   -0.000107302205940
 Root      2 :     3.464845687556013   Change is   -0.000032209636363
 Root      3 :     4.200112347437942   Change is   -0.000021723807094
 Root      4 :     5.167491489830038   Change is   -0.000177749925360
 Root      5 :     5.544040892034348   Change is   -0.000443462446724
 Root      6 :     6.115715911630708   Change is   -0.000017107509725
 Iteration     6 Dimension    84 NMult    72 NNew     12
 CISAX will form    12 AO SS matrices at one time.
 NMat=    12 NSing=    12 JSym2X= 0.
 Root      1 not converged, maximum delta is    0.000200350005468
 Root      2 not converged, maximum delta is    0.000091602175698
 Root      3 not converged, maximum delta is    0.000224668224063
 Root      4 not converged, maximum delta is    0.000181000941459
 Root      5 not converged, maximum delta is    0.000422869468084
 Root      6 not converged, maximum delta is    0.000288451215756
 Excitation Energies [eV] at current iteration:
 Root      1 :     3.320417298178241   Change is   -0.000006523342798
 Root      2 :     3.464843503938556   Change is   -0.000002183617457
 Root      3 :     4.200110591921876   Change is   -0.000001755516067
 Root      4 :     5.167479974466278   Change is   -0.000011515363759
 Root      5 :     5.544007848554030   Change is   -0.000033043480318
 Root      6 :     6.115714026922951   Change is   -0.000001884707757
 Iteration     7 Dimension    96 NMult    84 NNew     12
 CISAX will form    12 AO SS matrices at one time.
 NMat=    12 NSing=    12 JSym2X= 0.
 Root      1 not converged, maximum delta is    0.000022202497509
 Root      2 not converged, maximum delta is    0.000011629349961
 Root      3 not converged, maximum delta is    0.000035153434379
 Root      4 not converged, maximum delta is    0.000047801421798
 Root      5 not converged, maximum delta is    0.000116893135634
 Root      6 not converged, maximum delta is    0.000142345663686
 Excitation Energies [eV] at current iteration:
 Root      1 :     3.320416850668441   Change is   -0.000000447509800
 Root      2 :     3.464843406831505   Change is   -0.000000097107051
 Root      3 :     4.200110504387092   Change is   -0.000000087534783
 Root      4 :     5.167478961476903   Change is   -0.000001012989375
 Root      5 :     5.544004567968325   Change is   -0.000003280585706
 Root      6 :     6.115713731603460   Change is   -0.000000295319490
 Iteration     8 Dimension   108 NMult    96 NNew     12
 CISAX will form    12 AO SS matrices at one time.
 NMat=    12 NSing=    12 JSym2X= 0.
 Root      1 not converged, maximum delta is    0.000004524074050
 Root      2 not converged, maximum delta is    0.000003177863805
 Root      3 not converged, maximum delta is    0.000003050227168
 Root      4 not converged, maximum delta is    0.000015507239646
 Root      5 not converged, maximum delta is    0.000020660469235
 Root      6 not converged, maximum delta is    0.000026156073882
 Excitation Energies [eV] at current iteration:
 Root      1 :     3.320416832840068   Change is   -0.000000017828374
 Root      2 :     3.464843402923660   Change is   -0.000000003907845
 Root      3 :     4.200110500355917   Change is   -0.000000004031175
 Root      4 :     5.167478889343639   Change is   -0.000000072133265
 Root      5 :     5.544004328238234   Change is   -0.000000239730091
 Root      6 :     6.115713703218911   Change is   -0.000000028384549
 Iteration     9 Dimension   120 NMult   108 NNew     12
 CISAX will form    12 AO SS matrices at one time.
 NMat=    12 NSing=    12 JSym2X= 0.
 Root      1 has converged.
 Root      2 has converged.
 Root      3 has converged.
 Root      4 not converged, maximum delta is    0.000005813887975
 Root      5 not converged, maximum delta is    0.000008971235947
 Root      6 not converged, maximum delta is    0.000006458702651
 Excitation Energies [eV] at current iteration:
 Root      1 :     3.320416832172735   Change is   -0.000000000667332
 Root      2 :     3.464843402786974   Change is   -0.000000000136687
 Root      3 :     4.200110500190704   Change is   -0.000000000165213
 Root      4 :     5.167478885106120   Change is   -0.000000004237518
 Root      5 :     5.544004313607769   Change is   -0.000000014630465
 Root      6 :     6.115713700895365   Change is   -0.000000002323546
 Iteration    10 Dimension   126 NMult   120 NNew      6
 CISAX will form     6 AO SS matrices at one time.
 NMat=     6 NSing=     6 JSym2X= 0.
 Root      1 has converged.
 Root      2 has converged.
 Root      3 has converged.
 Root      4 not converged, maximum delta is    0.000001798762537
 Root      5 not converged, maximum delta is    0.000003317260497
 Root      6 not converged, maximum delta is    0.000002229516240
 Excitation Energies [eV] at current iteration:
 Root      1 :     3.320416832170532   Change is   -0.000000000002203
 Root      2 :     3.464843402786641   Change is   -0.000000000000332
 Root      3 :     4.200110500189549   Change is   -0.000000000001155
 Root      4 :     5.167478884783064   Change is   -0.000000000323057
 Root      5 :     5.544004312385274   Change is   -0.000000001222495
 Root      6 :     6.115713700673450   Change is   -0.000000000221914
 Iteration    11 Dimension   132 NMult   126 NNew      6
 CISAX will form     6 AO SS matrices at one time.
 NMat=     6 NSing=     6 JSym2X= 0.
 Root      1 has converged.
 Root      2 has converged.
 Root      3 has converged.
 Root      4 has converged.
 Root      5 has converged.
 Root      6 has converged.
 Excitation Energies [eV] at current iteration:
 Root      1 :     3.320416832169987   Change is   -0.000000000000545
 Root      2 :     3.464843402786570   Change is   -0.000000000000071
 Root      3 :     4.200110500189472   Change is   -0.000000000000078
 Root      4 :     5.167478884764323   Change is   -0.000000000018740
 Root      5 :     5.544004312314099   Change is   -0.000000000071175
 Root      6 :     6.115713700655183   Change is   -0.000000000018268
 Convergence achieved on expansion vectors.
 PCM Corrected Linear-Response:
 The state of interest is root number   2
 Excitation energy =    3.4648 eV, Total energy =  -633.188454898    
 Recompute the excitation energies using the linear response reaction field.
 Convergence on wavefunction:    0.000001000000000
 Davidson Disk Diagonalization:  ConvIn= 1.00D-06 SkipCon=T Conv= 1.00D-06.
 Max sub-space:  2000 roots to seek:     6 dimension of matrix:        23104
 Iteration     1 Dimension     6 NMult     0 NNew      6
 CISAX will form     6 AO SS matrices at one time.
 NMat=     6 NSing=     6 JSym2X= 0.
 Excitation Energies [eV] at current iteration:
 Root      1 :     3.414448226201566
 Root      2 :     3.494420739102892
 Root      3 :     4.226844713662380
 Root      4 :     5.243835679189934
 Root      5 :     5.739733499486483
 Root      6 :     6.088978180379197
 Iteration     2 Dimension    18 NMult     6 NNew     12
 CISAX will form    12 AO SS matrices at one time.
 NMat=    12 NSing=    12 JSym2X= 0.
 Root      1 not converged, maximum delta is    0.161499583290783
 Root      2 not converged, maximum delta is    0.181793206505788
 Root      3 not converged, maximum delta is    0.001982894719554
 Root      4 not converged, maximum delta is    0.287946438491916
 Root      5 not converged, maximum delta is    0.311658940417607
 Root      6 not converged, maximum delta is    0.009474384003127
 Excitation Energies [eV] at current iteration:
 Root      1 :     3.200524815818648   Change is   -0.213923410382918
 Root      2 :     3.458595960002720   Change is   -0.035824779100173
 Root      3 :     4.196121642418070   Change is   -0.030723071244310
 Root      4 :     5.032146023549308   Change is   -0.211689655640626
 Root      5 :     5.426285732978709   Change is   -0.313447766507775
 Root      6 :     6.079090358122489   Change is   -0.009887822256708
 Iteration     3 Dimension    30 NMult    18 NNew     12
 CISAX will form    12 AO SS matrices at one time.
 NMat=    12 NSing=    12 JSym2X= 0.
 Root      1 not converged, maximum delta is    0.002384455625574
 Root      2 not converged, maximum delta is    0.000819060162788
 Root      3 not converged, maximum delta is    0.000941711212629
 Root      4 not converged, maximum delta is    0.014368332562333
 Root      5 not converged, maximum delta is    0.011568698677273
 Root      6 not converged, maximum delta is    0.004889101685791
 Excitation Energies [eV] at current iteration:
 Root      1 :     3.197556023277033   Change is   -0.002968792541614
 Root      2 :     3.458359397243601   Change is   -0.000236562759118
 Root      3 :     4.195865594015215   Change is   -0.000256048402854
 Root      4 :     5.022639849787359   Change is   -0.009506173761949
 Root      5 :     5.418261468087404   Change is   -0.008024264891305
 Root      6 :     6.078477581853996   Change is   -0.000612776268493
 Iteration     4 Dimension    42 NMult    30 NNew     12
 CISAX will form    12 AO SS matrices at one time.
 NMat=    12 NSing=    12 JSym2X= 0.
 Root      1 not converged, maximum delta is    0.001897034079066
 Root      2 not converged, maximum delta is    0.000228599207156
 Root      3 not converged, maximum delta is    0.000283173215714
 Root      4 not converged, maximum delta is    0.004097666790745
 Root      5 not converged, maximum delta is    0.004529516125197
 Root      6 not converged, maximum delta is    0.005730079342398
 Excitation Energies [eV] at current iteration:
 Root      1 :     3.197143015636219   Change is   -0.000413007640815
 Root      2 :     3.458346334656444   Change is   -0.000013062587158
 Root      3 :     4.195853623742405   Change is   -0.000011970272810
 Root      4 :     5.021068927947028   Change is   -0.001570921840331
 Root      5 :     5.416899898098727   Change is   -0.001361569988677
 Root      6 :     6.078275345548420   Change is   -0.000202236305576
 Iteration     5 Dimension    54 NMult    42 NNew     12
 CISAX will form    12 AO SS matrices at one time.
 NMat=    12 NSing=    12 JSym2X= 0.
 Root      1 not converged, maximum delta is    0.000457525080835
 Root      2 not converged, maximum delta is    0.000046066336794
 Root      3 not converged, maximum delta is    0.000095468210086
 Root      4 not converged, maximum delta is    0.001633348867526
 Root      5 not converged, maximum delta is    0.001308144565070
 Root      6 not converged, maximum delta is    0.003208501501226
 Excitation Energies [eV] at current iteration:
 Root      1 :     3.197109787222899   Change is   -0.000033228413319
 Root      2 :     3.458345626825174   Change is   -0.000000707831269
 Root      3 :     4.195852918543359   Change is   -0.000000705199046
 Root      4 :     5.020870950256808   Change is   -0.000197977690220
 Root      5 :     5.416741317743915   Change is   -0.000158580354812
 Root      6 :     6.078221229898009   Change is   -0.000054115650411
 Iteration     6 Dimension    66 NMult    54 NNew     12
 CISAX will form    12 AO SS matrices at one time.
 NMat=    12 NSing=    12 JSym2X= 0.
 Root      1 not converged, maximum delta is    0.000059815871540
 Root      2 not converged, maximum delta is    0.000012558580898
 Root      3 not converged, maximum delta is    0.000019561260362
 Root      4 not converged, maximum delta is    0.000501985862615
 Root      5 not converged, maximum delta is    0.000483710547823
 Root      6 not converged, maximum delta is    0.000626126983892
 Excitation Energies [eV] at current iteration:
 Root      1 :     3.197107640311733   Change is   -0.000002146911166
 Root      2 :     3.458345577098472   Change is   -0.000000049726702
 Root      3 :     4.195852870612405   Change is   -0.000000047930955
 Root      4 :     5.020849117498986   Change is   -0.000021832757822
 Root      5 :     5.416722809147777   Change is   -0.000018508596137
 Root      6 :     6.078213882316190   Change is   -0.000007347581819
 Iteration     7 Dimension    78 NMult    66 NNew     12
 CISAX will form    12 AO SS matrices at one time.
 NMat=    12 NSing=    12 JSym2X= 0.
 Root      1 not converged, maximum delta is    0.000012984210854
 Root      2 not converged, maximum delta is    0.000002821809852
 Root      3 not converged, maximum delta is    0.000006069355451
 Root      4 not converged, maximum delta is    0.000113379826146
 Root      5 not converged, maximum delta is    0.000134649125936
 Root      6 not converged, maximum delta is    0.000295843574414
 Excitation Energies [eV] at current iteration:
 Root      1 :     3.197107552430331   Change is   -0.000000087881402
 Root      2 :     3.458345574613619   Change is   -0.000000002484853
 Root      3 :     4.195852867288252   Change is   -0.000000003324153
 Root      4 :     5.020847271469099   Change is   -0.000001846029887
 Root      5 :     5.416721067566609   Change is   -0.000001741581168
 Root      6 :     6.078212835827052   Change is   -0.000001046489139
 Iteration     8 Dimension    90 NMult    78 NNew     12
 CISAX will form    12 AO SS matrices at one time.
 NMat=    12 NSing=    12 JSym2X= 0.
 Root      1 not converged, maximum delta is    0.000004426114050
 Root      2 has converged.
 Root      3 not converged, maximum delta is    0.000001690981644
 Root      4 not converged, maximum delta is    0.000015994940972
 Root      5 not converged, maximum delta is    0.000022170595383
 Root      6 not converged, maximum delta is    0.000150472776981
 Excitation Energies [eV] at current iteration:
 Root      1 :     3.197107547106075   Change is   -0.000000005324256
 Root      2 :     3.458345574494766   Change is   -0.000000000118853
 Root      3 :     4.195852867005864   Change is   -0.000000000282388
 Root      4 :     5.020847142471839   Change is   -0.000000128997260
 Root      5 :     5.416720934035908   Change is   -0.000000133530701
 Root      6 :     6.078212652891814   Change is   -0.000000182935237
 Iteration     9 Dimension   100 NMult    90 NNew     10
 CISAX will form    10 AO SS matrices at one time.
 NMat=    10 NSing=    10 JSym2X= 0.
 Root      1 has converged.
 Root      2 has converged.
 Root      3 has converged.
 Root      4 not converged, maximum delta is    0.000005793558003
 Root      5 not converged, maximum delta is    0.000004847451065
 Root      6 not converged, maximum delta is    0.000056265753064
 Excitation Energies [eV] at current iteration:
 Root      1 :     3.197107546904485   Change is   -0.000000000201590
 Root      2 :     3.458345574493316   Change is   -0.000000000001450
 Root      3 :     4.195852866989073   Change is   -0.000000000016791
 Root      4 :     5.020847136052760   Change is   -0.000000006419078
 Root      5 :     5.416720926364627   Change is   -0.000000007671281
 Root      6 :     6.078212620171230   Change is   -0.000000032720584
 Iteration    10 Dimension   106 NMult   100 NNew      6
 CISAX will form     6 AO SS matrices at one time.
 NMat=     6 NSing=     6 JSym2X= 0.
 Root      1 has converged.
 Root      2 has converged.
 Root      3 has converged.
 Root      4 not converged, maximum delta is    0.000002513289090
 Root      5 not converged, maximum delta is    0.000001365915062
 Root      6 not converged, maximum delta is    0.000014184009507
 Excitation Energies [eV] at current iteration:
 Root      1 :     3.197107546904125   Change is   -0.000000000000360
 Root      2 :     3.458345574492626   Change is   -0.000000000000690
 Root      3 :     4.195852866988663   Change is   -0.000000000000411
 Root      4 :     5.020847135678583   Change is   -0.000000000374178
 Root      5 :     5.416720925875622   Change is   -0.000000000489006
 Root      6 :     6.078212616071046   Change is   -0.000000004100183
 Iteration    11 Dimension   112 NMult   106 NNew      6
 CISAX will form     6 AO SS matrices at one time.
 NMat=     6 NSing=     6 JSym2X= 0.
 Root      1 has converged.
 Root      2 has converged.
 Root      3 has converged.
 Root      4 has converged.
 Root      5 has converged.
 Root      6 not converged, maximum delta is    0.000004527361935
 Excitation Energies [eV] at current iteration:
 Root      1 :     3.197107546904176   Change is    0.000000000000051
 Root      2 :     3.458345574492412   Change is   -0.000000000000214
 Root      3 :     4.195852866988663   Change is    0.000000000000000
 Root      4 :     5.020847135647867   Change is   -0.000000000030716
 Root      5 :     5.416720925846710   Change is   -0.000000000028912
 Root      6 :     6.078212615672710   Change is   -0.000000000398336
 Iteration    12 Dimension   114 NMult   112 NNew      2
 CISAX will form     2 AO SS matrices at one time.
 NMat=     2 NSing=     2 JSym2X= 0.
 Root      1 has converged.
 Root      2 has converged.
 Root      3 has converged.
 Root      4 has converged.
 Root      5 has converged.
 Root      6 not converged, maximum delta is    0.000001491026707
 Excitation Energies [eV] at current iteration:
 Root      1 :     3.197107546904099   Change is   -0.000000000000077
 Root      2 :     3.458345574492412   Change is    0.000000000000000
 Root      3 :     4.195852866988702   Change is    0.000000000000039
 Root      4 :     5.020847135646966   Change is   -0.000000000000900
 Root      5 :     5.416720925846665   Change is   -0.000000000000045
 Root      6 :     6.078212615618623   Change is   -0.000000000054086
 Iteration    13 Dimension   116 NMult   114 NNew      2
 CISAX will form     2 AO SS matrices at one time.
 NMat=     2 NSing=     2 JSym2X= 0.
 Root      1 has converged.
 Root      2 has converged.
 Root      3 has converged.
 Root      4 has converged.
 Root      5 has converged.
 Root      6 has converged.
 Excitation Energies [eV] at current iteration:
 Root      1 :     3.197107546904022   Change is   -0.000000000000077
 Root      2 :     3.458345574492412   Change is    0.000000000000000
 Root      3 :     4.195852866988720   Change is    0.000000000000019
 Root      4 :     5.020847135646737   Change is   -0.000000000000230
 Root      5 :     5.416720925846558   Change is   -0.000000000000106
 Root      6 :     6.078212615607547   Change is   -0.000000000011077
 Convergence achieved on expansion vectors.
 ***********************************************************************
 Excited states from <AA,BB:AA,BB> singles matrix:
 ***********************************************************************
 
 1PDM for each excited state written to RWF  633
 Ground to excited state transition densities written to RWF  633
 Ground to excited state transition electric dipole moments (Au):
       state          X           Y           Z        Dip. S.      Osc.
         1         1.7123     -0.0598     -0.0015      2.9357      0.2299
         2         0.1986     -0.0358     -0.0411      0.0424      0.0036
         3        -0.0068     -0.0075      0.0373      0.0015      0.0002
         4         0.0093      1.8239     -0.0184      3.3270      0.4093
         5         0.3265      1.2812      0.0040      1.7480      0.2320
         6        -0.0115      0.0481      0.0210      0.0029      0.0004
 Ground to excited state transition velocity dipole moments (Au):
       state          X           Y           Z        Dip. S.      Osc.
         1        -0.1960      0.0059      0.0000      0.0385      0.2182
         2        -0.0253      0.0045      0.0038      0.0007      0.0035
         3         0.0006      0.0013     -0.0024      0.0000      0.0000
         4        -0.0076     -0.3179      0.0027      0.1012      0.3655
         5        -0.0613     -0.2518     -0.0008      0.0672      0.2249
         6         0.0017     -0.0097     -0.0243      0.0007      0.0021
 Ground to excited state transition magnetic dipole moments (Au):
       state          X           Y           Z
         1         0.0538     -0.0193      1.4296
         2        -0.7330      0.2735      0.2350
         3        -0.0093      0.9396      0.0074
         4        -0.0248      0.0060     -0.4843
         5        -0.0493      0.0108     -0.2758
         6        -0.0419     -0.0032     -0.0181
 Ground to excited state transition velocity quadrupole moments (Au):
       state          XX          YY          ZZ          XY          XZ          YZ
         1         0.3868     -0.1519     -0.0129      0.4976     -0.0056     -0.0009
         2         0.0527     -0.0009     -0.0011      0.0623     -0.0379     -0.0295
         3        -0.0116      0.0068     -0.0025     -0.0013     -0.0811      0.0038
         4         1.4712     -0.3306     -0.0385     -0.2709     -0.0030     -0.0034
         5         0.6486     -0.4393     -0.0310      0.0324      0.0088     -0.0273
         6        -0.0168     -0.0043      0.0082     -0.0151      0.0131      0.0393
 <0|del|b> * <b|rxdel|0> + <0|del|b> * <b|delr+rdel|0>
 Rotatory Strengths (R) in cgs (10**-40 erg-esu-cm/Gauss)
       state          XX          YY          ZZ    R(velocity)    E-M Angle
         1         0.0152    -31.1003    -32.7107    -21.2653       92.16
         2         6.9968     55.4651     52.4473     38.3031       13.17
         3         2.9167     -0.0553      2.4624      1.7746       63.49
         4        -9.4273     -0.6941     -1.5034     -3.8749       91.13
         5        -0.5182      8.7956     -6.3506      0.6423       89.57
         6         1.5287      0.1099     -0.3715      0.4223       70.54
 1/2[<0|r|b>*<b|rxdel|0> + (<0|rxdel|b>*<b|r|0>)*]
 Rotatory Strengths (R) in cgs (10**-40 erg-esu-cm/Gauss)
       state          XX          YY          ZZ     R(length)
         1       -65.1660     -0.8178      1.5457    -21.4793
         2       102.9302      6.9163      6.8249     38.8905
         3        -0.0447      4.9977     -0.1956      1.5858
         4         0.1633     -7.7519     -6.2880     -4.6255
         5        11.3891     -9.7500      0.7886      0.8093
         6        -0.3419      0.1105      0.2696      0.0127
  1/2[<0|del|b>*<b|r|0> + (<0|r|b>*<b|del|0>)*] (Au)
       state          X           Y           Z        Dip. S.   Osc.(frdel)
         1        -0.3357     -0.0004     -0.0000      0.3360      0.2240
         2        -0.0050     -0.0002     -0.0002      0.0053      0.0036
         3        -0.0000     -0.0000     -0.0001      0.0001      0.0001
         4        -0.0001     -0.5799     -0.0000      0.5800      0.3867
         5        -0.0200     -0.3226     -0.0000      0.3426      0.2284
         6        -0.0000     -0.0005     -0.0005      0.0010      0.0007

 Excitation energies and oscillator strengths:
 
 Excited State   1:      Singlet-A      3.1971 eV  387.80 nm  f=0.2299  <S**2>=0.000
      52 -> 53         0.69771
 
 Excited State   2:      Singlet-A      3.4583 eV  358.51 nm  f=0.0036  <S**2>=0.000
      51 -> 53         0.62399
      51 -> 54         0.28301
 This state for optimization and/or second-order correction.
 Total Energy, E(TD-HF/TD-DFT) =  -633.188693688    
 Copying the excited state density for this state as the 1-particle RhoCI density.
 
 Excited State   3:      Singlet-A      4.1959 eV  295.49 nm  f=0.0002  <S**2>=0.000
      50 -> 53         0.53234
      50 -> 54        -0.42122
      50 -> 58         0.12246
 
 Excited State   4:      Singlet-A      5.0208 eV  246.94 nm  f=0.4093  <S**2>=0.000
      49 -> 53         0.12372
      52 -> 54         0.68912
 
 Excited State   5:      Singlet-A      5.4167 eV  228.89 nm  f=0.2320  <S**2>=0.000
      49 -> 53         0.68624
      52 -> 54        -0.12517
 
 Excited State   6:      Singlet-A      6.0782 eV  203.98 nm  f=0.0004  <S**2>=0.000
      52 -> 55         0.66025
      52 -> 57         0.14846
      52 -> 61        -0.10947
      52 -> 62        -0.10008
 SavETr:  write IOETrn=   770 NScale= 10 NData=  16 NLR=1 NState=    6 LETran=     118.
 The selected state is a singlet.
 CISGrd: IGrad=1 NXY=2 DFT=T
 CISAX will form     1 AO SS matrices at one time.
 NMat=     1 NSing=     1 JSym2X= 0.
 Leave Link  914 at Fri Jan 23 18:13:31 2026, MaxMem=  2147483648 cpu:            7933.0 elap:             497.0
 (Enter /data/home/wyx/g16/l1002.exe)
 Minotr:  Closed shell wavefunction.
          Computing CIS/TDA/TD derivatives.
          Using Z-Vector for PSCF gradient.
          Skipping F1 and S1 gradient terms here.
 NEqPCM:  Using equilibrium solvation (IEInf=0, Eps=   7.4257, EpsInf=   1.9740)
          Frozen-core window.
          Direct CPHF calculation.
          Differentiating once with respect to electric field.
                with respect to dipole field.
          Electric field/nuclear overlap derivatives assumed to be zero.
          Requested convergence is 1.0D-10 RMS, and 1.0D-09 maximum.
          NewPWx=F KeepS1=T KeepF1=T KeepIn=T MapXYZ=F SortEE=F KeepMc=T.
 Two-electron integral symmetry used by symmetrizing perturbed Fock matrices.
          MDV=    2147483648 using IRadAn=       5.
          Solving linear equations separately, MaxMat=     384.
          There are     1 degrees of freedom in the 1st order CPHF.  IDoFFX=0 NUNeed=     1.
 FoFJK:  IHMeth= 1 ICntrl=       0 DoSepK=T KAlg= 0 I1Cent=           0 FoldK=F
 IRaf=         1 NMat=       1 IRICut=       1 DoRegI=T DoRafI=F ISym2E=-1 IDoP0=0 IntGTp=1.
 FoFCou: FMM=F IPFlag=           0 FMFlag=      100000 FMFlg1=           0
         NFxFlg=           0 DoJE=T BraDBF=F KetDBF=F FulRan=T
         wScrn=  0.000000 ICntrl=       500 IOpCl=  0 I1Cent=           0 NGrid=           0
         NMat0=    1 NMatS0=      1 NMatT0=    0 NMatD0=    1 NMtDS0=    0 NMtDT0=    0
 Petite list used in FoFCou.
 LinEq1:  Iter=  0 NonCon=     1 RMS=9.92D-03 Max=4.37D-01 NDo=     1
 AX will form     1 AO Fock derivatives at one time.
 LinEq1:  Iter=  1 NonCon=     1 RMS=2.47D-03 Max=9.21D-02 NDo=     1
 LinEq1:  Iter=  2 NonCon=     1 RMS=1.57D-03 Max=7.63D-02 NDo=     1
 LinEq1:  Iter=  3 NonCon=     1 RMS=6.91D-04 Max=3.99D-02 NDo=     1
 LinEq1:  Iter=  4 NonCon=     1 RMS=3.39D-04 Max=1.25D-02 NDo=     1
 LinEq1:  Iter=  5 NonCon=     1 RMS=1.78D-04 Max=7.68D-03 NDo=     1
 LinEq1:  Iter=  6 NonCon=     1 RMS=8.58D-05 Max=2.46D-03 NDo=     1
 LinEq1:  Iter=  7 NonCon=     1 RMS=5.10D-05 Max=2.50D-03 NDo=     1
 LinEq1:  Iter=  8 NonCon=     1 RMS=2.24D-05 Max=7.61D-04 NDo=     1
 LinEq1:  Iter=  9 NonCon=     1 RMS=1.69D-05 Max=7.00D-04 NDo=     1
 LinEq1:  Iter= 10 NonCon=     1 RMS=7.01D-06 Max=1.40D-04 NDo=     1
 LinEq1:  Iter= 11 NonCon=     1 RMS=4.29D-06 Max=1.55D-04 NDo=     1
 LinEq1:  Iter= 12 NonCon=     1 RMS=1.46D-06 Max=5.05D-05 NDo=     1
 LinEq1:  Iter= 13 NonCon=     1 RMS=7.24D-07 Max=3.07D-05 NDo=     1
 LinEq1:  Iter= 14 NonCon=     1 RMS=2.99D-07 Max=1.44D-05 NDo=     1
 LinEq1:  Iter= 15 NonCon=     1 RMS=1.50D-07 Max=5.92D-06 NDo=     1
 LinEq1:  Iter= 16 NonCon=     1 RMS=6.45D-08 Max=1.80D-06 NDo=     1
 LinEq1:  Iter= 17 NonCon=     1 RMS=1.93D-08 Max=4.40D-07 NDo=     1
 LinEq1:  Iter= 18 NonCon=     1 RMS=7.93D-09 Max=1.28D-07 NDo=     1
 LinEq1:  Iter= 19 NonCon=     1 RMS=2.19D-09 Max=4.71D-08 NDo=     1
 LinEq1:  Iter= 20 NonCon=     1 RMS=5.45D-10 Max=1.08D-08 NDo=     1
 LinEq1:  Iter= 21 NonCon=     1 RMS=2.36D-10 Max=5.96D-09 NDo=     1
 LinEq1:  Iter= 22 NonCon=     1 RMS=7.89D-11 Max=1.86D-09 NDo=     1
 LinEq1:  Iter= 23 NonCon=     0 RMS=2.13D-11 Max=4.17D-10 NDo=     1
 Linear equations converged to 1.000D-10 1.000D-09 after    23 iterations.
 PCM Corrected Linear-Response - Equilibrium solvation:
 Corrected transition energy               =    3.3843          eV
 Total energy after correction             = -633.191415189     a.u.
 NEqPCM:  Using non-equilibrium solvation (IEInf=1, Eps=   7.4257, EpsInf=   1.9740)
 Inv3:  Mode=1 IEnd=    13483200.
 Iteration    1 A*A^-1 deviation from unit magnitude is 3.00D-15 for   1247.
 Iteration    1 A*A^-1 deviation from orthogonality  is 2.52D-15 for   1817    202.
 Iteration    1 A^-1*A deviation from unit magnitude is 3.00D-15 for   1247.
 Iteration    1 A^-1*A deviation from orthogonality  is 1.48D-15 for   1731   1225.
 NEqSol: Computing the dynamic-inertial partition of the PCM polarization charges.
 End of Minotr F.D. properties file   721 does not exist.
 End of Minotr F.D. properties file   722 does not exist.
 End of Minotr F.D. properties file   788 does not exist.
 Leave Link 1002 at Fri Jan 23 18:15:31 2026, MaxMem=  2147483648 cpu:            1901.7 elap:             119.6
 (Enter /data/home/wyx/g16/l601.exe)
 Copying SCF densities to generalized density rwf, IOpCl= 0 IROHF=0.

 **********************************************************************

            Population analysis using the CI density.

 **********************************************************************

 Orbital symmetries:
       Occupied  (A) (A) (A) (A) (A) (A) (A) (A) (A) (A) (A) (A)
                 (A) (A) (A) (A) (A) (A) (A) (A) (A) (A) (A) (A)
                 (A) (A) (A) (A) (A) (A) (A) (A) (A) (A) (A) (A)
                 (A) (A) (A) (A) (A) (A) (A) (A) (A) (A) (A) (A)
                 (A) (A) (A) (A)
       Virtual   (A) (A) (A) (A) (A) (A) (A) (A) (A) (A) (A) (A)
                 (A) (A) (A) (A) (A) (A) (A) (A) (A) (A) (A) (A)
                 (A) (A) (A) (A) (A) (A) (A) (A) (A) (A) (A) (A)
                 (A) (A) (A) (A) (A) (A) (A) (A) (A) (A) (A) (A)
                 (A) (A) (A) (A) (A) (A) (A) (A) (A) (A) (A) (A)
                 (A) (A) (A) (A) (A) (A) (A) (A) (A) (A) (A) (A)
                 (A) (A) (A) (A) (A) (A) (A) (A) (A) (A) (A) (A)
                 (A) (A) (A) (A) (A) (A) (A) (A) (A) (A) (A) (A)
                 (A) (A) (A) (A) (A) (A) (A) (A) (A) (A) (A) (A)
                 (A) (A) (A) (A) (A) (A) (A) (A) (A) (A) (A) (A)
                 (A) (A) (A) (A) (A) (A) (A) (A) (A) (A) (A) (A)
                 (A) (A) (A) (A) (A) (A) (A) (A) (A) (A) (A) (A)
                 (A) (A) (A) (A) (A) (A) (A) (A) (A) (A) (A) (A)
                 (A) (A) (A) (A) (A) (A) (A) (A) (A) (A) (A) (A)
                 (A) (A) (A) (A) (A) (A) (A) (A) (A) (A) (A) (A)
                 (A) (A) (A) (A) (A) (A) (A) (A) (A) (A) (A) (A)
                 (A) (A) (A) (A) (A) (A) (A) (A) (A) (A) (A) (A)
                 (A) (A) (A) (A) (A) (A) (A) (A) (A) (A) (A) (A)
                 (A) (A) (A) (A) (A) (A) (A) (A) (A) (A) (A) (A)
                 (A) (A) (A) (A) (A) (A) (A) (A) (A) (A) (A) (A)
                 (A) (A) (A) (A) (A) (A) (A) (A) (A) (A) (A) (A)
                 (A) (A) (A) (A) (A) (A) (A) (A) (A) (A) (A) (A)
                 (A) (A) (A) (A) (A) (A) (A) (A) (A) (A) (A) (A)
                 (A) (A) (A) (A) (A) (A) (A) (A) (A) (A) (A) (A)
                 (A) (A) (A) (A) (A) (A) (A) (A) (A) (A) (A) (A)
                 (A) (A) (A) (A)
 The electronic state is 1-A.
 Alpha  occ. eigenvalues --  -19.17692 -19.16407 -14.44580 -10.33219 -10.33173
 Alpha  occ. eigenvalues --  -10.32487 -10.32465 -10.26097 -10.25213 -10.25148
 Alpha  occ. eigenvalues --  -10.25020 -10.24349 -10.24065 -10.23767  -1.11711
 Alpha  occ. eigenvalues --   -1.08789  -1.07831  -0.91666  -0.90710  -0.83932
 Alpha  occ. eigenvalues --   -0.82573  -0.81545  -0.78820  -0.74458  -0.71767
 Alpha  occ. eigenvalues --   -0.69225  -0.62205  -0.58588  -0.57007  -0.55251
 Alpha  occ. eigenvalues --   -0.54870  -0.54162  -0.52437  -0.51898  -0.50681
 Alpha  occ. eigenvalues --   -0.49515  -0.49296  -0.49004  -0.48521  -0.48193
 Alpha  occ. eigenvalues --   -0.46655  -0.45297  -0.44602  -0.43881  -0.42945
 Alpha  occ. eigenvalues --   -0.42422  -0.41555  -0.40591  -0.33069  -0.32133
 Alpha  occ. eigenvalues --   -0.30564  -0.26257
 Alpha virt. eigenvalues --   -0.03483   0.02000   0.06294   0.08246   0.08480
 Alpha virt. eigenvalues --    0.09912   0.10802   0.11474   0.12701   0.13053
 Alpha virt. eigenvalues --    0.14448   0.15159   0.15557   0.16435   0.17083
 Alpha virt. eigenvalues --    0.17450   0.17545   0.17706   0.18820   0.19427
 Alpha virt. eigenvalues --    0.20015   0.20632   0.22714   0.23279   0.24263
 Alpha virt. eigenvalues --    0.24604   0.25107   0.25538   0.26241   0.26729
 Alpha virt. eigenvalues --    0.27067   0.27429   0.28839   0.29228   0.29876
 Alpha virt. eigenvalues --    0.30835   0.31083   0.33608   0.34427   0.34726
 Alpha virt. eigenvalues --    0.35471   0.35795   0.36585   0.37169   0.37432
 Alpha virt. eigenvalues --    0.40130   0.40941   0.41450   0.42781   0.42910
 Alpha virt. eigenvalues --    0.44524   0.45336   0.45623   0.46350   0.46375
 Alpha virt. eigenvalues --    0.47427   0.47767   0.48059   0.48662   0.48782
 Alpha virt. eigenvalues --    0.50056   0.50962   0.51138   0.51299   0.51740
 Alpha virt. eigenvalues --    0.52107   0.52841   0.53140   0.53630   0.53812
 Alpha virt. eigenvalues --    0.55122   0.55744   0.56246   0.57193   0.57719
 Alpha virt. eigenvalues --    0.58059   0.59030   0.61853   0.62506   0.63089
 Alpha virt. eigenvalues --    0.63727   0.64819   0.65733   0.66900   0.67782
 Alpha virt. eigenvalues --    0.68866   0.70151   0.71045   0.71775   0.72120
 Alpha virt. eigenvalues --    0.73552   0.75847   0.77754   0.78550   0.79894
 Alpha virt. eigenvalues --    0.82110   0.82971   0.84994   0.88712   0.91685
 Alpha virt. eigenvalues --    0.93642   0.96509   0.99790   1.03822   1.19094
 Alpha virt. eigenvalues --    1.21521   1.22321   1.24977   1.29852   1.30776
 Alpha virt. eigenvalues --    1.32161   1.33738   1.33969   1.35442   1.36517
 Alpha virt. eigenvalues --    1.37596   1.37939   1.39233   1.39507   1.39953
 Alpha virt. eigenvalues --    1.40214   1.40763   1.40919   1.41425   1.42114
 Alpha virt. eigenvalues --    1.42578   1.43496   1.44522   1.45045   1.45747
 Alpha virt. eigenvalues --    1.48494   1.49701   1.50733   1.50798   1.51375
 Alpha virt. eigenvalues --    1.52079   1.53212   1.55685   1.57347   1.58076
 Alpha virt. eigenvalues --    1.58369   1.59690   1.60216   1.61197   1.61985
 Alpha virt. eigenvalues --    1.62458   1.62792   1.63768   1.64158   1.64592
 Alpha virt. eigenvalues --    1.65176   1.65653   1.65754   1.66723   1.67661
 Alpha virt. eigenvalues --    1.68743   1.69300   1.70429   1.71726   1.72142
 Alpha virt. eigenvalues --    1.72865   1.74988   1.75378   1.76094   1.80674
 Alpha virt. eigenvalues --    1.81585   1.82852   1.83549   1.83939   1.85894
 Alpha virt. eigenvalues --    1.86176   1.86422   1.89563   1.90353   1.90979
 Alpha virt. eigenvalues --    1.91672   1.93244   1.96928   1.98109   2.01614
 Alpha virt. eigenvalues --    2.02420   2.05050   2.06056   2.07943   2.09481
 Alpha virt. eigenvalues --    2.10543   2.13678   2.15101   2.18244   2.19972
 Alpha virt. eigenvalues --    2.20229   2.23502   2.24996   2.25727   2.25990
 Alpha virt. eigenvalues --    2.26973   2.29247   2.30416   2.31792   2.33168
 Alpha virt. eigenvalues --    2.35437   2.35733   2.36606   2.38043   2.40091
 Alpha virt. eigenvalues --    2.40288   2.42100   2.43550   2.44576   2.46693
 Alpha virt. eigenvalues --    2.47155   2.47846   2.49286   2.50411   2.50777
 Alpha virt. eigenvalues --    2.52986   2.53801   2.55250   2.55906   2.56541
 Alpha virt. eigenvalues --    2.56852   2.59177   2.61385   2.62848   2.63843
 Alpha virt. eigenvalues --    2.64046   2.64873   2.65859   2.66551   2.67831
 Alpha virt. eigenvalues --    2.69346   2.71195   2.73400   2.74314   2.75341
 Alpha virt. eigenvalues --    2.76169   2.76861   2.77641   2.78288   2.79684
 Alpha virt. eigenvalues --    2.80794   2.81950   2.83553   2.84424   2.85166
 Alpha virt. eigenvalues --    2.85986   2.88692   2.89771   2.89999   2.93781
 Alpha virt. eigenvalues --    2.97054   2.99000   2.99237   3.04514   3.08782
 Alpha virt. eigenvalues --    3.10714   3.12128   3.14364   3.20004   3.21090
 Alpha virt. eigenvalues --    3.21696   3.22559   3.25322   3.25857   3.26338
 Alpha virt. eigenvalues --    3.31001   3.31625   3.34071   3.36423   3.38487
 Alpha virt. eigenvalues --    3.38888   3.39717   3.40394   3.40777   3.41365
 Alpha virt. eigenvalues --    3.41647   3.44216   3.45561   3.47351   3.49851
 Alpha virt. eigenvalues --    3.50883   3.54596   3.56511   3.59103   3.60838
 Alpha virt. eigenvalues --    3.64662   3.92895   4.00969   4.30477   4.37056
 Alpha virt. eigenvalues --   21.65038  21.77071  22.05950  22.10257  22.12666
 Alpha virt. eigenvalues --   22.13537  22.17199  22.20317  22.21496  22.28072
 Alpha virt. eigenvalues --   22.32035  31.92847  43.64946  43.67441
          Condensed to atoms (all electrons):
               1          2          3          4          5          6
     1  O    7.943571   0.000000  -0.000195   0.000018   0.017892   0.016143
     2  O    0.000000   8.039699   0.000678   0.000025  -0.065991   0.000468
     3  N   -0.000195   0.000678   6.349481   0.369661  -0.076403   0.435962
     4  H    0.000018   0.000025   0.369661   0.412095   0.012607  -0.040682
     5  C    0.017892  -0.065991  -0.076403   0.012607   5.942591  -0.046536
     6  C    0.016143   0.000468   0.435962  -0.040682  -0.046536   5.484530
     7  C    0.000172   0.013429   0.285461  -0.047261   0.321021  -0.132343
     8  C   -0.000314   0.243642   0.012080  -0.001585   0.408222   0.022006
     9  C    0.004890   0.015351   0.024524   0.001320  -0.443969  -0.132693
    10  H    0.008486  -0.000254   0.000197  -0.000002  -0.096612   0.005544
    11  H    0.007175  -0.000231   0.001099   0.000025  -0.072885   0.014362
    12  C   -0.266741  -0.001718  -0.124442   0.020861   0.168035  -0.043843
    13  C    0.758877   0.000036  -0.002671   0.000591   0.065320   0.084841
    14  C   -0.000013  -0.011922  -0.048142   0.000789  -0.027166  -0.001284
    15  H    0.000000  -0.000558   0.003792   0.000084   0.010401   0.001121
    16  H    0.000000   0.015588   0.003800   0.000769   0.039690  -0.001019
    17  H    0.000000  -0.001544   0.001675   0.000158  -0.021534   0.001012
    18  C   -0.000323  -0.054480  -0.000214   0.000014   0.012436  -0.002810
    19  H    0.000000   0.005614   0.000003  -0.000001  -0.003142   0.000039
    20  H    0.000926   0.003231   0.000003   0.000000   0.006055  -0.000554
    21  H    0.000003   0.004669  -0.000022  -0.000000  -0.012478   0.000115
    22  C   -0.132896   0.000000  -0.000130   0.000128   0.000357  -0.006301
    23  H    0.003479  -0.000000   0.000184  -0.000038  -0.000262  -0.007348
    24  H    0.003346   0.000000   0.000181  -0.000023  -0.000179  -0.000675
    25  H    0.012143  -0.000000   0.000015  -0.000003  -0.000041  -0.002413
    26  C    0.000809   0.000007  -0.025644  -0.012994   0.001061   0.246338
    27  H   -0.000081  -0.000000  -0.002468   0.000846   0.000624  -0.039327
    28  H   -0.000052   0.000000  -0.003736   0.000658   0.000186  -0.051851
    29  H    0.000015  -0.000000   0.004657   0.002932  -0.000602  -0.052189
               7          8          9         10         11         12
     1  O    0.000172  -0.000314   0.004890   0.008486   0.007175  -0.266741
     2  O    0.013429   0.243642   0.015351  -0.000254  -0.000231  -0.001718
     3  N    0.285461   0.012080   0.024524   0.000197   0.001099  -0.124442
     4  H   -0.047261  -0.001585   0.001320  -0.000002   0.000025   0.020861
     5  C    0.321021   0.408222  -0.443969  -0.096612  -0.072885   0.168035
     6  C   -0.132343   0.022006  -0.132693   0.005544   0.014362  -0.043843
     7  C    5.534319  -0.142916  -0.090694   0.007394  -0.000865  -0.025139
     8  C   -0.142916   5.365479  -0.034508  -0.002770  -0.000743  -0.018354
     9  C   -0.090694  -0.034508   6.204459   0.510802   0.454106  -0.041515
    10  H    0.007394  -0.002770   0.510802   0.534482  -0.044635  -0.072829
    11  H   -0.000865  -0.000743   0.454106  -0.044635   0.548431  -0.044726
    12  C   -0.025139  -0.018354  -0.041515  -0.072829  -0.044726   7.482941
    13  C    0.022522  -0.005286  -0.180131  -0.005131  -0.005856  -0.511040
    14  C    0.202195  -0.071207   0.023368  -0.000069  -0.000403   0.004719
    15  H   -0.067153   0.003703  -0.002168  -0.000041   0.000138  -0.000163
    16  H   -0.066053  -0.049160   0.002499  -0.000011  -0.000042   0.000126
    17  H   -0.037663   0.007960  -0.000763   0.000145  -0.000060  -0.000316
    18  C    0.010182   0.223940  -0.031369  -0.002719  -0.012519   0.012019
    19  H    0.002579  -0.048662  -0.001384   0.000795  -0.000575  -0.000837
    20  H    0.004281  -0.064395   0.000604  -0.005961   0.000019   0.001618
    21  H   -0.002728  -0.049416   0.001187  -0.000881   0.001127   0.000213
    22  C    0.001054   0.000004   0.023082   0.001253   0.000734  -0.361445
    23  H   -0.000052   0.000001  -0.001036  -0.000157   0.000109   0.032333
    24  H   -0.000029   0.000001  -0.000968   0.000133  -0.000151   0.021160
    25  H    0.000011  -0.000001  -0.000030  -0.000105  -0.000027   0.029295
    26  C    0.008248   0.000531   0.014152  -0.000008  -0.000247  -0.104166
    27  H   -0.000831  -0.000024  -0.000890  -0.000025   0.000030  -0.002982
    28  H   -0.001107  -0.000000   0.000454   0.000017  -0.000014  -0.002769
    29  H    0.004055   0.000006  -0.000732   0.000019  -0.000001   0.020621
              13         14         15         16         17         18
     1  O    0.758877  -0.000013   0.000000   0.000000   0.000000  -0.000323
     2  O    0.000036  -0.011922  -0.000558   0.015588  -0.001544  -0.054480
     3  N   -0.002671  -0.048142   0.003792   0.003800   0.001675  -0.000214
     4  H    0.000591   0.000789   0.000084   0.000769   0.000158   0.000014
     5  C    0.065320  -0.027166   0.010401   0.039690  -0.021534   0.012436
     6  C    0.084841  -0.001284   0.001121  -0.001019   0.001012  -0.002810
     7  C    0.022522   0.202195  -0.067153  -0.066053  -0.037663   0.010182
     8  C   -0.005286  -0.071207   0.003703  -0.049160   0.007960   0.223940
     9  C   -0.180131   0.023368  -0.002168   0.002499  -0.000763  -0.031369
    10  H   -0.005131  -0.000069  -0.000041  -0.000011   0.000145  -0.002719
    11  H   -0.005856  -0.000403   0.000138  -0.000042  -0.000060  -0.012519
    12  C   -0.511040   0.004719  -0.000163   0.000126  -0.000316   0.012019
    13  C    5.499731  -0.000047  -0.000003   0.000026  -0.000019   0.000758
    14  C   -0.000047   5.197050   0.414524   0.432911   0.393362  -0.000010
    15  H   -0.000003   0.414524   0.570220  -0.029688  -0.046648   0.000022
    16  H    0.000026   0.432911  -0.029688   0.485099  -0.012443  -0.000852
    17  H   -0.000019   0.393362  -0.046648  -0.012443   0.555971   0.000066
    18  C    0.000758  -0.000010   0.000022  -0.000852   0.000066   5.069506
    19  H   -0.000003  -0.000714  -0.000035   0.000496   0.000056   0.389414
    20  H    0.001534   0.000015  -0.000001   0.000014   0.000004   0.421386
    21  H   -0.000060   0.000386   0.000025  -0.000284  -0.000099   0.404619
    22  C    0.347739   0.000018   0.000001   0.000000  -0.000001   0.000008
    23  H   -0.057502   0.000000   0.000000  -0.000000  -0.000000  -0.000001
    24  H   -0.050586   0.000001  -0.000000   0.000000   0.000000   0.000001
    25  H   -0.051326   0.000000   0.000000  -0.000000  -0.000000   0.000000
    26  C   -0.043018  -0.000937   0.000065   0.000011  -0.000147  -0.000019
    27  H   -0.001680  -0.000075   0.000037  -0.000002  -0.000037  -0.000001
    28  H    0.001777   0.000028  -0.000059   0.000002   0.000025   0.000001
    29  H   -0.000138   0.000556  -0.000034  -0.000002   0.000019   0.000000
              19         20         21         22         23         24
     1  O    0.000000   0.000926   0.000003  -0.132896   0.003479   0.003346
     2  O    0.005614   0.003231   0.004669   0.000000  -0.000000   0.000000
     3  N    0.000003   0.000003  -0.000022  -0.000130   0.000184   0.000181
     4  H   -0.000001   0.000000  -0.000000   0.000128  -0.000038  -0.000023
     5  C   -0.003142   0.006055  -0.012478   0.000357  -0.000262  -0.000179
     6  C    0.000039  -0.000554   0.000115  -0.006301  -0.007348  -0.000675
     7  C    0.002579   0.004281  -0.002728   0.001054  -0.000052  -0.000029
     8  C   -0.048662  -0.064395  -0.049416   0.000004   0.000001   0.000001
     9  C   -0.001384   0.000604   0.001187   0.023082  -0.001036  -0.000968
    10  H    0.000795  -0.005961  -0.000881   0.001253  -0.000157   0.000133
    11  H   -0.000575   0.000019   0.001127   0.000734   0.000109  -0.000151
    12  C   -0.000837   0.001618   0.000213  -0.361445   0.032333   0.021160
    13  C   -0.000003   0.001534  -0.000060   0.347739  -0.057502  -0.050586
    14  C   -0.000714   0.000015   0.000386   0.000018   0.000000   0.000001
    15  H   -0.000035  -0.000001   0.000025   0.000001   0.000000  -0.000000
    16  H    0.000496   0.000014  -0.000284   0.000000  -0.000000   0.000000
    17  H    0.000056   0.000004  -0.000099  -0.000001  -0.000000   0.000000
    18  C    0.389414   0.421386   0.404619   0.000008  -0.000001   0.000001
    19  H    0.581145  -0.022708  -0.057855  -0.000000  -0.000000   0.000000
    20  H   -0.022708   0.491602  -0.022863   0.000063  -0.000001  -0.000001
    21  H   -0.057855  -0.022863   0.572796  -0.000000   0.000000  -0.000000
    22  C   -0.000000   0.000063  -0.000000   5.479882   0.381065   0.394994
    23  H   -0.000000  -0.000001   0.000000   0.381065   0.551873  -0.034251
    24  H    0.000000  -0.000001  -0.000000   0.394994  -0.034251   0.530389
    25  H   -0.000000  -0.000001   0.000000   0.380085  -0.015849  -0.010990
    26  C    0.000000  -0.000012   0.000000  -0.046717   0.009340  -0.007305
    27  H   -0.000000   0.000000   0.000000   0.001712  -0.002966  -0.001460
    28  H    0.000000   0.000000  -0.000000  -0.008695  -0.002520   0.000759
    29  H    0.000000  -0.000000  -0.000000   0.002163   0.000414   0.000185
              25         26         27         28         29
     1  O    0.012143   0.000809  -0.000081  -0.000052   0.000015
     2  O   -0.000000   0.000007  -0.000000   0.000000  -0.000000
     3  N    0.000015  -0.025644  -0.002468  -0.003736   0.004657
     4  H   -0.000003  -0.012994   0.000846   0.000658   0.002932
     5  C   -0.000041   0.001061   0.000624   0.000186  -0.000602
     6  C   -0.002413   0.246338  -0.039327  -0.051851  -0.052189
     7  C    0.000011   0.008248  -0.000831  -0.001107   0.004055
     8  C   -0.000001   0.000531  -0.000024  -0.000000   0.000006
     9  C   -0.000030   0.014152  -0.000890   0.000454  -0.000732
    10  H   -0.000105  -0.000008  -0.000025   0.000017   0.000019
    11  H   -0.000027  -0.000247   0.000030  -0.000014  -0.000001
    12  C    0.029295  -0.104166  -0.002982  -0.002769   0.020621
    13  C   -0.051326  -0.043018  -0.001680   0.001777  -0.000138
    14  C    0.000000  -0.000937  -0.000075   0.000028   0.000556
    15  H    0.000000   0.000065   0.000037  -0.000059  -0.000034
    16  H   -0.000000   0.000011  -0.000002   0.000002  -0.000002
    17  H   -0.000000  -0.000147  -0.000037   0.000025   0.000019
    18  C    0.000000  -0.000019  -0.000001   0.000001   0.000000
    19  H   -0.000000   0.000000  -0.000000   0.000000   0.000000
    20  H   -0.000001  -0.000012   0.000000   0.000000  -0.000000
    21  H    0.000000   0.000000   0.000000  -0.000000  -0.000000
    22  C    0.380085  -0.046717   0.001712  -0.008695   0.002163
    23  H   -0.015849   0.009340  -0.002966  -0.002520   0.000414
    24  H   -0.010990  -0.007305  -0.001460   0.000759   0.000185
    25  H    0.500997   0.002323   0.000305   0.000029  -0.000033
    26  C    0.002323   5.195783   0.419574   0.436201   0.386277
    27  H    0.000305   0.419574   0.522656  -0.037835  -0.021129
    28  H    0.000029   0.436201  -0.037835   0.508982  -0.017414
    29  H   -0.000033   0.386277  -0.021129  -0.017414   0.525524
 Mulliken charges:
               1
     1  O   -0.377329
     2  O   -0.205740
     3  N   -0.209387
     4  H    0.279007
     5  C   -0.138699
     6  C    0.249386
     7  C    0.197913
     8  C    0.201764
     9  C   -0.317946
    10  H    0.162946
    11  H    0.156622
    12  C   -0.170916
    13  C    0.130746
    14  C   -0.507935
    15  H    0.142420
    16  H    0.178523
    17  H    0.160820
    18  C   -0.439055
    19  H    0.155775
    20  H    0.185143
    21  H    0.161547
    22  C   -0.458157
    23  H    0.143186
    24  H    0.155466
    25  H    0.155616
    26  C   -0.479505
    27  H    0.166028
    28  H    0.176932
    29  H    0.144830
 Sum of Mulliken charges =  -0.00000
 Mulliken charges with hydrogens summed into heavy atoms:
               1
     1  O   -0.377329
     2  O   -0.205740
     3  N    0.069620
     5  C   -0.138699
     6  C    0.249386
     7  C    0.197913
     8  C    0.201764
     9  C    0.001622
    12  C   -0.170916
    13  C    0.130746
    14  C   -0.026173
    18  C    0.063410
    22  C   -0.003889
    26  C    0.008285
 Electronic spatial extent (au):  <R**2>=           3222.0189
 Charge=             -0.0000 electrons
 Dipole moment (field-independent basis, Debye):
    X=              0.5425    Y=              6.4072    Z=             -0.0701  Tot=              6.4305
 Quadrupole moment (field-independent basis, Debye-Ang):
   XX=            -87.9599   YY=            -79.6389   ZZ=            -85.8480
   XY=             15.3967   XZ=              0.3231   YZ=              0.1448
 Traceless Quadrupole moment (field-independent basis, Debye-Ang):
   XX=             -3.4776   YY=              4.8434   ZZ=             -1.3658
   XY=             15.3967   XZ=              0.3231   YZ=              0.1448
 Octapole moment (field-independent basis, Debye-Ang**2):
  XXX=             48.6437  YYY=             56.5946  ZZZ=              1.0238  XYY=            -42.4447
  XXY=             20.6865  XXZ=             -1.5471  XZZ=              1.4008  YZZ=             -1.7051
  YYZ=             -0.9936  XYZ=             -0.0979
 Hexadecapole moment (field-independent basis, Debye-Ang**3):
 XXXX=          -2949.5679 YYYY=          -1288.9796 ZZZZ=           -126.3439 XXXY=             77.3893
 XXXZ=              9.8147 YYYX=            105.6346 YYYZ=             -0.5672 ZZZX=             -2.0393
 ZZZY=             -0.0334 XXYY=           -691.6328 XXZZ=           -489.0632 YYZZ=           -240.1256
 XXYZ=              2.1279 YYXZ=              0.1350 ZZXY=              3.2971
 N-N= 8.991178300587D+02 E-N=-3.274351689163D+03  KE= 6.307378452058D+02
 No NMR shielding tensors so no spin-rotation constants.
 Leave Link  601 at Fri Jan 23 18:15:32 2026, MaxMem=  2147483648 cpu:               1.8 elap:               0.1
 (Enter /data/home/wyx/g16/l9999.exe)
 Electronic transition elements 
                 1             2             3             4             5 
      1  -0.633198D+03 -0.633189D+03 -0.633162D+03 -0.633131D+03 -0.633117D+03
      2   0.160964D+01  0.202408D+00 -0.902220D-02 -0.618073D+00 -0.139678D+00
      3   0.541261D+00  0.356789D-01 -0.934834D-02  0.171253D+01  0.131459D+01
      4   0.227645D+00 -0.125914D-01  0.364570D-01 -0.110684D+00 -0.187339D-01
      5  -0.183911D+00 -0.255508D-01  0.500160D-03  0.102223D+00  0.301442D-01
      6  -0.629008D-01 -0.461376D-02  0.140129D-02 -0.300631D+00 -0.257377D+00
      7  -0.261393D-01  0.152851D-03 -0.233342D-02  0.180124D-01  0.402718D-02
      8  -0.145928D+00 -0.807735D+00 -0.333841D+00  0.435317D-01 -0.104023D-01
      9   0.370485D-02  0.117359D-02  0.877321D+00 -0.404890D-02 -0.770867D-02
     10   0.142330D+01  0.121829D+00 -0.421835D-01 -0.483018D+00 -0.280119D+00
     11  -0.253943D-02  0.124446D-01  0.132074D-01  0.140029D+01  0.479709D+00
     12   0.239035D+00  0.461612D-01  0.362293D-02 -0.288496D+00 -0.285773D+00
     13  -0.144196D-01 -0.790055D-02 -0.241805D-01 -0.970144D-02 -0.155686D-01
     14   0.547486D+00  0.697409D-01 -0.356100D-02  0.380788D+00  0.379529D+00
     15  -0.462591D-02 -0.234849D-01 -0.750304D-01  0.203444D+00  0.900264D-01
     16   0.749982D-01 -0.313960D-01 -0.255082D-01  0.507056D-01  0.321264D-01
                 6 
      1  -0.633092D+03
      2  -0.302742D-01
      3   0.411085D-01
      4   0.168162D-01
      5   0.838310D-02
      6  -0.852937D-02
      7  -0.233406D-01
      8  -0.352200D-01
      9  -0.177121D-01
     10  -0.233241D-01
     11  -0.470507D-02
     12  -0.155468D-01
     13   0.740363D-02
     14  -0.211863D-01
     15  -0.325426D-02
     16   0.387809D-01
 1\1\GINC-CN013\SP\RCAM-B3LYP TD-FC\TZVP\C11H15N1O2\WYX\23-Jan-2026\0\\
 #p CAM-B3LYP TZVP em=gd3bj td(nstates=6,root=2) scrf=(Solvent=TetraHyd
 roFuran,CorrectedLR,NonEquilibrium=Save) Geom=Check Guess=Read\\Title 
 Card Required\\0,1\O,0,2.798035,-1.572028,0.417829\O,0,-3.437111,-1.65
 3321,-0.43864\N,0,-0.654499,1.524434,-0.120601\H,0,-0.973501,2.477794,
 -0.161363\C,0,-1.241474,-0.768716,-0.183694\C,0,0.674573,1.312704,0.08
 7494\C,0,-1.618978,0.538403,-0.244897\C,0,-2.17453,-1.826255,-0.297965
 \C,0,0.209314,-1.133434,0.005091\H,0,0.317558,-1.77306,0.884487\H,0,0.
 554957,-1.732344,-0.841891\C,0,1.144524,0.0414,0.15485\C,0,2.52047,-0.
 373637,0.370227\C,0,-2.991841,1.075036,-0.42639\H,0,-3.006357,1.873184
 ,-1.173932\H,0,-3.703838,0.322532,-0.760528\H,0,-3.386173,1.481203,0.5
 09033\C,0,-1.810302,-3.280677,-0.270984\H,0,-2.239637,-3.858895,-1.091
 914\H,0,-0.735758,-3.443892,-0.310817\H,0,-2.154384,-3.749835,0.655524
 \C,0,3.656826,0.601779,0.538556\H,0,3.760292,1.279296,-0.306625\H,0,3.
 554519,1.206571,1.438632\H,0,4.563556,0.007354,0.621762\C,0,1.44429,2.
 58998,0.212239\H,0,1.975773,2.662621,1.15755\H,0,2.168686,2.715323,-0.
 590069\H,0,0.785009,3.45648,0.167035\\Version=ES64L-G16RevA.03\State=1
 -A\HF=-633.3157855\RMSD=1.887e-09\Dipole=-0.6678436,2.4368225,-0.12867
 74\Quadrupole=-9.1994625,10.3335728,-1.1341103,6.5492399,-0.9976435,1.
 0993981\PG=C01 [X(C11H15N1O2)]\\@


 NOT WHAT WE DID SHALL BE THE TEST
 WHEN ACT AND WILL ARE DONE,
 BUT WHAT OUR LORD INFERS WE WOULD-
 HAD WE DIVINER BEEN.
           EMILY DICKINSON  POEMS NO. CLXXV
 Job cpu time:       0 days  2 hours 45 minutes 31.9 seconds.
 Elapsed time:       0 days  0 hours 10 minutes 23.1 seconds.
 File lengths (MBytes):  RWF=    736 Int=      0 D2E=      0 Chk=     67 Scr=      1
 Normal termination of Gaussian 16 at Fri Jan 23 18:15:34 2026.
