 Entering Gaussian System, Link 0=g16
 Input=DDL-S2-cLR-gs-5.gjf
 Output=DDL-S2-cLR-gs-5.log
 Initial command:
 /data/home/wyx/g16/l1.exe "/scr/tmp/wyx/13109/Gau-1702439.inp" -scrdir="/scr/tmp/wyx/13109/"
 Entering Link 1 = /data/home/wyx/g16/l1.exe PID=   1702440.
  
 Copyright (c) 1988,1990,1992,1993,1995,1998,2003,2009,2016,
            Gaussian, Inc.  All Rights Reserved.
  
 This is part of the Gaussian(R) 16 program.  It is based on
 the Gaussian(R) 09 system (copyright 2009, Gaussian, Inc.),
 the Gaussian(R) 03 system (copyright 2003, Gaussian, Inc.),
 the Gaussian(R) 98 system (copyright 1998, Gaussian, Inc.),
 the Gaussian(R) 94 system (copyright 1995, Gaussian, Inc.),
 the Gaussian 92(TM) system (copyright 1992, Gaussian, Inc.),
 the Gaussian 90(TM) system (copyright 1990, Gaussian, Inc.),
 the Gaussian 88(TM) system (copyright 1988, Gaussian, Inc.),
 the Gaussian 86(TM) system (copyright 1986, Carnegie Mellon
 University), and the Gaussian 82(TM) system (copyright 1983,
 Carnegie Mellon University). Gaussian is a federally registered
 trademark of Gaussian, Inc.
  
 This software contains proprietary and confidential information,
 including trade secrets, belonging to Gaussian, Inc.
  
 This software is provided under written license and may be
 used, copied, transmitted, or stored only in accord with that
 written license.
  
 The following legend is applicable only to US Government
 contracts under FAR:
  
                    RESTRICTED RIGHTS LEGEND
  
 Use, reproduction and disclosure by the US Government is
 subject to restrictions as set forth in subparagraphs (a)
 and (c) of the Commercial Computer Software - Restricted
 Rights clause in FAR 52.227-19.
  
 Gaussian, Inc.
 340 Quinnipiac St., Bldg. 40, Wallingford CT 06492
  
  
 ---------------------------------------------------------------
 Warning -- This program may not be used in any manner that
 competes with the business of Gaussian, Inc. or will provide
 assistance to any competitor of Gaussian, Inc.  The licensee
 of this program is prohibited from giving any competitor of
 Gaussian, Inc. access to this program.  By using this program,
 the user acknowledges that Gaussian, Inc. is engaged in the
 business of creating and licensing software in the field of
 computational chemistry and represents and warrants to the
 licensee that it is not a competitor of Gaussian, Inc. and that
 it will not use this program in any manner prohibited above.
 ---------------------------------------------------------------
  

 Cite this work as:
 Gaussian 16, Revision A.03,
 M. J. Frisch, G. W. Trucks, H. B. Schlegel, G. E. Scuseria, 
 M. A. Robb, J. R. Cheeseman, G. Scalmani, V. Barone, 
 G. A. Petersson, H. Nakatsuji, X. Li, M. Caricato, A. V. Marenich, 
 J. Bloino, B. G. Janesko, R. Gomperts, B. Mennucci, H. P. Hratchian, 
 J. V. Ortiz, A. F. Izmaylov, J. L. Sonnenberg, D. Williams-Young, 
 F. Ding, F. Lipparini, F. Egidi, J. Goings, B. Peng, A. Petrone, 
 T. Henderson, D. Ranasinghe, V. G. Zakrzewski, J. Gao, N. Rega, 
 G. Zheng, W. Liang, M. Hada, M. Ehara, K. Toyota, R. Fukuda, 
 J. Hasegawa, M. Ishida, T. Nakajima, Y. Honda, O. Kitao, H. Nakai, 
 T. Vreven, K. Throssell, J. A. Montgomery, Jr., J. E. Peralta, 
 F. Ogliaro, M. J. Bearpark, J. J. Heyd, E. N. Brothers, K. N. Kudin, 
 V. N. Staroverov, T. A. Keith, R. Kobayashi, J. Normand, 
 K. Raghavachari, A. P. Rendell, J. C. Burant, S. S. Iyengar, 
 J. Tomasi, M. Cossi, J. M. Millam, M. Klene, C. Adamo, R. Cammi, 
 J. W. Ochterski, R. L. Martin, K. Morokuma, O. Farkas, 
 J. B. Foresman, and D. J. Fox, Gaussian, Inc., Wallingford CT, 2016.
 
 ******************************************
 Gaussian 16:  ES64L-G16RevA.03 25-Dec-2016
                23-Jan-2026 
 ******************************************
 %nprocshared=16
 Will use up to   16 processors via shared memory.
 %mem=16GB
 %oldchk=DDL-S2-cLR-5.chk
 %chk=DDL-S2-cLR-gs-5.chk
 Copying data from "DDL-S2-cLR-5.chk" to current chk file "DDL-S2-cLR-gs-5.chk"
 IOpt=  2 FromEx=T IUOpen= 4 IOptOp= 5 NList=   0 IFRang= 0 IUIn= 4 IUOut= 2.
 ----------------------------------------------------------------------
 #p CAM-B3LYP TZVP em=gd3bj scrf=(Solvent=TetraHydroFuran,NonEquilibriu
 m=Read) Geom=Check Guess=Read
 ----------------------------------------------------------------------
 1/29=2,38=1,172=1/1;
 2/12=2,40=1/2;
 3/5=19,7=101,11=2,14=-4,25=1,30=1,70=6002201,72=20,74=-40,116=-2,124=41/1,2,3;
 4/5=1/1;
 5/5=2,38=6,53=20/2;
 6/7=2,8=2,9=2,10=2,28=1/1;
 99/5=1,9=1/99;
 Leave Link    1 at Fri Jan 23 22:45:22 2026, MaxMem=  2147483648 cpu:               0.8 elap:               0.2
 (Enter /data/home/wyx/g16/l101.exe)
 -------------------
 Title Card Required
 -------------------
 Structure from the checkpoint file:  "DDL-S2-cLR-gs-5.chk"
 Charge =  0 Multiplicity = 1
 Z-Matrix found in chk file.
 O,0,2.799722,-1.574442,0.395856
 O,0,-3.441582,-1.651989,-0.391661
 N,0,-0.652119,1.523979,-0.143079
 H,0,-0.970539,2.477498,-0.184051
 C,0,-1.24191,-0.766569,-0.187194
 C,0,0.676781,1.31157,0.070334
 C,0,-1.6183,0.539073,-0.249454
 C,0,-2.181227,-1.824987,-0.281082
 C,0,0.211423,-1.131848,-0.027056
 H,0,0.332502,-1.791295,0.835328
 H,0,0.547755,-1.708041,-0.893832
 C,0,1.145011,0.041026,0.140207
 C,0,2.518837,-0.376509,0.366234
 C,0,-2.993259,1.075469,-0.414582
 H,0,-3.00925,1.901245,-1.131229
 H,0,-3.702998,0.335582,-0.779312
 H,0,-3.39156,1.443602,0.534452
 C,0,-1.806712,-3.276347,-0.266132
 H,0,-2.294009,-3.873685,-1.039386
 H,0,-0.738483,-3.442173,-0.389909
 H,0,-2.069779,-3.734584,0.692168
 C,0,3.64863,0.598225,0.572334
 H,0,3.787557,1.266983,-0.274996
 H,0,3.51572,1.212453,1.461607
 H,0,4.549299,0.001066,0.693741
 C,0,1.445142,2.58858,0.197565
 H,0,1.936685,2.681649,1.162984
 H,0,2.202532,2.696637,-0.575741
 H,0,0.794131,3.457829,0.105885
 Recover connectivity data from disk.
 ITRead=  0  0  0  0  0  0  0  0  0  0  0  0  0  0  0  0  0  0  0  0
 ITRead=  0  0  0  0  0  0  0  0  0
 MicOpt= -1 -1 -1 -1 -1 -1 -1 -1 -1 -1 -1 -1 -1 -1 -1 -1 -1 -1 -1 -1
 MicOpt= -1 -1 -1 -1 -1 -1 -1 -1 -1
 NAtoms=     29 NQM=       29 NQMF=       0 NMMI=      0 NMMIF=      0
                NMic=       0 NMicF=      0.
                    Isotopes and Nuclear Properties:
 (Nuclear quadrupole moments (NQMom) in fm**2, nuclear magnetic moments (NMagM)
  in nuclear magnetons)

  Atom         1           2           3           4           5           6           7           8           9          10
 IAtWgt=          16          16          14           1          12          12          12          12          12           1
 AtmWgt=  15.9949146  15.9949146  14.0030740   1.0078250  12.0000000  12.0000000  12.0000000  12.0000000  12.0000000   1.0078250
 NucSpn=           0           0           2           1           0           0           0           0           0           1
 AtZEff=   5.6000000   5.6000000   4.5500000   1.0000000   3.6000000   3.6000000   3.6000000   3.6000000   3.6000000   1.0000000
 NQMom=    0.0000000   0.0000000   2.0440000   0.0000000   0.0000000   0.0000000   0.0000000   0.0000000   0.0000000   0.0000000
 NMagM=    0.0000000   0.0000000   0.4037610   2.7928460   0.0000000   0.0000000   0.0000000   0.0000000   0.0000000   2.7928460
 AtZNuc=   8.0000000   8.0000000   7.0000000   1.0000000   6.0000000   6.0000000   6.0000000   6.0000000   6.0000000   1.0000000

  Atom        11          12          13          14          15          16          17          18          19          20
 IAtWgt=           1          12          12          12           1           1           1          12           1           1
 AtmWgt=   1.0078250  12.0000000  12.0000000  12.0000000   1.0078250   1.0078250   1.0078250  12.0000000   1.0078250   1.0078250
 NucSpn=           1           0           0           0           1           1           1           0           1           1
 AtZEff=   1.0000000   3.6000000   3.6000000   3.6000000   1.0000000   1.0000000   1.0000000   3.6000000   1.0000000   1.0000000
 NQMom=    0.0000000   0.0000000   0.0000000   0.0000000   0.0000000   0.0000000   0.0000000   0.0000000   0.0000000   0.0000000
 NMagM=    2.7928460   0.0000000   0.0000000   0.0000000   2.7928460   2.7928460   2.7928460   0.0000000   2.7928460   2.7928460
 AtZNuc=   1.0000000   6.0000000   6.0000000   6.0000000   1.0000000   1.0000000   1.0000000   6.0000000   1.0000000   1.0000000

  Atom        21          22          23          24          25          26          27          28          29
 IAtWgt=           1          12           1           1           1          12           1           1           1
 AtmWgt=   1.0078250  12.0000000   1.0078250   1.0078250   1.0078250  12.0000000   1.0078250   1.0078250   1.0078250
 NucSpn=           1           0           1           1           1           0           1           1           1
 AtZEff=   1.0000000   3.6000000   1.0000000   1.0000000   1.0000000   3.6000000   1.0000000   1.0000000   1.0000000
 NQMom=    0.0000000   0.0000000   0.0000000   0.0000000   0.0000000   0.0000000   0.0000000   0.0000000   0.0000000
 NMagM=    2.7928460   0.0000000   2.7928460   2.7928460   2.7928460   0.0000000   2.7928460   2.7928460   2.7928460
 AtZNuc=   1.0000000   6.0000000   1.0000000   1.0000000   1.0000000   6.0000000   1.0000000   1.0000000   1.0000000
 Leave Link  101 at Fri Jan 23 22:45:25 2026, MaxMem=  2147483648 cpu:               0.8 elap:               0.1
 (Enter /data/home/wyx/g16/l202.exe)
                          Input orientation:                          
 ---------------------------------------------------------------------
 Center     Atomic      Atomic             Coordinates (Angstroms)
 Number     Number       Type             X           Y           Z
 ---------------------------------------------------------------------
      1          8           0        2.799722   -1.574442    0.395856
      2          8           0       -3.441582   -1.651989   -0.391661
      3          7           0       -0.652119    1.523979   -0.143079
      4          1           0       -0.970539    2.477498   -0.184051
      5          6           0       -1.241910   -0.766569   -0.187194
      6          6           0        0.676781    1.311570    0.070334
      7          6           0       -1.618300    0.539073   -0.249454
      8          6           0       -2.181227   -1.824987   -0.281082
      9          6           0        0.211423   -1.131848   -0.027056
     10          1           0        0.332502   -1.791295    0.835328
     11          1           0        0.547755   -1.708041   -0.893832
     12          6           0        1.145011    0.041026    0.140207
     13          6           0        2.518837   -0.376509    0.366234
     14          6           0       -2.993259    1.075469   -0.414582
     15          1           0       -3.009250    1.901245   -1.131229
     16          1           0       -3.702998    0.335582   -0.779312
     17          1           0       -3.391560    1.443602    0.534452
     18          6           0       -1.806712   -3.276347   -0.266132
     19          1           0       -2.294009   -3.873685   -1.039386
     20          1           0       -0.738483   -3.442173   -0.389909
     21          1           0       -2.069779   -3.734584    0.692168
     22          6           0        3.648630    0.598225    0.572334
     23          1           0        3.787557    1.266983   -0.274996
     24          1           0        3.515720    1.212453    1.461607
     25          1           0        4.549299    0.001066    0.693741
     26          6           0        1.445142    2.588580    0.197565
     27          1           0        1.936685    2.681649    1.162984
     28          1           0        2.202532    2.696637   -0.575741
     29          1           0        0.794131    3.457829    0.105885
 ---------------------------------------------------------------------
                    Distance matrix (angstroms):
                    1          2          3          4          5
     1  O    0.000000
     2  O    6.291270   0.000000
     3  N    4.669676   4.234344   0.000000
     4  H    5.565014   4.816827   1.006116   0.000000
     5  C    4.162619   2.379986   2.365673   3.255399   0.000000
     6  C    3.597486   5.094805   1.362585   2.034149   2.840133
     7  C    4.939867   2.854003   1.383785   2.044838   1.360238
     8  C    5.032978   1.276969   3.684127   4.470633   1.418231
     9  C    2.659706   3.707820   2.795100   3.801192   1.507067
    10  H    2.515420   3.970972   3.594134   4.578170   2.138782
    11  H    2.598557   4.021210   3.528354   4.508630   2.142104
    12  C    2.326620   4.917928   2.347142   3.243006   2.541022
    13  C    1.230779   6.142300   3.731785   4.541356   3.821210
    14  C    6.421641   2.764154   2.399127   2.471887   2.551868
    15  H    6.939492   3.655044   2.583571   2.320680   3.336454
    16  H    6.878559   2.041825   3.335407   3.522566   2.760850
    17  H    6.889105   3.231543   2.823127   2.728833   3.166484
    18  C    4.955194   2.308050   4.938761   5.814865   2.573756
    19  H    5.769968   2.583100   5.712613   6.543752   3.389294
    20  H    4.077345   3.242145   4.973032   5.927793   2.730090
    21  H    5.335359   2.719142   5.509980   6.369148   3.204334
    22  C    2.339289   7.500924   4.457048   5.043858   5.133900
    23  H    3.082135   7.797080   4.449064   4.910509   5.425733
    24  H    3.068430   7.748786   4.476935   4.943182   5.410186
    25  H    2.373179   8.231942   5.484002   6.113252   5.907911
    26  C    4.382346   6.496898   2.376535   2.448159   4.315705
    27  H    4.409947   7.079767   3.122164   3.210628   4.880231
    28  H    4.420719   7.127444   3.116305   3.204656   4.899892
    29  H    5.424964   6.655754   2.427632   2.039405   4.698606
                    6          7          8          9         10
     6  C    0.000000
     7  C    2.442624   0.000000
     8  C    4.257898   2.430364   0.000000
     9  C    2.489244   2.487835   2.503946   0.000000
    10  H    3.214267   3.226917   2.750698   1.092354   0.000000
    11  H    3.172430   3.186932   2.799372   1.093809   1.744494
    12  C    1.355877   2.834744   3.837102   1.508376   2.121500
    13  C    2.516016   4.281736   4.960616   2.459547   2.646078
    14  C    3.709458   1.485093   3.014940   3.910551   4.565227
    15  H    3.921517   2.137237   3.910649   4.559779   5.354391
    16  H    4.566937   2.160584   2.689252   4.247580   4.839001
    17  H    4.096857   2.139423   3.579619   4.464272   4.942036
    18  C    5.227803   3.820106   1.498977   2.954472   2.827513
    19  H    6.078153   4.533543   2.187443   3.849633   3.840503
    20  H    4.981252   4.079721   2.169941   2.524200   2.318105
    21  H    5.778749   4.399390   2.146205   3.534883   3.093189
    22  C    3.097217   5.330984   6.370833   3.894459   4.095812
    23  H    3.130203   5.454704   6.722105   4.313305   4.745871
    24  H    3.163074   5.453378   6.687168   4.316277   4.421267
    25  H    4.135511   6.262455   7.041643   4.540948   4.584101
    26  C    1.495768   3.712813   5.732297   3.926080   4.563772
    27  H    2.158323   4.384465   6.273141   4.351492   4.763191
    28  H    2.159569   4.400034   6.304701   4.350042   5.062575
    29  H    2.149759   3.803318   6.075413   4.628429   5.319633
                   11         12         13         14         15
    11  H    0.000000
    12  C    2.117826   0.000000
    13  C    2.691822   1.453555   0.000000
    14  C    4.529502   4.301528   5.753357   0.000000
    15  H    5.073025   4.725976   6.163628   1.093501   0.000000
    16  H    4.717882   4.943225   6.366363   1.088205   1.748266
    17  H    5.243191   4.764780   6.186590   1.093083   1.769206
    18  C    2.897776   4.459007   5.245886   4.513118   5.385346
    19  H    3.575867   5.342589   6.113059   5.037207   5.819778
    20  H    2.217106   3.995153   4.536539   5.049130   5.853038
    21  H    3.670662   4.989466   5.695463   5.021386   5.997495
    22  C    4.133271   2.601021   1.506325   6.731750   6.994809
    23  H    4.441851   2.942518   2.172992   6.784956   6.879826
    24  H    4.783952   2.956112   2.172192   6.775371   7.054960
    25  H    4.631824   3.449228   2.091076   7.698890   8.004552
    26  C    4.522986   2.565814   3.158009   4.729020   4.698907
    27  H    5.042717   2.940359   3.213416   5.419675   5.507696
    28  H    4.716000   2.946727   3.229798   5.445218   5.301310
    29  H    5.267480   3.434944   4.212427   4.504536   4.291749
                   16         17         18         19         20
    16  H    0.000000
    17  H    1.746619   0.000000
    18  C    4.111604   5.042876   0.000000
    19  H    4.446439   5.652886   1.091876   0.000000
    20  H    4.817823   5.635961   1.088086   1.740024   0.000000
    21  H    4.625895   5.346549   1.094315   1.751544   1.740329
    22  C    7.479463   7.090865   6.743596   7.609900   6.041315
    23  H    7.565068   7.226764   7.206787   7.999763   6.532564
    24  H    7.609238   6.973060   7.173750   8.116447   6.572054
    25  H    8.389410   8.072393   7.215377   8.052844   6.402408
    26  C    5.703826   4.981782   6.722123   7.567838   6.440755
    27  H    6.409569   5.506179   7.180049   8.106887   6.860699
    28  H    6.363278   5.839220   7.200447   7.975148   6.809485
    29  H    5.545824   4.664846   7.228548   8.037372   7.085531
                   21         22         23         24         25
    21  H    0.000000
    22  C    7.175500   0.000000
    23  H    7.762697   1.088350   0.000000
    24  H    7.500867   1.088920   1.758596   0.000000
    25  H    7.600479   1.087448   1.766705   1.767869   0.000000
    26  C    7.251324   2.992879   2.730722   2.789054   4.071512
    27  H    7.579015   2.760485   2.737662   2.177398   3.772462
    28  H    7.824375   2.795104   2.155612   2.842191   3.792757
    29  H    7.763795   4.067318   3.729005   3.779781   5.137711
                   26         27         28         29
    26  C    0.000000
    27  H    1.087341   0.000000
    28  H    1.087804   1.758995   0.000000
    29  H    1.089869   1.739351   1.740006   0.000000
 Stoichiometry    C11H15NO2
 Framework group  C1[X(C11H15NO2)]
 Deg. of freedom    81
 Full point group                 C1      NOp   1
 RotChk:  IX=0 Diff= 3.26D-16
 Largest Abelian subgroup         C1      NOp   1
 Largest concise Abelian subgroup C1      NOp   1
                         Standard orientation:                         
 ---------------------------------------------------------------------
 Center     Atomic      Atomic             Coordinates (Angstroms)
 Number     Number       Type             X           Y           Z
 ---------------------------------------------------------------------
      1          8           0        2.253925   -2.315161   -0.003898
      2          8           0       -3.670424   -0.199903    0.084677
      3          7           0        0.056844    1.805154   -0.045288
      4          1           0        0.087584    2.810772   -0.037897
      5          6           0       -1.293382   -0.137118   -0.015633
      6          6           0        1.244527    1.137776   -0.019733
      7          6           0       -1.196723    1.219674   -0.019909
      8          6           0       -2.545964   -0.801407    0.018091
      9          6           0       -0.050214   -0.987852   -0.060738
     10          1           0       -0.055792   -1.692573    0.773873
     11          1           0       -0.050317   -1.598703   -0.968085
     12          6           0        1.246344   -0.218100   -0.020567
     13          6           0        2.406015   -1.093899    0.010442
     14          6           0       -2.308229    2.204134    0.010000
     15          1           0       -2.128377    3.021068   -0.694285
     16          1           0       -3.271801    1.773577   -0.255217
     17          1           0       -2.427426    2.636965    1.006634
     18          6           0       -2.701169   -2.291711   -0.024778
     19          1           0       -3.461364   -2.643915   -0.724956
     20          1           0       -1.782895   -2.808220   -0.296668
     21          1           0       -2.981074   -2.680628    0.959052
     22          6           0        3.820855   -0.579422    0.061005
     23          1           0        4.073057    0.043802   -0.794853
     24          1           0        4.025992   -0.004059    0.962462
     25          1           0        4.465151   -1.455419    0.053585
     26          6           0        2.418713    2.064079    0.004192
     27          1           0        3.032246    1.932068    0.892145
     28          1           0        3.059719    1.945029   -0.866588
     29          1           0        2.104745    3.107740    0.007339
 ---------------------------------------------------------------------
 Rotational constants (GHZ):           1.1023595           0.4833058           0.3396368
 Leave Link  202 at Fri Jan 23 22:45:25 2026, MaxMem=  2147483648 cpu:               0.0 elap:               0.0
 (Enter /data/home/wyx/g16/l301.exe)
 Standard basis: TZVP (5D, 7F)
 Ernie: Thresh=  0.10000D-02 Tol=  0.10000D-05 Strict=F.
 There are   370 symmetry adapted cartesian basis functions of A   symmetry.
 There are   356 symmetry adapted basis functions of A   symmetry.
   356 basis functions,   610 primitive gaussians,   370 cartesian basis functions
    52 alpha electrons       52 beta electrons
       nuclear repulsion energy       899.4354591056 Hartrees.
 IExCor=20419 DFT=T Ex+Corr=CAM-B3LYP ExCW=0 ScaHFX=  1.000000
 ScaDFX=  1.000000  1.000000  1.000000  0.810000 ScalE2=  1.000000  1.000000
 IRadAn=      5 IRanWt=     -1 IRanGd=            0 ICorTp=0 IEmpDi=141
 HFx  wShort=  0.000000 wLong=  0.330000 cFull=  0.190000 cShort=  0.000000 cLong=  0.460000
 DFx  wShort=  0.000000 wLong=  0.330000 cFull=  0.190000 cShort=  0.000000 cLong=  0.460000
 NAtoms=   29 NActive=   29 NUniq=   29 SFac= 1.00D+00 NAtFMM=   60 NAOKFM=F Big=F
 Integral buffers will be    131072 words long.
 Raffenetti 2 integral format.
 Two-electron integral symmetry is turned on.
 R6Disp:  Grimme-D3(BJ) Dispersion energy=       -0.0261006416 Hartrees.
 Nuclear repulsion after empirical dispersion term =      899.4093584639 Hartrees.
 ------------------------------------------------------------------------------
 Polarizable Continuum Model (PCM)
 =================================
 Model                : PCM.
 Atomic radii         : UFF (Universal Force Field).
 Polarization charges : Total charges.
 Charge compensation  : None.
 Solution method      : On-the-fly selection.
 Cavity type          : Scaled VdW (van der Waals Surface) (Alpha=1.100).
 Cavity algorithm     : GePol (No added spheres)
                        Default sphere list used, NSphG=   29.
                        Lebedev-Laikov grids with approx.  5.0 points / Ang**2.
                        Smoothing algorithm: York/Karplus (Gamma=1.0000).
                        Polarization charges: spherical gaussians, with
                                              point-specific exponents (IZeta= 3).
                        Self-potential: point-specific (ISelfS= 7).
                        Self-field    : sphere-specific E.n sum rule (ISelfD= 2).
 Solvent              : TetraHydroFuran, Eps=   7.425700 Eps(inf)=   1.974025
 ------------------------------------------------------------------------------
 GePol: Number of generator spheres                  =      29
 GePol: Total number of spheres                      =      29
 GePol: Number of exposed spheres                    =      29 (100.00%)
 GePol: Number of points                             =    2115
 GePol: Average weight of points                     =       0.13
 GePol: Minimum weight of points                     =   0.14D-08
 GePol: Maximum weight of points                     =    0.20577
 GePol: Number of points with low weight             =     136
 GePol: Fraction of low-weight points (<1% of avg)   =       6.43%
 GePol: Cavity surface area                          =    268.582 Ang**2
 GePol: Cavity volume                                =    286.187 Ang**3
 Leave Link  301 at Fri Jan 23 22:45:25 2026, MaxMem=  2147483648 cpu:               0.6 elap:               0.1
 (Enter /data/home/wyx/g16/l302.exe)
 NPDir=0 NMtPBC=     1 NCelOv=     1 NCel=       1 NClECP=     1 NCelD=      1
         NCelK=      1 NCelE2=     1 NClLst=     1 CellRange=     0.0.
 One-electron integrals computed using PRISM.
 One-electron integral symmetry used in STVInt
 NBasis=   356 RedAO= T EigKep=  3.40D-05  NBF=   356
 NBsUse=   356 1.00D-06 EigRej= -1.00D+00 NBFU=   356
 Precomputing XC quadrature grid using
 IXCGrd= 4 IRadAn=           5 IRanWt=          -1 IRanGd=           0 AccXCQ= 0.00D+00.
 Generated NRdTot=       0 NPtTot=           0 NUsed=           0 NTot=          32
 NSgBfM=   366   366   366   366   366 MxSgAt=    29 MxSgA2=    29.
 Leave Link  302 at Fri Jan 23 22:45:26 2026, MaxMem=  2147483648 cpu:               3.2 elap:               0.2
 (Enter /data/home/wyx/g16/l303.exe)
 DipDrv:  MaxL=1.
 Leave Link  303 at Fri Jan 23 22:45:26 2026, MaxMem=  2147483648 cpu:               0.5 elap:               0.0
 (Enter /data/home/wyx/g16/l401.exe)
 Initial guess from the checkpoint file:  "DDL-S2-cLR-gs-5.chk"
 B after Tr=     0.000000    0.000000    0.000000
         Rot=    1.000000   -0.000000    0.000000   -0.000000 Ang=   0.00 deg.
 Guess basis will be translated and rotated to current coordinates.
 JPrj=2 DoOrth=T DoCkMO=T.
 Leave Link  401 at Fri Jan 23 22:45:26 2026, MaxMem=  2147483648 cpu:               2.2 elap:               0.1
 (Enter /data/home/wyx/g16/l502.exe)
 Integral symmetry usage will be decided dynamically.
 Closed shell SCF:
 Using DIIS extrapolation, IDIIS=  1040.
 NGot=  2147483648 LenX=  2147200095 LenY=  2147062754
 Requested convergence on RMS density matrix=1.00D-08 within 128 cycles.
 Requested convergence on MAX density matrix=1.00D-06.
 Requested convergence on             energy=1.00D-06.
 No special actions if energy rises.
 Fock matrices will be formed incrementally for  20 cycles.

 Cycle   1  Pass 1  IDiag  1:
 FoFJK:  IHMeth= 1 ICntrl=       0 DoSepK=T KAlg= 0 I1Cent=           0 FoldK=F
 IRaf=         1 NMat=       1 IRICut=       1 DoRegI=T DoRafI=F ISym2E= 0 IDoP0=0 IntGTp=1.
 FoFCou: FMM=F IPFlag=           0 FMFlag=      100000 FMFlg1=           0
         NFxFlg=           0 DoJE=T BraDBF=F KetDBF=F FulRan=T
         wScrn=  0.000000 ICntrl=       500 IOpCl=  0 I1Cent=           0 NGrid=           0
         NMat0=    1 NMatS0=      1 NMatT0=    0 NMatD0=    1 NMtDS0=    0 NMtDT0=    0
 Symmetry not used in FoFCou.
 Inv3:  Mode=1 IEnd=    13419675.
 Iteration    1 A*A^-1 deviation from unit magnitude is 3.77D-15 for    687.
 Iteration    1 A*A^-1 deviation from orthogonality  is 1.78D-15 for   1790    617.
 Iteration    1 A^-1*A deviation from unit magnitude is 3.55D-15 for    687.
 Iteration    1 A^-1*A deviation from orthogonality  is 1.00D-14 for   1375   1352.
 NEqPCM:  Using non-equilibrium solvation (IEInf=1, Eps=   7.4257, EpsInf=   1.9740)
 Inv3:  Mode=1 IEnd=    13419675.
 Iteration    1 A*A^-1 deviation from unit magnitude is 3.33D-15 for    895.
 Iteration    1 A*A^-1 deviation from orthogonality  is 1.67D-15 for   2028    858.
 Iteration    1 A^-1*A deviation from unit magnitude is 3.11D-15 for    895.
 Iteration    1 A^-1*A deviation from orthogonality  is 4.38D-15 for   1376   1352.
 E= -633.315323935120    
 DIIS: error= 6.00D-04 at cycle   1 NSaved=   1.
 NSaved= 1 IEnMin= 1 EnMin= -633.315323935120     IErMin= 1 ErrMin= 6.00D-04
 ErrMax= 6.00D-04  0.00D+00 EMaxC= 1.00D-01 BMatC= 5.10D-05 BMatP= 5.10D-05
 IDIUse=3 WtCom= 9.94D-01 WtEn= 6.00D-03
 Coeff-Com:  0.100D+01
 Coeff-En:   0.100D+01
 Coeff:      0.100D+01
 Gap=     0.230 Goal=   None    Shift=    0.000
 RMSDP=3.07D-04 MaxDP=3.22D-02              OVMax= 8.50D-03

 Cycle   2  Pass 1  IDiag  1:
 RMSU=  2.99D-04    CP:  1.01D+00
 E= -633.315410184411     Delta-E=       -0.000086249292 Rises=F Damp=F
 DIIS: error= 3.92D-04 at cycle   2 NSaved=   2.
 NSaved= 2 IEnMin= 2 EnMin= -633.315410184411     IErMin= 2 ErrMin= 3.92D-04
 ErrMax= 3.92D-04  0.00D+00 EMaxC= 1.00D-01 BMatC= 6.17D-05 BMatP= 5.10D-05
 IDIUse=3 WtCom= 3.36D-01 WtEn= 6.64D-01
 Coeff-Com:  0.534D+00 0.466D+00
 Coeff-En:   0.000D+00 0.100D+01
 Coeff:      0.179D+00 0.821D+00
 Gap=     0.229 Goal=   None    Shift=    0.000
 RMSDP=1.92D-04 MaxDP=1.20D-02 DE=-8.62D-05 OVMax= 3.41D-03

 Cycle   3  Pass 1  IDiag  1:
 RMSU=  1.63D-04    CP:  9.99D-01  8.01D-01
 E= -633.315398251368     Delta-E=        0.000011933043 Rises=F Damp=F
 DIIS: error= 5.02D-04 at cycle   3 NSaved=   3.
 NSaved= 3 IEnMin= 2 EnMin= -633.315410184411     IErMin= 2 ErrMin= 3.92D-04
 ErrMax= 5.02D-04  0.00D+00 EMaxC= 1.00D-01 BMatC= 8.89D-05 BMatP= 5.10D-05
 IDIUse=3 WtCom= 3.09D-01 WtEn= 6.91D-01
 Coeff-Com:  0.729D-01 0.518D+00 0.409D+00
 Coeff-En:   0.000D+00 0.544D+00 0.456D+00
 Coeff:      0.225D-01 0.536D+00 0.441D+00
 Gap=     0.230 Goal=   None    Shift=    0.000
 RMSDP=5.89D-05 MaxDP=4.57D-03 DE= 1.19D-05 OVMax= 2.30D-03

 Cycle   4  Pass 1  IDiag  1:
 RMSU=  1.81D-05    CP:  1.00D+00  8.84D-01  7.43D-01
 E= -633.315463088319     Delta-E=       -0.000064836951 Rises=F Damp=F
 DIIS: error= 7.06D-05 at cycle   4 NSaved=   4.
 NSaved= 4 IEnMin= 4 EnMin= -633.315463088319     IErMin= 4 ErrMin= 7.06D-05
 ErrMax= 7.06D-05  0.00D+00 EMaxC= 1.00D-01 BMatC= 6.06D-07 BMatP= 5.10D-05
 IDIUse=1 WtCom= 1.00D+00 WtEn= 0.00D+00
 Coeff-Com: -0.129D-01 0.133D+00 0.139D+00 0.741D+00
 Coeff:     -0.129D-01 0.133D+00 0.139D+00 0.741D+00
 Gap=     0.230 Goal=   None    Shift=    0.000
 RMSDP=1.64D-05 MaxDP=1.01D-03 DE=-6.48D-05 OVMax= 7.29D-04

 Cycle   5  Pass 1  IDiag  1:
 RMSU=  7.31D-06    CP:  1.00D+00  8.77D-01  8.23D-01  1.00D+00
 E= -633.315463905399     Delta-E=       -0.000000817080 Rises=F Damp=F
 DIIS: error= 2.39D-05 at cycle   5 NSaved=   5.
 NSaved= 5 IEnMin= 5 EnMin= -633.315463905399     IErMin= 5 ErrMin= 2.39D-05
 ErrMax= 2.39D-05  0.00D+00 EMaxC= 1.00D-01 BMatC= 1.66D-07 BMatP= 6.06D-07
 IDIUse=1 WtCom= 1.00D+00 WtEn= 0.00D+00
 Coeff-Com: -0.141D-01-0.219D-01 0.321D-02 0.344D+00 0.689D+00
 Coeff:     -0.141D-01-0.219D-01 0.321D-02 0.344D+00 0.689D+00
 Gap=     0.230 Goal=   None    Shift=    0.000
 RMSDP=7.46D-06 MaxDP=3.87D-04 DE=-8.17D-07 OVMax= 3.16D-04

 Cycle   6  Pass 1  IDiag  1:
 RMSU=  2.25D-06    CP:  1.00D+00  8.71D-01  8.59D-01  1.14D+00  1.13D+00
 E= -633.315464176838     Delta-E=       -0.000000271439 Rises=F Damp=F
 DIIS: error= 1.84D-05 at cycle   6 NSaved=   6.
 NSaved= 6 IEnMin= 6 EnMin= -633.315464176838     IErMin= 6 ErrMin= 1.84D-05
 ErrMax= 1.84D-05  0.00D+00 EMaxC= 1.00D-01 BMatC= 2.01D-08 BMatP= 1.66D-07
 IDIUse=1 WtCom= 1.00D+00 WtEn= 0.00D+00
 Coeff-Com: -0.104D-02-0.292D-01-0.163D-01 0.229D-02 0.188D+00 0.856D+00
 Coeff:     -0.104D-02-0.292D-01-0.163D-01 0.229D-02 0.188D+00 0.856D+00
 Gap=     0.230 Goal=   None    Shift=    0.000
 RMSDP=3.64D-06 MaxDP=1.87D-04 DE=-2.71D-07 OVMax= 2.45D-04

 Cycle   7  Pass 1  IDiag  1:
 RMSU=  1.29D-06    CP:  1.00D+00  8.66D-01  8.75D-01  1.21D+00  1.22D+00
                    CP:  1.26D+00
 E= -633.315464233589     Delta-E=       -0.000000056751 Rises=F Damp=F
 DIIS: error= 6.94D-06 at cycle   7 NSaved=   7.
 NSaved= 7 IEnMin= 7 EnMin= -633.315464233589     IErMin= 7 ErrMin= 6.94D-06
 ErrMax= 6.94D-06  0.00D+00 EMaxC= 1.00D-01 BMatC= 8.95D-09 BMatP= 2.01D-08
 IDIUse=1 WtCom= 1.00D+00 WtEn= 0.00D+00
 Coeff-Com:  0.270D-02-0.101D-01-0.629D-02-0.718D-01-0.954D-01 0.433D+00
 Coeff-Com:  0.748D+00
 Coeff:      0.270D-02-0.101D-01-0.629D-02-0.718D-01-0.954D-01 0.433D+00
 Coeff:      0.748D+00
 Gap=     0.230 Goal=   None    Shift=    0.000
 RMSDP=1.46D-06 MaxDP=8.54D-05 DE=-5.68D-08 OVMax= 1.28D-04

 Cycle   8  Pass 1  IDiag  1:
 RMSU=  4.41D-07    CP:  1.00D+00  8.63D-01  8.80D-01  1.22D+00  1.28D+00
                    CP:  1.46D+00  1.10D+00
 E= -633.315464250861     Delta-E=       -0.000000017272 Rises=F Damp=F
 DIIS: error= 2.01D-06 at cycle   8 NSaved=   8.
 NSaved= 8 IEnMin= 8 EnMin= -633.315464250861     IErMin= 8 ErrMin= 2.01D-06
 ErrMax= 2.01D-06  0.00D+00 EMaxC= 1.00D-01 BMatC= 9.19D-10 BMatP= 8.95D-09
 IDIUse=1 WtCom= 1.00D+00 WtEn= 0.00D+00
 Coeff-Com:  0.112D-02 0.241D-03 0.715D-03-0.243D-01-0.775D-01 0.196D-01
 Coeff-Com:  0.266D+00 0.814D+00
 Coeff:      0.112D-02 0.241D-03 0.715D-03-0.243D-01-0.775D-01 0.196D-01
 Coeff:      0.266D+00 0.814D+00
 Gap=     0.230 Goal=   None    Shift=    0.000
 RMSDP=5.17D-07 MaxDP=2.20D-05 DE=-1.73D-08 OVMax= 4.54D-05

 Cycle   9  Pass 1  IDiag  1:
 RMSU=  1.57D-07    CP:  1.00D+00  8.63D-01  8.81D-01  1.23D+00  1.28D+00
                    CP:  1.56D+00  1.31D+00  1.16D+00
 E= -633.315464252739     Delta-E=       -0.000000001878 Rises=F Damp=F
 DIIS: error= 7.73D-07 at cycle   9 NSaved=   9.
 NSaved= 9 IEnMin= 9 EnMin= -633.315464252739     IErMin= 9 ErrMin= 7.73D-07
 ErrMax= 7.73D-07  0.00D+00 EMaxC= 1.00D-01 BMatC= 1.11D-10 BMatP= 9.19D-10
 IDIUse=1 WtCom= 1.00D+00 WtEn= 0.00D+00
 Coeff-Com:  0.111D-03 0.144D-02 0.118D-02 0.184D-02-0.183D-01-0.512D-01
 Coeff-Com:  0.118D-01 0.337D+00 0.716D+00
 Coeff:      0.111D-03 0.144D-02 0.118D-02 0.184D-02-0.183D-01-0.512D-01
 Coeff:      0.118D-01 0.337D+00 0.716D+00
 Gap=     0.230 Goal=   None    Shift=    0.000
 RMSDP=1.59D-07 MaxDP=9.10D-06 DE=-1.88D-09 OVMax= 1.24D-05

 Cycle  10  Pass 1  IDiag  1:
 RMSU=  6.30D-08    CP:  1.00D+00  8.63D-01  8.81D-01  1.23D+00  1.28D+00
                    CP:  1.57D+00  1.35D+00  1.25D+00  9.45D-01
 E= -633.315464252918     Delta-E=       -0.000000000179 Rises=F Damp=F
 DIIS: error= 2.92D-07 at cycle  10 NSaved=  10.
 NSaved=10 IEnMin=10 EnMin= -633.315464252918     IErMin=10 ErrMin= 2.92D-07
 ErrMax= 2.92D-07  0.00D+00 EMaxC= 1.00D-01 BMatC= 2.81D-11 BMatP= 1.11D-10
 IDIUse=1 WtCom= 1.00D+00 WtEn= 0.00D+00
 Coeff-Com: -0.770D-04 0.668D-03 0.367D-03 0.373D-02-0.589D-03-0.287D-01
 Coeff-Com: -0.219D-01 0.556D-01 0.356D+00 0.634D+00
 Coeff:     -0.770D-04 0.668D-03 0.367D-03 0.373D-02-0.589D-03-0.287D-01
 Coeff:     -0.219D-01 0.556D-01 0.356D+00 0.634D+00
 Gap=     0.230 Goal=   None    Shift=    0.000
 RMSDP=8.36D-08 MaxDP=6.86D-06 DE=-1.79D-10 OVMax= 3.42D-06

 Cycle  11  Pass 1  IDiag  1:
 RMSU=  2.96D-08    CP:  1.00D+00  8.63D-01  8.80D-01  1.23D+00  1.27D+00
                    CP:  1.57D+00  1.38D+00  1.27D+00  1.11D+00  9.56D-01
 E= -633.315464252941     Delta-E=       -0.000000000023 Rises=F Damp=F
 DIIS: error= 1.12D-07 at cycle  11 NSaved=  11.
 NSaved=11 IEnMin=11 EnMin= -633.315464252941     IErMin=11 ErrMin= 1.12D-07
 ErrMax= 1.12D-07  0.00D+00 EMaxC= 1.00D-01 BMatC= 4.81D-12 BMatP= 2.81D-11
 IDIUse=1 WtCom= 1.00D+00 WtEn= 0.00D+00
 Coeff-Com: -0.594D-04 0.764D-04-0.110D-03 0.162D-02 0.393D-02-0.359D-02
 Coeff-Com: -0.126D-01-0.515D-01 0.408D-01 0.300D+00 0.722D+00
 Coeff:     -0.594D-04 0.764D-04-0.110D-03 0.162D-02 0.393D-02-0.359D-02
 Coeff:     -0.126D-01-0.515D-01 0.408D-01 0.300D+00 0.722D+00
 Gap=     0.230 Goal=   None    Shift=    0.000
 RMSDP=3.58D-08 MaxDP=3.05D-06 DE=-2.32D-11 OVMax= 1.40D-06

 Cycle  12  Pass 1  IDiag  1:
 RMSU=  9.17D-09    CP:  1.00D+00  8.63D-01  8.80D-01  1.23D+00  1.27D+00
                    CP:  1.57D+00  1.39D+00  1.28D+00  1.15D+00  1.08D+00
                    CP:  9.66D-01
 E= -633.315464252946     Delta-E=       -0.000000000005 Rises=F Damp=F
 DIIS: error= 3.51D-08 at cycle  12 NSaved=  12.
 NSaved=12 IEnMin=12 EnMin= -633.315464252946     IErMin=12 ErrMin= 3.51D-08
 ErrMax= 3.51D-08  0.00D+00 EMaxC= 1.00D-01 BMatC= 4.95D-13 BMatP= 4.81D-12
 IDIUse=1 WtCom= 1.00D+00 WtEn= 0.00D+00
 Coeff-Com: -0.157D-04-0.300D-04-0.853D-04 0.196D-03 0.149D-02 0.205D-02
 Coeff-Com: -0.762D-03-0.262D-01-0.226D-01 0.252D-01 0.273D+00 0.748D+00
 Coeff:     -0.157D-04-0.300D-04-0.853D-04 0.196D-03 0.149D-02 0.205D-02
 Coeff:     -0.762D-03-0.262D-01-0.226D-01 0.252D-01 0.273D+00 0.748D+00
 Gap=     0.230 Goal=   None    Shift=    0.000
 RMSDP=1.07D-08 MaxDP=9.83D-07 DE=-5.00D-12 OVMax= 4.30D-07

 Cycle  13  Pass 1  IDiag  1:
 RMSU=  3.22D-09    CP:  1.00D+00  8.63D-01  8.80D-01  1.23D+00  1.27D+00
                    CP:  1.57D+00  1.39D+00  1.28D+00  1.16D+00  1.09D+00
                    CP:  1.10D+00  1.11D+00
 E= -633.315464252946     Delta-E=       -0.000000000000 Rises=F Damp=F
 DIIS: error= 1.33D-08 at cycle  13 NSaved=  13.
 NSaved=13 IEnMin=13 EnMin= -633.315464252946     IErMin=13 ErrMin= 1.33D-08
 ErrMax= 1.33D-08  0.00D+00 EMaxC= 1.00D-01 BMatC= 8.09D-14 BMatP= 4.95D-13
 IDIUse=1 WtCom= 1.00D+00 WtEn= 0.00D+00
 Coeff-Com:  0.316D-06-0.204D-04-0.230D-04-0.172D-03 0.877D-04 0.116D-02
 Coeff-Com:  0.142D-02-0.508D-02-0.165D-01-0.398D-01 0.338D-02 0.326D+00
 Coeff-Com:  0.729D+00
 Coeff:      0.316D-06-0.204D-04-0.230D-04-0.172D-03 0.877D-04 0.116D-02
 Coeff:      0.142D-02-0.508D-02-0.165D-01-0.398D-01 0.338D-02 0.326D+00
 Coeff:      0.729D+00
 Gap=     0.230 Goal=   None    Shift=    0.000
 RMSDP=3.89D-09 MaxDP=1.83D-07 DE=-2.27D-13 OVMax= 2.14D-07

 Error on total polarization charges =  0.00993
 SCF Done:  E(RCAM-B3LYP) =  -633.315464253     A.U. after   13 cycles
            NFock= 13  Conv=0.39D-08     -V/T= 2.0042
 KE= 6.306899655439D+02 PE=-3.274888679747D+03 EE= 1.111473891487D+03
 Leave Link  502 at Fri Jan 23 22:46:17 2026, MaxMem=  2147483648 cpu:             806.6 elap:              51.1
 (Enter /data/home/wyx/g16/l601.exe)
 Copying SCF densities to generalized density rwf, IOpCl= 0 IROHF=0.

 **********************************************************************

            Population analysis using the SCF density.

 **********************************************************************

 Orbital symmetries:
       Occupied  (A) (A) (A) (A) (A) (A) (A) (A) (A) (A) (A) (A)
                 (A) (A) (A) (A) (A) (A) (A) (A) (A) (A) (A) (A)
                 (A) (A) (A) (A) (A) (A) (A) (A) (A) (A) (A) (A)
                 (A) (A) (A) (A) (A) (A) (A) (A) (A) (A) (A) (A)
                 (A) (A) (A) (A)
       Virtual   (A) (A) (A) (A) (A) (A) (A) (A) (A) (A) (A) (A)
                 (A) (A) (A) (A) (A) (A) (A) (A) (A) (A) (A) (A)
                 (A) (A) (A) (A) (A) (A) (A) (A) (A) (A) (A) (A)
                 (A) (A) (A) (A) (A) (A) (A) (A) (A) (A) (A) (A)
                 (A) (A) (A) (A) (A) (A) (A) (A) (A) (A) (A) (A)
                 (A) (A) (A) (A) (A) (A) (A) (A) (A) (A) (A) (A)
                 (A) (A) (A) (A) (A) (A) (A) (A) (A) (A) (A) (A)
                 (A) (A) (A) (A) (A) (A) (A) (A) (A) (A) (A) (A)
                 (A) (A) (A) (A) (A) (A) (A) (A) (A) (A) (A) (A)
                 (A) (A) (A) (A) (A) (A) (A) (A) (A) (A) (A) (A)
                 (A) (A) (A) (A) (A) (A) (A) (A) (A) (A) (A) (A)
                 (A) (A) (A) (A) (A) (A) (A) (A) (A) (A) (A) (A)
                 (A) (A) (A) (A) (A) (A) (A) (A) (A) (A) (A) (A)
                 (A) (A) (A) (A) (A) (A) (A) (A) (A) (A) (A) (A)
                 (A) (A) (A) (A) (A) (A) (A) (A) (A) (A) (A) (A)
                 (A) (A) (A) (A) (A) (A) (A) (A) (A) (A) (A) (A)
                 (A) (A) (A) (A) (A) (A) (A) (A) (A) (A) (A) (A)
                 (A) (A) (A) (A) (A) (A) (A) (A) (A) (A) (A) (A)
                 (A) (A) (A) (A) (A) (A) (A) (A) (A) (A) (A) (A)
                 (A) (A) (A) (A) (A) (A) (A) (A) (A) (A) (A) (A)
                 (A) (A) (A) (A) (A) (A) (A) (A) (A) (A) (A) (A)
                 (A) (A) (A) (A) (A) (A) (A) (A) (A) (A) (A) (A)
                 (A) (A) (A) (A) (A) (A) (A) (A) (A) (A) (A) (A)
                 (A) (A) (A) (A) (A) (A) (A) (A) (A) (A) (A) (A)
                 (A) (A) (A) (A) (A) (A) (A) (A) (A) (A) (A) (A)
                 (A) (A) (A) (A)
 The electronic state is 1-A.
 Alpha  occ. eigenvalues --  -19.17967 -19.16207 -14.44698 -10.33483 -10.32912
 Alpha  occ. eigenvalues --  -10.32718 -10.32346 -10.26392 -10.25348 -10.25206
 Alpha  occ. eigenvalues --  -10.25144 -10.24345 -10.24330 -10.23442  -1.12000
 Alpha  occ. eigenvalues --   -1.08794  -1.07930  -0.91806  -0.90845  -0.84002
 Alpha  occ. eigenvalues --   -0.82687  -0.81670  -0.78776  -0.74616  -0.71835
 Alpha  occ. eigenvalues --   -0.69300  -0.62267  -0.58720  -0.57160  -0.55455
 Alpha  occ. eigenvalues --   -0.55029  -0.54118  -0.52517  -0.52024  -0.50824
 Alpha  occ. eigenvalues --   -0.49772  -0.49310  -0.49029  -0.48557  -0.48199
 Alpha  occ. eigenvalues --   -0.46695  -0.44995  -0.44745  -0.44044  -0.43091
 Alpha  occ. eigenvalues --   -0.42644  -0.41612  -0.40431  -0.33202  -0.32394
 Alpha  occ. eigenvalues --   -0.30306  -0.26378
 Alpha virt. eigenvalues --   -0.03419   0.01928   0.06037   0.08048   0.08411
 Alpha virt. eigenvalues --    0.09657   0.10741   0.11545   0.12605   0.12922
 Alpha virt. eigenvalues --    0.14237   0.14957   0.15521   0.16387   0.16976
 Alpha virt. eigenvalues --    0.17329   0.17616   0.17926   0.18918   0.19390
 Alpha virt. eigenvalues --    0.19891   0.20759   0.22762   0.23189   0.24026
 Alpha virt. eigenvalues --    0.24386   0.25016   0.25490   0.26182   0.26556
 Alpha virt. eigenvalues --    0.26904   0.27388   0.28598   0.29321   0.29824
 Alpha virt. eigenvalues --    0.30804   0.31004   0.33478   0.34268   0.34646
 Alpha virt. eigenvalues --    0.35293   0.35579   0.36575   0.37318   0.37389
 Alpha virt. eigenvalues --    0.40086   0.40727   0.41312   0.42587   0.42913
 Alpha virt. eigenvalues --    0.44403   0.45380   0.45700   0.46119   0.46246
 Alpha virt. eigenvalues --    0.47397   0.47821   0.48034   0.48580   0.48795
 Alpha virt. eigenvalues --    0.50252   0.50913   0.51028   0.51205   0.51638
 Alpha virt. eigenvalues --    0.52129   0.52758   0.53040   0.53563   0.53712
 Alpha virt. eigenvalues --    0.54926   0.55596   0.56002   0.56989   0.57601
 Alpha virt. eigenvalues --    0.57957   0.59062   0.61525   0.62606   0.62987
 Alpha virt. eigenvalues --    0.63562   0.64777   0.65766   0.67410   0.67757
 Alpha virt. eigenvalues --    0.68763   0.70527   0.70800   0.71607   0.72265
 Alpha virt. eigenvalues --    0.73468   0.75635   0.77459   0.78639   0.79735
 Alpha virt. eigenvalues --    0.81983   0.82774   0.84611   0.88248   0.90611
 Alpha virt. eigenvalues --    0.93401   0.96089   0.99461   1.03550   1.18935
 Alpha virt. eigenvalues --    1.22247   1.22631   1.24568   1.29765   1.30601
 Alpha virt. eigenvalues --    1.32257   1.33522   1.33667   1.35684   1.36220
 Alpha virt. eigenvalues --    1.37405   1.37747   1.38945   1.39348   1.39899
 Alpha virt. eigenvalues --    1.40037   1.40662   1.41007   1.41456   1.42082
 Alpha virt. eigenvalues --    1.42618   1.43475   1.44522   1.44981   1.45805
 Alpha virt. eigenvalues --    1.48389   1.49568   1.50458   1.50682   1.51315
 Alpha virt. eigenvalues --    1.52019   1.52972   1.55996   1.56965   1.57275
 Alpha virt. eigenvalues --    1.58415   1.59602   1.60254   1.60703   1.61920
 Alpha virt. eigenvalues --    1.62318   1.62620   1.63690   1.64388   1.64486
 Alpha virt. eigenvalues --    1.65277   1.65633   1.65806   1.66894   1.67435
 Alpha virt. eigenvalues --    1.69051   1.69341   1.70665   1.71501   1.72210
 Alpha virt. eigenvalues --    1.73257   1.74902   1.75175   1.76071   1.80618
 Alpha virt. eigenvalues --    1.81361   1.82627   1.83143   1.83707   1.86012
 Alpha virt. eigenvalues --    1.86448   1.86642   1.89303   1.90114   1.90856
 Alpha virt. eigenvalues --    1.91422   1.93243   1.96687   1.97841   2.01487
 Alpha virt. eigenvalues --    2.02324   2.04897   2.05756   2.07718   2.09256
 Alpha virt. eigenvalues --    2.10413   2.13562   2.15109   2.17916   2.19736
 Alpha virt. eigenvalues --    2.20111   2.23452   2.24909   2.25720   2.25848
 Alpha virt. eigenvalues --    2.26660   2.29126   2.30211   2.31666   2.33180
 Alpha virt. eigenvalues --    2.35314   2.35674   2.36818   2.37773   2.40161
 Alpha virt. eigenvalues --    2.40517   2.41986   2.43552   2.44560   2.46523
 Alpha virt. eigenvalues --    2.46830   2.47772   2.49469   2.50200   2.50758
 Alpha virt. eigenvalues --    2.53039   2.53408   2.54776   2.55739   2.56239
 Alpha virt. eigenvalues --    2.56511   2.59358   2.61187   2.63016   2.63452
 Alpha virt. eigenvalues --    2.64349   2.65135   2.65914   2.66945   2.67650
 Alpha virt. eigenvalues --    2.69351   2.71425   2.73589   2.74294   2.74950
 Alpha virt. eigenvalues --    2.76000   2.76547   2.77664   2.78236   2.79799
 Alpha virt. eigenvalues --    2.80792   2.81849   2.83707   2.84324   2.85389
 Alpha virt. eigenvalues --    2.85846   2.88311   2.89596   2.89857   2.93856
 Alpha virt. eigenvalues --    2.96840   2.98746   2.99296   3.04629   3.09019
 Alpha virt. eigenvalues --    3.10277   3.11995   3.14071   3.20735   3.20820
 Alpha virt. eigenvalues --    3.21688   3.22433   3.25055   3.25618   3.26154
 Alpha virt. eigenvalues --    3.30978   3.31755   3.34030   3.36331   3.38441
 Alpha virt. eigenvalues --    3.38642   3.39719   3.40311   3.40801   3.41342
 Alpha virt. eigenvalues --    3.41703   3.43978   3.45735   3.47384   3.49896
 Alpha virt. eigenvalues --    3.50601   3.54336   3.56641   3.59300   3.60764
 Alpha virt. eigenvalues --    3.64458   3.92686   4.00861   4.31268   4.36811
 Alpha virt. eigenvalues --   21.64904  21.77108  22.06338  22.10100  22.12614
 Alpha virt. eigenvalues --   22.13600  22.17133  22.20178  22.21421  22.27973
 Alpha virt. eigenvalues --   22.32022  31.92695  43.64624  43.67330
          Condensed to atoms (all electrons):
               1          2          3          4          5          6
     1  O    7.921958   0.000000  -0.000203   0.000017   0.016295   0.016124
     2  O    0.000000   8.060207   0.000689   0.000024  -0.172639   0.001783
     3  N   -0.000203   0.000689   6.354894   0.369896  -0.106585   0.382959
     4  H    0.000017   0.000024   0.369896   0.402302   0.011637  -0.039608
     5  C    0.016295  -0.172639  -0.106585   0.011637   7.165288  -0.040813
     6  C    0.016124   0.001783   0.382959  -0.039608  -0.040813   5.519872
     7  C    0.000196  -0.012698   0.355481  -0.045047   0.372109  -0.166058
     8  C   -0.000388   0.612157   0.004204  -0.001133  -0.429248   0.046362
     9  C    0.005454   0.025942   0.023718   0.001179  -0.717808  -0.065684
    10  H    0.007922  -0.000234  -0.000346  -0.000002  -0.101530   0.009955
    11  H    0.005410  -0.000077   0.001035   0.000020  -0.070762   0.012030
    12  C   -0.253783  -0.004198  -0.104936   0.019584   0.225992  -0.094192
    13  C    0.753864   0.000006  -0.000786   0.000529   0.064736   0.075213
    14  C   -0.000012  -0.064462  -0.048737   0.000757  -0.010525  -0.002380
    15  H    0.000000   0.004651   0.003667  -0.000122   0.006835   0.004627
    16  H    0.000000   0.029554   0.003385   0.000722   0.007683  -0.000262
    17  H    0.000000   0.001503  -0.002918   0.000490  -0.018168  -0.000135
    18  C   -0.000310  -0.090373  -0.000303   0.000017  -0.148265  -0.002281
    19  H    0.000003   0.001031   0.000009  -0.000001   0.004060   0.000050
    20  H    0.000858   0.007115   0.000075   0.000001   0.078476  -0.001455
    21  H    0.000008  -0.001558   0.000011  -0.000001  -0.010712   0.000097
    22  C   -0.131213   0.000000  -0.000112   0.000120   0.000174  -0.003682
    23  H    0.003196   0.000000   0.000153  -0.000034  -0.000232  -0.004893
    24  H    0.003290   0.000000   0.000165  -0.000023  -0.000176  -0.003626
    25  H    0.011328  -0.000000   0.000010  -0.000003  -0.000022  -0.002573
    26  C    0.000771   0.000011  -0.026536  -0.012457   0.002048   0.246966
    27  H   -0.000057  -0.000000  -0.002489   0.000747   0.000509  -0.039793
    28  H   -0.000036  -0.000000  -0.002020   0.000726   0.000394  -0.042984
    29  H    0.000013   0.000000   0.004922   0.002713  -0.000430  -0.052125
               7          8          9         10         11         12
     1  O    0.000196  -0.000388   0.005454   0.007922   0.005410  -0.253783
     2  O   -0.012698   0.612157   0.025942  -0.000234  -0.000077  -0.004198
     3  N    0.355481   0.004204   0.023718  -0.000346   0.001035  -0.104936
     4  H   -0.045047  -0.001133   0.001179  -0.000002   0.000020   0.019584
     5  C    0.372109  -0.429248  -0.717808  -0.101530  -0.070762   0.225992
     6  C   -0.166058   0.046362  -0.065684   0.009955   0.012030  -0.094192
     7  C    5.546213  -0.272778  -0.268865   0.010727   0.001860   0.061042
     8  C   -0.272778   5.674947   0.244112  -0.006110   0.002342  -0.096407
     9  C   -0.268865   0.244112   6.474193   0.519986   0.449772  -0.214496
    10  H    0.010727  -0.006110   0.519986   0.521361  -0.039124  -0.075130
    11  H    0.001860   0.002342   0.449772  -0.039124   0.541251  -0.043234
    12  C    0.061042  -0.096407  -0.214496  -0.075130  -0.043234   7.556124
    13  C    0.027062  -0.010055  -0.197185  -0.006653  -0.008395  -0.485346
    14  C    0.216300  -0.075585   0.017468   0.000265  -0.000762   0.005549
    15  H   -0.067163   0.006615  -0.000338  -0.000022   0.000096  -0.001309
    16  H   -0.048576  -0.022669   0.002238  -0.000055   0.000050  -0.000433
    17  H   -0.015640   0.005679  -0.000692   0.000078  -0.000026  -0.000089
    18  C    0.020901   0.295415  -0.012329  -0.004794  -0.012283   0.011831
    19  H   -0.000672  -0.025734  -0.001961   0.000378   0.000479  -0.000173
    20  H    0.006103  -0.134841  -0.017687  -0.006174  -0.001064   0.006600
    21  H   -0.001014  -0.010443  -0.002056   0.000422   0.000417  -0.000983
    22  C    0.001331  -0.000049   0.019286   0.001034   0.000735  -0.352658
    23  H   -0.000067   0.000005  -0.001118  -0.000153   0.000131   0.026822
    24  H   -0.000027   0.000002  -0.000622   0.000118  -0.000142   0.024117
    25  H    0.000010  -0.000002  -0.000009  -0.000086  -0.000032   0.028672
    26  C    0.005657   0.000922   0.016442  -0.000004  -0.000218  -0.104628
    27  H   -0.001430  -0.000005   0.000153   0.000010   0.000005  -0.002806
    28  H   -0.001108  -0.000007  -0.000576   0.000004   0.000012  -0.007196
    29  H    0.003799   0.000023  -0.000648   0.000011   0.000007   0.021072
              13         14         15         16         17         18
     1  O    0.753864  -0.000012   0.000000   0.000000   0.000000  -0.000310
     2  O    0.000006  -0.064462   0.004651   0.029554   0.001503  -0.090373
     3  N   -0.000786  -0.048737   0.003667   0.003385  -0.002918  -0.000303
     4  H    0.000529   0.000757  -0.000122   0.000722   0.000490   0.000017
     5  C    0.064736  -0.010525   0.006835   0.007683  -0.018168  -0.148265
     6  C    0.075213  -0.002380   0.004627  -0.000262  -0.000135  -0.002281
     7  C    0.027062   0.216300  -0.067163  -0.048576  -0.015640   0.020901
     8  C   -0.010055  -0.075585   0.006615  -0.022669   0.005679   0.295415
     9  C   -0.197185   0.017468  -0.000338   0.002238  -0.000692  -0.012329
    10  H   -0.006653   0.000265  -0.000022  -0.000055   0.000078  -0.004794
    11  H   -0.008395  -0.000762   0.000096   0.000050  -0.000026  -0.012283
    12  C   -0.485346   0.005549  -0.001309  -0.000433  -0.000089   0.011831
    13  C    5.502360  -0.000040  -0.000029   0.000005  -0.000021   0.000938
    14  C   -0.000040   5.254072   0.388092   0.416774   0.396902  -0.002277
    15  H   -0.000029   0.388092   0.573888  -0.022168  -0.032029   0.000154
    16  H    0.000005   0.416774  -0.022168   0.443722  -0.013916   0.001101
    17  H   -0.000021   0.396902  -0.032029  -0.013916   0.511608   0.000062
    18  C    0.000938  -0.002277   0.000154   0.001101   0.000062   5.183363
    19  H   -0.000019  -0.000025   0.000002   0.000053  -0.000009   0.404134
    20  H    0.002162   0.000418  -0.000019  -0.000145  -0.000006   0.408135
    21  H   -0.000045  -0.000198  -0.000006   0.000016   0.000018   0.397742
    22  C    0.348564   0.000022   0.000001   0.000000  -0.000001   0.000015
    23  H   -0.052930  -0.000000   0.000000  -0.000000  -0.000000  -0.000001
    24  H   -0.051715   0.000001  -0.000000   0.000000   0.000000   0.000000
    25  H   -0.050666   0.000000   0.000000  -0.000000  -0.000000   0.000001
    26  C   -0.043414  -0.000630  -0.000029   0.000026  -0.000099  -0.000021
    27  H   -0.001324  -0.000060   0.000015   0.000001  -0.000007  -0.000000
    28  H    0.001214   0.000013  -0.000018  -0.000001   0.000007   0.000000
    29  H   -0.000327   0.000513   0.000041  -0.000002  -0.000004   0.000000
              19         20         21         22         23         24
     1  O    0.000003   0.000858   0.000008  -0.131213   0.003196   0.003290
     2  O    0.001031   0.007115  -0.001558   0.000000   0.000000   0.000000
     3  N    0.000009   0.000075   0.000011  -0.000112   0.000153   0.000165
     4  H   -0.000001   0.000001  -0.000001   0.000120  -0.000034  -0.000023
     5  C    0.004060   0.078476  -0.010712   0.000174  -0.000232  -0.000176
     6  C    0.000050  -0.001455   0.000097  -0.003682  -0.004893  -0.003626
     7  C   -0.000672   0.006103  -0.001014   0.001331  -0.000067  -0.000027
     8  C   -0.025734  -0.134841  -0.010443  -0.000049   0.000005   0.000002
     9  C   -0.001961  -0.017687  -0.002056   0.019286  -0.001118  -0.000622
    10  H    0.000378  -0.006174   0.000422   0.001034  -0.000153   0.000118
    11  H    0.000479  -0.001064   0.000417   0.000735   0.000131  -0.000142
    12  C   -0.000173   0.006600  -0.000983  -0.352658   0.026822   0.024117
    13  C   -0.000019   0.002162  -0.000045   0.348564  -0.052930  -0.051715
    14  C   -0.000025   0.000418  -0.000198   0.000022  -0.000000   0.000001
    15  H    0.000002  -0.000019  -0.000006   0.000001   0.000000  -0.000000
    16  H    0.000053  -0.000145   0.000016   0.000000  -0.000000   0.000000
    17  H   -0.000009  -0.000006   0.000018  -0.000001  -0.000000   0.000000
    18  C    0.404134   0.408135   0.397742   0.000015  -0.000001   0.000000
    19  H    0.498464  -0.028972  -0.014273  -0.000000   0.000000   0.000000
    20  H   -0.028972   0.551370  -0.021946   0.000062  -0.000001  -0.000001
    21  H   -0.014273  -0.021946   0.496392  -0.000001   0.000000   0.000000
    22  C   -0.000000   0.000062  -0.000001   5.465266   0.383986   0.393629
    23  H    0.000000  -0.000001   0.000000   0.383986   0.543609  -0.034323
    24  H    0.000000  -0.000001   0.000000   0.393629  -0.034323   0.530375
    25  H    0.000000  -0.000000  -0.000000   0.381996  -0.014390  -0.011601
    26  C    0.000000  -0.000019   0.000001  -0.046939   0.006114  -0.004540
    27  H    0.000000   0.000000  -0.000000  -0.001067  -0.002341  -0.000334
    28  H   -0.000000   0.000000   0.000000  -0.006442  -0.001473  -0.000313
    29  H   -0.000000  -0.000000   0.000000   0.002221   0.000360   0.000199
              25         26         27         28         29
     1  O    0.011328   0.000771  -0.000057  -0.000036   0.000013
     2  O   -0.000000   0.000011  -0.000000  -0.000000   0.000000
     3  N    0.000010  -0.026536  -0.002489  -0.002020   0.004922
     4  H   -0.000003  -0.012457   0.000747   0.000726   0.002713
     5  C   -0.000022   0.002048   0.000509   0.000394  -0.000430
     6  C   -0.002573   0.246966  -0.039793  -0.042984  -0.052125
     7  C    0.000010   0.005657  -0.001430  -0.001108   0.003799
     8  C   -0.000002   0.000922  -0.000005  -0.000007   0.000023
     9  C   -0.000009   0.016442   0.000153  -0.000576  -0.000648
    10  H   -0.000086  -0.000004   0.000010   0.000004   0.000011
    11  H   -0.000032  -0.000218   0.000005   0.000012   0.000007
    12  C    0.028672  -0.104628  -0.002806  -0.007196   0.021072
    13  C   -0.050666  -0.043414  -0.001324   0.001214  -0.000327
    14  C    0.000000  -0.000630  -0.000060   0.000013   0.000513
    15  H    0.000000  -0.000029   0.000015  -0.000018   0.000041
    16  H   -0.000000   0.000026   0.000001  -0.000001  -0.000002
    17  H   -0.000000  -0.000099  -0.000007   0.000007  -0.000004
    18  C    0.000001  -0.000021  -0.000000   0.000000   0.000000
    19  H    0.000000   0.000000   0.000000  -0.000000  -0.000000
    20  H   -0.000000  -0.000019   0.000000   0.000000  -0.000000
    21  H   -0.000000   0.000001  -0.000000   0.000000   0.000000
    22  C    0.381996  -0.046939  -0.001067  -0.006442   0.002221
    23  H   -0.014390   0.006114  -0.002341  -0.001473   0.000360
    24  H   -0.011601  -0.004540  -0.000334  -0.000313   0.000199
    25  H    0.494187   0.002386   0.000181   0.000095  -0.000028
    26  C    0.002386   5.189786   0.423856   0.433793   0.386366
    27  H    0.000181   0.423856   0.504275  -0.033139  -0.019118
    28  H    0.000095   0.433793  -0.033139   0.497049  -0.018052
    29  H   -0.000028   0.386366  -0.019118  -0.018052   0.518973
 Mulliken charges:
               1
     1  O   -0.360705
     2  O   -0.398433
     3  N   -0.209301
     4  H    0.286949
     5  C   -0.128321
     6  C    0.246505
     7  C    0.272350
     8  C    0.192665
     9  C   -0.297868
    10  H    0.168146
    11  H    0.160465
    12  C   -0.145408
    13  C    0.132298
    14  C   -0.491451
    15  H    0.134570
    16  H    0.202899
    17  H    0.167413
    18  C   -0.450574
    19  H    0.163177
    20  H    0.150957
    21  H    0.168111
    22  C   -0.456275
    23  H    0.147579
    24  H    0.155544
    25  H    0.160545
    26  C   -0.475612
    27  H    0.174215
    28  H    0.180058
    29  H    0.149502
 Sum of Mulliken charges =  -0.00000
 Mulliken charges with hydrogens summed into heavy atoms:
               1
     1  O   -0.360705
     2  O   -0.398433
     3  N    0.077647
     5  C   -0.128321
     6  C    0.246505
     7  C    0.272350
     8  C    0.192665
     9  C    0.030743
    12  C   -0.145408
    13  C    0.132298
    14  C    0.013431
    18  C    0.031670
    22  C    0.007393
    26  C    0.028164
 Electronic spatial extent (au):  <R**2>=           3224.9014
 Charge=             -0.0000 electrons
 Dipole moment (field-independent basis, Debye):
    X=              3.9232    Y=              7.1437    Z=             -0.0875  Tot=              8.1506
 Quadrupole moment (field-independent basis, Debye-Ang):
   XX=            -98.0080   YY=            -78.9366   ZZ=            -84.3018
   XY=             13.4861   XZ=              0.8404   YZ=             -0.0317
 Traceless Quadrupole moment (field-independent basis, Debye-Ang):
   XX=            -10.9258   YY=              8.1455   ZZ=              2.7803
   XY=             13.4861   XZ=              0.8404   YZ=             -0.0317
 Octapole moment (field-independent basis, Debye-Ang**2):
  XXX=            110.0893  YYY=             62.1560  ZZZ=              1.3967  XYY=            -37.3788
  XXY=             26.5460  XXZ=             -3.1567  XZZ=              0.1949  YZZ=             -1.6222
  YYZ=              0.2936  XYZ=             -0.5241
 Hexadecapole moment (field-independent basis, Debye-Ang**3):
 XXXX=          -3144.1457 YYYY=          -1287.9026 ZZZZ=           -123.5717 XXXY=             49.0443
 XXXZ=             18.5227 YYYX=             95.4577 YYYZ=             -2.8183 ZZZX=             -2.8981
 ZZZY=              0.4563 XXYY=           -686.2169 XXZZ=           -481.2664 YYZZ=           -236.5317
 XXYZ=              2.1163 YYXZ=             -1.5188 ZZXY=              3.5370
 N-N= 8.994093584639D+02 E-N=-3.274888678500D+03  KE= 6.306899655439D+02
 No NMR shielding tensors so no spin-rotation constants.
 Leave Link  601 at Fri Jan 23 22:46:18 2026, MaxMem=  2147483648 cpu:               1.8 elap:               0.1
 (Enter /data/home/wyx/g16/l9999.exe)
 1\1\GINC-CN013\SP\RCAM-B3LYP\TZVP\C11H15N1O2\WYX\23-Jan-2026\0\\#p CAM
 -B3LYP TZVP em=gd3bj scrf=(Solvent=TetraHydroFuran,NonEquilibrium=Read
 ) Geom=Check Guess=Read\\Title Card Required\\0,1\O,0,2.799722,-1.5744
 42,0.395856\O,0,-3.441582,-1.651989,-0.391661\N,0,-0.652119,1.523979,-
 0.143079\H,0,-0.970539,2.477498,-0.184051\C,0,-1.24191,-0.766569,-0.18
 7194\C,0,0.676781,1.31157,0.070334\C,0,-1.6183,0.539073,-0.249454\C,0,
 -2.181227,-1.824987,-0.281082\C,0,0.211423,-1.131848,-0.027056\H,0,0.3
 32502,-1.791295,0.835328\H,0,0.547755,-1.708041,-0.893832\C,0,1.145011
 ,0.041026,0.140207\C,0,2.518837,-0.376509,0.366234\C,0,-2.993259,1.075
 469,-0.414582\H,0,-3.00925,1.901245,-1.131229\H,0,-3.702998,0.335582,-
 0.779312\H,0,-3.39156,1.443602,0.534452\C,0,-1.806712,-3.276347,-0.266
 132\H,0,-2.294009,-3.873685,-1.039386\H,0,-0.738483,-3.442173,-0.38990
 9\H,0,-2.069779,-3.734584,0.692168\C,0,3.64863,0.598225,0.572334\H,0,3
 .787557,1.266983,-0.274996\H,0,3.51572,1.212453,1.461607\H,0,4.549299,
 0.001066,0.693741\C,0,1.445142,2.58858,0.197565\H,0,1.936685,2.681649,
 1.162984\H,0,2.202532,2.696637,-0.575741\H,0,0.794131,3.457829,0.10588
 5\\Version=ES64L-G16RevA.03\State=1-A\HF=-633.3154643\RMSD=3.886e-09\D
 ipole=0.4712504,3.1718246,0.019219\Quadrupole=-12.8172841,10.881787,1.
 9354971,2.9257362,-1.5093063,0.5744328\PG=C01 [X(C11H15N1O2)]\\@


 "WOULD YOU TELL ME PLEASE, WHICH WAY I OUGHT TO WALK FROM HERE?"
 "THAT DEPENDS A GREAT DEAL ON WHERE YOU WANT TO GO," SAID THE CAT.
 "I DON'T MUCH CARE WHERE -- ", SAID ALICE.
 "THEN IT DOESN'T MATTER WHICH WAY YOU WALK," SAID THE CAT.

                                      -- LEWIS CARROLL
 Job cpu time:       0 days  0 hours 13 minutes 36.9 seconds.
 Elapsed time:       0 days  0 hours  0 minutes 52.0 seconds.
 File lengths (MBytes):  RWF=    343 Int=      0 D2E=      0 Chk=     67 Scr=      1
 Normal termination of Gaussian 16 at Fri Jan 23 22:46:19 2026.
