 Entering Gaussian System, Link 0=g16
 Input=DDL-S2-cLR-16.gjf
 Output=DDL-S2-cLR-16.log
 Initial command:
 /data/home/wyx/g16/l1.exe "/scr/tmp/wyx/13109/Gau-1700031.inp" -scrdir="/scr/tmp/wyx/13109/"
 Entering Link 1 = /data/home/wyx/g16/l1.exe PID=   1700032.
  
 Copyright (c) 1988,1990,1992,1993,1995,1998,2003,2009,2016,
            Gaussian, Inc.  All Rights Reserved.
  
 This is part of the Gaussian(R) 16 program.  It is based on
 the Gaussian(R) 09 system (copyright 2009, Gaussian, Inc.),
 the Gaussian(R) 03 system (copyright 2003, Gaussian, Inc.),
 the Gaussian(R) 98 system (copyright 1998, Gaussian, Inc.),
 the Gaussian(R) 94 system (copyright 1995, Gaussian, Inc.),
 the Gaussian 92(TM) system (copyright 1992, Gaussian, Inc.),
 the Gaussian 90(TM) system (copyright 1990, Gaussian, Inc.),
 the Gaussian 88(TM) system (copyright 1988, Gaussian, Inc.),
 the Gaussian 86(TM) system (copyright 1986, Carnegie Mellon
 University), and the Gaussian 82(TM) system (copyright 1983,
 Carnegie Mellon University). Gaussian is a federally registered
 trademark of Gaussian, Inc.
  
 This software contains proprietary and confidential information,
 including trade secrets, belonging to Gaussian, Inc.
  
 This software is provided under written license and may be
 used, copied, transmitted, or stored only in accord with that
 written license.
  
 The following legend is applicable only to US Government
 contracts under FAR:
  
                    RESTRICTED RIGHTS LEGEND
  
 Use, reproduction and disclosure by the US Government is
 subject to restrictions as set forth in subparagraphs (a)
 and (c) of the Commercial Computer Software - Restricted
 Rights clause in FAR 52.227-19.
  
 Gaussian, Inc.
 340 Quinnipiac St., Bldg. 40, Wallingford CT 06492
  
  
 ---------------------------------------------------------------
 Warning -- This program may not be used in any manner that
 competes with the business of Gaussian, Inc. or will provide
 assistance to any competitor of Gaussian, Inc.  The licensee
 of this program is prohibited from giving any competitor of
 Gaussian, Inc. access to this program.  By using this program,
 the user acknowledges that Gaussian, Inc. is engaged in the
 business of creating and licensing software in the field of
 computational chemistry and represents and warrants to the
 licensee that it is not a competitor of Gaussian, Inc. and that
 it will not use this program in any manner prohibited above.
 ---------------------------------------------------------------
  

 Cite this work as:
 Gaussian 16, Revision A.03,
 M. J. Frisch, G. W. Trucks, H. B. Schlegel, G. E. Scuseria, 
 M. A. Robb, J. R. Cheeseman, G. Scalmani, V. Barone, 
 G. A. Petersson, H. Nakatsuji, X. Li, M. Caricato, A. V. Marenich, 
 J. Bloino, B. G. Janesko, R. Gomperts, B. Mennucci, H. P. Hratchian, 
 J. V. Ortiz, A. F. Izmaylov, J. L. Sonnenberg, D. Williams-Young, 
 F. Ding, F. Lipparini, F. Egidi, J. Goings, B. Peng, A. Petrone, 
 T. Henderson, D. Ranasinghe, V. G. Zakrzewski, J. Gao, N. Rega, 
 G. Zheng, W. Liang, M. Hada, M. Ehara, K. Toyota, R. Fukuda, 
 J. Hasegawa, M. Ishida, T. Nakajima, Y. Honda, O. Kitao, H. Nakai, 
 T. Vreven, K. Throssell, J. A. Montgomery, Jr., J. E. Peralta, 
 F. Ogliaro, M. J. Bearpark, J. J. Heyd, E. N. Brothers, K. N. Kudin, 
 V. N. Staroverov, T. A. Keith, R. Kobayashi, J. Normand, 
 K. Raghavachari, A. P. Rendell, J. C. Burant, S. S. Iyengar, 
 J. Tomasi, M. Cossi, J. M. Millam, M. Klene, C. Adamo, R. Cammi, 
 J. W. Ochterski, R. L. Martin, K. Morokuma, O. Farkas, 
 J. B. Foresman, and D. J. Fox, Gaussian, Inc., Wallingford CT, 2016.
 
 ******************************************
 Gaussian 16:  ES64L-G16RevA.03 25-Dec-2016
                23-Jan-2026 
 ******************************************
 %nprocshared=16
 Will use up to   16 processors via shared memory.
 %mem=16GB
 %oldchk=DDL-LR-16.chk
 %chk=DDL-S2-cLR-16.chk
 Copying data from "DDL-LR-16.chk" to current chk file "DDL-S2-cLR-16.chk"
 IOpt=  2 FromEx=T IUOpen= 4 IOptOp= 5 NList=   0 IFRang= 0 IUIn= 4 IUOut= 2.
 ----------------------------------------------------------------------
 #p CAM-B3LYP TZVP em=gd3bj td(nstates=6,root=2) scrf=(Solvent=TetraHyd
 roFuran,CorrectedLR,NonEquilibrium=Save) Geom=Check Guess=Read
 ----------------------------------------------------------------------
 1/29=2,30=1,38=1,172=1/1;
 2/12=2,40=1/2;
 3/5=19,7=101,11=9,14=-4,25=1,30=1,70=9002201,71=1,72=20,74=-40,116=-2,124=41/1,2,3,8;
 4/5=1/1;
 5/5=2,38=6,53=20/2;
 8/6=1,10=1,107=2,108=6/1;
 9/8=2,15=1,41=6,42=1,70=2,73=22/14;
 10/5=4,13=10,28=2,74=20/2;
 6/7=2,8=2,9=2,10=2,22=-1/1;
 99/5=1,9=1/99;
 Leave Link    1 at Fri Jan 23 22:14:15 2026, MaxMem=  2147483648 cpu:               0.8 elap:               0.1
 (Enter /data/home/wyx/g16/l101.exe)
 -------------------
 Title Card Required
 -------------------
 Structure from the checkpoint file:  "DDL-S2-cLR-16.chk"
 Charge =  0 Multiplicity = 1
 Z-Matrix found in chk file.
 O,0,2.835925,-1.560951,0.161667
 O,0,-3.415029,-1.619354,0.11864
 N,0,-0.631846,1.509108,-0.392752
 H,0,-0.941148,2.46576,-0.445047
 C,0,-1.235313,-0.757398,-0.22626
 C,0,0.703835,1.294074,-0.119428
 C,0,-1.607796,0.540263,-0.297357
 C,0,-2.224477,-1.827114,-0.083849
 C,0,0.224485,-1.116306,-0.387165
 H,0,0.481138,-1.96843,0.237854
 H,0,0.429148,-1.447151,-1.414001
 C,0,1.152071,0.022822,-0.026381
 C,0,2.512561,-0.39087,0.328886
 C,0,-3.000808,1.082849,-0.278698
 H,0,-3.004853,2.129495,-0.583623
 H,0,-3.653961,0.512986,-0.932748
 H,0,-3.425621,1.01043,0.72226
 C,0,-1.730233,-3.248785,-0.194346
 H,0,-2.585065,-3.91881,-0.231723
 H,0,-1.107685,-3.39076,-1.078323
 H,0,-1.117542,-3.503371,0.673002
 C,0,3.527245,0.547336,0.937308
 H,0,4.041376,1.108011,0.154821
 H,0,3.088462,1.257749,1.633131
 H,0,4.268268,-0.058347,1.453493
 C,0,1.466445,2.57484,0.038198
 H,0,1.484868,2.890303,1.08265
 H,0,2.486921,2.498359,-0.315789
 H,0,0.978629,3.363262,-0.53442
 Recover connectivity data from disk.
 ITRead=  0  0  0  0  0  0  0  0  0  0  0  0  0  0  0  0  0  0  0  0
 ITRead=  0  0  0  0  0  0  0  0  0
 MicOpt= -1 -1 -1 -1 -1 -1 -1 -1 -1 -1 -1 -1 -1 -1 -1 -1 -1 -1 -1 -1
 MicOpt= -1 -1 -1 -1 -1 -1 -1 -1 -1
 NAtoms=     29 NQM=       29 NQMF=       0 NMMI=      0 NMMIF=      0
                NMic=       0 NMicF=      0.
                    Isotopes and Nuclear Properties:
 (Nuclear quadrupole moments (NQMom) in fm**2, nuclear magnetic moments (NMagM)
  in nuclear magnetons)

  Atom         1           2           3           4           5           6           7           8           9          10
 IAtWgt=          16          16          14           1          12          12          12          12          12           1
 AtmWgt=  15.9949146  15.9949146  14.0030740   1.0078250  12.0000000  12.0000000  12.0000000  12.0000000  12.0000000   1.0078250
 NucSpn=           0           0           2           1           0           0           0           0           0           1
 AtZEff=   5.6000000   5.6000000   4.5500000   1.0000000   3.6000000   3.6000000   3.6000000   3.6000000   3.6000000   1.0000000
 NQMom=    0.0000000   0.0000000   2.0440000   0.0000000   0.0000000   0.0000000   0.0000000   0.0000000   0.0000000   0.0000000
 NMagM=    0.0000000   0.0000000   0.4037610   2.7928460   0.0000000   0.0000000   0.0000000   0.0000000   0.0000000   2.7928460
 AtZNuc=   8.0000000   8.0000000   7.0000000   1.0000000   6.0000000   6.0000000   6.0000000   6.0000000   6.0000000   1.0000000

  Atom        11          12          13          14          15          16          17          18          19          20
 IAtWgt=           1          12          12          12           1           1           1          12           1           1
 AtmWgt=   1.0078250  12.0000000  12.0000000  12.0000000   1.0078250   1.0078250   1.0078250  12.0000000   1.0078250   1.0078250
 NucSpn=           1           0           0           0           1           1           1           0           1           1
 AtZEff=   1.0000000   3.6000000   3.6000000   3.6000000   1.0000000   1.0000000   1.0000000   3.6000000   1.0000000   1.0000000
 NQMom=    0.0000000   0.0000000   0.0000000   0.0000000   0.0000000   0.0000000   0.0000000   0.0000000   0.0000000   0.0000000
 NMagM=    2.7928460   0.0000000   0.0000000   0.0000000   2.7928460   2.7928460   2.7928460   0.0000000   2.7928460   2.7928460
 AtZNuc=   1.0000000   6.0000000   6.0000000   6.0000000   1.0000000   1.0000000   1.0000000   6.0000000   1.0000000   1.0000000

  Atom        21          22          23          24          25          26          27          28          29
 IAtWgt=           1          12           1           1           1          12           1           1           1
 AtmWgt=   1.0078250  12.0000000   1.0078250   1.0078250   1.0078250  12.0000000   1.0078250   1.0078250   1.0078250
 NucSpn=           1           0           1           1           1           0           1           1           1
 AtZEff=   1.0000000   3.6000000   1.0000000   1.0000000   1.0000000   3.6000000   1.0000000   1.0000000   1.0000000
 NQMom=    0.0000000   0.0000000   0.0000000   0.0000000   0.0000000   0.0000000   0.0000000   0.0000000   0.0000000
 NMagM=    2.7928460   0.0000000   2.7928460   2.7928460   2.7928460   0.0000000   2.7928460   2.7928460   2.7928460
 AtZNuc=   1.0000000   6.0000000   1.0000000   1.0000000   1.0000000   6.0000000   1.0000000   1.0000000   1.0000000
 Leave Link  101 at Fri Jan 23 22:14:20 2026, MaxMem=  2147483648 cpu:               0.9 elap:               0.1
 (Enter /data/home/wyx/g16/l202.exe)
                          Input orientation:                          
 ---------------------------------------------------------------------
 Center     Atomic      Atomic             Coordinates (Angstroms)
 Number     Number       Type             X           Y           Z
 ---------------------------------------------------------------------
      1          8           0        2.835925   -1.560951    0.161667
      2          8           0       -3.415029   -1.619354    0.118640
      3          7           0       -0.631846    1.509108   -0.392752
      4          1           0       -0.941148    2.465760   -0.445047
      5          6           0       -1.235313   -0.757398   -0.226260
      6          6           0        0.703835    1.294074   -0.119428
      7          6           0       -1.607796    0.540263   -0.297357
      8          6           0       -2.224477   -1.827114   -0.083849
      9          6           0        0.224485   -1.116306   -0.387165
     10          1           0        0.481138   -1.968430    0.237854
     11          1           0        0.429148   -1.447151   -1.414001
     12          6           0        1.152071    0.022822   -0.026381
     13          6           0        2.512561   -0.390870    0.328886
     14          6           0       -3.000808    1.082849   -0.278698
     15          1           0       -3.004853    2.129495   -0.583623
     16          1           0       -3.653961    0.512986   -0.932748
     17          1           0       -3.425621    1.010430    0.722260
     18          6           0       -1.730233   -3.248785   -0.194346
     19          1           0       -2.585065   -3.918810   -0.231723
     20          1           0       -1.107685   -3.390760   -1.078323
     21          1           0       -1.117542   -3.503371    0.673002
     22          6           0        3.527245    0.547336    0.937308
     23          1           0        4.041376    1.108011    0.154821
     24          1           0        3.088462    1.257749    1.633131
     25          1           0        4.268268   -0.058347    1.453493
     26          6           0        1.466445    2.574840    0.038198
     27          1           0        1.484868    2.890303    1.082650
     28          1           0        2.486921    2.498359   -0.315789
     29          1           0        0.978629    3.363262   -0.534420
 ---------------------------------------------------------------------
                    Distance matrix (angstroms):
                    1          2          3          4          5
     1  O    0.000000
     2  O    6.251375   0.000000
     3  N    4.664556   4.218401   0.000000
     4  H    5.554168   4.808949   1.006770   0.000000
     5  C    4.167873   2.369195   2.351370   3.243940   0.000000
     6  C    3.574352   5.050721   1.380214   2.045689   2.824933
     7  C    4.936847   2.846593   1.378492   2.042981   1.351933
     8  C    5.073341   1.225390   3.709754   4.495127   1.463905
     9  C    2.705281   3.708768   2.761545   3.767393   1.511858
    10  H    2.390997   3.913590   3.705357   4.706516   2.151326
    11  H    2.878933   4.142021   3.302745   4.257635   2.157989
    12  C    2.319281   4.855530   2.350667   3.244194   2.519583
    13  C    1.225404   6.057202   3.744058   4.548342   3.806454
    14  C    6.422698   2.762491   2.409707   2.486426   2.550732
    15  H    6.949067   3.836051   2.460178   2.095508   3.404869
    16  H    6.900549   2.389431   3.227543   3.377948   2.821854
    17  H    6.792144   2.698191   3.049116   3.106959   2.970245
    18  C    4.881120   2.364644   4.887061   5.774213   2.540270
    19  H    5.924642   2.469634   5.770900   6.596264   3.437497
    20  H    4.520822   3.145542   4.970426   5.893013   2.770721
    21  H    4.434452   3.022463   5.147492   6.075498   2.891870
    22  C    2.350408   7.318465   4.471253   5.055471   5.073281
    23  H    2.928569   7.939635   4.722258   5.198930   5.609672
    24  H    3.189679   7.270956   4.243592   4.692107   5.119881
    25  H    2.445044   7.953089   5.465954   6.092092   5.796520
    26  C    4.358381   6.436344   2.392557   2.458033   4.298051
    27  H    4.742070   6.728693   2.926600   2.898215   4.734802
    28  H    4.102166   7.209529   3.272804   3.430660   4.946008
    29  H    5.308668   6.675116   2.459997   2.121094   4.687893
                    6          7          8          9         10
     6  C    0.000000
     7  C    2.437935   0.000000
     8  C    4.279964   2.455678   0.000000
     9  C    2.472123   2.471748   2.568008   0.000000
    10  H    3.289556   3.308117   2.728336   1.087490   0.000000
    11  H    3.043959   3.057098   2.992558   1.098061   1.732934
    12  C    1.351168   2.821000   3.850538   1.512678   2.117795
    13  C    2.512272   4.270425   4.967160   2.504851   2.573648
    14  C    3.714076   1.495069   3.018036   3.905197   4.658442
    15  H    3.829853   2.135269   4.063683   4.582842   5.442421
    16  H    4.501330   2.142722   2.870561   4.242004   4.962537
    17  H    4.223896   2.136624   3.184998   4.367734   4.936702
    18  C    5.154403   3.792425   1.509184   2.899236   2.591576
    19  H    6.164709   4.565380   2.127694   3.971368   3.664162
    20  H    5.113585   4.038931   2.163606   2.724980   2.505934
    21  H    5.192383   4.187233   2.146617   2.936506   2.258578
    22  C    3.105793   5.281391   6.305797   3.928124   4.012117
    23  H    3.353955   5.695608   6.923354   4.450842   4.706026
    24  H    2.959599   5.128002   6.379006   4.233214   4.376433
    25  H    4.124113   6.160514   6.902731   4.567218   4.412318
    26  C    1.498927   3.701764   5.745868   3.917647   4.653170
    27  H    2.145449   4.122096   6.113426   4.449926   5.032737
    28  H    2.160615   4.538853   6.400061   4.264917   4.927666
    29  H    2.128208   3.836029   6.115791   4.544991   5.410254
                   11         12         13         14         15
    11  H    0.000000
    12  C    2.146841   0.000000
    13  C    2.914446   1.465704   0.000000
    14  C    4.410715   4.293451   5.739185   0.000000
    15  H    5.027354   4.693464   6.134066   1.090167   0.000000
    16  H    4.554725   4.915252   6.358826   1.085879   1.776607
    17  H    5.046044   4.742478   6.113950   1.089783   1.770503
    18  C    3.065350   4.363405   5.142252   4.514923   5.540947
    19  H    4.073372   5.435514   6.224663   5.019128   6.073059
    20  H    2.500430   4.226774   4.907724   4.923057   5.858088
    21  H    3.312985   4.251390   4.794135   5.048350   6.072086
    22  C    4.370908   2.616345   1.509964   6.661901   6.890919
    23  H    4.694491   3.091691   2.148073   7.055560   7.158077
    24  H    4.865537   2.833485   2.179601   6.384739   6.542356
    25  H    4.989002   3.450695   2.111355   7.559251   7.863510
    26  C    4.400145   2.572119   3.158211   4.720467   4.536243
    27  H    5.114814   3.092434   3.520001   5.024087   4.849009
    28  H    4.583399   2.827342   2.960390   5.667470   5.510660
    29  H    4.920942   3.383301   4.146294   4.593647   4.170459
                   16         17         18         19         20
    16  H    0.000000
    17  H    1.743170   0.000000
    18  C    4.289159   4.674978   0.000000
    19  H    4.612460   5.090582   1.086770   0.000000
    20  H    4.663040   5.290123   1.090476   1.782756   0.000000
    21  H    5.014277   5.069917   1.092015   1.773342   1.754969
    22  C    7.420782   6.971589   6.582724   7.659858   6.407335
    23  H    7.794554   7.489162   7.239825   8.326348   6.947835
    24  H    7.252494   6.582107   6.846046   7.903376   6.824095
    25  H    8.293508   7.802110   6.991157   8.044333   6.812924
    26  C    5.604689   5.181470   6.647363   7.658661   6.592507
    27  H    6.010077   5.270361   7.046701   8.040892   7.130420
    28  H    6.483269   6.184629   7.129432   8.179986   6.941496
    29  H    5.453772   5.149027   7.153513   8.112960   7.089806
                   21         22         23         24         25
    21  H    0.000000
    22  C    6.168641   0.000000
    23  H    6.938861   1.091317   0.000000
    24  H    6.424997   1.086916   1.765182   0.000000
    25  H    6.440831   1.087389   1.760233   1.776604   0.000000
    26  C    6.635105   3.027551   2.965714   2.628589   4.097188
    27  H    6.915158   3.111579   3.251640   2.353673   4.071778
    28  H    7.070405   2.541460   2.137960   2.387311   3.583337
    29  H    7.280278   4.073189   3.865440   3.685493   5.145963
                   26         27         28         29
    26  C    0.000000
    27  H    1.091209   0.000000
    28  H    1.082833   1.764472   0.000000
    29  H    1.089709   1.759228   1.752370   0.000000
 Stoichiometry    C11H15NO2
 Framework group  C1[X(C11H15NO2)]
 Deg. of freedom    81
 Full point group                 C1      NOp   1
 RotChk:  IX=0 Diff= 1.03D-15
 Largest Abelian subgroup         C1      NOp   1
 Largest concise Abelian subgroup C1      NOp   1
                         Standard orientation:                         
 ---------------------------------------------------------------------
 Center     Atomic      Atomic             Coordinates (Angstroms)
 Number     Number       Type             X           Y           Z
 ---------------------------------------------------------------------
      1          8           0        2.288218   -2.276543   -0.181993
      2          8           0       -3.587161   -0.244219    0.473193
      3          7           0        0.026432    1.802057   -0.268162
      4          1           0        0.055308    2.808391   -0.261635
      5          6           0       -1.288722   -0.139131   -0.091803
      6          6           0        1.230534    1.137598   -0.151448
      7          6           0       -1.205503    1.210234   -0.088377
      8          6           0       -2.562577   -0.824320    0.133650
      9          6           0       -0.059177   -0.953762   -0.423932
     10          1           0       -0.046475   -1.879248    0.146989
     11          1           0       -0.079003   -1.270431   -1.475153
     12          6           0        1.229284   -0.213528   -0.140885
     13          6           0        2.397379   -1.078164    0.049499
     14          6           0       -2.324210    2.184095    0.099555
     15          1           0       -2.003644    3.188751   -0.176791
     16          1           0       -3.191714    1.905829   -0.491325
     17          1           0       -2.649333    2.196388    1.139638
     18          6           0       -2.591352   -2.319843   -0.066891
     19          1           0       -3.621737   -2.662814   -0.025097
     20          1           0       -2.142287   -2.606932   -1.018237
     21          1           0       -2.019826   -2.816749    0.719836
     22          6           0        3.723436   -0.571149    0.563793
     23          1           0        4.318444   -0.167263   -0.257069
     24          1           0        3.620364    0.200935    1.321849
     25          1           0        4.262333   -1.419665    0.978553
     26          6           0        2.392762    2.078531   -0.048227
     27          1           0        2.617923    2.305253    0.995150
     28          1           0        3.287845    1.687921   -0.515965
     29          1           0        2.147210    3.017971   -0.542818
 ---------------------------------------------------------------------
 Rotational constants (GHZ):           1.0782823           0.4906712           0.3474065
 Leave Link  202 at Fri Jan 23 22:14:20 2026, MaxMem=  2147483648 cpu:               0.0 elap:               0.0
 (Enter /data/home/wyx/g16/l301.exe)
 Standard basis: TZVP (5D, 7F)
 Ernie: Thresh=  0.10000D-02 Tol=  0.10000D-05 Strict=F.
 There are   370 symmetry adapted cartesian basis functions of A   symmetry.
 There are   356 symmetry adapted basis functions of A   symmetry.
   356 basis functions,   610 primitive gaussians,   370 cartesian basis functions
    52 alpha electrons       52 beta electrons
       nuclear repulsion energy       900.7283840088 Hartrees.
 IExCor=20419 DFT=T Ex+Corr=CAM-B3LYP ExCW=0 ScaHFX=  1.000000
 ScaDFX=  1.000000  1.000000  1.000000  0.810000 ScalE2=  1.000000  1.000000
 IRadAn=      5 IRanWt=     -1 IRanGd=            0 ICorTp=0 IEmpDi=141
 HFx  wShort=  0.000000 wLong=  0.330000 cFull=  0.190000 cShort=  0.000000 cLong=  0.460000
 DFx  wShort=  0.000000 wLong=  0.330000 cFull=  0.190000 cShort=  0.000000 cLong=  0.460000
 NAtoms=   29 NActive=   29 NUniq=   29 SFac= 1.00D+00 NAtFMM=   60 NAOKFM=F Big=F
 Integral buffers will be    131072 words long.
 Raffenetti 1 integral format.
 Two-electron integral symmetry is turned on.
 R6Disp:  Grimme-D3(BJ) Dispersion energy=       -0.0262127044 Hartrees.
 Nuclear repulsion after empirical dispersion term =      900.7021713043 Hartrees.
 ------------------------------------------------------------------------------
 Polarizable Continuum Model (PCM)
 =================================
 Model                : PCM.
 Atomic radii         : UFF (Universal Force Field).
 Polarization charges : Total charges.
 Charge compensation  : None.
 Solution method      : On-the-fly selection.
 Cavity type          : Scaled VdW (van der Waals Surface) (Alpha=1.100).
 Cavity algorithm     : GePol (No added spheres)
                        Default sphere list used, NSphG=   29.
                        Lebedev-Laikov grids with approx.  5.0 points / Ang**2.
                        Smoothing algorithm: York/Karplus (Gamma=1.0000).
                        Polarization charges: spherical gaussians, with
                                              point-specific exponents (IZeta= 3).
                        Self-potential: point-specific (ISelfS= 7).
                        Self-field    : sphere-specific E.n sum rule (ISelfD= 2).
 1st derivatives      : Analytical E(r).r(x)/FMM algorithm (CHGder, D1EAlg=3).
                        Cavity 1st derivative terms included.
 Solvent              : TetraHydroFuran, Eps=   7.425700 Eps(inf)=   1.974025
 ------------------------------------------------------------------------------
 GePol: Number of generator spheres                  =      29
 GePol: Total number of spheres                      =      29
 GePol: Number of exposed spheres                    =      29 (100.00%)
 GePol: Number of points                             =    2087
 GePol: Average weight of points                     =       0.13
 GePol: Minimum weight of points                     =   0.28D-10
 GePol: Maximum weight of points                     =    0.20577
 GePol: Number of points with low weight             =     143
 GePol: Fraction of low-weight points (<1% of avg)   =       6.85%
 GePol: Cavity surface area                          =    268.837 Ang**2
 GePol: Cavity volume                                =    286.879 Ang**3
 Leave Link  301 at Fri Jan 23 22:14:21 2026, MaxMem=  2147483648 cpu:               0.6 elap:               0.0
 (Enter /data/home/wyx/g16/l302.exe)
 NPDir=0 NMtPBC=     1 NCelOv=     1 NCel=       1 NClECP=     1 NCelD=      1
         NCelK=      1 NCelE2=     1 NClLst=     1 CellRange=     0.0.
 One-electron integrals computed using PRISM.
 One-electron integral symmetry used in STVInt
 NBasis=   356 RedAO= T EigKep=  4.74D-05  NBF=   356
 NBsUse=   356 1.00D-06 EigRej= -1.00D+00 NBFU=   356
 Precomputing XC quadrature grid using
 IXCGrd= 4 IRadAn=           5 IRanWt=          -1 IRanGd=           0 AccXCQ= 0.00D+00.
 Generated NRdTot=       0 NPtTot=           0 NUsed=           0 NTot=          32
 NSgBfM=   366   366   366   366   366 MxSgAt=    29 MxSgA2=    29.
 Leave Link  302 at Fri Jan 23 22:14:21 2026, MaxMem=  2147483648 cpu:               3.1 elap:               0.2
 (Enter /data/home/wyx/g16/l303.exe)
 DipDrv:  MaxL=1.
 Leave Link  303 at Fri Jan 23 22:14:21 2026, MaxMem=  2147483648 cpu:               0.6 elap:               0.0
 (Enter /data/home/wyx/g16/l308.exe)
 Leave Link  308 at Fri Jan 23 22:14:21 2026, MaxMem=  2147483648 cpu:               0.7 elap:               0.1
 (Enter /data/home/wyx/g16/l401.exe)
 Initial guess from the checkpoint file:  "DDL-S2-cLR-16.chk"
 B after Tr=    -0.000000   -0.000000    0.000000
         Rot=    1.000000    0.000000   -0.000000   -0.000000 Ang=   0.00 deg.
 Guess basis will be translated and rotated to current coordinates.
 JPrj=2 DoOrth=T DoCkMO=T.
 Leave Link  401 at Fri Jan 23 22:14:22 2026, MaxMem=  2147483648 cpu:               2.2 elap:               0.2
 (Enter /data/home/wyx/g16/l502.exe)
 Integral symmetry usage will be decided dynamically.
 Closed shell SCF:
 Using DIIS extrapolation, IDIIS=  1040.
 NGot=  2147483648 LenX=  2147200095 LenY=  2147062754
 Requested convergence on RMS density matrix=1.00D-08 within 128 cycles.
 Requested convergence on MAX density matrix=1.00D-06.
 Requested convergence on             energy=1.00D-06.
 No special actions if energy rises.
 Fock matrices will be formed incrementally for  20 cycles.

 Cycle   1  Pass 1  IDiag  1:
 FoFJK:  IHMeth= 1 ICntrl=       0 DoSepK=T KAlg= 0 I1Cent=           0 FoldK=F
 IRaf=         1 NMat=       1 IRICut=       1 DoRegI=T DoRafI=F ISym2E= 0 IDoP0=0 IntGTp=1.
 FoFCou: FMM=F IPFlag=           0 FMFlag=      100000 FMFlg1=           0
         NFxFlg=           0 DoJE=T BraDBF=F KetDBF=F FulRan=T
         wScrn=  0.000000 ICntrl=       500 IOpCl=  0 I1Cent=           0 NGrid=           0
         NMat0=    1 NMatS0=      1 NMatT0=    0 NMatD0=    1 NMtDS0=    0 NMtDT0=    0
 Symmetry not used in FoFCou.
 Inv3:  Mode=1 IEnd=    13066707.
 Iteration    1 A*A^-1 deviation from unit magnitude is 2.89D-15 for    493.
 Iteration    1 A*A^-1 deviation from orthogonality  is 1.71D-15 for   2009    577.
 Iteration    1 A^-1*A deviation from unit magnitude is 2.66D-15 for    493.
 Iteration    1 A^-1*A deviation from orthogonality  is 1.75D-15 for   1492    553.
 E= -633.328952766746    
 DIIS: error= 1.54D-08 at cycle   1 NSaved=   1.
 NSaved= 1 IEnMin= 1 EnMin= -633.328952766746     IErMin= 1 ErrMin= 1.54D-08
 ErrMax= 1.54D-08  0.00D+00 EMaxC= 1.00D-01 BMatC= 6.52D-14 BMatP= 6.52D-14
 IDIUse=1 WtCom= 1.00D+00 WtEn= 0.00D+00
 Coeff-Com:  0.100D+01
 Coeff:      0.100D+01
 Gap=     0.241 Goal=   None    Shift=    0.000
 RMSDP=2.81D-09 MaxDP=8.14D-08              OVMax= 3.49D-07

 Error on total polarization charges =  0.01420
 SCF Done:  E(RCAM-B3LYP) =  -633.328952767     A.U. after    1 cycles
            NFock=  1  Conv=0.28D-08     -V/T= 2.0042
 KE= 6.307042775156D+02 PE=-3.277490870816D+03 EE= 1.112755469229D+03
 Leave Link  502 at Fri Jan 23 22:14:27 2026, MaxMem=  2147483648 cpu:              85.7 elap:               5.6
 (Enter /data/home/wyx/g16/l801.exe)
 DoSCS=F DFT=T ScalE2(SS,OS)=  1.000000  1.000000
 ExpMin= 9.52D-02 ExpMax= 2.70D+04 ExpMxC= 9.22D+02 IAcc=3 IRadAn=         5 AccDes= 0.00D+00
 HarFok:  IExCor=  205 AccDes= 0.00D+00 IRadAn=         5 IDoV=-2 UseB2=F ITyADJ=14
 ICtDFT= 12500011 ScaDFX=  1.000000  1.000000  1.000000  1.000000
 Largest valence mixing into a core orbital is  5.65D-05
 Largest core mixing into a valence orbital is  1.21D-05
 Range of M.O.s used for correlation:    15   356
 NBasis=   356 NAE=    52 NBE=    52 NFC=    14 NFV=     0
 NROrb=    342 NOA=    38 NOB=    38 NVA=   304 NVB=   304

 **** Warning!!: The largest alpha MO coefficient is  0.49905876D+02

 Leave Link  801 at Fri Jan 23 22:14:28 2026, MaxMem=  2147483648 cpu:               1.0 elap:               0.1
 (Enter /data/home/wyx/g16/l914.exe)
 RHF ground state
 Two-electron integrals replicated using symmetry.
 MDV=  2147483648 DFT=T DoStab=F Mixed=T DoRPA=T DoScal=F NonHer=T
 NEqPCM:  Using equilibrium solvation (IEInf=0, Eps=   7.4257, EpsInf=   1.9740)
 Making orbital integer symmetry assigments:
 Orbital symmetries:
       Occupied  (A) (A) (A) (A) (A) (A) (A) (A) (A) (A) (A) (A)
                 (A) (A) (A) (A) (A) (A) (A) (A) (A) (A) (A) (A)
                 (A) (A) (A) (A) (A) (A) (A) (A) (A) (A) (A) (A)
                 (A) (A) (A) (A) (A) (A) (A) (A) (A) (A) (A) (A)
                 (A) (A) (A) (A)
       Virtual   (A) (A) (A) (A) (A) (A) (A) (A) (A) (A) (A) (A)
                 (A) (A) (A) (A) (A) (A) (A) (A) (A) (A) (A) (A)
                 (A) (A) (A) (A) (A) (A) (A) (A) (A) (A) (A) (A)
                 (A) (A) (A) (A) (A) (A) (A) (A) (A) (A) (A) (A)
                 (A) (A) (A) (A) (A) (A) (A) (A) (A) (A) (A) (A)
                 (A) (A) (A) (A) (A) (A) (A) (A) (A) (A) (A) (A)
                 (A) (A) (A) (A) (A) (A) (A) (A) (A) (A) (A) (A)
                 (A) (A) (A) (A) (A) (A) (A) (A) (A) (A) (A) (A)
                 (A) (A) (A) (A) (A) (A) (A) (A) (A) (A) (A) (A)
                 (A) (A) (A) (A) (A) (A) (A) (A) (A) (A) (A) (A)
                 (A) (A) (A) (A) (A) (A) (A) (A) (A) (A) (A) (A)
                 (A) (A) (A) (A) (A) (A) (A) (A) (A) (A) (A) (A)
                 (A) (A) (A) (A) (A) (A) (A) (A) (A) (A) (A) (A)
                 (A) (A) (A) (A) (A) (A) (A) (A) (A) (A) (A) (A)
                 (A) (A) (A) (A) (A) (A) (A) (A) (A) (A) (A) (A)
                 (A) (A) (A) (A) (A) (A) (A) (A) (A) (A) (A) (A)
                 (A) (A) (A) (A) (A) (A) (A) (A) (A) (A) (A) (A)
                 (A) (A) (A) (A) (A) (A) (A) (A) (A) (A) (A) (A)
                 (A) (A) (A) (A) (A) (A) (A) (A) (A) (A) (A) (A)
                 (A) (A) (A) (A) (A) (A) (A) (A) (A) (A) (A) (A)
                 (A) (A) (A) (A) (A) (A) (A) (A) (A) (A) (A) (A)
                 (A) (A) (A) (A) (A) (A) (A) (A) (A) (A) (A) (A)
                 (A) (A) (A) (A) (A) (A) (A) (A) (A) (A) (A) (A)
                 (A) (A) (A) (A) (A) (A) (A) (A) (A) (A) (A) (A)
                 (A) (A) (A) (A) (A) (A) (A) (A) (A) (A) (A) (A)
                 (A) (A) (A) (A)
 PCM Corrected Linear-Response:
 Compute the excitation energies in the ground state reaction field.
    24 initial guesses have been made.
 Convergence on wavefunction:    0.000001000000000
 Davidson Disk Diagonalization:  ConvIn= 1.00D-06 SkipCon=T Conv= 1.00D-06.
 Max sub-space:  2000 roots to seek:    24 dimension of matrix:        23104
 Iteration     1 Dimension    24 NMult     0 NNew     24
 CISAX will form    24 AO SS matrices at one time.
 NMat=    24 NSing=    24 JSym2X= 0.
 FoFJK:  IHMeth= 1 ICntrl=       0 DoSepK=T KAlg= 0 I1Cent=           0 FoldK=F
 IRaf=         1 NMat=      48 IRICut=       1 DoRegI=T DoRafI=F ISym2E= 0 IDoP0=3 IntGTp=3.
 FoFCou: FMM=F IPFlag=           0 FMFlag=      100000 FMFlg1=           0
         NFxFlg=           0 DoJE=F BraDBF=F KetDBF=F FulRan=T
         wScrn=  0.000000 ICntrl=       500 IOpCl=  0 I1Cent=           0 NGrid=           0
         NMat0=   24 NMatS0=     24 NMatT0=    0 NMatD0=   24 NMtDS0=    0 NMtDT0=    0
 Symmetry not used in FoFCou.
 New state      2 was old state      3
 New state      3 was old state      4
 New state      4 was old state      2
 New state      5 was old state      6
 New state      6 was old state      5
 Excitation Energies [eV] at current iteration:
 Root      1 :     4.099064714858544
 Root      2 :     4.369179173690589
 Root      3 :     4.542533236306074
 Root      4 :     5.603919962758418
 Root      5 :     6.255292825715562
 Root      6 :     6.603113556991804
 Root      7 :     6.782457985829989
 Root      8 :     6.859912466383172
 Root      9 :     7.036923399605609
 Root     10 :     7.114374904590322
 Root     11 :     7.299193411536435
 Root     12 :     7.488325375716593
 Root     13 :     7.637842955022099
 Root     14 :     7.705127860000198
 Root     15 :     7.790824162299098
 Root     16 :     8.100191640001441
 Root     17 :     8.147433075240983
 Root     18 :     8.275963254148627
 Root     19 :     8.327964125506776
 Root     20 :     8.603845213931322
 Root     21 :     8.738280598808458
 Root     22 :     9.056951925593753
 Root     23 :     9.127689296331727
 Root     24 :     9.194911116516030
 Iteration     2 Dimension    36 NMult    24 NNew     12
 CISAX will form    12 AO SS matrices at one time.
 NMat=    12 NSing=    12 JSym2X= 0.
 Root      1 not converged, maximum delta is    0.082101598102271
 Root      2 not converged, maximum delta is    0.083189557780669
 Root      3 not converged, maximum delta is    0.090492783291978
 Root      4 not converged, maximum delta is    0.218434922310512
 New state      5 was old state      6
 Root      5 not converged, maximum delta is    0.230781977079419
 New state      6 was old state      5
 Root      6 not converged, maximum delta is    0.137743739277686
 Excitation Energies [eV] at current iteration:
 Root      1 :     3.650869966316142   Change is   -0.448194748542401
 Root      2 :     4.119391792552515   Change is   -0.249787381138073
 Root      3 :     4.263350989010007   Change is   -0.279182247296066
 Root      4 :     5.281633790387104   Change is   -0.322286172371313
 Root      5 :     5.775770886246164   Change is   -0.827342670745640
 Root      6 :     6.125028387010363   Change is   -0.130264438705199
 Iteration     3 Dimension    48 NMult    36 NNew     12
 CISAX will form    12 AO SS matrices at one time.
 NMat=    12 NSing=    12 JSym2X= 0.
 Root      1 not converged, maximum delta is    0.010473571469430
 Root      2 not converged, maximum delta is    0.012883114924169
 Root      3 not converged, maximum delta is    0.013698536130202
 Root      4 not converged, maximum delta is    0.025280605958409
 Root      5 not converged, maximum delta is    0.026026257250830
 Root      6 not converged, maximum delta is    0.018815108930844
 Excitation Energies [eV] at current iteration:
 Root      1 :     3.630751075939307   Change is   -0.020118890376836
 Root      2 :     4.105383500919974   Change is   -0.014008291632542
 Root      3 :     4.248655605400677   Change is   -0.014695383609331
 Root      4 :     5.258974419864614   Change is   -0.022659370522490
 Root      5 :     5.734659828437666   Change is   -0.041111057808498
 Root      6 :     6.114023947724718   Change is   -0.011004439285645
 Iteration     4 Dimension    60 NMult    48 NNew     12
 CISAX will form    12 AO SS matrices at one time.
 NMat=    12 NSing=    12 JSym2X= 0.
 Root      1 not converged, maximum delta is    0.002401013855422
 Root      2 not converged, maximum delta is    0.001876388447069
 Root      3 not converged, maximum delta is    0.002113436704801
 Root      4 not converged, maximum delta is    0.002284954588674
 Root      5 not converged, maximum delta is    0.005010620390197
 Root      6 not converged, maximum delta is    0.003651669639234
 Excitation Energies [eV] at current iteration:
 Root      1 :     3.629040897465032   Change is   -0.001710178474275
 Root      2 :     4.104559322323041   Change is   -0.000824178596933
 Root      3 :     4.247817849621421   Change is   -0.000837755779256
 Root      4 :     5.257052498414021   Change is   -0.001921921450594
 Root      5 :     5.730837950664665   Change is   -0.003821877773001
 Root      6 :     6.113189916443346   Change is   -0.000834031281372
 Iteration     5 Dimension    72 NMult    60 NNew     12
 CISAX will form    12 AO SS matrices at one time.
 NMat=    12 NSing=    12 JSym2X= 0.
 Root      1 not converged, maximum delta is    0.000718829246118
 Root      2 not converged, maximum delta is    0.000285477821292
 Root      3 not converged, maximum delta is    0.000534783958960
 Root      4 not converged, maximum delta is    0.001176368789170
 Root      5 not converged, maximum delta is    0.001176105537770
 Root      6 not converged, maximum delta is    0.001065283221908
 Excitation Energies [eV] at current iteration:
 Root      1 :     3.628932423767060   Change is   -0.000108473697972
 Root      2 :     4.104511775492427   Change is   -0.000047546830614
 Root      3 :     4.247765875212701   Change is   -0.000051974408720
 Root      4 :     5.256898931881897   Change is   -0.000153566532124
 Root      5 :     5.730488843048049   Change is   -0.000349107616616
 Root      6 :     6.113115229347313   Change is   -0.000074687096033
 Iteration     6 Dimension    84 NMult    72 NNew     12
 CISAX will form    12 AO SS matrices at one time.
 NMat=    12 NSing=    12 JSym2X= 0.
 Root      1 not converged, maximum delta is    0.000196044777286
 Root      2 not converged, maximum delta is    0.000080817797668
 Root      3 not converged, maximum delta is    0.000137752192697
 Root      4 not converged, maximum delta is    0.000616748279373
 Root      5 not converged, maximum delta is    0.000337998519594
 Root      6 not converged, maximum delta is    0.000250093769775
 Excitation Energies [eV] at current iteration:
 Root      1 :     3.628925254463334   Change is   -0.000007169303726
 Root      2 :     4.104508466367053   Change is   -0.000003309125374
 Root      3 :     4.247762649621449   Change is   -0.000003225591252
 Root      4 :     5.256884195246475   Change is   -0.000014736635421
 Root      5 :     5.730461791422472   Change is   -0.000027051625577
 Root      6 :     6.113108911446508   Change is   -0.000006317900805
 Iteration     7 Dimension    96 NMult    84 NNew     12
 CISAX will form    12 AO SS matrices at one time.
 NMat=    12 NSing=    12 JSym2X= 0.
 Root      1 not converged, maximum delta is    0.000021391414496
 Root      2 not converged, maximum delta is    0.000013701966656
 Root      3 not converged, maximum delta is    0.000033364614702
 Root      4 not converged, maximum delta is    0.000180270082439
 Root      5 not converged, maximum delta is    0.000135226250183
 Root      6 not converged, maximum delta is    0.000129677886874
 Excitation Energies [eV] at current iteration:
 Root      1 :     3.628924892196984   Change is   -0.000000362266350
 Root      2 :     4.104508303866670   Change is   -0.000000162500383
 Root      3 :     4.247762461320008   Change is   -0.000000188301441
 Root      4 :     5.256882708716529   Change is   -0.000001486529947
 Root      5 :     5.730459492972152   Change is   -0.000002298450320
 Root      6 :     6.113108248845635   Change is   -0.000000662600873
 Iteration     8 Dimension   108 NMult    96 NNew     12
 CISAX will form    12 AO SS matrices at one time.
 NMat=    12 NSing=    12 JSym2X= 0.
 Root      1 not converged, maximum delta is    0.000003921678739
 Root      2 not converged, maximum delta is    0.000003472454271
 Root      3 not converged, maximum delta is    0.000003978576887
 Root      4 not converged, maximum delta is    0.000030175760498
 Root      5 not converged, maximum delta is    0.000023728227939
 Root      6 not converged, maximum delta is    0.000034510417612
 Excitation Energies [eV] at current iteration:
 Root      1 :     3.628924879495739   Change is   -0.000000012701245
 Root      2 :     4.104508292965289   Change is   -0.000000010901382
 Root      3 :     4.247762451557397   Change is   -0.000000009762612
 Root      4 :     5.256882591412855   Change is   -0.000000117303674
 Root      5 :     5.730459332754458   Change is   -0.000000160217694
 Root      6 :     6.113108185541294   Change is   -0.000000063304342
 Iteration     9 Dimension   120 NMult   108 NNew     12
 CISAX will form    12 AO SS matrices at one time.
 NMat=    12 NSing=    12 JSym2X= 0.
 Root      1 has converged.
 Root      2 has converged.
 Root      3 has converged.
 Root      4 not converged, maximum delta is    0.000003238655290
 Root      5 not converged, maximum delta is    0.000002960839890
 Root      6 not converged, maximum delta is    0.000004975151602
 Excitation Energies [eV] at current iteration:
 Root      1 :     3.628924879016507   Change is   -0.000000000479232
 Root      2 :     4.104508292554802   Change is   -0.000000000410486
 Root      3 :     4.247762451200119   Change is   -0.000000000357278
 Root      4 :     5.256882586374925   Change is   -0.000000005037931
 Root      5 :     5.730459325173509   Change is   -0.000000007580948
 Root      6 :     6.113108181417516   Change is   -0.000000004123777
 Iteration    10 Dimension   126 NMult   120 NNew      6
 CISAX will form     6 AO SS matrices at one time.
 NMat=     6 NSing=     6 JSym2X= 0.
 Root      1 has converged.
 Root      2 has converged.
 Root      3 has converged.
 Root      4 has converged.
 Root      5 has converged.
 Root      6 not converged, maximum delta is    0.000001168993566
 Excitation Energies [eV] at current iteration:
 Root      1 :     3.628924879011704   Change is   -0.000000000004803
 Root      2 :     4.104508292551758   Change is   -0.000000000003044
 Root      3 :     4.247762451195822   Change is   -0.000000000004297
 Root      4 :     5.256882586140541   Change is   -0.000000000234383
 Root      5 :     5.730459324765029   Change is   -0.000000000408480
 Root      6 :     6.113108181168518   Change is   -0.000000000248999
 Iteration    11 Dimension   128 NMult   126 NNew      2
 CISAX will form     2 AO SS matrices at one time.
 NMat=     2 NSing=     2 JSym2X= 0.
 Root      1 has converged.
 Root      2 has converged.
 Root      3 has converged.
 Root      4 has converged.
 Root      5 has converged.
 Root      6 has converged.
 Excitation Energies [eV] at current iteration:
 Root      1 :     3.628924879011795   Change is    0.000000000000091
 Root      2 :     4.104508292551758   Change is    0.000000000000000
 Root      3 :     4.247762451195667   Change is   -0.000000000000155
 Root      4 :     5.256882586139150   Change is   -0.000000000001392
 Root      5 :     5.730459324764240   Change is   -0.000000000000789
 Root      6 :     6.113108181151170   Change is   -0.000000000017348
 Convergence achieved on expansion vectors.
 PCM Corrected Linear-Response:
 The state of interest is root number   2
 Excitation energy =    4.1045 eV, Total energy =  -633.178114862    
 Recompute the excitation energies using the linear response reaction field.
 Convergence on wavefunction:    0.000001000000000
 Davidson Disk Diagonalization:  ConvIn= 1.00D-06 SkipCon=T Conv= 1.00D-06.
 Max sub-space:  2000 roots to seek:     6 dimension of matrix:        23104
 Iteration     1 Dimension     6 NMult     0 NNew      6
 CISAX will form     6 AO SS matrices at one time.
 NMat=     6 NSing=     6 JSym2X= 0.
 Excitation Energies [eV] at current iteration:
 Root      1 :     3.717507239191270
 Root      2 :     4.133725426468795
 Root      3 :     4.275488204128700
 Root      4 :     5.332546127256760
 Root      5 :     5.891004723583835
 Root      6 :     6.091535762730093
 Iteration     2 Dimension    18 NMult     6 NNew     12
 CISAX will form    12 AO SS matrices at one time.
 NMat=    12 NSing=    12 JSym2X= 0.
 Root      1 not converged, maximum delta is    0.026881453289058
 Root      2 not converged, maximum delta is    0.035917147131547
 Root      3 not converged, maximum delta is    0.008160345329722
 Root      4 not converged, maximum delta is    0.209349428570035
 Root      5 not converged, maximum delta is    0.246314223000342
 Root      6 not converged, maximum delta is    0.079957078522254
 Excitation Energies [eV] at current iteration:
 Root      1 :     3.516766887484349   Change is   -0.200740351706921
 Root      2 :     4.098622866740813   Change is   -0.035102559727983
 Root      3 :     4.242370808200473   Change is   -0.033117395928227
 Root      4 :     5.130693785849757   Change is   -0.201852341407003
 Root      5 :     5.611322811321283   Change is   -0.279681912262552
 Root      6 :     6.071117454662746   Change is   -0.020418308067347
 Iteration     3 Dimension    30 NMult    18 NNew     12
 CISAX will form    12 AO SS matrices at one time.
 NMat=    12 NSing=    12 JSym2X= 0.
 Root      1 not converged, maximum delta is    0.002886368658397
 Root      2 not converged, maximum delta is    0.000895644558626
 Root      3 not converged, maximum delta is    0.000968512819496
 Root      4 not converged, maximum delta is    0.012304093615323
 Root      5 not converged, maximum delta is    0.009380866480091
 Root      6 not converged, maximum delta is    0.009259776664028
 Excitation Energies [eV] at current iteration:
 Root      1 :     3.513900863824500   Change is   -0.002866023659849
 Root      2 :     4.098308722992487   Change is   -0.000314143748326
 Root      3 :     4.242060061857077   Change is   -0.000310746343396
 Root      4 :     5.122365534580146   Change is   -0.008328251269611
 Root      5 :     5.603637655881112   Change is   -0.007685155440171
 Root      6 :     6.069652533647809   Change is   -0.001464921014937
 Iteration     4 Dimension    42 NMult    30 NNew     12
 CISAX will form    12 AO SS matrices at one time.
 NMat=    12 NSing=    12 JSym2X= 0.
 Root      1 not converged, maximum delta is    0.001670855745699
 Root      2 not converged, maximum delta is    0.000247931283688
 Root      3 not converged, maximum delta is    0.000144816407946
 Root      4 not converged, maximum delta is    0.001916770233582
 Root      5 not converged, maximum delta is    0.002316029681611
 Root      6 not converged, maximum delta is    0.010431008214181
 Excitation Energies [eV] at current iteration:
 Root      1 :     3.513497711549311   Change is   -0.000403152275190
 Root      2 :     4.098290527607567   Change is   -0.000018195384920
 Root      3 :     4.242043204750978   Change is   -0.000016857106099
 Root      4 :     5.121203285840125   Change is   -0.001162248740021
 Root      5 :     5.602655991712020   Change is   -0.000981664169092
 Root      6 :     6.069117044638694   Change is   -0.000535489009116
 Iteration     5 Dimension    54 NMult    42 NNew     12
 CISAX will form    12 AO SS matrices at one time.
 NMat=    12 NSing=    12 JSym2X= 0.
 Root      1 not converged, maximum delta is    0.000687059488692
 Root      2 not converged, maximum delta is    0.000116517435360
 Root      3 not converged, maximum delta is    0.000074577814876
 Root      4 not converged, maximum delta is    0.000773288006941
 Root      5 not converged, maximum delta is    0.000750992964078
 Root      6 not converged, maximum delta is    0.004728906477622
 Excitation Energies [eV] at current iteration:
 Root      1 :     3.513468011343865   Change is   -0.000029700205445
 Root      2 :     4.098289269919560   Change is   -0.000001257688007
 Root      3 :     4.242041897244717   Change is   -0.000001307506261
 Root      4 :     5.121094838772264   Change is   -0.000108447067861
 Root      5 :     5.602542650763260   Change is   -0.000113340948761
 Root      6 :     6.068991984946270   Change is   -0.000125059692424
 Iteration     6 Dimension    66 NMult    54 NNew     12
 CISAX will form    12 AO SS matrices at one time.
 NMat=    12 NSing=    12 JSym2X= 0.
 Root      1 not converged, maximum delta is    0.000093587927544
 Root      2 not converged, maximum delta is    0.000029766890512
 Root      3 not converged, maximum delta is    0.000025127674433
 Root      4 not converged, maximum delta is    0.000355108340500
 Root      5 not converged, maximum delta is    0.000460079293783
 Root      6 not converged, maximum delta is    0.001010877021671
 Excitation Energies [eV] at current iteration:
 Root      1 :     3.513465858725784   Change is   -0.000002152618082
 Root      2 :     4.098289133390074   Change is   -0.000000136529486
 Root      3 :     4.242041780706925   Change is   -0.000000116537792
 Root      4 :     5.121084008135433   Change is   -0.000010830636831
 Root      5 :     5.602526839697545   Change is   -0.000015811065715
 Root      6 :     6.068974990467053   Change is   -0.000016994479216
 Iteration     7 Dimension    78 NMult    66 NNew     12
 CISAX will form    12 AO SS matrices at one time.
 NMat=    12 NSing=    12 JSym2X= 0.
 Root      1 not converged, maximum delta is    0.000011050025637
 Root      2 not converged, maximum delta is    0.000003854857059
 Root      3 not converged, maximum delta is    0.000006570218369
 Root      4 not converged, maximum delta is    0.000136951868881
 Root      5 not converged, maximum delta is    0.000193663104328
 Root      6 not converged, maximum delta is    0.000122144951169
 Excitation Energies [eV] at current iteration:
 Root      1 :     3.513465773190247   Change is   -0.000000085535536
 Root      2 :     4.098289127490546   Change is   -0.000000005899528
 Root      3 :     4.242041773553566   Change is   -0.000000007153359
 Root      4 :     5.121082919115112   Change is   -0.000001089020321
 Root      5 :     5.602525108024273   Change is   -0.000001731673271
 Root      6 :     6.068973345749685   Change is   -0.000001644717368
 Iteration     8 Dimension    90 NMult    78 NNew     12
 CISAX will form    12 AO SS matrices at one time.
 NMat=    12 NSing=    12 JSym2X= 0.
 Root      1 not converged, maximum delta is    0.000002855137089
 Root      2 not converged, maximum delta is    0.000001550031468
 Root      3 has converged.
 Root      4 not converged, maximum delta is    0.000030031484567
 Root      5 not converged, maximum delta is    0.000060112827269
 Root      6 not converged, maximum delta is    0.000038615954537
 Excitation Energies [eV] at current iteration:
 Root      1 :     3.513465768472190   Change is   -0.000000004718057
 Root      2 :     4.098289127148420   Change is   -0.000000000342126
 Root      3 :     4.242041773160808   Change is   -0.000000000392759
 Root      4 :     5.121082842958955   Change is   -0.000000076156156
 Root      5 :     5.602524952306429   Change is   -0.000000155717844
 Root      6 :     6.068973177803203   Change is   -0.000000167946483
 Iteration     9 Dimension   100 NMult    90 NNew     10
 CISAX will form    10 AO SS matrices at one time.
 NMat=    10 NSing=    10 JSym2X= 0.
 Root      1 has converged.
 Root      2 has converged.
 Root      3 has converged.
 Root      4 not converged, maximum delta is    0.000005470558912
 Root      5 not converged, maximum delta is    0.000012392898901
 Root      6 not converged, maximum delta is    0.000021004185500
 Excitation Energies [eV] at current iteration:
 Root      1 :     3.513465768304895   Change is   -0.000000000167295
 Root      2 :     4.098289127132212   Change is   -0.000000000016208
 Root      3 :     4.242041773150575   Change is   -0.000000000010232
 Root      4 :     5.121082837611283   Change is   -0.000000005347673
 Root      5 :     5.602524939447470   Change is   -0.000000012858959
 Root      6 :     6.068973158103979   Change is   -0.000000019699224
 Iteration    10 Dimension   106 NMult   100 NNew      6
 CISAX will form     6 AO SS matrices at one time.
 NMat=     6 NSing=     6 JSym2X= 0.
 Root      1 has converged.
 Root      2 has converged.
 Root      3 has converged.
 Root      4 not converged, maximum delta is    0.000001001778192
 Root      5 not converged, maximum delta is    0.000002287618084
 Root      6 not converged, maximum delta is    0.000007199610371
 Excitation Energies [eV] at current iteration:
 Root      1 :     3.513465768304568   Change is   -0.000000000000328
 Root      2 :     4.098289127132031   Change is   -0.000000000000181
 Root      3 :     4.242041773150150   Change is   -0.000000000000426
 Root      4 :     5.121082837339879   Change is   -0.000000000271404
 Root      5 :     5.602524938612955   Change is   -0.000000000834515
 Root      6 :     6.068973155850963   Change is   -0.000000002253016
 Iteration    11 Dimension   112 NMult   106 NNew      6
 CISAX will form     6 AO SS matrices at one time.
 NMat=     6 NSing=     6 JSym2X= 0.
 Root      1 has converged.
 Root      2 has converged.
 Root      3 has converged.
 Root      4 has converged.
 Root      5 has converged.
 Root      6 not converged, maximum delta is    0.000001758481167
 Excitation Energies [eV] at current iteration:
 Root      1 :     3.513465768304475   Change is   -0.000000000000093
 Root      2 :     4.098289127132031   Change is    0.000000000000000
 Root      3 :     4.242041773149665   Change is   -0.000000000000485
 Root      4 :     5.121082837324340   Change is   -0.000000000015539
 Root      5 :     5.602524938555231   Change is   -0.000000000057724
 Root      6 :     6.068973155630062   Change is   -0.000000000220901
 Iteration    12 Dimension   114 NMult   112 NNew      2
 CISAX will form     2 AO SS matrices at one time.
 NMat=     2 NSing=     2 JSym2X= 0.
 Root      1 has converged.
 Root      2 has converged.
 Root      3 has converged.
 Root      4 has converged.
 Root      5 has converged.
 Root      6 has converged.
 Excitation Energies [eV] at current iteration:
 Root      1 :     3.513465768304405   Change is   -0.000000000000070
 Root      2 :     4.098289127131951   Change is   -0.000000000000080
 Root      3 :     4.242041773149238   Change is   -0.000000000000426
 Root      4 :     5.121082837324276   Change is   -0.000000000000064
 Root      5 :     5.602524938555216   Change is   -0.000000000000015
 Root      6 :     6.068973155610584   Change is   -0.000000000019478
 Convergence achieved on expansion vectors.
 ***********************************************************************
 Excited states from <AA,BB:AA,BB> singles matrix:
 ***********************************************************************
 
 1PDM for each excited state written to RWF  633
 Ground to excited state transition densities written to RWF  633
 Ground to excited state transition electric dipole moments (Au):
       state          X           Y           Z        Dip. S.      Osc.
         1        -1.6023      0.1986      0.0497      2.6091      0.2246
         2        -0.1886     -0.0023      0.0474      0.0378      0.0038
         3         0.0050      0.1504     -0.0392      0.0242      0.0025
         4        -0.1960     -1.7708      0.1479      3.1959      0.4010
         5        -0.0596     -1.4542      0.0317      2.1193      0.2909
         6         0.0309      0.2359      0.0766      0.0625      0.0093
 Ground to excited state transition velocity dipole moments (Au):
       state          X           Y           Z        Dip. S.      Osc.
         1         0.1986     -0.0209     -0.0073      0.0399      0.2063
         2         0.0274      0.0006     -0.0044      0.0008      0.0034
         3        -0.0005     -0.0221      0.0026      0.0005      0.0021
         4         0.0387      0.3195     -0.0227      0.1041      0.3688
         5         0.0125      0.2941     -0.0073      0.0867      0.2808
         6        -0.0074     -0.0489     -0.0360      0.0037      0.0112
 Ground to excited state transition magnetic dipole moments (Au):
       state          X           Y           Z
         1        -0.1003      0.0030     -1.4222
         2         0.8094     -0.1534     -0.4094
         3         0.1506     -1.0052     -0.1731
         4         0.0757     -0.1139      0.0909
         5         0.2145     -0.1075      0.2875
         6        -0.0612     -0.0101      0.0115
 Ground to excited state transition velocity quadrupole moments (Au):
       state          XX          YY          ZZ          XY          XZ          YZ
         1        -0.1761      0.1036     -0.0004     -0.5578      0.0669      0.0104
         2        -0.0035     -0.0050      0.0037     -0.0730      0.0233      0.0872
         3         0.0132     -0.0108      0.0309     -0.0470      0.0657      0.0075
         4        -1.2755      0.3167     -0.0082      0.0924      0.0927     -0.0633
         5        -0.5371      0.2604      0.0557      0.2188      0.0722      0.0432
         6        -0.2577     -0.2239      0.1955      0.0153      0.0360      0.0187
 <0|del|b> * <b|rxdel|0> + <0|del|b> * <b|delr+rdel|0>
 Rotatory Strengths (R) in cgs (10**-40 erg-esu-cm/Gauss)
       state          XX          YY          ZZ    R(velocity)    E-M Angle
         1        43.2103    -31.6353    -64.1977    -17.5409       91.93
         2         4.7562     61.0662     46.2100     37.3441       20.64
         3        52.4543     -0.9302     46.9858     32.8366       19.09
         4      -131.9027      0.9634     -2.6525    -44.5306      132.14
         5       -97.1323      4.6533    -14.1750    -35.5514      106.36
         6         2.0445      0.7121     -1.0691      0.5625       82.08
 1/2[<0|r|b>*<b|rxdel|0> + (<0|rxdel|b>*<b|r|0>)*]
 Rotatory Strengths (R) in cgs (10**-40 erg-esu-cm/Gauss)
       state          XX          YY          ZZ     R(length)
         1      -113.6320     -0.4243     49.9377    -21.3729
         2       107.9684     -0.2496     13.7122     40.4770
         3        -0.5282    106.9100     -4.7926     33.8630
         4        10.4854   -142.6834     -9.5082    -47.2354
         5         9.0354   -110.5491     -6.4372    -35.9837
         6         1.3373      1.6908     -0.6245      0.8012
  1/2[<0|del|b>*<b|r|0> + (<0|r|b>*<b|del|0>)*] (Au)
       state          X           Y           Z        Dip. S.   Osc.(frdel)
         1        -0.3183     -0.0041     -0.0004      0.3228      0.2152
         2        -0.0052     -0.0000     -0.0002      0.0054      0.0036
         3        -0.0000     -0.0033     -0.0001      0.0034      0.0023
         4        -0.0076     -0.5658     -0.0034      0.5768      0.3845
         5        -0.0007     -0.4277     -0.0002      0.4287      0.2858
         6        -0.0002     -0.0115     -0.0028      0.0145      0.0097

 Excitation energies and oscillator strengths:
 
 Excited State   1:      Singlet-A      3.5135 eV  352.88 nm  f=0.2246  <S**2>=0.000
      52 -> 53         0.69752
 
 Excited State   2:      Singlet-A      4.0983 eV  302.53 nm  f=0.0038  <S**2>=0.000
      50 -> 54         0.19513
      51 -> 53         0.55609
      51 -> 54         0.33437
 This state for optimization and/or second-order correction.
 Total Energy, E(TD-HF/TD-DFT) =  -633.178343413    
 Copying the excited state density for this state as the 1-particle RhoCI density.
 
 Excited State   3:      Singlet-A      4.2420 eV  292.27 nm  f=0.0025  <S**2>=0.000
      49 -> 53         0.20184
      49 -> 54        -0.14423
      50 -> 53         0.53219
      50 -> 54        -0.26758
      50 -> 58         0.11176
      51 -> 54         0.20997
 
 Excited State   4:      Singlet-A      5.1211 eV  242.11 nm  f=0.4010  <S**2>=0.000
      52 -> 54         0.69176
 
 Excited State   5:      Singlet-A      5.6025 eV  221.30 nm  f=0.2909  <S**2>=0.000
      49 -> 53         0.62657
      50 -> 53        -0.23487
      51 -> 53         0.14772
 
 Excited State   6:      Singlet-A      6.0690 eV  204.29 nm  f=0.0093  <S**2>=0.000
      52 -> 55         0.66183
      52 -> 56         0.13733
 SavETr:  write IOETrn=   770 NScale= 10 NData=  16 NLR=1 NState=    6 LETran=     118.
 The selected state is a singlet.
 CISGrd: IGrad=1 NXY=2 DFT=T
 CISAX will form     1 AO SS matrices at one time.
 NMat=     1 NSing=     1 JSym2X= 0.
 Leave Link  914 at Fri Jan 23 22:22:33 2026, MaxMem=  2147483648 cpu:            7735.1 elap:             484.6
 (Enter /data/home/wyx/g16/l1002.exe)
 Minotr:  Closed shell wavefunction.
          Computing CIS/TDA/TD derivatives.
          Using Z-Vector for PSCF gradient.
          Skipping F1 and S1 gradient terms here.
 NEqPCM:  Using equilibrium solvation (IEInf=0, Eps=   7.4257, EpsInf=   1.9740)
          Frozen-core window.
          Direct CPHF calculation.
          Differentiating once with respect to electric field.
                with respect to dipole field.
          Electric field/nuclear overlap derivatives assumed to be zero.
          Requested convergence is 1.0D-10 RMS, and 1.0D-09 maximum.
          NewPWx=F KeepS1=T KeepF1=T KeepIn=T MapXYZ=F SortEE=F KeepMc=T.
 Two-electron integral symmetry used by symmetrizing perturbed Fock matrices.
          MDV=    2147483648 using IRadAn=       5.
          Solving linear equations separately, MaxMat=     384.
          There are     1 degrees of freedom in the 1st order CPHF.  IDoFFX=0 NUNeed=     1.
 FoFJK:  IHMeth= 1 ICntrl=       0 DoSepK=T KAlg= 0 I1Cent=           0 FoldK=F
 IRaf=         1 NMat=       1 IRICut=       1 DoRegI=T DoRafI=F ISym2E=-1 IDoP0=0 IntGTp=1.
 FoFCou: FMM=F IPFlag=           0 FMFlag=      100000 FMFlg1=           0
         NFxFlg=           0 DoJE=T BraDBF=F KetDBF=F FulRan=T
         wScrn=  0.000000 ICntrl=       500 IOpCl=  0 I1Cent=           0 NGrid=           0
         NMat0=    1 NMatS0=      1 NMatT0=    0 NMatD0=    1 NMtDS0=    0 NMtDT0=    0
 Petite list used in FoFCou.
 LinEq1:  Iter=  0 NonCon=     1 RMS=7.54D-03 Max=2.96D-01 NDo=     1
 AX will form     1 AO Fock derivatives at one time.
 LinEq1:  Iter=  1 NonCon=     1 RMS=2.04D-03 Max=7.86D-02 NDo=     1
 LinEq1:  Iter=  2 NonCon=     1 RMS=1.42D-03 Max=7.64D-02 NDo=     1
 LinEq1:  Iter=  3 NonCon=     1 RMS=5.79D-04 Max=3.13D-02 NDo=     1
 LinEq1:  Iter=  4 NonCon=     1 RMS=3.01D-04 Max=1.17D-02 NDo=     1
 LinEq1:  Iter=  5 NonCon=     1 RMS=1.54D-04 Max=7.66D-03 NDo=     1
 LinEq1:  Iter=  6 NonCon=     1 RMS=7.61D-05 Max=2.36D-03 NDo=     1
 LinEq1:  Iter=  7 NonCon=     1 RMS=4.23D-05 Max=1.89D-03 NDo=     1
 LinEq1:  Iter=  8 NonCon=     1 RMS=1.76D-05 Max=5.85D-04 NDo=     1
 LinEq1:  Iter=  9 NonCon=     1 RMS=1.34D-05 Max=6.40D-04 NDo=     1
 LinEq1:  Iter= 10 NonCon=     1 RMS=5.32D-06 Max=1.08D-04 NDo=     1
 LinEq1:  Iter= 11 NonCon=     1 RMS=3.17D-06 Max=1.14D-04 NDo=     1
 LinEq1:  Iter= 12 NonCon=     1 RMS=1.03D-06 Max=2.76D-05 NDo=     1
 LinEq1:  Iter= 13 NonCon=     1 RMS=4.78D-07 Max=1.18D-05 NDo=     1
 LinEq1:  Iter= 14 NonCon=     1 RMS=1.97D-07 Max=7.76D-06 NDo=     1
 LinEq1:  Iter= 15 NonCon=     1 RMS=8.65D-08 Max=3.69D-06 NDo=     1
 LinEq1:  Iter= 16 NonCon=     1 RMS=3.87D-08 Max=1.32D-06 NDo=     1
 LinEq1:  Iter= 17 NonCon=     1 RMS=1.43D-08 Max=2.94D-07 NDo=     1
 LinEq1:  Iter= 18 NonCon=     1 RMS=5.44D-09 Max=1.00D-07 NDo=     1
 LinEq1:  Iter= 19 NonCon=     1 RMS=1.62D-09 Max=3.19D-08 NDo=     1
 LinEq1:  Iter= 20 NonCon=     1 RMS=4.51D-10 Max=1.32D-08 NDo=     1
 LinEq1:  Iter= 21 NonCon=     1 RMS=1.59D-10 Max=2.86D-09 NDo=     1
 LinEq1:  Iter= 22 NonCon=     1 RMS=7.01D-11 Max=2.03D-09 NDo=     1
 LinEq1:  Iter= 23 NonCon=     1 RMS=2.37D-11 Max=1.11D-09 NDo=     1
 LinEq1:  Iter= 24 NonCon=     0 RMS=1.08D-11 Max=4.29D-10 NDo=     1
 Linear equations converged to 1.000D-10 1.000D-09 after    24 iterations.
 PCM Corrected Linear-Response - Equilibrium solvation:
 Corrected transition energy               =    4.0366          eV
 Total energy after correction             = -633.180609885     a.u.
 NEqPCM:  Using non-equilibrium solvation (IEInf=1, Eps=   7.4257, EpsInf=   1.9740)
 Inv3:  Mode=1 IEnd=    13066707.
 Iteration    1 A*A^-1 deviation from unit magnitude is 3.77D-15 for   1265.
 Iteration    1 A*A^-1 deviation from orthogonality  is 1.44D-15 for   1905     93.
 Iteration    1 A^-1*A deviation from unit magnitude is 3.66D-15 for    198.
 Iteration    1 A^-1*A deviation from orthogonality  is 1.42D-15 for   1750    197.
 NEqSol: Computing the dynamic-inertial partition of the PCM polarization charges.
 End of Minotr F.D. properties file   721 does not exist.
 End of Minotr F.D. properties file   722 does not exist.
 End of Minotr F.D. properties file   788 does not exist.
 Leave Link 1002 at Fri Jan 23 22:24:38 2026, MaxMem=  2147483648 cpu:            1969.2 elap:             124.4
 (Enter /data/home/wyx/g16/l601.exe)
 Copying SCF densities to generalized density rwf, IOpCl= 0 IROHF=0.

 **********************************************************************

            Population analysis using the CI density.

 **********************************************************************

 Orbital symmetries:
       Occupied  (A) (A) (A) (A) (A) (A) (A) (A) (A) (A) (A) (A)
                 (A) (A) (A) (A) (A) (A) (A) (A) (A) (A) (A) (A)
                 (A) (A) (A) (A) (A) (A) (A) (A) (A) (A) (A) (A)
                 (A) (A) (A) (A) (A) (A) (A) (A) (A) (A) (A) (A)
                 (A) (A) (A) (A)
       Virtual   (A) (A) (A) (A) (A) (A) (A) (A) (A) (A) (A) (A)
                 (A) (A) (A) (A) (A) (A) (A) (A) (A) (A) (A) (A)
                 (A) (A) (A) (A) (A) (A) (A) (A) (A) (A) (A) (A)
                 (A) (A) (A) (A) (A) (A) (A) (A) (A) (A) (A) (A)
                 (A) (A) (A) (A) (A) (A) (A) (A) (A) (A) (A) (A)
                 (A) (A) (A) (A) (A) (A) (A) (A) (A) (A) (A) (A)
                 (A) (A) (A) (A) (A) (A) (A) (A) (A) (A) (A) (A)
                 (A) (A) (A) (A) (A) (A) (A) (A) (A) (A) (A) (A)
                 (A) (A) (A) (A) (A) (A) (A) (A) (A) (A) (A) (A)
                 (A) (A) (A) (A) (A) (A) (A) (A) (A) (A) (A) (A)
                 (A) (A) (A) (A) (A) (A) (A) (A) (A) (A) (A) (A)
                 (A) (A) (A) (A) (A) (A) (A) (A) (A) (A) (A) (A)
                 (A) (A) (A) (A) (A) (A) (A) (A) (A) (A) (A) (A)
                 (A) (A) (A) (A) (A) (A) (A) (A) (A) (A) (A) (A)
                 (A) (A) (A) (A) (A) (A) (A) (A) (A) (A) (A) (A)
                 (A) (A) (A) (A) (A) (A) (A) (A) (A) (A) (A) (A)
                 (A) (A) (A) (A) (A) (A) (A) (A) (A) (A) (A) (A)
                 (A) (A) (A) (A) (A) (A) (A) (A) (A) (A) (A) (A)
                 (A) (A) (A) (A) (A) (A) (A) (A) (A) (A) (A) (A)
                 (A) (A) (A) (A) (A) (A) (A) (A) (A) (A) (A) (A)
                 (A) (A) (A) (A) (A) (A) (A) (A) (A) (A) (A) (A)
                 (A) (A) (A) (A) (A) (A) (A) (A) (A) (A) (A) (A)
                 (A) (A) (A) (A) (A) (A) (A) (A) (A) (A) (A) (A)
                 (A) (A) (A) (A) (A) (A) (A) (A) (A) (A) (A) (A)
                 (A) (A) (A) (A) (A) (A) (A) (A) (A) (A) (A) (A)
                 (A) (A) (A) (A)
 The electronic state is 1-A.
 Alpha  occ. eigenvalues --  -19.17892 -19.17407 -14.44051 -10.33474 -10.33076
 Alpha  occ. eigenvalues --  -10.31947 -10.31385 -10.25935 -10.25061 -10.24848
 Alpha  occ. eigenvalues --  -10.24821 -10.24498 -10.24292 -10.23765  -1.12110
 Alpha  occ. eigenvalues --   -1.11608  -1.07375  -0.91195  -0.90195  -0.83792
 Alpha  occ. eigenvalues --   -0.82501  -0.81570  -0.78469  -0.74010  -0.71021
 Alpha  occ. eigenvalues --   -0.68545  -0.61516  -0.58176  -0.56745  -0.55162
 Alpha  occ. eigenvalues --   -0.54516  -0.53976  -0.52573  -0.51917  -0.50747
 Alpha  occ. eigenvalues --   -0.50023  -0.49493  -0.49104  -0.48611  -0.48137
 Alpha  occ. eigenvalues --   -0.46862  -0.45352  -0.45083  -0.43382  -0.43069
 Alpha  occ. eigenvalues --   -0.42403  -0.42067  -0.42002  -0.32818  -0.32225
 Alpha  occ. eigenvalues --   -0.31226  -0.26266
 Alpha virt. eigenvalues --   -0.02136   0.02476   0.06304   0.08089   0.08539
 Alpha virt. eigenvalues --    0.10078   0.10723   0.11954   0.12625   0.13491
 Alpha virt. eigenvalues --    0.14284   0.14867   0.15619   0.16039   0.16878
 Alpha virt. eigenvalues --    0.17467   0.17817   0.17879   0.18128   0.19169
 Alpha virt. eigenvalues --    0.19883   0.22008   0.22587   0.23453   0.23573
 Alpha virt. eigenvalues --    0.23895   0.24815   0.25508   0.25897   0.26366
 Alpha virt. eigenvalues --    0.26831   0.27159   0.28738   0.29163   0.30119
 Alpha virt. eigenvalues --    0.31551   0.31938   0.32778   0.33573   0.34232
 Alpha virt. eigenvalues --    0.35436   0.35793   0.36781   0.37991   0.38984
 Alpha virt. eigenvalues --    0.40194   0.40882   0.41759   0.42281   0.42718
 Alpha virt. eigenvalues --    0.43927   0.44095   0.45399   0.45937   0.46152
 Alpha virt. eigenvalues --    0.47168   0.47653   0.47908   0.48329   0.48940
 Alpha virt. eigenvalues --    0.49407   0.50246   0.50612   0.51276   0.51624
 Alpha virt. eigenvalues --    0.52869   0.53099   0.53332   0.54158   0.54449
 Alpha virt. eigenvalues --    0.54505   0.55833   0.56196   0.56662   0.58010
 Alpha virt. eigenvalues --    0.58506   0.59128   0.60478   0.61133   0.62237
 Alpha virt. eigenvalues --    0.63188   0.65463   0.65850   0.66541   0.67889
 Alpha virt. eigenvalues --    0.68560   0.69978   0.71231   0.72304   0.73022
 Alpha virt. eigenvalues --    0.73496   0.73818   0.75005   0.76173   0.77511
 Alpha virt. eigenvalues --    0.78167   0.79781   0.81718   0.83545   0.84176
 Alpha virt. eigenvalues --    0.89183   0.93028   0.98709   0.99940   1.24916
 Alpha virt. eigenvalues --    1.25849   1.27227   1.27490   1.29304   1.31639
 Alpha virt. eigenvalues --    1.32352   1.32974   1.33994   1.35302   1.35880
 Alpha virt. eigenvalues --    1.36517   1.37035   1.38032   1.39262   1.39842
 Alpha virt. eigenvalues --    1.39956   1.40206   1.41138   1.41657   1.41783
 Alpha virt. eigenvalues --    1.43148   1.44068   1.44784   1.45218   1.46806
 Alpha virt. eigenvalues --    1.48096   1.48860   1.49542   1.50605   1.51064
 Alpha virt. eigenvalues --    1.52297   1.52504   1.54245   1.54420   1.57521
 Alpha virt. eigenvalues --    1.58254   1.60438   1.60680   1.61168   1.62170
 Alpha virt. eigenvalues --    1.62462   1.63361   1.64224   1.65222   1.65610
 Alpha virt. eigenvalues --    1.67047   1.67462   1.67727   1.68029   1.68587
 Alpha virt. eigenvalues --    1.68792   1.69859   1.70634   1.72232   1.72444
 Alpha virt. eigenvalues --    1.73110   1.75074   1.75966   1.76792   1.78740
 Alpha virt. eigenvalues --    1.79603   1.83253   1.84381   1.85982   1.86490
 Alpha virt. eigenvalues --    1.86937   1.87173   1.88485   1.88981   1.90738
 Alpha virt. eigenvalues --    1.91535   1.94333   1.95214   1.97899   1.99530
 Alpha virt. eigenvalues --    2.00683   2.03655   2.04230   2.06113   2.09277
 Alpha virt. eigenvalues --    2.11279   2.12851   2.14250   2.16301   2.19294
 Alpha virt. eigenvalues --    2.20373   2.21069   2.21774   2.22446   2.25874
 Alpha virt. eigenvalues --    2.26762   2.27061   2.28752   2.30213   2.31039
 Alpha virt. eigenvalues --    2.32641   2.34653   2.35934   2.36056   2.37748
 Alpha virt. eigenvalues --    2.39423   2.40067   2.41456   2.43920   2.44649
 Alpha virt. eigenvalues --    2.45759   2.47627   2.49981   2.50327   2.51672
 Alpha virt. eigenvalues --    2.52989   2.53365   2.54869   2.56687   2.58580
 Alpha virt. eigenvalues --    2.58962   2.59829   2.60535   2.61224   2.62470
 Alpha virt. eigenvalues --    2.64330   2.65425   2.66883   2.67685   2.69129
 Alpha virt. eigenvalues --    2.70296   2.71923   2.72703   2.73438   2.74611
 Alpha virt. eigenvalues --    2.75912   2.76566   2.77348   2.78092   2.79335
 Alpha virt. eigenvalues --    2.80680   2.81200   2.82778   2.83500   2.84530
 Alpha virt. eigenvalues --    2.85545   2.85838   2.87489   2.90470   2.91631
 Alpha virt. eigenvalues --    2.97764   3.00066   3.01204   3.03294   3.09936
 Alpha virt. eigenvalues --    3.11926   3.15046   3.16273   3.16788   3.19974
 Alpha virt. eigenvalues --    3.20507   3.22182   3.25250   3.26623   3.27001
 Alpha virt. eigenvalues --    3.27673   3.29360   3.33262   3.34802   3.36407
 Alpha virt. eigenvalues --    3.36932   3.38628   3.39633   3.40037   3.41331
 Alpha virt. eigenvalues --    3.42574   3.44549   3.45338   3.46326   3.47854
 Alpha virt. eigenvalues --    3.48071   3.49159   3.55132   3.57967   3.59543
 Alpha virt. eigenvalues --    3.60292   3.89566   3.99068   4.34583   4.36048
 Alpha virt. eigenvalues --   21.62814  21.78900  22.08199  22.10982  22.11513
 Alpha virt. eigenvalues --   22.14155  22.15129  22.17748  22.21107  22.25051
 Alpha virt. eigenvalues --   22.30831  31.93375  43.62780  43.65127
          Condensed to atoms (all electrons):
               1          2          3          4          5          6
     1  O    7.959988   0.000000  -0.000243   0.000019   0.015830   0.019708
     2  O    0.000000   7.982487   0.000821   0.000025  -0.105154   0.000164
     3  N   -0.000243   0.000821   6.411099   0.375791  -0.089931   0.371445
     4  H    0.000019   0.000025   0.375791   0.421781   0.017544  -0.049448
     5  C    0.015830  -0.105154  -0.089931   0.017544   6.064350  -0.065704
     6  C    0.019708   0.000164   0.371445  -0.049448  -0.065704   5.668674
     7  C   -0.000656   0.009835   0.311435  -0.043235   0.271559  -0.103051
     8  C    0.000257   0.318925   0.014139  -0.000958   0.311203   0.020050
     9  C   -0.032191   0.009011   0.004692  -0.000358  -0.341003  -0.128929
    10  H    0.018726   0.000002  -0.001075   0.000024  -0.097383   0.023540
    11  H    0.003597   0.000007   0.004138   0.000002  -0.027835  -0.016110
    12  C   -0.224049  -0.000576  -0.101206   0.015671   0.161685  -0.215794
    13  C    0.699627   0.000018  -0.000226   0.000398   0.078182   0.192705
    14  C   -0.000004   0.002368  -0.030938  -0.007304  -0.082926   0.009085
    15  H    0.000000   0.000878   0.002174   0.001706   0.016696   0.004247
    16  H    0.000000   0.001003   0.001620   0.000686  -0.000192  -0.000787
    17  H   -0.000000  -0.001906  -0.001483   0.000724  -0.001136  -0.000468
    18  C   -0.000144  -0.047749  -0.000432   0.000013  -0.034673  -0.000311
    19  H   -0.000005   0.000416   0.000000  -0.000001   0.009730   0.000084
    20  H    0.000040   0.002437   0.000039   0.000000  -0.011650  -0.000398
    21  H   -0.000094   0.002400  -0.000027   0.000000  -0.009015  -0.000145
    22  C   -0.106408   0.000000  -0.000039   0.000127   0.004457  -0.002567
    23  H    0.001463  -0.000000  -0.000039  -0.000019  -0.000121   0.011576
    24  H    0.004683  -0.000000  -0.000084  -0.000052  -0.000569  -0.033957
    25  H    0.008318  -0.000000   0.000037  -0.000003  -0.000154  -0.001554
    26  C    0.000837   0.000001  -0.034952  -0.005479  -0.002058   0.165261
    27  H   -0.000046   0.000000  -0.003312   0.000414   0.000402  -0.037175
    28  H   -0.000293   0.000000   0.003137   0.000946  -0.000063  -0.055185
    29  H    0.000030  -0.000000  -0.000228   0.000857  -0.000454  -0.048094
               7          8          9         10         11         12
     1  O   -0.000656   0.000257  -0.032191   0.018726   0.003597  -0.224049
     2  O    0.009835   0.318925   0.009011   0.000002   0.000007  -0.000576
     3  N    0.311435   0.014139   0.004692  -0.001075   0.004138  -0.101206
     4  H   -0.043235  -0.000958  -0.000358   0.000024   0.000002   0.015671
     5  C    0.271559   0.311203  -0.341003  -0.097383  -0.027835   0.161685
     6  C   -0.103051   0.020050  -0.128929   0.023540  -0.016110  -0.215794
     7  C    5.582740  -0.120641  -0.076949   0.017996  -0.007284  -0.015338
     8  C   -0.120641   5.431454  -0.029035  -0.012691  -0.006753  -0.025497
     9  C   -0.076949  -0.029035   6.305569   0.512026   0.392968  -0.052220
    10  H    0.017996  -0.012691   0.512026   0.506281  -0.035315  -0.102372
    11  H   -0.007284  -0.006753   0.392968  -0.035315   0.552731  -0.019086
    12  C   -0.015338  -0.025497  -0.052220  -0.102372  -0.019086   7.350834
    13  C    0.007493  -0.002555  -0.289699  -0.000323   0.003910  -0.337075
    14  C    0.196666  -0.026634   0.012192   0.000515  -0.001244  -0.005348
    15  H   -0.055153   0.001146  -0.001058  -0.000002   0.000072  -0.000116
    16  H   -0.052492  -0.014978   0.000300  -0.000060   0.000148  -0.000285
    17  H   -0.051760  -0.003524   0.001599   0.000056  -0.000069  -0.000136
    18  C    0.013307   0.176689  -0.023588   0.009626  -0.008857  -0.001294
    19  H   -0.000194  -0.046023   0.003495   0.000506  -0.000145  -0.000685
    20  H    0.000447  -0.033864   0.002377  -0.005085   0.002773   0.001275
    21  H   -0.000714  -0.057042  -0.014499  -0.001962   0.001217   0.002982
    22  C   -0.000191  -0.000040  -0.002086   0.001504   0.001469  -0.260437
    23  H    0.000060  -0.000000  -0.002119  -0.000133   0.000136  -0.011591
    24  H    0.000007  -0.000012   0.003457  -0.000108  -0.000108   0.066143
    25  H    0.000008   0.000003   0.000651  -0.000134  -0.000038   0.023172
    26  C   -0.001671   0.000493   0.027109  -0.000024  -0.000921  -0.076559
    27  H    0.000730  -0.000040  -0.001313   0.000042  -0.000020  -0.018449
    28  H   -0.001183   0.000012   0.000649   0.000007  -0.000113  -0.003611
    29  H    0.004343  -0.000014  -0.001181  -0.000010   0.000124   0.023142
              13         14         15         16         17         18
     1  O    0.699627  -0.000004   0.000000   0.000000  -0.000000  -0.000144
     2  O    0.000018   0.002368   0.000878   0.001003  -0.001906  -0.047749
     3  N   -0.000226  -0.030938   0.002174   0.001620  -0.001483  -0.000432
     4  H    0.000398  -0.007304   0.001706   0.000686   0.000724   0.000013
     5  C    0.078182  -0.082926   0.016696  -0.000192  -0.001136  -0.034673
     6  C    0.192705   0.009085   0.004247  -0.000787  -0.000468  -0.000311
     7  C    0.007493   0.196666  -0.055153  -0.052492  -0.051760   0.013307
     8  C   -0.002555  -0.026634   0.001146  -0.014978  -0.003524   0.176689
     9  C   -0.289699   0.012192  -0.001058   0.000300   0.001599  -0.023588
    10  H   -0.000323   0.000515  -0.000002  -0.000060   0.000056   0.009626
    11  H    0.003910  -0.001244   0.000072   0.000148  -0.000069  -0.008857
    12  C   -0.337075  -0.005348  -0.000116  -0.000285  -0.000136  -0.001294
    13  C    5.419866  -0.000210   0.000022  -0.000006  -0.000040   0.000415
    14  C   -0.000210   5.136572   0.394011   0.443288   0.422552   0.002533
    15  H    0.000022   0.394011   0.549117  -0.023379  -0.022964   0.000029
    16  H   -0.000006   0.443288  -0.023379   0.514288  -0.032234  -0.000649
    17  H   -0.000040   0.422552  -0.022964  -0.032234   0.525853  -0.000622
    18  C    0.000415   0.002533   0.000029  -0.000649  -0.000622   5.096217
    19  H   -0.000038   0.000012   0.000003   0.000073   0.000022   0.402946
    20  H    0.000017  -0.000380  -0.000003   0.000061   0.000035   0.406933
    21  H    0.000175  -0.000179   0.000001  -0.000032  -0.000048   0.436081
    22  C    0.279554  -0.000030   0.000002  -0.000001  -0.000000   0.000014
    23  H   -0.024671  -0.000000   0.000000  -0.000000  -0.000000  -0.000002
    24  H   -0.089881  -0.000001   0.000000   0.000000   0.000000   0.000003
    25  H   -0.041452   0.000001  -0.000000   0.000000   0.000000  -0.000001
    26  C   -0.053983   0.001619  -0.000127   0.000099  -0.000071   0.000020
    27  H    0.006726  -0.000159   0.000009   0.000002  -0.000032  -0.000000
    28  H   -0.006629   0.000109  -0.000015   0.000000   0.000003  -0.000000
    29  H   -0.000064  -0.000353   0.000140  -0.000013  -0.000002   0.000000
              19         20         21         22         23         24
     1  O   -0.000005   0.000040  -0.000094  -0.106408   0.001463   0.004683
     2  O    0.000416   0.002437   0.002400   0.000000  -0.000000  -0.000000
     3  N    0.000000   0.000039  -0.000027  -0.000039  -0.000039  -0.000084
     4  H   -0.000001   0.000000   0.000000   0.000127  -0.000019  -0.000052
     5  C    0.009730  -0.011650  -0.009015   0.004457  -0.000121  -0.000569
     6  C    0.000084  -0.000398  -0.000145  -0.002567   0.011576  -0.033957
     7  C   -0.000194   0.000447  -0.000714  -0.000191   0.000060   0.000007
     8  C   -0.046023  -0.033864  -0.057042  -0.000040  -0.000000  -0.000012
     9  C    0.003495   0.002377  -0.014499  -0.002086  -0.002119   0.003457
    10  H    0.000506  -0.005085  -0.001962   0.001504  -0.000133  -0.000108
    11  H   -0.000145   0.002773   0.001217   0.001469   0.000136  -0.000108
    12  C   -0.000685   0.001275   0.002982  -0.260437  -0.011591   0.066143
    13  C   -0.000038   0.000017   0.000175   0.279554  -0.024671  -0.089881
    14  C    0.000012  -0.000380  -0.000179  -0.000030  -0.000000  -0.000001
    15  H    0.000003  -0.000003   0.000001   0.000002   0.000000   0.000000
    16  H    0.000073   0.000061  -0.000032  -0.000001  -0.000000   0.000000
    17  H    0.000022   0.000035  -0.000048  -0.000000  -0.000000   0.000000
    18  C    0.402946   0.406933   0.436081   0.000014  -0.000002   0.000003
    19  H    0.505021  -0.018017  -0.022475  -0.000001  -0.000000   0.000000
    20  H   -0.018017   0.522050  -0.040600   0.000006  -0.000000  -0.000000
    21  H   -0.022475  -0.040600   0.525390   0.000001   0.000001  -0.000001
    22  C   -0.000001   0.000006   0.000001   5.424764   0.402168   0.398680
    23  H   -0.000000  -0.000000   0.000001   0.402168   0.503320  -0.027886
    24  H    0.000000  -0.000000  -0.000001   0.398680  -0.027886   0.541878
    25  H    0.000000   0.000000  -0.000001   0.383175  -0.009619  -0.021379
    26  C    0.000001  -0.000004  -0.000006  -0.027609  -0.015659   0.014003
    27  H   -0.000000  -0.000000   0.000001  -0.010139   0.001381  -0.001671
    28  H    0.000000   0.000000  -0.000001   0.007574  -0.001645  -0.010361
    29  H   -0.000000  -0.000000   0.000000   0.002034   0.000245   0.000743
              25         26         27         28         29
     1  O    0.008318   0.000837  -0.000046  -0.000293   0.000030
     2  O   -0.000000   0.000001   0.000000   0.000000  -0.000000
     3  N    0.000037  -0.034952  -0.003312   0.003137  -0.000228
     4  H   -0.000003  -0.005479   0.000414   0.000946   0.000857
     5  C   -0.000154  -0.002058   0.000402  -0.000063  -0.000454
     6  C   -0.001554   0.165261  -0.037175  -0.055185  -0.048094
     7  C    0.000008  -0.001671   0.000730  -0.001183   0.004343
     8  C    0.000003   0.000493  -0.000040   0.000012  -0.000014
     9  C    0.000651   0.027109  -0.001313   0.000649  -0.001181
    10  H   -0.000134  -0.000024   0.000042   0.000007  -0.000010
    11  H   -0.000038  -0.000921  -0.000020  -0.000113   0.000124
    12  C    0.023172  -0.076559  -0.018449  -0.003611   0.023142
    13  C   -0.041452  -0.053983   0.006726  -0.006629  -0.000064
    14  C    0.000001   0.001619  -0.000159   0.000109  -0.000353
    15  H   -0.000000  -0.000127   0.000009  -0.000015   0.000140
    16  H    0.000000   0.000099   0.000002   0.000000  -0.000013
    17  H    0.000000  -0.000071  -0.000032   0.000003  -0.000002
    18  C   -0.000001   0.000020  -0.000000  -0.000000   0.000000
    19  H    0.000000   0.000001  -0.000000   0.000000  -0.000000
    20  H    0.000000  -0.000004  -0.000000   0.000000  -0.000000
    21  H   -0.000001  -0.000006   0.000001  -0.000001   0.000000
    22  C    0.383175  -0.027609  -0.010139   0.007574   0.002034
    23  H   -0.009619  -0.015659   0.001381  -0.001645   0.000245
    24  H   -0.021379   0.014003  -0.001671  -0.010361   0.000743
    25  H    0.498610   0.001879   0.000031   0.001071  -0.000050
    26  C    0.001879   5.272005   0.424867   0.434251   0.387443
    27  H    0.000031   0.424867   0.497141  -0.027980  -0.020016
    28  H    0.001071   0.434251  -0.027980   0.521622  -0.028244
    29  H   -0.000050   0.387443  -0.020016  -0.028244   0.531132
 Mulliken charges:
               1
     1  O   -0.368993
     2  O   -0.175416
     3  N   -0.236352
     4  H    0.270128
     5  C   -0.081616
     6  C    0.273137
     7  C    0.113887
     8  C    0.105930
     9  C   -0.279867
    10  H    0.165828
    11  H    0.160605
    12  C   -0.173179
    13  C    0.157746
    14  C   -0.465810
    15  H    0.132565
    16  H    0.163540
    17  H    0.165652
    18  C   -0.426505
    19  H    0.165274
    20  H    0.171511
    21  H    0.178592
    22  C   -0.495982
    23  H    0.173153
    24  H    0.156469
    25  H    0.157428
    26  C   -0.510766
    27  H    0.188607
    28  H    0.165942
    29  H    0.148491
 Sum of Mulliken charges =  -0.00000
 Mulliken charges with hydrogens summed into heavy atoms:
               1
     1  O   -0.368993
     2  O   -0.175416
     3  N    0.033777
     5  C   -0.081616
     6  C    0.273137
     7  C    0.113887
     8  C    0.105930
     9  C    0.046565
    12  C   -0.173179
    13  C    0.157746
    14  C   -0.004053
    18  C    0.088873
    22  C   -0.008932
    26  C   -0.007726
 Electronic spatial extent (au):  <R**2>=           3175.0177
 Charge=             -0.0000 electrons
 Dipole moment (field-independent basis, Debye):
    X=              0.3720    Y=              5.6609    Z=              0.1026  Tot=              5.6740
 Quadrupole moment (field-independent basis, Debye-Ang):
   XX=            -86.6700   YY=            -79.2237   ZZ=            -86.1891
   XY=             15.2011   XZ=              3.7317   YZ=             -1.2378
 Traceless Quadrupole moment (field-independent basis, Debye-Ang):
   XX=             -2.6424   YY=              4.8039   ZZ=             -2.1615
   XY=             15.2011   XZ=              3.7317   YZ=             -1.2378
 Octapole moment (field-independent basis, Debye-Ang**2):
  XXX=             43.1696  YYY=             52.1228  ZZZ=              2.2003  XYY=            -40.7304
  XXY=             16.2367  XXZ=             -2.5574  XZZ=              2.0396  YZZ=             -2.4174
  YYZ=              2.4193  XYZ=             -4.6679
 Hexadecapole moment (field-independent basis, Debye-Ang**3):
 XXXX=          -2800.1180 YYYY=          -1271.5006 ZZZZ=           -164.8035 XXXY=             82.0471
 XXXZ=             32.1330 YYYX=            101.5654 YYYZ=            -20.2696 ZZZX=             -3.2067
 ZZZY=              6.5124 XXYY=           -680.4789 XXZZ=           -488.6030 YYZZ=           -245.3145
 XXYZ=             -9.6919 YYXZ=              7.0027 ZZXY=             -0.0527
 N-N= 9.007021713043D+02 E-N=-3.277649806445D+03  KE= 6.308074047388D+02
 No NMR shielding tensors so no spin-rotation constants.
 Leave Link  601 at Fri Jan 23 22:24:38 2026, MaxMem=  2147483648 cpu:               1.8 elap:               0.1
 (Enter /data/home/wyx/g16/l9999.exe)
 Electronic transition elements 
                 1             2             3             4             5 
      1  -0.633200D+03 -0.633178D+03 -0.633173D+03 -0.633141D+03 -0.633123D+03
      2  -0.157165D+01 -0.181111D+00 -0.411298D-01  0.390518D+00  0.425678D+00
      3  -0.353667D+00 -0.647678D-01  0.142186D+00 -0.172845D+01 -0.138744D+01
      4  -0.118145D+00  0.289087D-01 -0.476255D-01  0.236317D+00  0.114667D+00
      5   0.193718D+00  0.259117D-01  0.660385D-02 -0.678230D-01 -0.855886D-01
      6   0.473699D-01  0.967908D-02 -0.209283D-01  0.313126D+00  0.280725D+00
      7   0.132836D-01 -0.176379D-02  0.389018D-02 -0.384024D-01 -0.240818D-01
      8   0.642358D-01  0.854605D+00  0.495536D+00  0.986498D-01  0.204499D+00
      9  -0.665563D-01  0.119188D+00 -0.899091D+00 -0.793454D-01 -0.214180D-01
     10  -0.142272D+01 -0.318837D+00 -0.958108D-01  0.104594D+00  0.312958D+00
     11   0.192200D+00  0.435756D-01  0.268815D-01 -0.116434D+01 -0.589482D+00
     12  -0.281685D+00 -0.467782D-01 -0.364512D-01  0.191821D+00  0.311552D+00
     13   0.165639D-01 -0.163878D-02  0.428972D-01  0.554365D-02  0.569143D-01
     14  -0.518748D+00 -0.658184D-01 -0.303578D-01 -0.426270D+00 -0.897380D-01
     15   0.943203D-01 -0.119101D-02  0.597592D-01 -0.108982D-01 -0.168904D-01
     16  -0.187402D-01  0.843385D-01  0.277071D-01 -0.813970D-01  0.488983D-01
                 6 
      1  -0.633106D+03
      2  -0.583384D-01
      3   0.234283D+00
      4   0.646935D-01
      5   0.134247D-01
      6  -0.493850D-01
      7  -0.335322D-01
      8  -0.552325D-01
      9  -0.299538D-01
     10   0.613103D-02
     11  -0.263944D+00
     12  -0.216305D+00
     13   0.194148D+00
     14  -0.278749D-02
     15  -0.240255D-01
     16   0.399783D-01
 1\1\GINC-CN013\SP\RCAM-B3LYP TD-FC\TZVP\C11H15N1O2\WYX\23-Jan-2026\0\\
 #p CAM-B3LYP TZVP em=gd3bj td(nstates=6,root=2) scrf=(Solvent=TetraHyd
 roFuran,CorrectedLR,NonEquilibrium=Save) Geom=Check Guess=Read\\Title 
 Card Required\\0,1\O,0,2.835925,-1.560951,0.161667\O,0,-3.415029,-1.61
 9354,0.11864\N,0,-0.631846,1.509108,-0.392752\H,0,-0.941148,2.46576,-0
 .445047\C,0,-1.235313,-0.757398,-0.22626\C,0,0.703835,1.294074,-0.1194
 28\C,0,-1.607796,0.540263,-0.297357\C,0,-2.224477,-1.827114,-0.083849\
 C,0,0.224485,-1.116306,-0.387165\H,0,0.481138,-1.96843,0.237854\H,0,0.
 429148,-1.447151,-1.414001\C,0,1.152071,0.022822,-0.026381\C,0,2.51256
 1,-0.39087,0.328886\C,0,-3.000808,1.082849,-0.278698\H,0,-3.004853,2.1
 29495,-0.583623\H,0,-3.653961,0.512986,-0.932748\H,0,-3.425621,1.01043
 ,0.72226\C,0,-1.730233,-3.248785,-0.194346\H,0,-2.585065,-3.91881,-0.2
 31723\H,0,-1.107685,-3.39076,-1.078323\H,0,-1.117542,-3.503371,0.67300
 2\C,0,3.527245,0.547336,0.937308\H,0,4.041376,1.108011,0.154821\H,0,3.
 088462,1.257749,1.633131\H,0,4.268268,-0.058347,1.453493\C,0,1.466445,
 2.57484,0.038198\H,0,1.484868,2.890303,1.08265\H,0,2.486921,2.498359,-
 0.315789\H,0,0.978629,3.363262,-0.53442\\Version=ES64L-G16RevA.03\Stat
 e=1-A\HF=-633.3289528\RMSD=2.807e-09\Dipole=-0.6102637,2.1457156,-0.08
 20009\Quadrupole=-9.0503919,10.1292583,-1.0788664,7.0047253,1.9089938,
 0.5670086\PG=C01 [X(C11H15N1O2)]\\@


 THE BEST WAY TO CONVINCE A FOOL THAT HE IS WRONG 
 IS TO LET HIM HAVE HIS OWN WAY.

                                         JOSH BILLINGS
 Job cpu time:       0 days  2 hours 43 minutes 22.3 seconds.
 Elapsed time:       0 days  0 hours 10 minutes 15.6 seconds.
 File lengths (MBytes):  RWF=    733 Int=      0 D2E=      0 Chk=     67 Scr=      1
 Normal termination of Gaussian 16 at Fri Jan 23 22:24:41 2026.
