 Entering Gaussian System, Link 0=g16
 Input=DDL-LR-Eq-13.gjf
 Output=DDL-LR-Eq-13.log
 Initial command:
 /data/home/wyx/g16/l1.exe "/scr/tmp/wyx/13109/Gau-1688262.inp" -scrdir="/scr/tmp/wyx/13109/"
 Entering Link 1 = /data/home/wyx/g16/l1.exe PID=   1688263.
  
 Copyright (c) 1988,1990,1992,1993,1995,1998,2003,2009,2016,
            Gaussian, Inc.  All Rights Reserved.
  
 This is part of the Gaussian(R) 16 program.  It is based on
 the Gaussian(R) 09 system (copyright 2009, Gaussian, Inc.),
 the Gaussian(R) 03 system (copyright 2003, Gaussian, Inc.),
 the Gaussian(R) 98 system (copyright 1998, Gaussian, Inc.),
 the Gaussian(R) 94 system (copyright 1995, Gaussian, Inc.),
 the Gaussian 92(TM) system (copyright 1992, Gaussian, Inc.),
 the Gaussian 90(TM) system (copyright 1990, Gaussian, Inc.),
 the Gaussian 88(TM) system (copyright 1988, Gaussian, Inc.),
 the Gaussian 86(TM) system (copyright 1986, Carnegie Mellon
 University), and the Gaussian 82(TM) system (copyright 1983,
 Carnegie Mellon University). Gaussian is a federally registered
 trademark of Gaussian, Inc.
  
 This software contains proprietary and confidential information,
 including trade secrets, belonging to Gaussian, Inc.
  
 This software is provided under written license and may be
 used, copied, transmitted, or stored only in accord with that
 written license.
  
 The following legend is applicable only to US Government
 contracts under FAR:
  
                    RESTRICTED RIGHTS LEGEND
  
 Use, reproduction and disclosure by the US Government is
 subject to restrictions as set forth in subparagraphs (a)
 and (c) of the Commercial Computer Software - Restricted
 Rights clause in FAR 52.227-19.
  
 Gaussian, Inc.
 340 Quinnipiac St., Bldg. 40, Wallingford CT 06492
  
  
 ---------------------------------------------------------------
 Warning -- This program may not be used in any manner that
 competes with the business of Gaussian, Inc. or will provide
 assistance to any competitor of Gaussian, Inc.  The licensee
 of this program is prohibited from giving any competitor of
 Gaussian, Inc. access to this program.  By using this program,
 the user acknowledges that Gaussian, Inc. is engaged in the
 business of creating and licensing software in the field of
 computational chemistry and represents and warrants to the
 licensee that it is not a competitor of Gaussian, Inc. and that
 it will not use this program in any manner prohibited above.
 ---------------------------------------------------------------
  

 Cite this work as:
 Gaussian 16, Revision A.03,
 M. J. Frisch, G. W. Trucks, H. B. Schlegel, G. E. Scuseria, 
 M. A. Robb, J. R. Cheeseman, G. Scalmani, V. Barone, 
 G. A. Petersson, H. Nakatsuji, X. Li, M. Caricato, A. V. Marenich, 
 J. Bloino, B. G. Janesko, R. Gomperts, B. Mennucci, H. P. Hratchian, 
 J. V. Ortiz, A. F. Izmaylov, J. L. Sonnenberg, D. Williams-Young, 
 F. Ding, F. Lipparini, F. Egidi, J. Goings, B. Peng, A. Petrone, 
 T. Henderson, D. Ranasinghe, V. G. Zakrzewski, J. Gao, N. Rega, 
 G. Zheng, W. Liang, M. Hada, M. Ehara, K. Toyota, R. Fukuda, 
 J. Hasegawa, M. Ishida, T. Nakajima, Y. Honda, O. Kitao, H. Nakai, 
 T. Vreven, K. Throssell, J. A. Montgomery, Jr., J. E. Peralta, 
 F. Ogliaro, M. J. Bearpark, J. J. Heyd, E. N. Brothers, K. N. Kudin, 
 V. N. Staroverov, T. A. Keith, R. Kobayashi, J. Normand, 
 K. Raghavachari, A. P. Rendell, J. C. Burant, S. S. Iyengar, 
 J. Tomasi, M. Cossi, J. M. Millam, M. Klene, C. Adamo, R. Cammi, 
 J. W. Ochterski, R. L. Martin, K. Morokuma, O. Farkas, 
 J. B. Foresman, and D. J. Fox, Gaussian, Inc., Wallingford CT, 2016.
 
 ******************************************
 Gaussian 16:  ES64L-G16RevA.03 25-Dec-2016
                23-Jan-2026 
 ******************************************
 %nprocshared=16
 Will use up to   16 processors via shared memory.
 %mem=16GB
 %oldchk=DDL-LR-13.chk
 %chk=DDL-LR-Eq-13.chk
 Copying data from "DDL-LR-13.chk" to current chk file "DDL-LR-Eq-13.chk"
 IOpt=  2 FromEx=T IUOpen= 4 IOptOp= 5 NList=   0 IFRang= 0 IUIn= 4 IUOut= 2.
 ----------------------------------------------------------------------
 #p CAM-B3LYP TZVP em=gd3bj td(Eqsolv,nstates=6,root=1) scrf=(Solvent=T
 etraHydroFuran) Geom=Check Guess=Read
 ----------------------------------------------------------------------
 1/29=2,38=1,172=1/1;
 2/12=2,40=1/2;
 3/5=19,7=101,11=9,14=-4,25=1,30=1,70=2201,72=20,74=-40,116=-2,124=41/1,2,3,8;
 4/5=1/1;
 5/5=2,38=6,53=20/2;
 8/6=1,10=1,107=1,108=6/1;
 9/8=1,41=6,42=1,70=2,73=2/14;
 6/7=2,8=2,9=2,10=2/1;
 99/5=1,9=1/99;
 Leave Link    1 at Fri Jan 23 16:21:35 2026, MaxMem=  2147483648 cpu:               0.7 elap:               0.1
 (Enter /data/home/wyx/g16/l101.exe)
 -------------------
 Title Card Required
 -------------------
 Structure from the checkpoint file:  "DDL-LR-Eq-13.chk"
 Charge =  0 Multiplicity = 1
 Z-Matrix found in chk file.
 O,0,2.823309,-1.571917,0.226312
 O,0,-3.43691,-1.628622,-0.025317
 N,0,-0.636108,1.514788,-0.322093
 H,0,-0.94669,2.470928,-0.369045
 C,0,-1.239446,-0.757451,-0.21453
 C,0,0.695881,1.299398,-0.064709
 C,0,-1.61105,0.541021,-0.285275
 C,0,-2.219268,-1.823338,-0.141202
 C,0,0.222365,-1.121029,-0.284076
 H,0,0.443052,-1.92529,0.415621
 H,0,0.468655,-1.522421,-1.274644
 C,0,1.149267,0.029813,0.023014
 C,0,2.512405,-0.389892,0.337086
 C,0,-3.000206,1.079376,-0.321017
 H,0,-3.015643,2.082621,-0.749928
 H,0,-3.672431,0.455635,-0.90385
 H,0,-3.42129,1.131777,0.683783
 C,0,-1.758574,-3.251268,-0.215546
 H,0,-2.571994,-3.932686,-0.458416
 H,0,-0.970756,-3.403459,-0.95433
 H,0,-1.345091,-3.576004,0.743372
 C,0,3.566886,0.563926,0.836195
 H,0,3.981588,1.156312,0.020017
 H,0,3.206157,1.249899,1.598725
 H,0,4.367587,-0.044502,1.250077
 C,0,1.457849,2.578016,0.084068
 H,0,1.609332,2.834429,1.132945
 H,0,2.42735,2.551775,-0.400645
 H,0,0.913772,3.408164,-0.366591
 Recover connectivity data from disk.
 ITRead=  0  0  0  0  0  0  0  0  0  0  0  0  0  0  0  0  0  0  0  0
 ITRead=  0  0  0  0  0  0  0  0  0
 MicOpt= -1 -1 -1 -1 -1 -1 -1 -1 -1 -1 -1 -1 -1 -1 -1 -1 -1 -1 -1 -1
 MicOpt= -1 -1 -1 -1 -1 -1 -1 -1 -1
 NAtoms=     29 NQM=       29 NQMF=       0 NMMI=      0 NMMIF=      0
                NMic=       0 NMicF=      0.
                    Isotopes and Nuclear Properties:
 (Nuclear quadrupole moments (NQMom) in fm**2, nuclear magnetic moments (NMagM)
  in nuclear magnetons)

  Atom         1           2           3           4           5           6           7           8           9          10
 IAtWgt=          16          16          14           1          12          12          12          12          12           1
 AtmWgt=  15.9949146  15.9949146  14.0030740   1.0078250  12.0000000  12.0000000  12.0000000  12.0000000  12.0000000   1.0078250
 NucSpn=           0           0           2           1           0           0           0           0           0           1
 AtZEff=   5.6000000   5.6000000   4.5500000   1.0000000   3.6000000   3.6000000   3.6000000   3.6000000   3.6000000   1.0000000
 NQMom=    0.0000000   0.0000000   2.0440000   0.0000000   0.0000000   0.0000000   0.0000000   0.0000000   0.0000000   0.0000000
 NMagM=    0.0000000   0.0000000   0.4037610   2.7928460   0.0000000   0.0000000   0.0000000   0.0000000   0.0000000   2.7928460
 AtZNuc=   8.0000000   8.0000000   7.0000000   1.0000000   6.0000000   6.0000000   6.0000000   6.0000000   6.0000000   1.0000000

  Atom        11          12          13          14          15          16          17          18          19          20
 IAtWgt=           1          12          12          12           1           1           1          12           1           1
 AtmWgt=   1.0078250  12.0000000  12.0000000  12.0000000   1.0078250   1.0078250   1.0078250  12.0000000   1.0078250   1.0078250
 NucSpn=           1           0           0           0           1           1           1           0           1           1
 AtZEff=   1.0000000   3.6000000   3.6000000   3.6000000   1.0000000   1.0000000   1.0000000   3.6000000   1.0000000   1.0000000
 NQMom=    0.0000000   0.0000000   0.0000000   0.0000000   0.0000000   0.0000000   0.0000000   0.0000000   0.0000000   0.0000000
 NMagM=    2.7928460   0.0000000   0.0000000   0.0000000   2.7928460   2.7928460   2.7928460   0.0000000   2.7928460   2.7928460
 AtZNuc=   1.0000000   6.0000000   6.0000000   6.0000000   1.0000000   1.0000000   1.0000000   6.0000000   1.0000000   1.0000000

  Atom        21          22          23          24          25          26          27          28          29
 IAtWgt=           1          12           1           1           1          12           1           1           1
 AtmWgt=   1.0078250  12.0000000   1.0078250   1.0078250   1.0078250  12.0000000   1.0078250   1.0078250   1.0078250
 NucSpn=           1           0           1           1           1           0           1           1           1
 AtZEff=   1.0000000   3.6000000   1.0000000   1.0000000   1.0000000   3.6000000   1.0000000   1.0000000   1.0000000
 NQMom=    0.0000000   0.0000000   0.0000000   0.0000000   0.0000000   0.0000000   0.0000000   0.0000000   0.0000000
 NMagM=    2.7928460   0.0000000   2.7928460   2.7928460   2.7928460   0.0000000   2.7928460   2.7928460   2.7928460
 AtZNuc=   1.0000000   6.0000000   1.0000000   1.0000000   1.0000000   6.0000000   1.0000000   1.0000000   1.0000000
 Leave Link  101 at Fri Jan 23 16:21:37 2026, MaxMem=  2147483648 cpu:               0.9 elap:               0.1
 (Enter /data/home/wyx/g16/l202.exe)
                          Input orientation:                          
 ---------------------------------------------------------------------
 Center     Atomic      Atomic             Coordinates (Angstroms)
 Number     Number       Type             X           Y           Z
 ---------------------------------------------------------------------
      1          8           0        2.823309   -1.571917    0.226312
      2          8           0       -3.436910   -1.628622   -0.025317
      3          7           0       -0.636108    1.514788   -0.322093
      4          1           0       -0.946690    2.470928   -0.369045
      5          6           0       -1.239446   -0.757451   -0.214530
      6          6           0        0.695881    1.299398   -0.064709
      7          6           0       -1.611050    0.541021   -0.285275
      8          6           0       -2.219268   -1.823338   -0.141202
      9          6           0        0.222365   -1.121029   -0.284076
     10          1           0        0.443052   -1.925290    0.415621
     11          1           0        0.468655   -1.522421   -1.274644
     12          6           0        1.149267    0.029813    0.023014
     13          6           0        2.512405   -0.389892    0.337086
     14          6           0       -3.000206    1.079376   -0.321017
     15          1           0       -3.015643    2.082621   -0.749928
     16          1           0       -3.672431    0.455635   -0.903850
     17          1           0       -3.421290    1.131777    0.683783
     18          6           0       -1.758574   -3.251268   -0.215546
     19          1           0       -2.571994   -3.932686   -0.458416
     20          1           0       -0.970756   -3.403459   -0.954330
     21          1           0       -1.345091   -3.576004    0.743372
     22          6           0        3.566886    0.563926    0.836195
     23          1           0        3.981588    1.156312    0.020017
     24          1           0        3.206157    1.249899    1.598725
     25          1           0        4.367587   -0.044502    1.250077
     26          6           0        1.457849    2.578016    0.084068
     27          1           0        1.609332    2.834429    1.132945
     28          1           0        2.427350    2.551775   -0.400645
     29          1           0        0.913772    3.408164   -0.366591
 ---------------------------------------------------------------------
                    Distance matrix (angstroms):
                    1          2          3          4          5
     1  O    0.000000
     2  O    6.265531   0.000000
     3  N    4.668625   4.220615   0.000000
     4  H    5.559851   4.808914   1.006414   0.000000
     5  C    4.166974   2.371411   2.353435   3.245306   0.000000
     6  C    3.585400   5.065058   1.373621   2.040378   2.828173
     7  C    4.938600   2.847577   1.378437   2.042776   1.352451
     8  C    5.062199   1.238546   3.698946   4.484650   1.449670
     9  C    2.688625   3.703363   2.772355   3.778368   1.507951
    10  H    2.413780   3.916190   3.680074   4.676945   2.142834
    11  H    2.792797   4.101894   3.369346   4.332453   2.150960
    12  C    2.325787   4.877065   2.347725   3.241263   2.526294
    13  C    1.227239   6.087704   3.738376   4.544035   3.809956
    14  C    6.422013   2.758877   2.403860   2.481059   2.546674
    15  H    6.957158   3.804714   2.483478   2.139257   3.392276
    16  H    6.898034   2.274075   3.267951   3.431776   2.804667
    17  H    6.820136   2.850065   2.985921   3.004233   3.022680
    18  C    4.899909   2.342217   4.897609   5.781543   2.547277
    19  H    5.928860   2.498873   5.782838   6.607259   3.452142
    20  H    4.375316   3.177267   4.969997   5.903521   2.760590
    21  H    4.653953   2.959542   5.249194   6.161297   2.978754
    22  C    2.342368   7.389359   4.462166   5.045952   5.094201
    23  H    2.971094   7.924142   4.644207   5.115419   5.565671
    24  H    3.161129   7.419820   4.303802   4.754910   5.203915
    25  H    2.401226   8.065125   5.471752   6.098400   5.838852
    26  C    4.371116   6.454954   2.383291   2.449201   4.299989
    27  H    4.659572   6.835565   2.983385   2.986864   4.778371
    28  H    4.189832   7.211528   3.235164   3.375156   4.942773
    29  H    5.366477   6.664392   2.447239   2.083203   4.691675
                    6          7          8          9         10
     6  C    0.000000
     7  C    2.438384   0.000000
     8  C    4.272637   2.445584   0.000000
     9  C    2.476046   2.474636   2.544646   0.000000
    10  H    3.270054   3.285313   2.721836   1.088630   0.000000
    11  H    3.078675   3.092219   2.932605   1.096813   1.737802
    12  C    1.350963   2.824133   3.848138   1.509268   2.115492
    13  C    2.512946   4.272799   4.967117   2.482879   2.577952
    14  C    3.711491   1.490254   3.011303   3.902321   4.628896
    15  H    3.854656   2.136660   4.032527   4.578765   5.420740
    16  H    4.527499   2.153884   2.808386   4.247284   4.934269
    17  H    4.188011   2.136594   3.295172   4.391823   4.934644
    18  C    5.172588   3.795798   1.502248   2.909765   2.646459
    19  H    6.181320   4.579022   2.162034   3.967903   3.726135
    20  H    5.068133   4.051732   2.171806   2.661252   2.461829
    21  H    5.346785   4.251911   2.149068   3.088603   2.455551
    22  C    3.097615   5.298041   6.335133   3.908951   4.016394
    23  H    3.289912   5.634659   6.881491   4.405736   4.708929
    24  H    3.011802   5.220867   6.473590   4.250795   4.372220
    25  H    4.125064   6.200342   6.963230   4.549220   4.431214
    26  C    1.495859   3.701878   5.739674   3.917255   4.628121
    27  H    2.150602   4.200230   6.162501   4.424621   4.952745
    28  H    2.163166   4.512773   6.387486   4.285445   4.964659
    29  H    2.141379   3.821236   6.102078   4.582406   5.411023
                   11         12         13         14         15
    11  H    0.000000
    12  C    2.134615   0.000000
    13  C    2.838522   1.460458   0.000000
    14  C    4.439792   4.293957   5.742885   0.000000
    15  H    5.041030   4.707222   6.152580   1.091194   0.000000
    16  H    4.604214   4.928405   6.364514   1.086570   1.761291
    17  H    5.100184   4.747729   6.135504   1.090725   1.767535
    18  C    3.011835   4.390665   5.170506   4.506357   5.506011
    19  H    3.964991   5.457193   6.247826   5.032197   6.038685
    20  H    2.390148   4.151753   4.783487   4.961407   5.858363
    21  H    3.402832   4.443271   5.019627   5.054196   6.086109
    22  C    4.290399   2.606036   1.506920   6.688163   6.939158
    23  H    4.603526   3.048123   2.156334   6.990542   7.100148
    24  H    4.841066   2.863961   2.182187   6.498725   6.702268
    25  H    4.874437   3.445111   2.096318   7.616811   7.939569
    26  C    4.431499   2.567545   3.159839   4.720622   4.577455
    27  H    5.106836   3.051144   3.441682   5.142184   5.049834
    28  H    4.604284   2.858894   3.033956   5.624292   5.474329
    29  H    5.033225   3.408886   4.180433   4.554619   4.164650
                   16         17         18         19         20
    16  H    0.000000
    17  H    1.743794   0.000000
    18  C    4.228208   4.773311   0.000000
    19  H    4.546068   5.260676   1.088563   0.000000
    20  H    4.711072   5.408964   1.090698   1.757832   0.000000
    21  H    4.938012   5.145615   1.093593   1.754083   1.747023
    22  C    7.446287   7.012866   6.634937   7.718898   6.287791
    23  H    7.741349   7.432617   7.240974   8.311211   6.801954
    24  H    7.362656   6.691347   6.942668   8.029822   6.754142
    25  H    8.338551   7.897527   7.068327   8.136013   6.681310
    26  C    5.639172   5.124184   6.664510   7.676143   6.538688
    27  H    6.140376   5.329909   7.084979   8.112322   7.065750
    28  H    6.469494   6.115470   7.157620   8.188102   6.878845
    29  H    5.480815   5.007793   7.177206   8.126935   7.091903
                   21         22         23         24         25
    21  H    0.000000
    22  C    6.424574   0.000000
    23  H    7.161813   1.090434   0.000000
    24  H    6.688410   1.087261   1.761355   0.000000
    25  H    6.735202   1.087476   1.761816   1.773682   0.000000
    26  C    6.794344   3.011692   2.897344   2.667332   4.087022
    27  H    7.069231   3.012518   3.111637   2.297289   3.988726
    28  H    7.286272   2.603816   2.130711   2.509761   3.637315
    29  H    7.423819   4.071289   3.825153   3.711550   5.144255
                   26         27         28         29
    26  C    0.000000
    27  H    1.090338   0.000000
    28  H    1.084236   1.760950   0.000000
    29  H    1.090073   1.749738   1.739391   0.000000
 Stoichiometry    C11H15NO2
 Framework group  C1[X(C11H15NO2)]
 Deg. of freedom    81
 Full point group                 C1      NOp   1
 RotChk:  IX=0 Diff= 1.05D-15
 Largest Abelian subgroup         C1      NOp   1
 Largest concise Abelian subgroup C1      NOp   1
                         Standard orientation:                         
 ---------------------------------------------------------------------
 Center     Atomic      Atomic             Coordinates (Angstroms)
 Number     Number       Type             X           Y           Z
 ---------------------------------------------------------------------
      1          8           0        2.275730   -2.292871   -0.133382
      2          8           0       -3.619138   -0.229449    0.366314
      3          7           0        0.035612    1.802577   -0.205759
      4          1           0        0.065794    2.808504   -0.197400
      5          6           0       -1.289808   -0.137309   -0.068794
      6          6           0        1.234173    1.137855   -0.113959
      7          6           0       -1.202683    1.212331   -0.070388
      8          6           0       -2.560121   -0.814644    0.101695
      9          6           0       -0.055194   -0.965942   -0.319821
     10          1           0       -0.048175   -1.836832    0.333337
     11          1           0       -0.067155   -1.368437   -1.340043
     12          6           0        1.235093   -0.213077   -0.104781
     13          6           0        2.399270   -1.083639    0.035766
     14          6           0       -2.321156    2.187002    0.070659
     15          1           0       -2.039871    3.160307   -0.334630
     16          1           0       -3.223507    1.860195   -0.438845
     17          1           0       -2.589739    2.319263    1.119492
     18          6           0       -2.623512   -2.307477   -0.053811
     19          1           0       -3.641203   -2.660855   -0.210004
     20          1           0       -2.017927   -2.672161   -0.884409
     21          1           0       -2.245594   -2.807350    0.842432
     22          6           0        3.762156   -0.570004    0.422458
     23          1           0        4.264267   -0.104893   -0.426425
     24          1           0        3.739752    0.151719    1.235323
     25          1           0        4.347270   -1.434934    0.726007
     26          6           0        2.396988    2.075431   -0.033920
     27          1           0        2.737455    2.204670    0.993804
     28          1           0        3.242227    1.753385   -0.631770
     29          1           0        2.123161    3.064776   -0.400629
 ---------------------------------------------------------------------
 Rotational constants (GHZ):           1.0892909           0.4885504           0.3445927
 Leave Link  202 at Fri Jan 23 16:21:37 2026, MaxMem=  2147483648 cpu:               0.0 elap:               0.0
 (Enter /data/home/wyx/g16/l301.exe)
 Standard basis: TZVP (5D, 7F)
 Ernie: Thresh=  0.10000D-02 Tol=  0.10000D-05 Strict=F.
 There are   370 symmetry adapted cartesian basis functions of A   symmetry.
 There are   356 symmetry adapted basis functions of A   symmetry.
   356 basis functions,   610 primitive gaussians,   370 cartesian basis functions
    52 alpha electrons       52 beta electrons
       nuclear repulsion energy       900.7893226350 Hartrees.
 IExCor=20419 DFT=T Ex+Corr=CAM-B3LYP ExCW=0 ScaHFX=  1.000000
 ScaDFX=  1.000000  1.000000  1.000000  0.810000 ScalE2=  1.000000  1.000000
 IRadAn=      5 IRanWt=     -1 IRanGd=            0 ICorTp=0 IEmpDi=141
 HFx  wShort=  0.000000 wLong=  0.330000 cFull=  0.190000 cShort=  0.000000 cLong=  0.460000
 DFx  wShort=  0.000000 wLong=  0.330000 cFull=  0.190000 cShort=  0.000000 cLong=  0.460000
 NAtoms=   29 NActive=   29 NUniq=   29 SFac= 1.00D+00 NAtFMM=   60 NAOKFM=F Big=F
 Integral buffers will be    131072 words long.
 Raffenetti 1 integral format.
 Two-electron integral symmetry is turned on.
 R6Disp:  Grimme-D3(BJ) Dispersion energy=       -0.0261833944 Hartrees.
 Nuclear repulsion after empirical dispersion term =      900.7631392405 Hartrees.
 ------------------------------------------------------------------------------
 Polarizable Continuum Model (PCM)
 =================================
 Model                : PCM.
 Atomic radii         : UFF (Universal Force Field).
 Polarization charges : Total charges.
 Charge compensation  : None.
 Solution method      : On-the-fly selection.
 Cavity type          : Scaled VdW (van der Waals Surface) (Alpha=1.100).
 Cavity algorithm     : GePol (No added spheres)
                        Default sphere list used, NSphG=   29.
                        Lebedev-Laikov grids with approx.  5.0 points / Ang**2.
                        Smoothing algorithm: York/Karplus (Gamma=1.0000).
                        Polarization charges: spherical gaussians, with
                                              point-specific exponents (IZeta= 3).
                        Self-potential: point-specific (ISelfS= 7).
                        Self-field    : sphere-specific E.n sum rule (ISelfD= 2).
 Solvent              : TetraHydroFuran, Eps=   7.425700 Eps(inf)=   1.974025
 ------------------------------------------------------------------------------
 GePol: Number of generator spheres                  =      29
 GePol: Total number of spheres                      =      29
 GePol: Number of exposed spheres                    =      29 (100.00%)
 GePol: Number of points                             =    2113
 GePol: Average weight of points                     =       0.13
 GePol: Minimum weight of points                     =   0.33D-08
 GePol: Maximum weight of points                     =    0.20577
 GePol: Number of points with low weight             =     146
 GePol: Fraction of low-weight points (<1% of avg)   =       6.91%
 GePol: Cavity surface area                          =    268.186 Ang**2
 GePol: Cavity volume                                =    286.052 Ang**3
 Leave Link  301 at Fri Jan 23 16:21:38 2026, MaxMem=  2147483648 cpu:               0.6 elap:               0.0
 (Enter /data/home/wyx/g16/l302.exe)
 NPDir=0 NMtPBC=     1 NCelOv=     1 NCel=       1 NClECP=     1 NCelD=      1
         NCelK=      1 NCelE2=     1 NClLst=     1 CellRange=     0.0.
 One-electron integrals computed using PRISM.
 One-electron integral symmetry used in STVInt
 NBasis=   356 RedAO= T EigKep=  4.32D-05  NBF=   356
 NBsUse=   356 1.00D-06 EigRej= -1.00D+00 NBFU=   356
 Precomputing XC quadrature grid using
 IXCGrd= 4 IRadAn=           5 IRanWt=          -1 IRanGd=           0 AccXCQ= 0.00D+00.
 Generated NRdTot=       0 NPtTot=           0 NUsed=           0 NTot=          32
 NSgBfM=   366   366   366   366   366 MxSgAt=    29 MxSgA2=    29.
 Leave Link  302 at Fri Jan 23 16:21:38 2026, MaxMem=  2147483648 cpu:               3.1 elap:               0.2
 (Enter /data/home/wyx/g16/l303.exe)
 DipDrv:  MaxL=1.
 Leave Link  303 at Fri Jan 23 16:21:38 2026, MaxMem=  2147483648 cpu:               0.6 elap:               0.0
 (Enter /data/home/wyx/g16/l308.exe)
 Leave Link  308 at Fri Jan 23 16:21:38 2026, MaxMem=  2147483648 cpu:               0.7 elap:               0.1
 (Enter /data/home/wyx/g16/l401.exe)
 Initial guess from the checkpoint file:  "DDL-LR-Eq-13.chk"
 B after Tr=     0.000000   -0.000000   -0.000000
         Rot=    1.000000   -0.000000    0.000000   -0.000000 Ang=   0.00 deg.
 Guess basis will be translated and rotated to current coordinates.
 JPrj=2 DoOrth=T DoCkMO=T.
 Leave Link  401 at Fri Jan 23 16:21:39 2026, MaxMem=  2147483648 cpu:               2.2 elap:               0.2
 (Enter /data/home/wyx/g16/l502.exe)
 Integral symmetry usage will be decided dynamically.
 Closed shell SCF:
 Using DIIS extrapolation, IDIIS=  1040.
 NGot=  2147483648 LenX=  2147200095 LenY=  2147062754
 Requested convergence on RMS density matrix=1.00D-08 within 128 cycles.
 Requested convergence on MAX density matrix=1.00D-06.
 Requested convergence on             energy=1.00D-06.
 No special actions if energy rises.
 Fock matrices will be formed incrementally for  20 cycles.

 Cycle   1  Pass 1  IDiag  1:
 FoFJK:  IHMeth= 1 ICntrl=       0 DoSepK=T KAlg= 0 I1Cent=           0 FoldK=F
 IRaf=         1 NMat=       1 IRICut=       1 DoRegI=T DoRafI=F ISym2E= 0 IDoP0=0 IntGTp=1.
 FoFCou: FMM=F IPFlag=           0 FMFlag=      100000 FMFlg1=           0
         NFxFlg=           0 DoJE=T BraDBF=F KetDBF=F FulRan=T
         wScrn=  0.000000 ICntrl=       500 IOpCl=  0 I1Cent=           0 NGrid=           0
         NMat0=    1 NMatS0=      1 NMatT0=    0 NMatD0=    1 NMtDS0=    0 NMtDT0=    0
 Symmetry not used in FoFCou.
 Inv3:  Mode=1 IEnd=    13394307.
 Iteration    1 A*A^-1 deviation from unit magnitude is 3.22D-15 for   1055.
 Iteration    1 A*A^-1 deviation from orthogonality  is 1.67D-15 for   2033   1568.
 Iteration    1 A^-1*A deviation from unit magnitude is 2.89D-15 for      8.
 Iteration    1 A^-1*A deviation from orthogonality  is 1.50D-15 for   1762    742.
 E= -633.327126647921    
 DIIS: error= 1.89D-08 at cycle   1 NSaved=   1.
 NSaved= 1 IEnMin= 1 EnMin= -633.327126647921     IErMin= 1 ErrMin= 1.89D-08
 ErrMax= 1.89D-08  0.00D+00 EMaxC= 1.00D-01 BMatC= 8.90D-14 BMatP= 8.90D-14
 IDIUse=1 WtCom= 1.00D+00 WtEn= 0.00D+00
 Coeff-Com:  0.100D+01
 Coeff:      0.100D+01
 Gap=     0.238 Goal=   None    Shift=    0.000
 RMSDP=3.70D-09 MaxDP=8.59D-08              OVMax= 4.17D-07

 Error on total polarization charges =  0.01419
 SCF Done:  E(RCAM-B3LYP) =  -633.327126648     A.U. after    1 cycles
            NFock=  1  Conv=0.37D-08     -V/T= 2.0041
 KE= 6.307362406019D+02 PE=-3.277609671504D+03 EE= 1.112783165014D+03
 Leave Link  502 at Fri Jan 23 16:21:44 2026, MaxMem=  2147483648 cpu:              85.4 elap:               5.6
 (Enter /data/home/wyx/g16/l801.exe)
 DoSCS=F DFT=T ScalE2(SS,OS)=  1.000000  1.000000
 ExpMin= 9.52D-02 ExpMax= 2.70D+04 ExpMxC= 9.22D+02 IAcc=3 IRadAn=         5 AccDes= 0.00D+00
 HarFok:  IExCor=  205 AccDes= 0.00D+00 IRadAn=         5 IDoV=-2 UseB2=F ITyADJ=14
 ICtDFT= 12500011 ScaDFX=  1.000000  1.000000  1.000000  1.000000
 Largest valence mixing into a core orbital is  5.64D-05
 Largest core mixing into a valence orbital is  1.19D-05
 Range of M.O.s used for correlation:    15   356
 NBasis=   356 NAE=    52 NBE=    52 NFC=    14 NFV=     0
 NROrb=    342 NOA=    38 NOB=    38 NVA=   304 NVB=   304

 **** Warning!!: The largest alpha MO coefficient is  0.53285205D+02

 Leave Link  801 at Fri Jan 23 16:21:45 2026, MaxMem=  2147483648 cpu:               1.0 elap:               0.1
 (Enter /data/home/wyx/g16/l914.exe)
 RHF ground state
 Two-electron integrals replicated using symmetry.
 MDV=  2147483648 DFT=T DoStab=F Mixed=T DoRPA=T DoScal=F NonHer=T
 NEqPCM:  Using equilibrium solvation (IEInf=0, Eps=   7.4257, EpsInf=   1.9740)
 Making orbital integer symmetry assigments:
 Orbital symmetries:
       Occupied  (A) (A) (A) (A) (A) (A) (A) (A) (A) (A) (A) (A)
                 (A) (A) (A) (A) (A) (A) (A) (A) (A) (A) (A) (A)
                 (A) (A) (A) (A) (A) (A) (A) (A) (A) (A) (A) (A)
                 (A) (A) (A) (A) (A) (A) (A) (A) (A) (A) (A) (A)
                 (A) (A) (A) (A)
       Virtual   (A) (A) (A) (A) (A) (A) (A) (A) (A) (A) (A) (A)
                 (A) (A) (A) (A) (A) (A) (A) (A) (A) (A) (A) (A)
                 (A) (A) (A) (A) (A) (A) (A) (A) (A) (A) (A) (A)
                 (A) (A) (A) (A) (A) (A) (A) (A) (A) (A) (A) (A)
                 (A) (A) (A) (A) (A) (A) (A) (A) (A) (A) (A) (A)
                 (A) (A) (A) (A) (A) (A) (A) (A) (A) (A) (A) (A)
                 (A) (A) (A) (A) (A) (A) (A) (A) (A) (A) (A) (A)
                 (A) (A) (A) (A) (A) (A) (A) (A) (A) (A) (A) (A)
                 (A) (A) (A) (A) (A) (A) (A) (A) (A) (A) (A) (A)
                 (A) (A) (A) (A) (A) (A) (A) (A) (A) (A) (A) (A)
                 (A) (A) (A) (A) (A) (A) (A) (A) (A) (A) (A) (A)
                 (A) (A) (A) (A) (A) (A) (A) (A) (A) (A) (A) (A)
                 (A) (A) (A) (A) (A) (A) (A) (A) (A) (A) (A) (A)
                 (A) (A) (A) (A) (A) (A) (A) (A) (A) (A) (A) (A)
                 (A) (A) (A) (A) (A) (A) (A) (A) (A) (A) (A) (A)
                 (A) (A) (A) (A) (A) (A) (A) (A) (A) (A) (A) (A)
                 (A) (A) (A) (A) (A) (A) (A) (A) (A) (A) (A) (A)
                 (A) (A) (A) (A) (A) (A) (A) (A) (A) (A) (A) (A)
                 (A) (A) (A) (A) (A) (A) (A) (A) (A) (A) (A) (A)
                 (A) (A) (A) (A) (A) (A) (A) (A) (A) (A) (A) (A)
                 (A) (A) (A) (A) (A) (A) (A) (A) (A) (A) (A) (A)
                 (A) (A) (A) (A) (A) (A) (A) (A) (A) (A) (A) (A)
                 (A) (A) (A) (A) (A) (A) (A) (A) (A) (A) (A) (A)
                 (A) (A) (A) (A) (A) (A) (A) (A) (A) (A) (A) (A)
                 (A) (A) (A) (A) (A) (A) (A) (A) (A) (A) (A) (A)
                 (A) (A) (A) (A)
    24 initial guesses have been made.
 Convergence on wavefunction:    0.001000000000000
 Davidson Disk Diagonalization:  ConvIn= 1.00D-03 SkipCon=T Conv= 1.00D-03.
 Max sub-space:  2000 roots to seek:    24 dimension of matrix:        23104
 Iteration     1 Dimension    24 NMult     0 NNew     24
 CISAX will form    24 AO SS matrices at one time.
 NMat=    24 NSing=    24 JSym2X= 0.
 FoFJK:  IHMeth= 1 ICntrl=       0 DoSepK=T KAlg= 0 I1Cent=           0 FoldK=F
 IRaf=         1 NMat=      48 IRICut=       1 DoRegI=T DoRafI=F ISym2E= 0 IDoP0=3 IntGTp=3.
 FoFCou: FMM=F IPFlag=           0 FMFlag=      100000 FMFlg1=           0
         NFxFlg=           0 DoJE=F BraDBF=F KetDBF=F FulRan=T
         wScrn=  0.000000 ICntrl=       500 IOpCl=  0 I1Cent=           0 NGrid=           0
         NMat0=   24 NMatS0=     24 NMatT0=    0 NMatD0=   24 NMtDS0=    0 NMtDT0=    0
 Symmetry not used in FoFCou.
 New state      2 was old state      3
 New state      3 was old state      4
 New state      4 was old state      2
 New state      5 was old state      6
 New state      6 was old state      5
 Excitation Energies [eV] at current iteration:
 Root      1 :     3.863642229727782
 Root      2 :     4.208681960046954
 Root      3 :     4.516115051936356
 Root      4 :     5.544688931125591
 Root      5 :     6.193039118972749
 Root      6 :     6.366018087603921
 Root      7 :     6.749793853107033
 Root      8 :     6.773208886782744
 Root      9 :     6.947844974821581
 Root     10 :     7.088464254386216
 Root     11 :     7.267781326402349
 Root     12 :     7.466169093163426
 Root     13 :     7.588718614392251
 Root     14 :     7.627120139335656
 Root     15 :     7.766756075741402
 Root     16 :     8.024684096793836
 Root     17 :     8.170934413084622
 Root     18 :     8.270028500719969
 Root     19 :     8.290906977500999
 Root     20 :     8.585309486025107
 Root     21 :     8.703042716548856
 Root     22 :     8.863843406904909
 Root     23 :     8.952068803510102
 Root     24 :     9.145906531301971
 Iteration     2 Dimension    36 NMult    24 NNew     12
 CISAX will form    12 AO SS matrices at one time.
 NMat=    12 NSing=    12 JSym2X= 0.
 Root      1 not converged, maximum delta is    0.056799163711769
 Root      2 not converged, maximum delta is    0.072880242612454
 Root      3 not converged, maximum delta is    0.096321132202356
 Root      4 not converged, maximum delta is    0.353154755545096
 New state      5 was old state      6
 Root      5 not converged, maximum delta is    0.335429161856886
 New state      6 was old state      5
 Root      6 not converged, maximum delta is    0.248149446211446
 Excitation Energies [eV] at current iteration:
 Root      1 :     3.441703361966633   Change is   -0.421938867761149
 Root      2 :     3.970318881976750   Change is   -0.238363078070205
 Root      3 :     4.248116566584600   Change is   -0.267998485351756
 Root      4 :     5.129272306050924   Change is   -0.415416625074666
 Root      5 :     5.624880135041107   Change is   -0.741137952562813
 Root      6 :     6.067116933161657   Change is   -0.125922185811092
 Iteration     3 Dimension    48 NMult    36 NNew     12
 CISAX will form    12 AO SS matrices at one time.
 NMat=    12 NSing=    12 JSym2X= 0.
 Root      1 not converged, maximum delta is    0.008330801991956
 Root      2 not converged, maximum delta is    0.011923398305179
 Root      3 not converged, maximum delta is    0.015732540225796
 Root      4 not converged, maximum delta is    0.014087901039060
 Root      5 not converged, maximum delta is    0.013840563165225
 Root      6 not converged, maximum delta is    0.020410462589819
 Excitation Energies [eV] at current iteration:
 Root      1 :     3.426779001698225   Change is   -0.014924360268408
 Root      2 :     3.957814196198419   Change is   -0.012504685778331
 Root      3 :     4.234371892183232   Change is   -0.013744674401369
 Root      4 :     5.108330654482300   Change is   -0.020941651568625
 Root      5 :     5.607042039382163   Change is   -0.017838095658944
 Root      6 :     6.056331445984442   Change is   -0.010785487177214
 Iteration     4 Dimension    60 NMult    48 NNew     12
 CISAX will form    12 AO SS matrices at one time.
 NMat=    12 NSing=    12 JSym2X= 0.
 Root      1 not converged, maximum delta is    0.002191103074361
 Root      2 not converged, maximum delta is    0.002001325309310
 Root      3 not converged, maximum delta is    0.002193333596734
 Root      4 not converged, maximum delta is    0.003262430013630
 Root      5 not converged, maximum delta is    0.003019606839729
 Root      6 not converged, maximum delta is    0.004167271689599
 Excitation Energies [eV] at current iteration:
 Root      1 :     3.425491099614749   Change is   -0.001287902083476
 Root      2 :     3.956883156826930   Change is   -0.000931039371489
 Root      3 :     4.233692706058930   Change is   -0.000679186124301
 Root      4 :     5.106417360858629   Change is   -0.001913293623671
 Root      5 :     5.605178355907329   Change is   -0.001863683474835
 Root      6 :     6.055600211043422   Change is   -0.000731234941021
 Iteration     5 Dimension    72 NMult    60 NNew     12
 CISAX will form    12 AO SS matrices at one time.
 NMat=    12 NSing=    12 JSym2X= 0.
 Root      1 has converged.
 Root      2 has converged.
 Root      3 has converged.
 Root      4 has converged.
 Root      5 not converged, maximum delta is    0.001027022139803
 Root      6 has converged.
 Excitation Energies [eV] at current iteration:
 Root      1 :     3.425430016468401   Change is   -0.000061083146348
 Root      2 :     3.956843876234517   Change is   -0.000039280592412
 Root      3 :     4.233652201906363   Change is   -0.000040504152567
 Root      4 :     5.106267535281868   Change is   -0.000149825576760
 Root      5 :     5.605010192592055   Change is   -0.000168163315273
 Root      6 :     6.055549792165834   Change is   -0.000050418877588
 Iteration     6 Dimension    74 NMult    72 NNew      2
 CISAX will form     2 AO SS matrices at one time.
 NMat=     2 NSing=     2 JSym2X= 0.
 Root      1 has converged.
 Root      2 has converged.
 Root      3 has converged.
 Root      4 has converged.
 Root      5 has converged.
 Root      6 has converged.
 Excitation Energies [eV] at current iteration:
 Root      1 :     3.425429950543850   Change is   -0.000000065924552
 Root      2 :     3.956843760198860   Change is   -0.000000116035658
 Root      3 :     4.233652171389433   Change is   -0.000000030516931
 Root      4 :     5.106264590616176   Change is   -0.000002944665693
 Root      5 :     5.604999530066556   Change is   -0.000010662525500
 Root      6 :     6.055549683419564   Change is   -0.000000108746271
 Convergence achieved on expansion vectors.
 ***********************************************************************
 Excited states from <AA,BB:AA,BB> singles matrix:
 ***********************************************************************
 
 1PDM for each excited state written to RWF  633
 Ground to excited state transition densities written to RWF  633
 Ground to excited state transition electric dipole moments (Au):
       state          X           Y           Z        Dip. S.      Osc.
         1         1.6308     -0.1664     -0.0440      2.6890      0.2257
         2         0.2094     -0.0332     -0.0468      0.0472      0.0046
         3        -0.0082     -0.1165      0.0406      0.0153      0.0016
         4        -0.1438     -1.7710      0.1162      3.1707      0.3967
         5         0.1332      1.4605     -0.0188      2.1510      0.2954
         6         0.0266      0.2040      0.0582      0.0457      0.0068
 Ground to excited state transition velocity dipole moments (Au):
       state          X           Y           Z        Dip. S.      Osc.
         1        -0.1972      0.0171      0.0059      0.0392      0.2078
         2        -0.0298      0.0041      0.0047      0.0009      0.0043
         3         0.0011      0.0173     -0.0028      0.0003      0.0013
         4         0.0298      0.3174     -0.0175      0.1019      0.3622
         5        -0.0270     -0.2957      0.0046      0.0882      0.2854
         6        -0.0067     -0.0419     -0.0325      0.0029      0.0086
 Ground to excited state transition magnetic dipole moments (Au):
       state          X           Y           Z
         1         0.0898     -0.0124      1.4505
         2        -0.8080      0.2448      0.4039
         3        -0.0669      0.9805      0.1030
         4         0.0696     -0.0874      0.1848
         5        -0.2097      0.0988     -0.2592
         6        -0.0420     -0.0064      0.0012
 Ground to excited state transition velocity quadrupole moments (Au):
       state          XX          YY          ZZ          XY          XZ          YZ
         1         0.2274     -0.1157     -0.0027      0.5422     -0.0548     -0.0077
         2         0.0190      0.0072     -0.0032      0.0862     -0.0329     -0.0794
         3        -0.0120      0.0094     -0.0231      0.0344     -0.0737     -0.0000
         4        -1.3462      0.3086      0.0087      0.1380      0.0756     -0.0402
         5         0.5686     -0.3000     -0.0499     -0.1531     -0.0584     -0.0608
         6        -0.2161     -0.1714      0.1491      0.0092      0.0259      0.0401
 <0|del|b> * <b|rxdel|0> + <0|del|b> * <b|delr+rdel|0>
 Rotatory Strengths (R) in cgs (10**-40 erg-esu-cm/Gauss)
       state          XX          YY          ZZ    R(velocity)    E-M Angle
         1        35.0400    -30.4342    -57.2455    -17.5466       91.87
         2         8.3619     67.9556     54.9023     43.7399       18.77
         3        40.5714     -0.5988     35.4779     25.1502       16.84
         4      -108.1593      0.1044     -0.8757    -36.3102      114.78
         5       -83.0465     11.7032    -13.5987    -28.3140      103.86
         6         1.6164      0.4335     -0.4165      0.5445       76.93
 1/2[<0|r|b>*<b|rxdel|0> + (<0|rxdel|b>*<b|r|0>)*]
 Rotatory Strengths (R) in cgs (10**-40 erg-esu-cm/Gauss)
       state          XX          YY          ZZ     R(length)
         1      -103.5649     -1.4552     45.1598    -19.9534
         2       119.6768      5.7465     13.3738     46.2657
         3        -0.3879     80.7450     -2.9550     25.8007
         4         7.0757   -109.4883    -15.1928    -39.2018
         5        19.7565   -102.0524     -3.4403    -28.5787
         6         0.7887      0.9305     -0.0490      0.5567
  1/2[<0|del|b>*<b|r|0> + (<0|r|b>*<b|del|0>)*] (Au)
       state          X           Y           Z        Dip. S.   Osc.(frdel)
         1        -0.3217     -0.0028     -0.0003      0.3248      0.2165
         2        -0.0062     -0.0001     -0.0002      0.0066      0.0044
         3        -0.0000     -0.0020     -0.0001      0.0021      0.0014
         4        -0.0043     -0.5622     -0.0020      0.5685      0.3790
         5        -0.0036     -0.4319     -0.0001      0.4355      0.2904
         6        -0.0002     -0.0085     -0.0019      0.0106      0.0071

 Excitation energies and oscillator strengths:
 
 Excited State   1:      Singlet-A      3.4254 eV  361.95 nm  f=0.2257  <S**2>=0.000
      52 -> 53         0.69785
 This state for optimization and/or second-order correction.
 Total Energy, E(TD-HF/TD-DFT) =  -633.201244413    
 Copying the excited state density for this state as the 1-particle RhoCI density.
 
 Excited State   2:      Singlet-A      3.9568 eV  313.34 nm  f=0.0046  <S**2>=0.000
      50 -> 54        -0.13021
      51 -> 53         0.57419
      51 -> 54        -0.34118
 
 Excited State   3:      Singlet-A      4.2337 eV  292.85 nm  f=0.0016  <S**2>=0.000
      49 -> 53         0.12314
      50 -> 53         0.54561
      50 -> 54         0.33564
      50 -> 58         0.11962
      51 -> 53        -0.10863
      51 -> 54        -0.16037
 
 Excited State   4:      Singlet-A      5.1063 eV  242.81 nm  f=0.3967  <S**2>=0.000
      52 -> 54         0.69316
 
 Excited State   5:      Singlet-A      5.6050 eV  221.20 nm  f=0.2954  <S**2>=0.000
      49 -> 53         0.66599
      50 -> 53        -0.16356
 
 Excited State   6:      Singlet-A      6.0555 eV  204.74 nm  f=0.0068  <S**2>=0.000
      52 -> 55         0.66032
      52 -> 56         0.13341
 SavETr:  write IOETrn=   770 NScale= 10 NData=  16 NLR=1 NState=    6 LETran=     118.
 Leave Link  914 at Fri Jan 23 16:23:54 2026, MaxMem=  2147483648 cpu:            2060.4 elap:             129.1
 (Enter /data/home/wyx/g16/l601.exe)
 Copying SCF densities to generalized density rwf, IOpCl= 0 IROHF=0.

 **********************************************************************

            Population analysis using the SCF density.

 **********************************************************************

 Orbital symmetries:
       Occupied  (A) (A) (A) (A) (A) (A) (A) (A) (A) (A) (A) (A)
                 (A) (A) (A) (A) (A) (A) (A) (A) (A) (A) (A) (A)
                 (A) (A) (A) (A) (A) (A) (A) (A) (A) (A) (A) (A)
                 (A) (A) (A) (A) (A) (A) (A) (A) (A) (A) (A) (A)
                 (A) (A) (A) (A)
       Virtual   (A) (A) (A) (A) (A) (A) (A) (A) (A) (A) (A) (A)
                 (A) (A) (A) (A) (A) (A) (A) (A) (A) (A) (A) (A)
                 (A) (A) (A) (A) (A) (A) (A) (A) (A) (A) (A) (A)
                 (A) (A) (A) (A) (A) (A) (A) (A) (A) (A) (A) (A)
                 (A) (A) (A) (A) (A) (A) (A) (A) (A) (A) (A) (A)
                 (A) (A) (A) (A) (A) (A) (A) (A) (A) (A) (A) (A)
                 (A) (A) (A) (A) (A) (A) (A) (A) (A) (A) (A) (A)
                 (A) (A) (A) (A) (A) (A) (A) (A) (A) (A) (A) (A)
                 (A) (A) (A) (A) (A) (A) (A) (A) (A) (A) (A) (A)
                 (A) (A) (A) (A) (A) (A) (A) (A) (A) (A) (A) (A)
                 (A) (A) (A) (A) (A) (A) (A) (A) (A) (A) (A) (A)
                 (A) (A) (A) (A) (A) (A) (A) (A) (A) (A) (A) (A)
                 (A) (A) (A) (A) (A) (A) (A) (A) (A) (A) (A) (A)
                 (A) (A) (A) (A) (A) (A) (A) (A) (A) (A) (A) (A)
                 (A) (A) (A) (A) (A) (A) (A) (A) (A) (A) (A) (A)
                 (A) (A) (A) (A) (A) (A) (A) (A) (A) (A) (A) (A)
                 (A) (A) (A) (A) (A) (A) (A) (A) (A) (A) (A) (A)
                 (A) (A) (A) (A) (A) (A) (A) (A) (A) (A) (A) (A)
                 (A) (A) (A) (A) (A) (A) (A) (A) (A) (A) (A) (A)
                 (A) (A) (A) (A) (A) (A) (A) (A) (A) (A) (A) (A)
                 (A) (A) (A) (A) (A) (A) (A) (A) (A) (A) (A) (A)
                 (A) (A) (A) (A) (A) (A) (A) (A) (A) (A) (A) (A)
                 (A) (A) (A) (A) (A) (A) (A) (A) (A) (A) (A) (A)
                 (A) (A) (A) (A) (A) (A) (A) (A) (A) (A) (A) (A)
                 (A) (A) (A) (A) (A) (A) (A) (A) (A) (A) (A) (A)
                 (A) (A) (A) (A)
 The electronic state is 1-A.
 Alpha  occ. eigenvalues --  -19.17831 -19.17114 -14.44198 -10.33352 -10.33064
 Alpha  occ. eigenvalues --  -10.32123 -10.31639 -10.25969 -10.25052 -10.24845
 Alpha  occ. eigenvalues --  -10.24749 -10.24663 -10.24141 -10.23718  -1.11981
 Alpha  occ. eigenvalues --   -1.10853  -1.07646  -0.91409  -0.90431  -0.83849
 Alpha  occ. eigenvalues --   -0.82545  -0.81574  -0.78614  -0.74196  -0.71315
 Alpha  occ. eigenvalues --   -0.68778  -0.61826  -0.58387  -0.56877  -0.55189
 Alpha  occ. eigenvalues --   -0.54670  -0.54039  -0.52552  -0.51935  -0.50695
 Alpha  occ. eigenvalues --   -0.49821  -0.49472  -0.49096  -0.48437  -0.48241
 Alpha  occ. eigenvalues --   -0.46808  -0.45234  -0.44921  -0.43601  -0.43060
 Alpha  occ. eigenvalues --   -0.42383  -0.41903  -0.41619  -0.32972  -0.32214
 Alpha  occ. eigenvalues --   -0.31141  -0.26222
 Alpha virt. eigenvalues --   -0.02454   0.02403   0.06294   0.08077   0.08486
 Alpha virt. eigenvalues --    0.09966   0.10661   0.12034   0.12638   0.13590
 Alpha virt. eigenvalues --    0.14068   0.14934   0.15550   0.16484   0.17019
 Alpha virt. eigenvalues --    0.17524   0.17659   0.17877   0.18142   0.19274
 Alpha virt. eigenvalues --    0.19836   0.21979   0.22749   0.23439   0.23608
 Alpha virt. eigenvalues --    0.24332   0.24672   0.25668   0.25952   0.26689
 Alpha virt. eigenvalues --    0.27053   0.27375   0.28608   0.29053   0.30105
 Alpha virt. eigenvalues --    0.31318   0.32018   0.32460   0.33542   0.34409
 Alpha virt. eigenvalues --    0.35290   0.35832   0.36781   0.38222   0.38891
 Alpha virt. eigenvalues --    0.39644   0.41069   0.41845   0.42281   0.42694
 Alpha virt. eigenvalues --    0.44114   0.44532   0.45594   0.46088   0.46375
 Alpha virt. eigenvalues --    0.47119   0.48142   0.48498   0.48524   0.48874
 Alpha virt. eigenvalues --    0.49666   0.49881   0.50836   0.51309   0.51508
 Alpha virt. eigenvalues --    0.52788   0.53127   0.53671   0.54020   0.54360
 Alpha virt. eigenvalues --    0.54647   0.55805   0.55852   0.56818   0.58071
 Alpha virt. eigenvalues --    0.58459   0.58968   0.60548   0.61651   0.62196
 Alpha virt. eigenvalues --    0.63191   0.65590   0.65800   0.67016   0.68095
 Alpha virt. eigenvalues --    0.69795   0.70580   0.71700   0.72589   0.73014
 Alpha virt. eigenvalues --    0.73684   0.74849   0.75179   0.76373   0.77292
 Alpha virt. eigenvalues --    0.79129   0.80080   0.83191   0.84716   0.85668
 Alpha virt. eigenvalues --    0.89016   0.91934   0.95280   1.00401   1.24227
 Alpha virt. eigenvalues --    1.25606   1.26918   1.28185   1.29366   1.31620
 Alpha virt. eigenvalues --    1.32513   1.32779   1.33843   1.35341   1.35772
 Alpha virt. eigenvalues --    1.36902   1.37413   1.37846   1.38935   1.39667
 Alpha virt. eigenvalues --    1.39965   1.40588   1.41261   1.41360   1.41840
 Alpha virt. eigenvalues --    1.43405   1.43986   1.44177   1.45163   1.47279
 Alpha virt. eigenvalues --    1.47662   1.49317   1.49777   1.50644   1.51485
 Alpha virt. eigenvalues --    1.52181   1.52802   1.53306   1.54879   1.57615
 Alpha virt. eigenvalues --    1.58280   1.60293   1.60523   1.61414   1.62120
 Alpha virt. eigenvalues --    1.62799   1.63535   1.64416   1.65713   1.66189
 Alpha virt. eigenvalues --    1.66721   1.67209   1.68065   1.68536   1.68951
 Alpha virt. eigenvalues --    1.69143   1.69883   1.70886   1.71874   1.72971
 Alpha virt. eigenvalues --    1.73607   1.74757   1.76154   1.76773   1.78494
 Alpha virt. eigenvalues --    1.80430   1.82727   1.84077   1.85377   1.86351
 Alpha virt. eigenvalues --    1.87036   1.87711   1.88099   1.89434   1.90390
 Alpha virt. eigenvalues --    1.91325   1.93945   1.95302   1.98082   1.99653
 Alpha virt. eigenvalues --    2.00962   2.04194   2.04584   2.06452   2.09388
 Alpha virt. eigenvalues --    2.10948   2.13156   2.14724   2.17393   2.19384
 Alpha virt. eigenvalues --    2.20726   2.21462   2.22167   2.23497   2.25700
 Alpha virt. eigenvalues --    2.26804   2.28269   2.29761   2.30991   2.32581
 Alpha virt. eigenvalues --    2.34115   2.34740   2.35880   2.37834   2.38189
 Alpha virt. eigenvalues --    2.38973   2.41061   2.41826   2.44609   2.44862
 Alpha virt. eigenvalues --    2.45615   2.48590   2.49681   2.50651   2.52261
 Alpha virt. eigenvalues --    2.52693   2.52788   2.54331   2.56543   2.57929
 Alpha virt. eigenvalues --    2.58698   2.60606   2.60999   2.61649   2.62671
 Alpha virt. eigenvalues --    2.63801   2.65526   2.66624   2.67130   2.69437
 Alpha virt. eigenvalues --    2.70856   2.71793   2.73495   2.74032   2.74422
 Alpha virt. eigenvalues --    2.75646   2.77047   2.77700   2.78147   2.79377
 Alpha virt. eigenvalues --    2.80881   2.81420   2.82552   2.83802   2.84787
 Alpha virt. eigenvalues --    2.85990   2.86089   2.88110   2.90426   2.92903
 Alpha virt. eigenvalues --    2.97467   2.99364   3.00116   3.04736   3.10330
 Alpha virt. eigenvalues --    3.11870   3.13111   3.15691   3.18477   3.19050
 Alpha virt. eigenvalues --    3.21212   3.22567   3.25145   3.25954   3.26714
 Alpha virt. eigenvalues --    3.27283   3.30136   3.33257   3.35132   3.36681
 Alpha virt. eigenvalues --    3.37474   3.39303   3.39952   3.40352   3.41946
 Alpha virt. eigenvalues --    3.42940   3.44304   3.45880   3.46033   3.47578
 Alpha virt. eigenvalues --    3.49872   3.51576   3.54399   3.57568   3.59394
 Alpha virt. eigenvalues --    3.60947   3.90685   3.99851   4.34698   4.35582
 Alpha virt. eigenvalues --   21.63469  21.78178  22.07948  22.10631  22.11592
 Alpha virt. eigenvalues --   22.13639  22.15894  22.18513  22.21405  22.26440
 Alpha virt. eigenvalues --   22.31255  31.93084  43.62941  43.65313
          Condensed to atoms (all electrons):
               1          2          3          4          5          6
     1  O    7.929760   0.000000  -0.000215   0.000017   0.015214   0.017161
     2  O    0.000000   7.997497   0.000454   0.000037  -0.193003   0.001194
     3  N   -0.000215   0.000454   6.392745   0.375168  -0.115360   0.340817
     4  H    0.000017   0.000037   0.375168   0.409401   0.015737  -0.045286
     5  C    0.015214  -0.193003  -0.115360   0.015737   7.024269  -0.057211
     6  C    0.017161   0.001194   0.340817  -0.045286  -0.057211   5.608618
     7  C   -0.000328  -0.030079   0.373548  -0.043466   0.385820  -0.107042
     8  C   -0.000256   0.695039   0.004321  -0.000679  -0.309525   0.031777
     9  C   -0.018823   0.019227   0.015336  -0.000055  -0.524145  -0.108954
    10  H    0.014363  -0.000109  -0.001333   0.000017  -0.114093   0.023463
    11  H    0.003455   0.000091   0.003308   0.000006  -0.033021  -0.010204
    12  C   -0.224757  -0.002588  -0.092917   0.015949   0.161117  -0.173516
    13  C    0.726672  -0.000020   0.000425   0.000417   0.070803   0.152957
    14  C   -0.000006  -0.024717  -0.038363  -0.005624  -0.062740   0.003348
    15  H   -0.000000   0.004645   0.003726   0.000715   0.017344   0.006618
    16  H    0.000000   0.006234   0.002688   0.000747  -0.007091  -0.000608
    17  H   -0.000000   0.000758  -0.003757   0.000849  -0.008768  -0.001592
    18  C   -0.000152  -0.106197  -0.000458   0.000019  -0.249435  -0.000084
    19  H   -0.000003   0.008010   0.000002  -0.000001   0.020983   0.000026
    20  H    0.000163   0.004382   0.000117   0.000001   0.052072  -0.001239
    21  H    0.000017   0.000703   0.000014  -0.000001  -0.000978   0.000219
    22  C   -0.117845   0.000000   0.000002   0.000118   0.003437  -0.003352
    23  H    0.001853   0.000000   0.000015  -0.000020  -0.000132   0.010637
    24  H    0.004245  -0.000000   0.000001  -0.000043  -0.000381  -0.030158
    25  H    0.009517   0.000000   0.000023  -0.000002  -0.000118  -0.001486
    26  C    0.000866   0.000004  -0.030500  -0.007774  -0.000308   0.196764
    27  H   -0.000035  -0.000000  -0.002960   0.000491   0.000431  -0.037144
    28  H   -0.000146  -0.000000   0.001961   0.000911   0.000022  -0.040309
    29  H    0.000020  -0.000000   0.001661   0.001316  -0.000450  -0.052062
               7          8          9         10         11         12
     1  O   -0.000328  -0.000256  -0.018823   0.014363   0.003455  -0.224757
     2  O   -0.030079   0.695039   0.019227  -0.000109   0.000091  -0.002588
     3  N    0.373548   0.004321   0.015336  -0.001333   0.003308  -0.092917
     4  H   -0.043466  -0.000679  -0.000055   0.000017   0.000006   0.015949
     5  C    0.385820  -0.309525  -0.524145  -0.114093  -0.033021   0.161117
     6  C   -0.107042   0.031777  -0.108954   0.023463  -0.010204  -0.173516
     7  C    5.448335  -0.217565  -0.173335   0.018020  -0.006315   0.004656
     8  C   -0.217565   5.440690   0.118815  -0.009422  -0.001296  -0.042254
     9  C   -0.173335   0.118815   6.271104   0.540133   0.395774  -0.031012
    10  H    0.018020  -0.009422   0.540133   0.498291  -0.033528  -0.106821
    11  H   -0.006315  -0.001296   0.395774  -0.033528   0.547024  -0.016731
    12  C    0.004656  -0.042254  -0.031012  -0.106821  -0.016731   7.360506
    13  C    0.014164  -0.006844  -0.241923  -0.001450  -0.002719  -0.413481
    14  C    0.241932  -0.049755   0.013125   0.000510  -0.001355  -0.002304
    15  H   -0.074653   0.006099  -0.000443  -0.000005   0.000099  -0.001098
    16  H   -0.031484  -0.011113   0.000188  -0.000057   0.000152  -0.000222
    17  H   -0.019195   0.001037   0.000102   0.000056  -0.000056   0.000618
    18  C    0.003932   0.331412   0.003851   0.005764  -0.010517  -0.000915
    19  H    0.000432  -0.048451  -0.000970   0.000497   0.000067  -0.000211
    20  H    0.002139  -0.081005  -0.011983  -0.005425   0.002003   0.007136
    21  H    0.000281  -0.018869  -0.006108  -0.001492   0.000737  -0.003098
    22  C    0.000057  -0.000016   0.005017   0.001125   0.001526  -0.291486
    23  H    0.000015   0.000004  -0.002083  -0.000128   0.000150  -0.004283
    24  H   -0.000025  -0.000007   0.002775  -0.000029  -0.000131   0.058768
    25  H    0.000013   0.000002   0.000031  -0.000124  -0.000037   0.025288
    26  C    0.004133   0.000510   0.019517   0.000075  -0.000623  -0.084197
    27  H   -0.000986  -0.000012   0.000004   0.000040  -0.000015  -0.017310
    28  H   -0.000764  -0.000001  -0.000863   0.000003  -0.000062  -0.006056
    29  H    0.003905   0.000003  -0.000578  -0.000007   0.000072   0.023593
              13         14         15         16         17         18
     1  O    0.726672  -0.000006  -0.000000   0.000000  -0.000000  -0.000152
     2  O   -0.000020  -0.024717   0.004645   0.006234   0.000758  -0.106197
     3  N    0.000425  -0.038363   0.003726   0.002688  -0.003757  -0.000458
     4  H    0.000417  -0.005624   0.000715   0.000747   0.000849   0.000019
     5  C    0.070803  -0.062740   0.017344  -0.007091  -0.008768  -0.249435
     6  C    0.152957   0.003348   0.006618  -0.000608  -0.001592  -0.000084
     7  C    0.014164   0.241932  -0.074653  -0.031484  -0.019195   0.003932
     8  C   -0.006844  -0.049755   0.006099  -0.011113   0.001037   0.331412
     9  C   -0.241923   0.013125  -0.000443   0.000188   0.000102   0.003851
    10  H   -0.001450   0.000510  -0.000005  -0.000057   0.000056   0.005764
    11  H   -0.002719  -0.001355   0.000099   0.000152  -0.000056  -0.010517
    12  C   -0.413481  -0.002304  -0.001098  -0.000222   0.000618  -0.000915
    13  C    5.440982  -0.000047  -0.000018  -0.000000  -0.000022   0.000565
    14  C   -0.000047   5.134427   0.381745   0.424548   0.404897   0.001119
    15  H   -0.000018   0.381745   0.585753  -0.028813  -0.027451   0.000249
    16  H   -0.000000   0.424548  -0.028813   0.495301  -0.023358   0.000053
    17  H   -0.000022   0.404897  -0.027451  -0.023358   0.507396  -0.000062
    18  C    0.000565   0.001119   0.000249   0.000053  -0.000062   5.310634
    19  H   -0.000013   0.000027  -0.000004   0.000060  -0.000016   0.395626
    20  H    0.000721   0.000179  -0.000018  -0.000071   0.000002   0.386975
    21  H   -0.000081  -0.000300  -0.000006   0.000028   0.000006   0.392213
    22  C    0.307884  -0.000014   0.000003  -0.000000  -0.000000   0.000019
    23  H   -0.028626  -0.000001   0.000000   0.000000  -0.000000  -0.000002
    24  H   -0.079513  -0.000001  -0.000000   0.000000   0.000000   0.000003
    25  H   -0.046316   0.000000   0.000000  -0.000000  -0.000000  -0.000001
    26  C   -0.049504   0.001329  -0.000175   0.000051  -0.000150   0.000016
    27  H    0.005790  -0.000096   0.000012   0.000002  -0.000013  -0.000001
    28  H   -0.005530   0.000101  -0.000017  -0.000001   0.000002  -0.000000
    29  H   -0.000449  -0.000273   0.000138  -0.000003   0.000002   0.000000
              19         20         21         22         23         24
     1  O   -0.000003   0.000163   0.000017  -0.117845   0.001853   0.004245
     2  O    0.008010   0.004382   0.000703   0.000000   0.000000  -0.000000
     3  N    0.000002   0.000117   0.000014   0.000002   0.000015   0.000001
     4  H   -0.000001   0.000001  -0.000001   0.000118  -0.000020  -0.000043
     5  C    0.020983   0.052072  -0.000978   0.003437  -0.000132  -0.000381
     6  C    0.000026  -0.001239   0.000219  -0.003352   0.010637  -0.030158
     7  C    0.000432   0.002139   0.000281   0.000057   0.000015  -0.000025
     8  C   -0.048451  -0.081005  -0.018869  -0.000016   0.000004  -0.000007
     9  C   -0.000970  -0.011983  -0.006108   0.005017  -0.002083   0.002775
    10  H    0.000497  -0.005425  -0.001492   0.001125  -0.000128  -0.000029
    11  H    0.000067   0.002003   0.000737   0.001526   0.000150  -0.000131
    12  C   -0.000211   0.007136  -0.003098  -0.291486  -0.004283   0.058768
    13  C   -0.000013   0.000721  -0.000081   0.307884  -0.028626  -0.079513
    14  C    0.000027   0.000179  -0.000300  -0.000014  -0.000001  -0.000001
    15  H   -0.000004  -0.000018  -0.000006   0.000003   0.000000  -0.000000
    16  H    0.000060  -0.000071   0.000028  -0.000000   0.000000   0.000000
    17  H   -0.000016   0.000002   0.000006  -0.000000  -0.000000   0.000000
    18  C    0.395626   0.386975   0.392213   0.000019  -0.000002   0.000003
    19  H    0.504007  -0.025838  -0.010092  -0.000000   0.000000   0.000000
    20  H   -0.025838   0.543079  -0.024351   0.000021  -0.000000  -0.000000
    21  H   -0.010092  -0.024351   0.498804  -0.000008   0.000000  -0.000000
    22  C   -0.000000   0.000021  -0.000008   5.444095   0.399514   0.389436
    23  H    0.000000  -0.000000   0.000000   0.399514   0.502140  -0.029792
    24  H    0.000000  -0.000000  -0.000000   0.389436  -0.029792   0.546386
    25  H   -0.000000  -0.000000  -0.000000   0.384670  -0.007575  -0.020749
    26  C    0.000000  -0.000015   0.000004  -0.036445  -0.015282   0.016271
    27  H    0.000000  -0.000000  -0.000000  -0.011264   0.001353  -0.001499
    28  H   -0.000000  -0.000000   0.000000   0.009010  -0.000729  -0.007959
    29  H    0.000000   0.000000  -0.000000   0.002008   0.000212   0.000616
              25         26         27         28         29
     1  O    0.009517   0.000866  -0.000035  -0.000146   0.000020
     2  O    0.000000   0.000004  -0.000000  -0.000000  -0.000000
     3  N    0.000023  -0.030500  -0.002960   0.001961   0.001661
     4  H   -0.000002  -0.007774   0.000491   0.000911   0.001316
     5  C   -0.000118  -0.000308   0.000431   0.000022  -0.000450
     6  C   -0.001486   0.196764  -0.037144  -0.040309  -0.052062
     7  C    0.000013   0.004133  -0.000986  -0.000764   0.003905
     8  C    0.000002   0.000510  -0.000012  -0.000001   0.000003
     9  C    0.000031   0.019517   0.000004  -0.000863  -0.000578
    10  H   -0.000124   0.000075   0.000040   0.000003  -0.000007
    11  H   -0.000037  -0.000623  -0.000015  -0.000062   0.000072
    12  C    0.025288  -0.084197  -0.017310  -0.006056   0.023593
    13  C   -0.046316  -0.049504   0.005790  -0.005530  -0.000449
    14  C    0.000000   0.001329  -0.000096   0.000101  -0.000273
    15  H    0.000000  -0.000175   0.000012  -0.000017   0.000138
    16  H   -0.000000   0.000051   0.000002  -0.000001  -0.000003
    17  H   -0.000000  -0.000150  -0.000013   0.000002   0.000002
    18  C   -0.000001   0.000016  -0.000001  -0.000000   0.000000
    19  H   -0.000000   0.000000   0.000000  -0.000000   0.000000
    20  H   -0.000000  -0.000015  -0.000000  -0.000000   0.000000
    21  H   -0.000000   0.000004  -0.000000   0.000000  -0.000000
    22  C    0.384670  -0.036445  -0.011264   0.009010   0.002008
    23  H   -0.007575  -0.015282   0.001353  -0.000729   0.000212
    24  H   -0.020749   0.016271  -0.001499  -0.007959   0.000616
    25  H    0.494407   0.001927   0.000087   0.000655  -0.000041
    26  C    0.001927   5.239566   0.432954   0.421045   0.389565
    27  H    0.000087   0.432954   0.480775  -0.027470  -0.017880
    28  H    0.000655   0.421045  -0.027470   0.514498  -0.026366
    29  H   -0.000041   0.389565  -0.017880  -0.026366   0.523443
 Mulliken charges:
               1
     1  O   -0.360759
     2  O   -0.381561
     3  N   -0.230474
     4  H    0.281036
     5  C   -0.090490
     6  C    0.276648
     7  C    0.203854
     8  C    0.167360
     9  C   -0.283726
    10  H    0.171666
    11  H    0.162145
    12  C   -0.142372
    13  C    0.155173
    14  C   -0.421691
    15  H    0.125555
    16  H    0.172769
    17  H    0.168717
    18  C   -0.464628
    19  H    0.155861
    20  H    0.150955
    21  H    0.172358
    22  C   -0.487513
    23  H    0.172759
    24  H    0.151786
    25  H    0.159828
    26  C   -0.499624
    27  H    0.194745
    28  H    0.168067
    29  H    0.151556
 Sum of Mulliken charges =  -0.00000
 Mulliken charges with hydrogens summed into heavy atoms:
               1
     1  O   -0.360759
     2  O   -0.381561
     3  N    0.050562
     5  C   -0.090490
     6  C    0.276648
     7  C    0.203854
     8  C    0.167360
     9  C    0.050085
    12  C   -0.142372
    13  C    0.155173
    14  C    0.045349
    18  C    0.014546
    22  C   -0.003139
    26  C    0.014745
 Electronic spatial extent (au):  <R**2>=           3195.4096
 Charge=              0.0000 electrons
 Dipole moment (field-independent basis, Debye):
    X=              3.9710    Y=              7.0067    Z=             -0.2943  Tot=              8.0591
 Quadrupole moment (field-independent basis, Debye-Ang):
   XX=            -97.8274   YY=            -78.7825   ZZ=            -84.7408
   XY=             12.6318   XZ=              4.3152   YZ=             -1.0834
 Traceless Quadrupole moment (field-independent basis, Debye-Ang):
   XX=            -10.7105   YY=              8.3344   ZZ=              2.3761
   XY=             12.6318   XZ=              4.3152   YZ=             -1.0834
 Octapole moment (field-independent basis, Debye-Ang**2):
  XXX=            107.7993  YYY=             60.7590  ZZZ=              2.2527  XYY=            -34.7980
  XXY=             28.5191  XXZ=             -9.6802  XZZ=              2.0592  YZZ=             -1.5802
  YYZ=              2.4663  XYZ=             -3.6692
 Hexadecapole moment (field-independent basis, Debye-Ang**3):
 XXXX=          -3061.7991 YYYY=          -1277.4433 ZZZZ=           -145.0680 XXXY=             39.4903
 XXXZ=             54.1564 YYYX=             89.5025 YYYZ=            -18.3448 ZZZX=             -3.6367
 ZZZY=              5.0326 XXYY=           -687.8834 XXZZ=           -486.1083 YYZZ=           -240.5682
 XXYZ=             -3.4095 YYXZ=              3.9804 ZZXY=             -0.7105
 N-N= 9.007631392405D+02 E-N=-3.277609671314D+03  KE= 6.307362406019D+02
 Leave Link  601 at Fri Jan 23 16:23:55 2026, MaxMem=  2147483648 cpu:               0.7 elap:               0.1
 (Enter /data/home/wyx/g16/l9999.exe)
 Electronic transition elements 
                 1             2             3             4             5 
      1  -0.633201D+03 -0.633182D+03 -0.633172D+03 -0.633139D+03 -0.633121D+03
      2   0.158472D+01  0.212437D+00  0.265817D-01  0.446370D+00 -0.363705D+00
      3   0.397694D+00  0.391983D-01 -0.111522D+00 -0.171180D+01  0.141802D+01
      4   0.139619D+00 -0.222406D-01  0.461480D-01  0.203006D+00 -0.893308D-01
      5  -0.190716D+00 -0.297771D-01 -0.445330D-02 -0.766331D-01  0.735192D-01
      6  -0.509615D-01 -0.623074D-02  0.165820D-01  0.308239D+00 -0.287102D+00
      7  -0.161415D-01  0.126653D-02 -0.364036D-02 -0.326230D-01  0.188512D-01
      8  -0.858455D-01 -0.885551D+00 -0.404094D+00  0.721921D-01 -0.198062D+00
      9   0.458278D-01 -0.372708D-01  0.900936D+00 -0.550914D-01  0.167247D-01
     10   0.145012D+01  0.300691D+00  0.381719D-01  0.195934D+00 -0.285313D+00
     11  -0.143139D+00 -0.358000D-01 -0.148394D-01 -0.124692D+01  0.565965D+00
     12   0.270053D+00  0.605221D-01  0.279749D-01  0.204738D+00 -0.300089D+00
     13  -0.178963D-01 -0.172273D-02 -0.389099D-01  0.132623D-01 -0.471409D-01
     14   0.525314D+00  0.798298D-01  0.213081D-01 -0.417017D+00  0.167200D+00
     15  -0.757011D-01 -0.950818D-02 -0.687381D-01 -0.590492D-01  0.368218D-01
     16   0.322737D-01 -0.780203D-01 -0.236889D-01 -0.662103D-01 -0.527000D-01
                 6 
      1  -0.633105D+03
      2  -0.506799D-01
      3   0.201940D+00
      4   0.486969D-01
      5   0.116721D-01
      6  -0.422619D-01
      7  -0.305786D-01
      8  -0.372229D-01
      9  -0.203341D-01
     10  -0.291444D-02
     11  -0.214103D+00
     12  -0.168884D+00
     13   0.144612D+00
     14  -0.132638D-01
     15  -0.327900D-01
     16   0.511517D-01
 1\1\GINC-CN013\SP\RCAM-B3LYP TD-FC\TZVP\C11H15N1O2\WYX\23-Jan-2026\0\\
 #p CAM-B3LYP TZVP em=gd3bj td(Eqsolv,nstates=6,root=1) scrf=(Solvent=T
 etraHydroFuran) Geom=Check Guess=Read\\Title Card Required\\0,1\O,0,2.
 823309,-1.571917,0.226312\O,0,-3.43691,-1.628622,-0.025317\N,0,-0.6361
 08,1.514788,-0.322093\H,0,-0.94669,2.470928,-0.369045\C,0,-1.239446,-0
 .757451,-0.21453\C,0,0.695881,1.299398,-0.064709\C,0,-1.61105,0.541021
 ,-0.285275\C,0,-2.219268,-1.823338,-0.141202\C,0,0.222365,-1.121029,-0
 .284076\H,0,0.443052,-1.92529,0.415621\H,0,0.468655,-1.522421,-1.27464
 4\C,0,1.149267,0.029813,0.023014\C,0,2.512405,-0.389892,0.337086\C,0,-
 3.000206,1.079376,-0.321017\H,0,-3.015643,2.082621,-0.749928\H,0,-3.67
 2431,0.455635,-0.90385\H,0,-3.42129,1.131777,0.683783\C,0,-1.758574,-3
 .251268,-0.215546\H,0,-2.571994,-3.932686,-0.458416\H,0,-0.970756,-3.4
 03459,-0.95433\H,0,-1.345091,-3.576004,0.743372\C,0,3.566886,0.563926,
 0.836195\H,0,3.981588,1.156312,0.020017\H,0,3.206157,1.249899,1.598725
 \H,0,4.367587,-0.044502,1.250077\C,0,1.457849,2.578016,0.084068\H,0,1.
 609332,2.834429,1.132945\H,0,2.42735,2.551775,-0.400645\H,0,0.913772,3
 .408164,-0.366591\\Version=ES64L-G16RevA.03\State=1-A\HF=-633.3271266\
 RMSD=3.696e-09\PG=C01 [X(C11H15N1O2)]\\@


 GROWING OLD ISN'T SO BAD -- WHEN YOU CONSIDER THE ALTERNATIVE.

                     -- MAURICE CHEVALIER
 Job cpu time:       0 days  0 hours 35 minutes 57.0 seconds.
 Elapsed time:       0 days  0 hours  2 minutes 15.7 seconds.
 File lengths (MBytes):  RWF=    735 Int=      0 D2E=      0 Chk=     67 Scr=      1
 Normal termination of Gaussian 16 at Fri Jan 23 16:23:58 2026.
