 Entering Gaussian System, Link 0=g16
 Input=DDL-S1-cLR-4.gjf
 Output=DDL-S1-cLR-4.log
 Initial command:
 /data/home/wyx/g16/l1.exe "/scr/tmp/wyx/13109/Gau-1692717.inp" -scrdir="/scr/tmp/wyx/13109/"
 Entering Link 1 = /data/home/wyx/g16/l1.exe PID=   1692718.
  
 Copyright (c) 1988,1990,1992,1993,1995,1998,2003,2009,2016,
            Gaussian, Inc.  All Rights Reserved.
  
 This is part of the Gaussian(R) 16 program.  It is based on
 the Gaussian(R) 09 system (copyright 2009, Gaussian, Inc.),
 the Gaussian(R) 03 system (copyright 2003, Gaussian, Inc.),
 the Gaussian(R) 98 system (copyright 1998, Gaussian, Inc.),
 the Gaussian(R) 94 system (copyright 1995, Gaussian, Inc.),
 the Gaussian 92(TM) system (copyright 1992, Gaussian, Inc.),
 the Gaussian 90(TM) system (copyright 1990, Gaussian, Inc.),
 the Gaussian 88(TM) system (copyright 1988, Gaussian, Inc.),
 the Gaussian 86(TM) system (copyright 1986, Carnegie Mellon
 University), and the Gaussian 82(TM) system (copyright 1983,
 Carnegie Mellon University). Gaussian is a federally registered
 trademark of Gaussian, Inc.
  
 This software contains proprietary and confidential information,
 including trade secrets, belonging to Gaussian, Inc.
  
 This software is provided under written license and may be
 used, copied, transmitted, or stored only in accord with that
 written license.
  
 The following legend is applicable only to US Government
 contracts under FAR:
  
                    RESTRICTED RIGHTS LEGEND
  
 Use, reproduction and disclosure by the US Government is
 subject to restrictions as set forth in subparagraphs (a)
 and (c) of the Commercial Computer Software - Restricted
 Rights clause in FAR 52.227-19.
  
 Gaussian, Inc.
 340 Quinnipiac St., Bldg. 40, Wallingford CT 06492
  
  
 ---------------------------------------------------------------
 Warning -- This program may not be used in any manner that
 competes with the business of Gaussian, Inc. or will provide
 assistance to any competitor of Gaussian, Inc.  The licensee
 of this program is prohibited from giving any competitor of
 Gaussian, Inc. access to this program.  By using this program,
 the user acknowledges that Gaussian, Inc. is engaged in the
 business of creating and licensing software in the field of
 computational chemistry and represents and warrants to the
 licensee that it is not a competitor of Gaussian, Inc. and that
 it will not use this program in any manner prohibited above.
 ---------------------------------------------------------------
  

 Cite this work as:
 Gaussian 16, Revision A.03,
 M. J. Frisch, G. W. Trucks, H. B. Schlegel, G. E. Scuseria, 
 M. A. Robb, J. R. Cheeseman, G. Scalmani, V. Barone, 
 G. A. Petersson, H. Nakatsuji, X. Li, M. Caricato, A. V. Marenich, 
 J. Bloino, B. G. Janesko, R. Gomperts, B. Mennucci, H. P. Hratchian, 
 J. V. Ortiz, A. F. Izmaylov, J. L. Sonnenberg, D. Williams-Young, 
 F. Ding, F. Lipparini, F. Egidi, J. Goings, B. Peng, A. Petrone, 
 T. Henderson, D. Ranasinghe, V. G. Zakrzewski, J. Gao, N. Rega, 
 G. Zheng, W. Liang, M. Hada, M. Ehara, K. Toyota, R. Fukuda, 
 J. Hasegawa, M. Ishida, T. Nakajima, Y. Honda, O. Kitao, H. Nakai, 
 T. Vreven, K. Throssell, J. A. Montgomery, Jr., J. E. Peralta, 
 F. Ogliaro, M. J. Bearpark, J. J. Heyd, E. N. Brothers, K. N. Kudin, 
 V. N. Staroverov, T. A. Keith, R. Kobayashi, J. Normand, 
 K. Raghavachari, A. P. Rendell, J. C. Burant, S. S. Iyengar, 
 J. Tomasi, M. Cossi, J. M. Millam, M. Klene, C. Adamo, R. Cammi, 
 J. W. Ochterski, R. L. Martin, K. Morokuma, O. Farkas, 
 J. B. Foresman, and D. J. Fox, Gaussian, Inc., Wallingford CT, 2016.
 
 ******************************************
 Gaussian 16:  ES64L-G16RevA.03 25-Dec-2016
                23-Jan-2026 
 ******************************************
 %nprocshared=16
 Will use up to   16 processors via shared memory.
 %mem=16GB
 %oldchk=DDL-LR-4.chk
 %chk=DDL-S1-cLR-4.chk
 Copying data from "DDL-LR-4.chk" to current chk file "DDL-S1-cLR-4.chk"
 IOpt=  2 FromEx=T IUOpen= 4 IOptOp= 5 NList=   0 IFRang= 0 IUIn= 4 IUOut= 2.
 ----------------------------------------------------------------------
 #p CAM-B3LYP TZVP em=gd3bj td(nstates=6,root=1) scrf=(Solvent=TetraHyd
 roFuran,CorrectedLR,NonEquilibrium=Save) Geom=Check Guess=Read
 ----------------------------------------------------------------------
 1/29=2,30=1,38=1,172=1/1;
 2/12=2,40=1/2;
 3/5=19,7=101,11=9,14=-4,25=1,30=1,70=9002201,71=1,72=20,74=-40,116=-2,124=41/1,2,3,8;
 4/5=1/1;
 5/5=2,38=6,53=20/2;
 8/6=1,10=1,107=1,108=6/1;
 9/8=1,15=1,41=6,42=1,70=2,73=22/14;
 10/5=4,13=10,28=1,74=20/2;
 6/7=2,8=2,9=2,10=2,22=-1/1;
 99/5=1,9=1/99;
 Leave Link    1 at Fri Jan 23 18:15:34 2026, MaxMem=  2147483648 cpu:               0.8 elap:               0.1
 (Enter /data/home/wyx/g16/l101.exe)
 -------------------
 Title Card Required
 -------------------
 Structure from the checkpoint file:  "DDL-S1-cLR-4.chk"
 Charge =  0 Multiplicity = 1
 Z-Matrix found in chk file.
 O,0,2.798035,-1.572028,0.417829
 O,0,-3.437111,-1.653321,-0.43864
 N,0,-0.654499,1.524434,-0.120601
 H,0,-0.973501,2.477794,-0.161363
 C,0,-1.241474,-0.768716,-0.183694
 C,0,0.674573,1.312704,0.087494
 C,0,-1.618978,0.538403,-0.244897
 C,0,-2.17453,-1.826255,-0.297965
 C,0,0.209314,-1.133434,0.005091
 H,0,0.317558,-1.77306,0.884487
 H,0,0.554957,-1.732344,-0.841891
 C,0,1.144524,0.0414,0.15485
 C,0,2.52047,-0.373637,0.370227
 C,0,-2.991841,1.075036,-0.42639
 H,0,-3.006357,1.873184,-1.173932
 H,0,-3.703838,0.322532,-0.760528
 H,0,-3.386173,1.481203,0.509033
 C,0,-1.810302,-3.280677,-0.270984
 H,0,-2.239637,-3.858895,-1.091914
 H,0,-0.735758,-3.443892,-0.310817
 H,0,-2.154384,-3.749835,0.655524
 C,0,3.656826,0.601779,0.538556
 H,0,3.760292,1.279296,-0.306625
 H,0,3.554519,1.206571,1.438632
 H,0,4.563556,0.007354,0.621762
 C,0,1.44429,2.58998,0.212239
 H,0,1.975773,2.662621,1.15755
 H,0,2.168686,2.715323,-0.590069
 H,0,0.785009,3.45648,0.167035
 Recover connectivity data from disk.
 ITRead=  0  0  0  0  0  0  0  0  0  0  0  0  0  0  0  0  0  0  0  0
 ITRead=  0  0  0  0  0  0  0  0  0
 MicOpt= -1 -1 -1 -1 -1 -1 -1 -1 -1 -1 -1 -1 -1 -1 -1 -1 -1 -1 -1 -1
 MicOpt= -1 -1 -1 -1 -1 -1 -1 -1 -1
 NAtoms=     29 NQM=       29 NQMF=       0 NMMI=      0 NMMIF=      0
                NMic=       0 NMicF=      0.
                    Isotopes and Nuclear Properties:
 (Nuclear quadrupole moments (NQMom) in fm**2, nuclear magnetic moments (NMagM)
  in nuclear magnetons)

  Atom         1           2           3           4           5           6           7           8           9          10
 IAtWgt=          16          16          14           1          12          12          12          12          12           1
 AtmWgt=  15.9949146  15.9949146  14.0030740   1.0078250  12.0000000  12.0000000  12.0000000  12.0000000  12.0000000   1.0078250
 NucSpn=           0           0           2           1           0           0           0           0           0           1
 AtZEff=   5.6000000   5.6000000   4.5500000   1.0000000   3.6000000   3.6000000   3.6000000   3.6000000   3.6000000   1.0000000
 NQMom=    0.0000000   0.0000000   2.0440000   0.0000000   0.0000000   0.0000000   0.0000000   0.0000000   0.0000000   0.0000000
 NMagM=    0.0000000   0.0000000   0.4037610   2.7928460   0.0000000   0.0000000   0.0000000   0.0000000   0.0000000   2.7928460
 AtZNuc=   8.0000000   8.0000000   7.0000000   1.0000000   6.0000000   6.0000000   6.0000000   6.0000000   6.0000000   1.0000000

  Atom        11          12          13          14          15          16          17          18          19          20
 IAtWgt=           1          12          12          12           1           1           1          12           1           1
 AtmWgt=   1.0078250  12.0000000  12.0000000  12.0000000   1.0078250   1.0078250   1.0078250  12.0000000   1.0078250   1.0078250
 NucSpn=           1           0           0           0           1           1           1           0           1           1
 AtZEff=   1.0000000   3.6000000   3.6000000   3.6000000   1.0000000   1.0000000   1.0000000   3.6000000   1.0000000   1.0000000
 NQMom=    0.0000000   0.0000000   0.0000000   0.0000000   0.0000000   0.0000000   0.0000000   0.0000000   0.0000000   0.0000000
 NMagM=    2.7928460   0.0000000   0.0000000   0.0000000   2.7928460   2.7928460   2.7928460   0.0000000   2.7928460   2.7928460
 AtZNuc=   1.0000000   6.0000000   6.0000000   6.0000000   1.0000000   1.0000000   1.0000000   6.0000000   1.0000000   1.0000000

  Atom        21          22          23          24          25          26          27          28          29
 IAtWgt=           1          12           1           1           1          12           1           1           1
 AtmWgt=   1.0078250  12.0000000   1.0078250   1.0078250   1.0078250  12.0000000   1.0078250   1.0078250   1.0078250
 NucSpn=           1           0           1           1           1           0           1           1           1
 AtZEff=   1.0000000   3.6000000   1.0000000   1.0000000   1.0000000   3.6000000   1.0000000   1.0000000   1.0000000
 NQMom=    0.0000000   0.0000000   0.0000000   0.0000000   0.0000000   0.0000000   0.0000000   0.0000000   0.0000000
 NMagM=    2.7928460   0.0000000   2.7928460   2.7928460   2.7928460   0.0000000   2.7928460   2.7928460   2.7928460
 AtZNuc=   1.0000000   6.0000000   1.0000000   1.0000000   1.0000000   6.0000000   1.0000000   1.0000000   1.0000000
 Leave Link  101 at Fri Jan 23 18:15:37 2026, MaxMem=  2147483648 cpu:               0.9 elap:               0.1
 (Enter /data/home/wyx/g16/l202.exe)
                          Input orientation:                          
 ---------------------------------------------------------------------
 Center     Atomic      Atomic             Coordinates (Angstroms)
 Number     Number       Type             X           Y           Z
 ---------------------------------------------------------------------
      1          8           0        2.798035   -1.572028    0.417829
      2          8           0       -3.437111   -1.653321   -0.438640
      3          7           0       -0.654499    1.524434   -0.120601
      4          1           0       -0.973501    2.477794   -0.161363
      5          6           0       -1.241474   -0.768716   -0.183694
      6          6           0        0.674573    1.312704    0.087494
      7          6           0       -1.618978    0.538403   -0.244897
      8          6           0       -2.174530   -1.826255   -0.297965
      9          6           0        0.209314   -1.133434    0.005091
     10          1           0        0.317558   -1.773060    0.884487
     11          1           0        0.554957   -1.732344   -0.841891
     12          6           0        1.144524    0.041400    0.154850
     13          6           0        2.520470   -0.373637    0.370227
     14          6           0       -2.991841    1.075036   -0.426390
     15          1           0       -3.006357    1.873184   -1.173932
     16          1           0       -3.703838    0.322532   -0.760528
     17          1           0       -3.386173    1.481203    0.509033
     18          6           0       -1.810302   -3.280677   -0.270984
     19          1           0       -2.239637   -3.858895   -1.091914
     20          1           0       -0.735758   -3.443892   -0.310817
     21          1           0       -2.154384   -3.749835    0.655524
     22          6           0        3.656826    0.601779    0.538556
     23          1           0        3.760292    1.279296   -0.306625
     24          1           0        3.554519    1.206571    1.438632
     25          1           0        4.563556    0.007354    0.621762
     26          6           0        1.444290    2.589980    0.212239
     27          1           0        1.975773    2.662621    1.157550
     28          1           0        2.168686    2.715323   -0.590069
     29          1           0        0.785009    3.456480    0.167035
 ---------------------------------------------------------------------
                    Distance matrix (angstroms):
                    1          2          3          4          5
     1  O    0.000000
     2  O    6.294219   0.000000
     3  N    4.668830   4.235824   0.000000
     4  H    5.564261   4.817922   1.006141   0.000000
     5  C    4.162304   2.380829   2.367923   3.257627   0.000000
     6  C    3.597206   5.097065   1.361824   2.033596   2.842022
     7  C    4.939952   2.854260   1.384892   2.045692   1.361916
     8  C    5.030248   1.282110   3.683622   4.470567   1.414935
     9  C    2.657855   3.709932   2.797541   3.803646   1.507795
    10  H    2.531985   3.982781   3.581698   4.564033   2.140163
    11  H    2.577595   4.013161   3.548189   4.530404   2.142187
    12  C    2.325168   4.920944   2.347711   3.243769   2.542417
    13  C    1.231036   6.146920   3.731489   4.541044   3.822975
    14  C    6.422018   2.764480   2.399715   2.472178   2.553842
    15  H    6.934995   3.628008   2.600456   2.350181   3.327915
    16  H    6.874026   2.019592   3.339542   3.529716   2.754414
    17  H    6.897461   3.275045   2.803632   2.695109   3.184610
    18  C    4.962934   2.307142   4.944450   5.819986   2.577040
    19  H    5.734738   2.593312   5.695291   6.528603   3.372002
    20  H    4.064787   3.243423   4.972630   5.928341   2.725523
    21  H    5.415330   2.690345   5.538045   6.391021   3.228740
    22  C    2.340413   7.507618   4.457948   5.044725   5.137436
    23  H    3.095290   7.773048   4.425503   4.885314   5.406212
    24  H    3.055310   7.783702   4.499786   4.967792   5.434634
    25  H    2.377625   8.239719   5.484590   6.113539   5.911803
    26  C    4.381461   6.500563   2.377201   2.449056   4.318672
    27  H    4.376706   7.104540   3.138068   3.236033   4.891185
    28  H    4.448968   7.108653   3.099837   3.180180   4.892122
    29  H    5.422275   6.656065   2.426462   2.039125   4.699141
                    6          7          8          9         10
     6  C    0.000000
     7  C    2.443441   0.000000
     8  C    4.256645   2.429622   0.000000
     9  C    2.491355   2.490017   2.500911   0.000000
    10  H    3.206961   3.220022   2.758899   1.092783   0.000000
    11  H    3.185966   3.199795   2.784739   1.093408   1.743100
    12  C    1.357057   2.836151   3.835270   1.509066   2.123325
    13  C    2.516152   4.283133   4.959799   2.460093   2.660013
    14  C    3.709873   1.485149   3.016949   3.912916   4.558747
    15  H    3.931231   2.137655   3.891671   4.557454   5.346082
    16  H    4.568377   2.158499   2.677692   4.244852   4.823817
    17  H    4.086043   2.140154   3.613669   4.474127   4.944574
    18  C    5.234717   3.823958   1.499578   2.960696   2.852334
    19  H    6.052195   4.520939   2.183167   3.824777   3.846572
    20  H    4.977237   4.079595   2.164943   2.516183   2.308659
    21  H    5.827088   4.414341   2.147023   3.585483   3.173415
    22  C    3.098823   5.334034   6.371800   3.896266   4.112206
    23  H    3.110966   5.430403   6.698256   4.304402   4.752688
    24  H    3.182912   5.481404   6.710872   4.326784   4.434320
    25  H    4.136855   6.265528   7.043424   4.543248   4.611659
    26  C    1.496482   3.715044   5.732303   3.928344   4.556047
    27  H    2.158800   4.404701   6.284389   4.342646   4.743364
    28  H    2.158427   4.382297   6.290849   4.359620   5.074108
    29  H    2.148092   3.803159   6.073087   4.628711   5.299183
                   11         12         13         14         15
    11  H    0.000000
    12  C    2.118313   0.000000
    13  C    2.679283   1.453228   0.000000
    14  C    4.542444   4.302994   5.754896   0.000000
    15  H    5.078685   4.727675   6.162666   1.093650   0.000000
    16  H    4.729320   4.942020   6.364375   1.088508   1.749830
    17  H    5.261595   4.767147   6.192587   1.093383   1.769260
    18  C    2.884046   4.466377   5.255247   4.515797   5.367322
    19  H    3.520580   5.312181   6.078116   5.035117   5.783711
    20  H    2.208479   3.987426   4.526953   5.052126   5.845672
    21  H    3.695003   5.050439   5.773592   5.015102   5.974204
    22  C    4.120116   2.602483   1.507009   6.734973   6.996220
    23  H    4.430650   2.930459   2.174276   6.756283   6.847807
    24  H    4.778638   2.968804   2.169747   6.808116   7.093304
    25  H    4.608437   3.450934   2.093472   7.702116   8.000589
    26  C    4.537024   2.566790   3.156921   4.730979   4.716304
    27  H    5.033110   2.926975   3.183620   5.450365   5.557035
    28  H    4.738067   2.958661   3.253858   5.417414   5.275525
    29  H    5.291007   3.433973   4.209858   4.504223   4.321976
                   16         17         18         19         20
    16  H    0.000000
    17  H    1.747917   0.000000
    18  C    4.099786   5.076150   0.000000
    19  H    4.442751   5.691592   1.092058   0.000000
    20  H    4.816398   5.652735   1.087599   1.744704   0.000000
    21  H    4.581505   5.376107   1.094038   1.752912   1.743535
    22  C    7.479637   7.097753   6.754133   7.571283   6.031889
    23  H    7.538877   7.195695   7.199038   7.938314   6.520965
    24  H    7.635547   7.008051   7.199964   8.101534   6.564591
    25  H    8.388079   8.085984   7.227324   8.010493   6.392459
    26  C    5.708837   4.964962   6.729821   7.540565   6.436910
    27  H    6.435295   5.528724   7.190123   8.084550   6.840907
    28  H    6.343583   5.795475   7.203206   7.931299   6.815402
    29  H    5.552635   4.627898   7.233034   8.015494   7.082105
                   21         22         23         24         25
    21  H    0.000000
    22  C    7.260881   0.000000
    23  H    7.823125   1.088148   0.000000
    24  H    7.600710   1.089209   1.758850   0.000000
    25  H    7.697293   1.087393   1.767759   1.767358   0.000000
    26  C    7.303438   2.992447   2.711269   2.805517   4.070318
    27  H    7.643940   2.730597   2.691079   2.165993   3.746216
    28  H    7.876465   2.820536   2.162342   2.883140   3.812746
    29  H    7.798053   4.066286   3.717095   3.788038   5.136211
                   26         27         28         29
    26  C    0.000000
    27  H    1.086906   0.000000
    28  H    1.088190   1.759024   0.000000
    29  H    1.089733   1.740474   1.742723   0.000000
 Stoichiometry    C11H15NO2
 Framework group  C1[X(C11H15NO2)]
 Deg. of freedom    81
 Full point group                 C1      NOp   1
 RotChk:  IX=0 Diff= 5.95D-16
 Largest Abelian subgroup         C1      NOp   1
 Largest concise Abelian subgroup C1      NOp   1
                         Standard orientation:                         
 ---------------------------------------------------------------------
 Center     Atomic      Atomic             Coordinates (Angstroms)
 Number     Number       Type             X           Y           Z
 ---------------------------------------------------------------------
      1          8           0        2.253211   -2.315570    0.012476
      2          8           0       -3.673415   -0.196361    0.047782
      3          7           0        0.058911    1.805307   -0.024820
      4          1           0        0.090118    2.810940   -0.017948
      5          6           0       -1.293979   -0.138014   -0.009006
      6          6           0        1.245686    1.137600   -0.007559
      7          6           0       -1.196345    1.220391   -0.013328
      8          6           0       -2.543701   -0.801303    0.007805
      9          6           0       -0.050190   -0.990103   -0.028430
     10          1           0       -0.056777   -1.672093    0.825397
     11          1           0       -0.050243   -1.627119   -0.917110
     12          6           0        1.247133   -0.219454   -0.010167
     13          6           0        2.407439   -1.094245    0.007228
     14          6           0       -2.306899    2.206334    0.002641
     15          1           0       -2.140640    2.997771   -0.733603
     16          1           0       -3.274136    1.763943   -0.228863
     17          1           0       -2.407581    2.674969    0.985356
     18          6           0       -2.709557   -2.291417   -0.020183
     19          1           0       -3.418004   -2.642982   -0.773241
     20          1           0       -1.774753   -2.813093   -0.212189
     21          1           0       -3.070141   -2.659999    0.944724
     22          6           0        3.824279   -0.580845    0.014954
     23          1           0        4.045034    0.061849   -0.834916
     24          1           0        4.059170   -0.025006    0.921732
     25          1           0        4.469201   -1.455063   -0.032399
     26          6           0        2.421892    2.062642    0.009605
     27          1           0        3.065172    1.898752    0.870242
     28          1           0        3.031807    1.971400   -0.886965
     29          1           0        2.106490    3.104510    0.060101
 ---------------------------------------------------------------------
 Rotational constants (GHZ):           1.1027059           0.4826739           0.3392595
 Leave Link  202 at Fri Jan 23 18:15:37 2026, MaxMem=  2147483648 cpu:               0.0 elap:               0.0
 (Enter /data/home/wyx/g16/l301.exe)
 Standard basis: TZVP (5D, 7F)
 Ernie: Thresh=  0.10000D-02 Tol=  0.10000D-05 Strict=F.
 There are   370 symmetry adapted cartesian basis functions of A   symmetry.
 There are   356 symmetry adapted basis functions of A   symmetry.
   356 basis functions,   610 primitive gaussians,   370 cartesian basis functions
    52 alpha electrons       52 beta electrons
       nuclear repulsion energy       899.1439204817 Hartrees.
 IExCor=20419 DFT=T Ex+Corr=CAM-B3LYP ExCW=0 ScaHFX=  1.000000
 ScaDFX=  1.000000  1.000000  1.000000  0.810000 ScalE2=  1.000000  1.000000
 IRadAn=      5 IRanWt=     -1 IRanGd=            0 ICorTp=0 IEmpDi=141
 HFx  wShort=  0.000000 wLong=  0.330000 cFull=  0.190000 cShort=  0.000000 cLong=  0.460000
 DFx  wShort=  0.000000 wLong=  0.330000 cFull=  0.190000 cShort=  0.000000 cLong=  0.460000
 NAtoms=   29 NActive=   29 NUniq=   29 SFac= 1.00D+00 NAtFMM=   60 NAOKFM=F Big=F
 Integral buffers will be    131072 words long.
 Raffenetti 1 integral format.
 Two-electron integral symmetry is turned on.
 R6Disp:  Grimme-D3(BJ) Dispersion energy=       -0.0260904230 Hartrees.
 Nuclear repulsion after empirical dispersion term =      899.1178300587 Hartrees.
 ------------------------------------------------------------------------------
 Polarizable Continuum Model (PCM)
 =================================
 Model                : PCM.
 Atomic radii         : UFF (Universal Force Field).
 Polarization charges : Total charges.
 Charge compensation  : None.
 Solution method      : On-the-fly selection.
 Cavity type          : Scaled VdW (van der Waals Surface) (Alpha=1.100).
 Cavity algorithm     : GePol (No added spheres)
                        Default sphere list used, NSphG=   29.
                        Lebedev-Laikov grids with approx.  5.0 points / Ang**2.
                        Smoothing algorithm: York/Karplus (Gamma=1.0000).
                        Polarization charges: spherical gaussians, with
                                              point-specific exponents (IZeta= 3).
                        Self-potential: point-specific (ISelfS= 7).
                        Self-field    : sphere-specific E.n sum rule (ISelfD= 2).
 1st derivatives      : Analytical E(r).r(x)/FMM algorithm (CHGder, D1EAlg=3).
                        Cavity 1st derivative terms included.
 Solvent              : TetraHydroFuran, Eps=   7.425700 Eps(inf)=   1.974025
 ------------------------------------------------------------------------------
 GePol: Number of generator spheres                  =      29
 GePol: Total number of spheres                      =      29
 GePol: Number of exposed spheres                    =      29 (100.00%)
 GePol: Number of points                             =    2120
 GePol: Average weight of points                     =       0.13
 GePol: Minimum weight of points                     =   0.32D-11
 GePol: Maximum weight of points                     =    0.20577
 GePol: Number of points with low weight             =     144
 GePol: Fraction of low-weight points (<1% of avg)   =       6.79%
 GePol: Cavity surface area                          =    268.995 Ang**2
 GePol: Cavity volume                                =    286.447 Ang**3
 Leave Link  301 at Fri Jan 23 18:15:38 2026, MaxMem=  2147483648 cpu:               0.6 elap:               0.0
 (Enter /data/home/wyx/g16/l302.exe)
 NPDir=0 NMtPBC=     1 NCelOv=     1 NCel=       1 NClECP=     1 NCelD=      1
         NCelK=      1 NCelE2=     1 NClLst=     1 CellRange=     0.0.
 One-electron integrals computed using PRISM.
 One-electron integral symmetry used in STVInt
 NBasis=   356 RedAO= T EigKep=  3.34D-05  NBF=   356
 NBsUse=   356 1.00D-06 EigRej= -1.00D+00 NBFU=   356
 Precomputing XC quadrature grid using
 IXCGrd= 4 IRadAn=           5 IRanWt=          -1 IRanGd=           0 AccXCQ= 0.00D+00.
 Generated NRdTot=       0 NPtTot=           0 NUsed=           0 NTot=          32
 NSgBfM=   366   366   366   366   366 MxSgAt=    29 MxSgA2=    29.
 Leave Link  302 at Fri Jan 23 18:15:38 2026, MaxMem=  2147483648 cpu:               3.1 elap:               0.2
 (Enter /data/home/wyx/g16/l303.exe)
 DipDrv:  MaxL=1.
 Leave Link  303 at Fri Jan 23 18:15:38 2026, MaxMem=  2147483648 cpu:               0.6 elap:               0.0
 (Enter /data/home/wyx/g16/l308.exe)
 Leave Link  308 at Fri Jan 23 18:15:38 2026, MaxMem=  2147483648 cpu:               0.7 elap:               0.1
 (Enter /data/home/wyx/g16/l401.exe)
 Initial guess from the checkpoint file:  "DDL-S1-cLR-4.chk"
 B after Tr=     0.000000   -0.000000    0.000000
         Rot=    1.000000    0.000000   -0.000000   -0.000000 Ang=   0.00 deg.
 Guess basis will be translated and rotated to current coordinates.
 JPrj=2 DoOrth=T DoCkMO=T.
 Leave Link  401 at Fri Jan 23 18:15:39 2026, MaxMem=  2147483648 cpu:               2.2 elap:               0.2
 (Enter /data/home/wyx/g16/l502.exe)
 Integral symmetry usage will be decided dynamically.
 Closed shell SCF:
 Using DIIS extrapolation, IDIIS=  1040.
 NGot=  2147483648 LenX=  2147200095 LenY=  2147062754
 Requested convergence on RMS density matrix=1.00D-08 within 128 cycles.
 Requested convergence on MAX density matrix=1.00D-06.
 Requested convergence on             energy=1.00D-06.
 No special actions if energy rises.
 Fock matrices will be formed incrementally for  20 cycles.

 Cycle   1  Pass 1  IDiag  1:
 FoFJK:  IHMeth= 1 ICntrl=       0 DoSepK=T KAlg= 0 I1Cent=           0 FoldK=F
 IRaf=         1 NMat=       1 IRICut=       1 DoRegI=T DoRafI=F ISym2E= 0 IDoP0=0 IntGTp=1.
 FoFCou: FMM=F IPFlag=           0 FMFlag=      100000 FMFlg1=           0
         NFxFlg=           0 DoJE=T BraDBF=F KetDBF=F FulRan=T
         wScrn=  0.000000 ICntrl=       500 IOpCl=  0 I1Cent=           0 NGrid=           0
         NMat0=    1 NMatS0=      1 NMatT0=    0 NMatD0=    1 NMtDS0=    0 NMtDT0=    0
 Symmetry not used in FoFCou.
 Inv3:  Mode=1 IEnd=    13483200.
 Iteration    1 A*A^-1 deviation from unit magnitude is 3.11D-15 for    383.
 Iteration    1 A*A^-1 deviation from orthogonality  is 2.12D-15 for   1933     85.
 Iteration    1 A^-1*A deviation from unit magnitude is 2.78D-15 for   1422.
 Iteration    1 A^-1*A deviation from orthogonality  is 3.19D-15 for   1371   1349.
 E= -633.315785549738    
 DIIS: error= 6.67D-09 at cycle   1 NSaved=   1.
 NSaved= 1 IEnMin= 1 EnMin= -633.315785549738     IErMin= 1 ErrMin= 6.67D-09
 ErrMax= 6.67D-09  0.00D+00 EMaxC= 1.00D-01 BMatC= 2.03D-14 BMatP= 2.03D-14
 IDIUse=1 WtCom= 1.00D+00 WtEn= 0.00D+00
 Coeff-Com:  0.100D+01
 Coeff:      0.100D+01
 Gap=     0.228 Goal=   None    Shift=    0.000
 RMSDP=1.88D-09 MaxDP=1.10D-07              OVMax= 1.19D-07

 Error on total polarization charges =  0.01466
 SCF Done:  E(RCAM-B3LYP) =  -633.315785550     A.U. after    1 cycles
            NFock=  1  Conv=0.19D-08     -V/T= 2.0042
 KE= 6.306665958042D+02 PE=-3.274213540968D+03 EE= 1.111113329555D+03
 Leave Link  502 at Fri Jan 23 18:15:44 2026, MaxMem=  2147483648 cpu:              85.3 elap:               5.6
 (Enter /data/home/wyx/g16/l801.exe)
 DoSCS=F DFT=T ScalE2(SS,OS)=  1.000000  1.000000
 ExpMin= 9.52D-02 ExpMax= 2.70D+04 ExpMxC= 9.22D+02 IAcc=3 IRadAn=         5 AccDes= 0.00D+00
 HarFok:  IExCor=  205 AccDes= 0.00D+00 IRadAn=         5 IDoV=-2 UseB2=F ITyADJ=14
 ICtDFT= 12500011 ScaDFX=  1.000000  1.000000  1.000000  1.000000
 Largest valence mixing into a core orbital is  5.63D-05
 Largest core mixing into a valence orbital is  1.05D-05
 Range of M.O.s used for correlation:    15   356
 NBasis=   356 NAE=    52 NBE=    52 NFC=    14 NFV=     0
 NROrb=    342 NOA=    38 NOB=    38 NVA=   304 NVB=   304

 **** Warning!!: The largest alpha MO coefficient is  0.43803060D+02

 Leave Link  801 at Fri Jan 23 18:15:45 2026, MaxMem=  2147483648 cpu:               1.0 elap:               0.1
 (Enter /data/home/wyx/g16/l914.exe)
 RHF ground state
 Two-electron integrals replicated using symmetry.
 MDV=  2147483648 DFT=T DoStab=F Mixed=T DoRPA=T DoScal=F NonHer=T
 NEqPCM:  Using equilibrium solvation (IEInf=0, Eps=   7.4257, EpsInf=   1.9740)
 Making orbital integer symmetry assigments:
 Orbital symmetries:
       Occupied  (A) (A) (A) (A) (A) (A) (A) (A) (A) (A) (A) (A)
                 (A) (A) (A) (A) (A) (A) (A) (A) (A) (A) (A) (A)
                 (A) (A) (A) (A) (A) (A) (A) (A) (A) (A) (A) (A)
                 (A) (A) (A) (A) (A) (A) (A) (A) (A) (A) (A) (A)
                 (A) (A) (A) (A)
       Virtual   (A) (A) (A) (A) (A) (A) (A) (A) (A) (A) (A) (A)
                 (A) (A) (A) (A) (A) (A) (A) (A) (A) (A) (A) (A)
                 (A) (A) (A) (A) (A) (A) (A) (A) (A) (A) (A) (A)
                 (A) (A) (A) (A) (A) (A) (A) (A) (A) (A) (A) (A)
                 (A) (A) (A) (A) (A) (A) (A) (A) (A) (A) (A) (A)
                 (A) (A) (A) (A) (A) (A) (A) (A) (A) (A) (A) (A)
                 (A) (A) (A) (A) (A) (A) (A) (A) (A) (A) (A) (A)
                 (A) (A) (A) (A) (A) (A) (A) (A) (A) (A) (A) (A)
                 (A) (A) (A) (A) (A) (A) (A) (A) (A) (A) (A) (A)
                 (A) (A) (A) (A) (A) (A) (A) (A) (A) (A) (A) (A)
                 (A) (A) (A) (A) (A) (A) (A) (A) (A) (A) (A) (A)
                 (A) (A) (A) (A) (A) (A) (A) (A) (A) (A) (A) (A)
                 (A) (A) (A) (A) (A) (A) (A) (A) (A) (A) (A) (A)
                 (A) (A) (A) (A) (A) (A) (A) (A) (A) (A) (A) (A)
                 (A) (A) (A) (A) (A) (A) (A) (A) (A) (A) (A) (A)
                 (A) (A) (A) (A) (A) (A) (A) (A) (A) (A) (A) (A)
                 (A) (A) (A) (A) (A) (A) (A) (A) (A) (A) (A) (A)
                 (A) (A) (A) (A) (A) (A) (A) (A) (A) (A) (A) (A)
                 (A) (A) (A) (A) (A) (A) (A) (A) (A) (A) (A) (A)
                 (A) (A) (A) (A) (A) (A) (A) (A) (A) (A) (A) (A)
                 (A) (A) (A) (A) (A) (A) (A) (A) (A) (A) (A) (A)
                 (A) (A) (A) (A) (A) (A) (A) (A) (A) (A) (A) (A)
                 (A) (A) (A) (A) (A) (A) (A) (A) (A) (A) (A) (A)
                 (A) (A) (A) (A) (A) (A) (A) (A) (A) (A) (A) (A)
                 (A) (A) (A) (A) (A) (A) (A) (A) (A) (A) (A) (A)
                 (A) (A) (A) (A)
 PCM Corrected Linear-Response:
 Compute the excitation energies in the ground state reaction field.
    24 initial guesses have been made.
 Convergence on wavefunction:    0.000001000000000
 Davidson Disk Diagonalization:  ConvIn= 1.00D-06 SkipCon=T Conv= 1.00D-06.
 Max sub-space:  2000 roots to seek:    24 dimension of matrix:        23104
 Iteration     1 Dimension    24 NMult     0 NNew     24
 CISAX will form    24 AO SS matrices at one time.
 NMat=    24 NSing=    24 JSym2X= 0.
 FoFJK:  IHMeth= 1 ICntrl=       0 DoSepK=T KAlg= 0 I1Cent=           0 FoldK=F
 IRaf=         1 NMat=      48 IRICut=       1 DoRegI=T DoRafI=F ISym2E= 0 IDoP0=3 IntGTp=3.
 FoFCou: FMM=F IPFlag=           0 FMFlag=      100000 FMFlg1=           0
         NFxFlg=           0 DoJE=F BraDBF=F KetDBF=F FulRan=T
         wScrn=  0.000000 ICntrl=       500 IOpCl=  0 I1Cent=           0 NGrid=           0
         NMat0=   24 NMatS0=     24 NMatT0=    0 NMatD0=   24 NMtDS0=    0 NMtDT0=    0
 Symmetry not used in FoFCou.
 New state      1 was old state      2
 New state      2 was old state      1
 New state      3 was old state      4
 New state      4 was old state      3
 New state      5 was old state      6
 New state      6 was old state      5
 Excitation Energies [eV] at current iteration:
 Root      1 :     3.671069125345603
 Root      2 :     3.815510685086363
 Root      3 :     4.452418971051109
 Root      4 :     5.495129862473414
 Root      5 :     6.234058534777359
 Root      6 :     6.508225077609159
 Root      7 :     6.585723790057305
 Root      8 :     6.679355056578351
 Root      9 :     6.829407728437818
 Root     10 :     7.123072098422147
 Root     11 :     7.189845438048068
 Root     12 :     7.362331598693376
 Root     13 :     7.495305749470313
 Root     14 :     7.703009025706531
 Root     15 :     7.721584609580535
 Root     16 :     7.836414220107109
 Root     17 :     8.212076637442488
 Root     18 :     8.269208116294735
 Root     19 :     8.349895350921985
 Root     20 :     8.453139207342609
 Root     21 :     8.590900363506920
 Root     22 :     8.658148318332291
 Root     23 :     8.801095757914883
 Root     24 :     9.016103430936010
 Iteration     2 Dimension    36 NMult    24 NNew     12
 CISAX will form    12 AO SS matrices at one time.
 NMat=    12 NSing=    12 JSym2X= 0.
 New state      1 was old state      2
 Root      1 not converged, maximum delta is    0.270385547983579
 New state      2 was old state      1
 Root      2 not converged, maximum delta is    0.275484013466195
 Root      3 not converged, maximum delta is    0.095312346590648
 Root      4 not converged, maximum delta is    0.236194022204095
 New state      5 was old state      6
 Root      5 not converged, maximum delta is    0.211470288389571
 New state      6 was old state      5
 Root      6 not converged, maximum delta is    0.045424566958598
 Excitation Energies [eV] at current iteration:
 Root      1 :     3.341782926196990   Change is   -0.473727758889373
 Root      2 :     3.474787038455232   Change is   -0.196282086890371
 Root      3 :     4.213519129411811   Change is   -0.238899841639298
 Root      4 :     5.193003308194551   Change is   -0.302126554278864
 Root      5 :     5.590282467006060   Change is   -0.917942610603099
 Root      6 :     6.120942357717372   Change is   -0.113116177059988
 Iteration     3 Dimension    48 NMult    36 NNew     12
 CISAX will form    12 AO SS matrices at one time.
 NMat=    12 NSing=    12 JSym2X= 0.
 Root      1 not converged, maximum delta is    0.010365698358077
 Root      2 not converged, maximum delta is    0.011150286979918
 Root      3 not converged, maximum delta is    0.018822650004974
 Root      4 not converged, maximum delta is    0.034523048630143
 Root      5 not converged, maximum delta is    0.033529300052887
 Root      6 not converged, maximum delta is    0.009033385145546
 Excitation Energies [eV] at current iteration:
 Root      1 :     3.322161442959931   Change is   -0.019621483237058
 Root      2 :     3.465478412324428   Change is   -0.009308626130804
 Root      3 :     4.200592822849255   Change is   -0.012926306562556
 Root      4 :     5.170233146058960   Change is   -0.022770162135590
 Root      5 :     5.550244052268428   Change is   -0.040038414737632
 Root      6 :     6.116008276927735   Change is   -0.004934080789636
 Iteration     4 Dimension    60 NMult    48 NNew     12
 CISAX will form    12 AO SS matrices at one time.
 NMat=    12 NSing=    12 JSym2X= 0.
 Root      1 not converged, maximum delta is    0.002615540519544
 Root      2 not converged, maximum delta is    0.001894923089105
 Root      3 not converged, maximum delta is    0.001954083704919
 Root      4 not converged, maximum delta is    0.004376129803994
 Root      5 not converged, maximum delta is    0.006836745282018
 Root      6 not converged, maximum delta is    0.001798896172527
 Excitation Energies [eV] at current iteration:
 Root      1 :     3.320531123726459   Change is   -0.001630319233472
 Root      2 :     3.464877897191047   Change is   -0.000600515133381
 Root      3 :     4.200134071245213   Change is   -0.000458751604042
 Root      4 :     5.167669239755096   Change is   -0.002563906303865
 Root      5 :     5.544484354481459   Change is   -0.005759697786969
 Root      6 :     6.115733019172895   Change is   -0.000275257754840
 Iteration     5 Dimension    72 NMult    60 NNew     12
 CISAX will form    12 AO SS matrices at one time.
 NMat=    12 NSing=    12 JSym2X= 0.
 Root      1 not converged, maximum delta is    0.000918227184253
 Root      2 not converged, maximum delta is    0.000308186083770
 Root      3 not converged, maximum delta is    0.000615964348947
 Root      4 not converged, maximum delta is    0.000677224750967
 Root      5 not converged, maximum delta is    0.001357784276503
 Root      6 not converged, maximum delta is    0.000395983434857
 Excitation Energies [eV] at current iteration:
 Root      1 :     3.320423821520594   Change is   -0.000107302205866
 Root      2 :     3.464845687554707   Change is   -0.000032209636340
 Root      3 :     4.200112347438158   Change is   -0.000021723807054
 Root      4 :     5.167491489829815   Change is   -0.000177749925281
 Root      5 :     5.544040892034720   Change is   -0.000443462446740
 Root      6 :     6.115715911663224   Change is   -0.000017107509671
 Iteration     6 Dimension    84 NMult    72 NNew     12
 CISAX will form    12 AO SS matrices at one time.
 NMat=    12 NSing=    12 JSym2X= 0.
 Root      1 not converged, maximum delta is    0.000200350005462
 Root      2 not converged, maximum delta is    0.000091602175701
 Root      3 not converged, maximum delta is    0.000224668224067
 Root      4 not converged, maximum delta is    0.000181000941433
 Root      5 not converged, maximum delta is    0.000422869468082
 Root      6 not converged, maximum delta is    0.000288451215748
 Excitation Energies [eV] at current iteration:
 Root      1 :     3.320417298177796   Change is   -0.000006523342798
 Root      2 :     3.464843503937251   Change is   -0.000002183617457
 Root      3 :     4.200110591922072   Change is   -0.000001755516086
 Root      4 :     5.167479974466056   Change is   -0.000011515363759
 Root      5 :     5.544007848554401   Change is   -0.000033043480319
 Root      6 :     6.115714026955426   Change is   -0.000001884707798
 Iteration     7 Dimension    96 NMult    84 NNew     12
 CISAX will form    12 AO SS matrices at one time.
 NMat=    12 NSing=    12 JSym2X= 0.
 Root      1 not converged, maximum delta is    0.000022202497509
 Root      2 not converged, maximum delta is    0.000011629349962
 Root      3 not converged, maximum delta is    0.000035153434382
 Root      4 not converged, maximum delta is    0.000047801421795
 Root      5 not converged, maximum delta is    0.000116893135638
 Root      6 not converged, maximum delta is    0.000142345663661
 Excitation Energies [eV] at current iteration:
 Root      1 :     3.320416850667921   Change is   -0.000000447509874
 Root      2 :     3.464843406830105   Change is   -0.000000097107146
 Root      3 :     4.200110504387248   Change is   -0.000000087534823
 Root      4 :     5.167478961476681   Change is   -0.000001012989375
 Root      5 :     5.544004567968681   Change is   -0.000003280585719
 Root      6 :     6.115713731635896   Change is   -0.000000295319530
 Iteration     8 Dimension   108 NMult    96 NNew     12
 CISAX will form    12 AO SS matrices at one time.
 NMat=    12 NSing=    12 JSym2X= 0.
 Root      1 not converged, maximum delta is    0.000004524074050
 Root      2 not converged, maximum delta is    0.000003177863804
 Root      3 not converged, maximum delta is    0.000003050227167
 Root      4 not converged, maximum delta is    0.000015507239644
 Root      5 not converged, maximum delta is    0.000020660469228
 Root      6 not converged, maximum delta is    0.000026156073881
 Excitation Energies [eV] at current iteration:
 Root      1 :     3.320416832839597   Change is   -0.000000017828324
 Root      2 :     3.464843402922308   Change is   -0.000000003907797
 Root      3 :     4.200110500356113   Change is   -0.000000004031135
 Root      4 :     5.167478889343400   Change is   -0.000000072133281
 Root      5 :     5.544004328238620   Change is   -0.000000239730062
 Root      6 :     6.115713703251427   Change is   -0.000000028384468
 Iteration     9 Dimension   120 NMult   108 NNew     12
 CISAX will form    12 AO SS matrices at one time.
 NMat=    12 NSing=    12 JSym2X= 0.
 Root      1 has converged.
 Root      2 has converged.
 Root      3 has converged.
 Root      4 not converged, maximum delta is    0.000005813887971
 Root      5 not converged, maximum delta is    0.000008971235944
 Root      6 not converged, maximum delta is    0.000006458702654
 Excitation Energies [eV] at current iteration:
 Root      1 :     3.320416832172339   Change is   -0.000000000667258
 Root      2 :     3.464843402785692   Change is   -0.000000000136615
 Root      3 :     4.200110500190880   Change is   -0.000000000165233
 Root      4 :     5.167478885105945   Change is   -0.000000004237455
 Root      5 :     5.544004313608170   Change is   -0.000000014630450
 Root      6 :     6.115713700927841   Change is   -0.000000002323587
 Iteration    10 Dimension   126 NMult   120 NNew      6
 CISAX will form     6 AO SS matrices at one time.
 NMat=     6 NSing=     6 JSym2X= 0.
 Root      1 has converged.
 Root      2 has converged.
 Root      3 has converged.
 Root      4 not converged, maximum delta is    0.000001798762535
 Root      5 not converged, maximum delta is    0.000003317260496
 Root      6 not converged, maximum delta is    0.000002229516231
 Excitation Energies [eV] at current iteration:
 Root      1 :     3.320416832170111   Change is   -0.000000000002228
 Root      2 :     3.464843402785242   Change is   -0.000000000000451
 Root      3 :     4.200110500189784   Change is   -0.000000000001096
 Root      4 :     5.167478884782889   Change is   -0.000000000323057
 Root      5 :     5.544004312385675   Change is   -0.000000001222494
 Root      6 :     6.115713700705847   Change is   -0.000000000221994
 Iteration    11 Dimension   132 NMult   126 NNew      6
 CISAX will form     6 AO SS matrices at one time.
 NMat=     6 NSing=     6 JSym2X= 0.
 Root      1 has converged.
 Root      2 has converged.
 Root      3 has converged.
 Root      4 has converged.
 Root      5 has converged.
 Root      6 has converged.
 Excitation Energies [eV] at current iteration:
 Root      1 :     3.320416832169517   Change is   -0.000000000000594
 Root      2 :     3.464843402785242   Change is    0.000000000000000
 Root      3 :     4.200110500189667   Change is   -0.000000000000117
 Root      4 :     5.167478884764100   Change is   -0.000000000018788
 Root      5 :     5.544004312314470   Change is   -0.000000000071205
 Root      6 :     6.115713700687646   Change is   -0.000000000018200
 Convergence achieved on expansion vectors.
 PCM Corrected Linear-Response:
 The state of interest is root number   1
 Excitation energy =    3.3204 eV, Total energy =  -633.193762476    
 Recompute the excitation energies using the linear response reaction field.
 Convergence on wavefunction:    0.000001000000000
 Davidson Disk Diagonalization:  ConvIn= 1.00D-06 SkipCon=T Conv= 1.00D-06.
 Max sub-space:  2000 roots to seek:     6 dimension of matrix:        23104
 Iteration     1 Dimension     6 NMult     0 NNew      6
 CISAX will form     6 AO SS matrices at one time.
 NMat=     6 NSing=     6 JSym2X= 0.
 Excitation Energies [eV] at current iteration:
 Root      1 :     3.414448226200915
 Root      2 :     3.494420739101622
 Root      3 :     4.226844713662652
 Root      4 :     5.243835679189684
 Root      5 :     5.739733499486857
 Root      6 :     6.088978180414029
 Iteration     2 Dimension    18 NMult     6 NNew     12
 CISAX will form    12 AO SS matrices at one time.
 NMat=    12 NSing=    12 JSym2X= 0.
 Root      1 not converged, maximum delta is    0.161499583293391
 Root      2 not converged, maximum delta is    0.181793206508705
 Root      3 not converged, maximum delta is    0.001982894719551
 Root      4 not converged, maximum delta is    0.287946438491349
 Root      5 not converged, maximum delta is    0.311658940417035
 Root      6 not converged, maximum delta is    0.009474384004896
 Excitation Energies [eV] at current iteration:
 Root      1 :     3.200524815818159   Change is   -0.213923410382756
 Root      2 :     3.458595960001245   Change is   -0.035824779100377
 Root      3 :     4.196121642418245   Change is   -0.030723071244406
 Root      4 :     5.032146023549308   Change is   -0.211689655640375
 Root      5 :     5.426285732978724   Change is   -0.313447766508132
 Root      6 :     6.079090358158568   Change is   -0.009887822255462
 Iteration     3 Dimension    30 NMult    18 NNew     12
 CISAX will form    12 AO SS matrices at one time.
 NMat=    12 NSing=    12 JSym2X= 0.
 Root      1 not converged, maximum delta is    0.002384455625618
 Root      2 not converged, maximum delta is    0.000819060162897
 Root      3 not converged, maximum delta is    0.000941711212610
 Root      4 not converged, maximum delta is    0.014368332562454
 Root      5 not converged, maximum delta is    0.011568698677364
 Root      6 not converged, maximum delta is    0.004889101686118
 Excitation Energies [eV] at current iteration:
 Root      1 :     3.197556023276545   Change is   -0.002968792541614
 Root      2 :     3.458359397242341   Change is   -0.000236562758904
 Root      3 :     4.195865594015490   Change is   -0.000256048402756
 Root      4 :     5.022639849787391   Change is   -0.009506173761917
 Root      5 :     5.418261468087450   Change is   -0.008024264891274
 Root      6 :     6.078477581890118   Change is   -0.000612776268450
 Iteration     4 Dimension    42 NMult    30 NNew     12
 CISAX will form    12 AO SS matrices at one time.
 NMat=    12 NSing=    12 JSym2X= 0.
 Root      1 not converged, maximum delta is    0.001897034079064
 Root      2 not converged, maximum delta is    0.000228599207164
 Root      3 not converged, maximum delta is    0.000283173215713
 Root      4 not converged, maximum delta is    0.004097666790719
 Root      5 not converged, maximum delta is    0.004529516124055
 Root      6 not converged, maximum delta is    0.005730079342640
 Excitation Energies [eV] at current iteration:
 Root      1 :     3.197143015635756   Change is   -0.000413007640789
 Root      2 :     3.458346334655017   Change is   -0.000013062587324
 Root      3 :     4.195853623742738   Change is   -0.000011970272751
 Root      4 :     5.021068927947093   Change is   -0.001570921840299
 Root      5 :     5.416899898098817   Change is   -0.001361569988632
 Root      6 :     6.078275345584531   Change is   -0.000202236305587
 Iteration     5 Dimension    54 NMult    42 NNew     12
 CISAX will form    12 AO SS matrices at one time.
 NMat=    12 NSing=    12 JSym2X= 0.
 Root      1 not converged, maximum delta is    0.000457525080934
 Root      2 not converged, maximum delta is    0.000046066336811
 Root      3 not converged, maximum delta is    0.000095468210081
 Root      4 not converged, maximum delta is    0.001633348867542
 Root      5 not converged, maximum delta is    0.001308144564826
 Root      6 not converged, maximum delta is    0.003208501501367
 Excitation Energies [eV] at current iteration:
 Root      1 :     3.197109787222359   Change is   -0.000033228413397
 Root      2 :     3.458345626823820   Change is   -0.000000707831197
 Root      3 :     4.195852918543731   Change is   -0.000000705199007
 Root      4 :     5.020870950256906   Change is   -0.000197977690187
 Root      5 :     5.416741317743915   Change is   -0.000158580354903
 Root      6 :     6.078221229934147   Change is   -0.000054115650383
 Iteration     6 Dimension    66 NMult    54 NNew     12
 CISAX will form    12 AO SS matrices at one time.
 NMat=    12 NSing=    12 JSym2X= 0.
 Root      1 not converged, maximum delta is    0.000059815871522
 Root      2 not converged, maximum delta is    0.000012558580898
 Root      3 not converged, maximum delta is    0.000019561260357
 Root      4 not converged, maximum delta is    0.000501985862685
 Root      5 not converged, maximum delta is    0.000483710547772
 Root      6 not converged, maximum delta is    0.000626126983939
 Excitation Energies [eV] at current iteration:
 Root      1 :     3.197107640311090   Change is   -0.000002146911269
 Root      2 :     3.458345577097045   Change is   -0.000000049726774
 Root      3 :     4.195852870612620   Change is   -0.000000047931112
 Root      4 :     5.020849117499067   Change is   -0.000021832757838
 Root      5 :     5.416722809147792   Change is   -0.000018508596122
 Root      6 :     6.078213882352316   Change is   -0.000007347581832
 Iteration     7 Dimension    78 NMult    66 NNew     12
 CISAX will form    12 AO SS matrices at one time.
 NMat=    12 NSing=    12 JSym2X= 0.
 Root      1 not converged, maximum delta is    0.000012984210860
 Root      2 not converged, maximum delta is    0.000002821809856
 Root      3 not converged, maximum delta is    0.000006069355453
 Root      4 not converged, maximum delta is    0.000113379826148
 Root      5 not converged, maximum delta is    0.000134649125935
 Root      6 not converged, maximum delta is    0.000295843574391
 Excitation Energies [eV] at current iteration:
 Root      1 :     3.197107552429791   Change is   -0.000000087881299
 Root      2 :     3.458345574612240   Change is   -0.000000002484805
 Root      3 :     4.195852867288487   Change is   -0.000000003324133
 Root      4 :     5.020847271469213   Change is   -0.000001846029854
 Root      5 :     5.416721067566640   Change is   -0.000001741581153
 Root      6 :     6.078212835863163   Change is   -0.000001046489152
 Iteration     8 Dimension    90 NMult    78 NNew     12
 CISAX will form    12 AO SS matrices at one time.
 NMat=    12 NSing=    12 JSym2X= 0.
 Root      1 not converged, maximum delta is    0.000004426114049
 Root      2 has converged.
 Root      3 not converged, maximum delta is    0.000001690981648
 Root      4 not converged, maximum delta is    0.000015994940978
 Root      5 not converged, maximum delta is    0.000022170595376
 Root      6 not converged, maximum delta is    0.000150472776989
 Excitation Energies [eV] at current iteration:
 Root      1 :     3.197107547105561   Change is   -0.000000005324230
 Root      2 :     3.458345574493339   Change is   -0.000000000118902
 Root      3 :     4.195852867006060   Change is   -0.000000000282427
 Root      4 :     5.020847142471904   Change is   -0.000000128997309
 Root      5 :     5.416720934035938   Change is   -0.000000133530701
 Root      6 :     6.078212652928006   Change is   -0.000000182935157
 Iteration     9 Dimension   100 NMult    90 NNew     10
 CISAX will form    10 AO SS matrices at one time.
 NMat=    10 NSing=    10 JSym2X= 0.
 Root      1 has converged.
 Root      2 has converged.
 Root      3 has converged.
 Root      4 not converged, maximum delta is    0.000005793558012
 Root      5 not converged, maximum delta is    0.000004847451061
 Root      6 not converged, maximum delta is    0.000056265753084
 Excitation Energies [eV] at current iteration:
 Root      1 :     3.197107546903919   Change is   -0.000000000201642
 Root      2 :     3.458345574491984   Change is   -0.000000000001355
 Root      3 :     4.195852866989309   Change is   -0.000000000016751
 Root      4 :     5.020847136052843   Change is   -0.000000006419061
 Root      5 :     5.416720926364582   Change is   -0.000000007671356
 Root      6 :     6.078212620207328   Change is   -0.000000032720679
 Iteration    10 Dimension   106 NMult   100 NNew      6
 CISAX will form     6 AO SS matrices at one time.
 NMat=     6 NSing=     6 JSym2X= 0.
 Root      1 has converged.
 Root      2 has converged.
 Root      3 has converged.
 Root      4 not converged, maximum delta is    0.000002513289086
 Root      5 not converged, maximum delta is    0.000001365915057
 Root      6 not converged, maximum delta is    0.000014184009534
 Excitation Energies [eV] at current iteration:
 Root      1 :     3.197107546903637   Change is   -0.000000000000283
 Root      2 :     3.458345574491319   Change is   -0.000000000000665
 Root      3 :     4.195852866988957   Change is   -0.000000000000353
 Root      4 :     5.020847135678714   Change is   -0.000000000374129
 Root      5 :     5.416720925875683   Change is   -0.000000000488900
 Root      6 :     6.078212616107171   Change is   -0.000000004100156
 Iteration    11 Dimension   112 NMult   106 NNew      6
 CISAX will form     6 AO SS matrices at one time.
 NMat=     6 NSing=     6 JSym2X= 0.
 Root      1 has converged.
 Root      2 has converged.
 Root      3 has converged.
 Root      4 has converged.
 Root      5 has converged.
 Root      6 not converged, maximum delta is    0.000004527361943
 Excitation Energies [eV] at current iteration:
 Root      1 :     3.197107546903585   Change is   -0.000000000000052
 Root      2 :     3.458345574491009   Change is   -0.000000000000309
 Root      3 :     4.195852866988917   Change is   -0.000000000000039
 Root      4 :     5.020847135647982   Change is   -0.000000000030733
 Root      5 :     5.416720925846650   Change is   -0.000000000029032
 Root      6 :     6.078212615708835   Change is   -0.000000000398336
 Iteration    12 Dimension   114 NMult   112 NNew      2
 CISAX will form     2 AO SS matrices at one time.
 NMat=     2 NSing=     2 JSym2X= 0.
 Root      1 has converged.
 Root      2 has converged.
 Root      3 has converged.
 Root      4 has converged.
 Root      5 has converged.
 Root      6 not converged, maximum delta is    0.000001491026722
 Excitation Energies [eV] at current iteration:
 Root      1 :     3.197107546903585   Change is    0.000000000000000
 Root      2 :     3.458345574491105   Change is    0.000000000000095
 Root      3 :     4.195852866988976   Change is    0.000000000000059
 Root      4 :     5.020847135646999   Change is   -0.000000000000983
 Root      5 :     5.416720925846680   Change is    0.000000000000030
 Root      6 :     6.078212615654762   Change is   -0.000000000054073
 Iteration    13 Dimension   116 NMult   114 NNew      2
 CISAX will form     2 AO SS matrices at one time.
 NMat=     2 NSing=     2 JSym2X= 0.
 Root      1 has converged.
 Root      2 has converged.
 Root      3 has converged.
 Root      4 has converged.
 Root      5 has converged.
 Root      6 has converged.
 Excitation Energies [eV] at current iteration:
 Root      1 :     3.197107546903482   Change is   -0.000000000000103
 Root      2 :     3.458345574491033   Change is   -0.000000000000072
 Root      3 :     4.195852866988858   Change is   -0.000000000000118
 Root      4 :     5.020847135646803   Change is   -0.000000000000196
 Root      5 :     5.416720925846543   Change is   -0.000000000000137
 Root      6 :     6.078212615643618   Change is   -0.000000000011145
 Convergence achieved on expansion vectors.
 ***********************************************************************
 Excited states from <AA,BB:AA,BB> singles matrix:
 ***********************************************************************
 
 1PDM for each excited state written to RWF  633
 Ground to excited state transition densities written to RWF  633
 Ground to excited state transition electric dipole moments (Au):
       state          X           Y           Z        Dip. S.      Osc.
         1         1.7123     -0.0598     -0.0015      2.9357      0.2299
         2         0.1986     -0.0358     -0.0411      0.0424      0.0036
         3        -0.0068     -0.0075      0.0373      0.0015      0.0002
         4         0.0093      1.8239     -0.0184      3.3270      0.4093
         5         0.3265      1.2812      0.0040      1.7480      0.2320
         6        -0.0115      0.0481      0.0210      0.0029      0.0004
 Ground to excited state transition velocity dipole moments (Au):
       state          X           Y           Z        Dip. S.      Osc.
         1        -0.1960      0.0059      0.0000      0.0385      0.2182
         2        -0.0253      0.0045      0.0038      0.0007      0.0035
         3         0.0006      0.0013     -0.0024      0.0000      0.0000
         4        -0.0076     -0.3179      0.0027      0.1012      0.3655
         5        -0.0613     -0.2518     -0.0008      0.0672      0.2249
         6         0.0017     -0.0097     -0.0243      0.0007      0.0021
 Ground to excited state transition magnetic dipole moments (Au):
       state          X           Y           Z
         1         0.0538     -0.0193      1.4296
         2        -0.7330      0.2735      0.2350
         3        -0.0093      0.9396      0.0074
         4        -0.0248      0.0060     -0.4843
         5        -0.0493      0.0108     -0.2758
         6        -0.0419     -0.0032     -0.0181
 Ground to excited state transition velocity quadrupole moments (Au):
       state          XX          YY          ZZ          XY          XZ          YZ
         1         0.3868     -0.1519     -0.0129      0.4976     -0.0056     -0.0009
         2         0.0527     -0.0009     -0.0011      0.0623     -0.0379     -0.0295
         3        -0.0116      0.0068     -0.0025     -0.0013     -0.0811      0.0038
         4         1.4712     -0.3306     -0.0385     -0.2709     -0.0030     -0.0034
         5         0.6486     -0.4393     -0.0310      0.0324      0.0088     -0.0273
         6        -0.0168     -0.0043      0.0082     -0.0151      0.0131      0.0393
 <0|del|b> * <b|rxdel|0> + <0|del|b> * <b|delr+rdel|0>
 Rotatory Strengths (R) in cgs (10**-40 erg-esu-cm/Gauss)
       state          XX          YY          ZZ    R(velocity)    E-M Angle
         1         0.0152    -31.1003    -32.7107    -21.2653       92.16
         2         6.9968     55.4651     52.4473     38.3031       13.17
         3         2.9167     -0.0553      2.4624      1.7746       63.49
         4        -9.4273     -0.6941     -1.5034     -3.8749       91.13
         5        -0.5182      8.7956     -6.3506      0.6423       89.57
         6         1.5287      0.1099     -0.3715      0.4223       70.54
 1/2[<0|r|b>*<b|rxdel|0> + (<0|rxdel|b>*<b|r|0>)*]
 Rotatory Strengths (R) in cgs (10**-40 erg-esu-cm/Gauss)
       state          XX          YY          ZZ     R(length)
         1       -65.1660     -0.8178      1.5457    -21.4793
         2       102.9302      6.9163      6.8249     38.8905
         3        -0.0447      4.9977     -0.1956      1.5858
         4         0.1633     -7.7519     -6.2880     -4.6255
         5        11.3891     -9.7500      0.7886      0.8093
         6        -0.3419      0.1105      0.2696      0.0127
  1/2[<0|del|b>*<b|r|0> + (<0|r|b>*<b|del|0>)*] (Au)
       state          X           Y           Z        Dip. S.   Osc.(frdel)
         1        -0.3357     -0.0004     -0.0000      0.3360      0.2240
         2        -0.0050     -0.0002     -0.0002      0.0053      0.0036
         3        -0.0000     -0.0000     -0.0001      0.0001      0.0001
         4        -0.0001     -0.5799     -0.0000      0.5800      0.3867
         5        -0.0200     -0.3226     -0.0000      0.3426      0.2284
         6        -0.0000     -0.0005     -0.0005      0.0010      0.0007

 Excitation energies and oscillator strengths:
 
 Excited State   1:      Singlet-A      3.1971 eV  387.80 nm  f=0.2299  <S**2>=0.000
      52 -> 53         0.69771
 This state for optimization and/or second-order correction.
 Total Energy, E(TD-HF/TD-DFT) =  -633.198294009    
 Copying the excited state density for this state as the 1-particle RhoCI density.
 
 Excited State   2:      Singlet-A      3.4583 eV  358.51 nm  f=0.0036  <S**2>=0.000
      51 -> 53         0.62399
      51 -> 54         0.28301
 
 Excited State   3:      Singlet-A      4.1959 eV  295.49 nm  f=0.0002  <S**2>=0.000
      50 -> 53         0.53234
      50 -> 54        -0.42122
      50 -> 58         0.12246
 
 Excited State   4:      Singlet-A      5.0208 eV  246.94 nm  f=0.4093  <S**2>=0.000
      49 -> 53         0.12372
      52 -> 54         0.68912
 
 Excited State   5:      Singlet-A      5.4167 eV  228.89 nm  f=0.2320  <S**2>=0.000
      49 -> 53         0.68624
      52 -> 54        -0.12517
 
 Excited State   6:      Singlet-A      6.0782 eV  203.98 nm  f=0.0004  <S**2>=0.000
      52 -> 55         0.66025
      52 -> 57         0.14846
      52 -> 61        -0.10947
      52 -> 62        -0.10008
 SavETr:  write IOETrn=   770 NScale= 10 NData=  16 NLR=1 NState=    6 LETran=     118.
 The selected state is a singlet.
 CISGrd: IGrad=1 NXY=2 DFT=T
 CISAX will form     1 AO SS matrices at one time.
 NMat=     1 NSing=     1 JSym2X= 0.
 Leave Link  914 at Fri Jan 23 18:24:01 2026, MaxMem=  2147483648 cpu:            7920.5 elap:             496.3
 (Enter /data/home/wyx/g16/l1002.exe)
 Minotr:  Closed shell wavefunction.
          Computing CIS/TDA/TD derivatives.
          Using Z-Vector for PSCF gradient.
          Skipping F1 and S1 gradient terms here.
 NEqPCM:  Using equilibrium solvation (IEInf=0, Eps=   7.4257, EpsInf=   1.9740)
          Frozen-core window.
          Direct CPHF calculation.
          Differentiating once with respect to electric field.
                with respect to dipole field.
          Electric field/nuclear overlap derivatives assumed to be zero.
          Requested convergence is 1.0D-10 RMS, and 1.0D-09 maximum.
          NewPWx=F KeepS1=T KeepF1=T KeepIn=T MapXYZ=F SortEE=F KeepMc=T.
 Two-electron integral symmetry used by symmetrizing perturbed Fock matrices.
          MDV=    2147483648 using IRadAn=       5.
          Solving linear equations separately, MaxMat=     384.
          There are     1 degrees of freedom in the 1st order CPHF.  IDoFFX=0 NUNeed=     1.
 FoFJK:  IHMeth= 1 ICntrl=       0 DoSepK=T KAlg= 0 I1Cent=           0 FoldK=F
 IRaf=         1 NMat=       1 IRICut=       1 DoRegI=T DoRafI=F ISym2E=-1 IDoP0=0 IntGTp=1.
 FoFCou: FMM=F IPFlag=           0 FMFlag=      100000 FMFlg1=           0
         NFxFlg=           0 DoJE=T BraDBF=F KetDBF=F FulRan=T
         wScrn=  0.000000 ICntrl=       500 IOpCl=  0 I1Cent=           0 NGrid=           0
         NMat0=    1 NMatS0=      1 NMatT0=    0 NMatD0=    1 NMtDS0=    0 NMtDT0=    0
 Petite list used in FoFCou.
 LinEq1:  Iter=  0 NonCon=     1 RMS=3.57D-03 Max=1.57D-01 NDo=     1
 AX will form     1 AO Fock derivatives at one time.
 LinEq1:  Iter=  1 NonCon=     1 RMS=1.44D-03 Max=9.37D-02 NDo=     1
 LinEq1:  Iter=  2 NonCon=     1 RMS=6.44D-04 Max=3.58D-02 NDo=     1
 LinEq1:  Iter=  3 NonCon=     1 RMS=3.65D-04 Max=2.14D-02 NDo=     1
 LinEq1:  Iter=  4 NonCon=     1 RMS=1.75D-04 Max=3.77D-03 NDo=     1
 LinEq1:  Iter=  5 NonCon=     1 RMS=8.68D-05 Max=3.03D-03 NDo=     1
 LinEq1:  Iter=  6 NonCon=     1 RMS=5.76D-05 Max=1.74D-03 NDo=     1
 LinEq1:  Iter=  7 NonCon=     1 RMS=2.38D-05 Max=1.10D-03 NDo=     1
 LinEq1:  Iter=  8 NonCon=     1 RMS=1.57D-05 Max=7.46D-04 NDo=     1
 LinEq1:  Iter=  9 NonCon=     1 RMS=1.08D-05 Max=4.23D-04 NDo=     1
 LinEq1:  Iter= 10 NonCon=     1 RMS=6.10D-06 Max=2.32D-04 NDo=     1
 LinEq1:  Iter= 11 NonCon=     1 RMS=2.41D-06 Max=5.80D-05 NDo=     1
 LinEq1:  Iter= 12 NonCon=     1 RMS=9.39D-07 Max=2.02D-05 NDo=     1
 LinEq1:  Iter= 13 NonCon=     1 RMS=3.21D-07 Max=8.07D-06 NDo=     1
 LinEq1:  Iter= 14 NonCon=     1 RMS=1.30D-07 Max=8.44D-06 NDo=     1
 LinEq1:  Iter= 15 NonCon=     1 RMS=7.03D-08 Max=1.67D-06 NDo=     1
 LinEq1:  Iter= 16 NonCon=     1 RMS=3.09D-08 Max=1.90D-06 NDo=     1
 LinEq1:  Iter= 17 NonCon=     1 RMS=1.21D-08 Max=1.68D-07 NDo=     1
 LinEq1:  Iter= 18 NonCon=     1 RMS=5.06D-09 Max=1.57D-07 NDo=     1
 LinEq1:  Iter= 19 NonCon=     1 RMS=1.10D-09 Max=2.56D-08 NDo=     1
 LinEq1:  Iter= 20 NonCon=     1 RMS=2.64D-10 Max=6.32D-09 NDo=     1
 LinEq1:  Iter= 21 NonCon=     1 RMS=1.14D-10 Max=2.44D-09 NDo=     1
 LinEq1:  Iter= 22 NonCon=     1 RMS=4.61D-11 Max=1.45D-09 NDo=     1
 LinEq1:  Iter= 23 NonCon=     0 RMS=1.53D-11 Max=5.35D-10 NDo=     1
 Linear equations converged to 1.000D-10 1.000D-09 after    23 iterations.
 PCM Corrected Linear-Response - Equilibrium solvation:
 Corrected transition energy               =    3.2979          eV
 Total energy after correction             = -633.194591087     a.u.
 NEqPCM:  Using non-equilibrium solvation (IEInf=1, Eps=   7.4257, EpsInf=   1.9740)
 Inv3:  Mode=1 IEnd=    13483200.
 Iteration    1 A*A^-1 deviation from unit magnitude is 3.00D-15 for   1247.
 Iteration    1 A*A^-1 deviation from orthogonality  is 2.19D-15 for   1817    202.
 Iteration    1 A^-1*A deviation from unit magnitude is 3.00D-15 for   1247.
 Iteration    1 A^-1*A deviation from orthogonality  is 1.59D-15 for   1731   1225.
 NEqSol: Computing the dynamic-inertial partition of the PCM polarization charges.
 End of Minotr F.D. properties file   721 does not exist.
 End of Minotr F.D. properties file   722 does not exist.
 End of Minotr F.D. properties file   788 does not exist.
 Leave Link 1002 at Fri Jan 23 18:26:02 2026, MaxMem=  2147483648 cpu:            1888.1 elap:             120.1
 (Enter /data/home/wyx/g16/l601.exe)
 Copying SCF densities to generalized density rwf, IOpCl= 0 IROHF=0.

 **********************************************************************

            Population analysis using the CI density.

 **********************************************************************

 Orbital symmetries:
       Occupied  (A) (A) (A) (A) (A) (A) (A) (A) (A) (A) (A) (A)
                 (A) (A) (A) (A) (A) (A) (A) (A) (A) (A) (A) (A)
                 (A) (A) (A) (A) (A) (A) (A) (A) (A) (A) (A) (A)
                 (A) (A) (A) (A) (A) (A) (A) (A) (A) (A) (A) (A)
                 (A) (A) (A) (A)
       Virtual   (A) (A) (A) (A) (A) (A) (A) (A) (A) (A) (A) (A)
                 (A) (A) (A) (A) (A) (A) (A) (A) (A) (A) (A) (A)
                 (A) (A) (A) (A) (A) (A) (A) (A) (A) (A) (A) (A)
                 (A) (A) (A) (A) (A) (A) (A) (A) (A) (A) (A) (A)
                 (A) (A) (A) (A) (A) (A) (A) (A) (A) (A) (A) (A)
                 (A) (A) (A) (A) (A) (A) (A) (A) (A) (A) (A) (A)
                 (A) (A) (A) (A) (A) (A) (A) (A) (A) (A) (A) (A)
                 (A) (A) (A) (A) (A) (A) (A) (A) (A) (A) (A) (A)
                 (A) (A) (A) (A) (A) (A) (A) (A) (A) (A) (A) (A)
                 (A) (A) (A) (A) (A) (A) (A) (A) (A) (A) (A) (A)
                 (A) (A) (A) (A) (A) (A) (A) (A) (A) (A) (A) (A)
                 (A) (A) (A) (A) (A) (A) (A) (A) (A) (A) (A) (A)
                 (A) (A) (A) (A) (A) (A) (A) (A) (A) (A) (A) (A)
                 (A) (A) (A) (A) (A) (A) (A) (A) (A) (A) (A) (A)
                 (A) (A) (A) (A) (A) (A) (A) (A) (A) (A) (A) (A)
                 (A) (A) (A) (A) (A) (A) (A) (A) (A) (A) (A) (A)
                 (A) (A) (A) (A) (A) (A) (A) (A) (A) (A) (A) (A)
                 (A) (A) (A) (A) (A) (A) (A) (A) (A) (A) (A) (A)
                 (A) (A) (A) (A) (A) (A) (A) (A) (A) (A) (A) (A)
                 (A) (A) (A) (A) (A) (A) (A) (A) (A) (A) (A) (A)
                 (A) (A) (A) (A) (A) (A) (A) (A) (A) (A) (A) (A)
                 (A) (A) (A) (A) (A) (A) (A) (A) (A) (A) (A) (A)
                 (A) (A) (A) (A) (A) (A) (A) (A) (A) (A) (A) (A)
                 (A) (A) (A) (A) (A) (A) (A) (A) (A) (A) (A) (A)
                 (A) (A) (A) (A) (A) (A) (A) (A) (A) (A) (A) (A)
                 (A) (A) (A) (A)
 The electronic state is 1-A.
 Alpha  occ. eigenvalues --  -19.17692 -19.16407 -14.44580 -10.33219 -10.33173
 Alpha  occ. eigenvalues --  -10.32487 -10.32465 -10.26097 -10.25213 -10.25148
 Alpha  occ. eigenvalues --  -10.25020 -10.24349 -10.24065 -10.23767  -1.11711
 Alpha  occ. eigenvalues --   -1.08789  -1.07831  -0.91666  -0.90710  -0.83932
 Alpha  occ. eigenvalues --   -0.82573  -0.81545  -0.78820  -0.74458  -0.71767
 Alpha  occ. eigenvalues --   -0.69225  -0.62205  -0.58588  -0.57007  -0.55251
 Alpha  occ. eigenvalues --   -0.54870  -0.54162  -0.52437  -0.51898  -0.50681
 Alpha  occ. eigenvalues --   -0.49515  -0.49296  -0.49004  -0.48521  -0.48193
 Alpha  occ. eigenvalues --   -0.46655  -0.45297  -0.44602  -0.43881  -0.42945
 Alpha  occ. eigenvalues --   -0.42422  -0.41555  -0.40591  -0.33069  -0.32133
 Alpha  occ. eigenvalues --   -0.30564  -0.26257
 Alpha virt. eigenvalues --   -0.03483   0.02000   0.06294   0.08246   0.08480
 Alpha virt. eigenvalues --    0.09912   0.10802   0.11474   0.12701   0.13053
 Alpha virt. eigenvalues --    0.14448   0.15159   0.15557   0.16435   0.17083
 Alpha virt. eigenvalues --    0.17450   0.17545   0.17706   0.18820   0.19427
 Alpha virt. eigenvalues --    0.20015   0.20632   0.22714   0.23279   0.24263
 Alpha virt. eigenvalues --    0.24604   0.25107   0.25538   0.26241   0.26729
 Alpha virt. eigenvalues --    0.27067   0.27429   0.28839   0.29228   0.29876
 Alpha virt. eigenvalues --    0.30835   0.31083   0.33608   0.34427   0.34726
 Alpha virt. eigenvalues --    0.35471   0.35795   0.36585   0.37169   0.37432
 Alpha virt. eigenvalues --    0.40130   0.40941   0.41450   0.42781   0.42910
 Alpha virt. eigenvalues --    0.44524   0.45336   0.45623   0.46350   0.46375
 Alpha virt. eigenvalues --    0.47427   0.47767   0.48059   0.48662   0.48782
 Alpha virt. eigenvalues --    0.50056   0.50962   0.51138   0.51299   0.51740
 Alpha virt. eigenvalues --    0.52107   0.52841   0.53140   0.53630   0.53812
 Alpha virt. eigenvalues --    0.55122   0.55744   0.56246   0.57193   0.57719
 Alpha virt. eigenvalues --    0.58059   0.59030   0.61853   0.62506   0.63089
 Alpha virt. eigenvalues --    0.63727   0.64819   0.65733   0.66900   0.67782
 Alpha virt. eigenvalues --    0.68866   0.70151   0.71045   0.71775   0.72120
 Alpha virt. eigenvalues --    0.73552   0.75847   0.77754   0.78550   0.79894
 Alpha virt. eigenvalues --    0.82110   0.82971   0.84994   0.88712   0.91685
 Alpha virt. eigenvalues --    0.93642   0.96509   0.99790   1.03822   1.19094
 Alpha virt. eigenvalues --    1.21521   1.22321   1.24977   1.29852   1.30776
 Alpha virt. eigenvalues --    1.32161   1.33738   1.33969   1.35442   1.36517
 Alpha virt. eigenvalues --    1.37596   1.37939   1.39233   1.39507   1.39953
 Alpha virt. eigenvalues --    1.40214   1.40763   1.40919   1.41425   1.42114
 Alpha virt. eigenvalues --    1.42578   1.43496   1.44522   1.45045   1.45747
 Alpha virt. eigenvalues --    1.48494   1.49701   1.50733   1.50798   1.51375
 Alpha virt. eigenvalues --    1.52079   1.53212   1.55685   1.57347   1.58076
 Alpha virt. eigenvalues --    1.58369   1.59690   1.60216   1.61197   1.61985
 Alpha virt. eigenvalues --    1.62458   1.62792   1.63768   1.64158   1.64592
 Alpha virt. eigenvalues --    1.65176   1.65653   1.65754   1.66723   1.67661
 Alpha virt. eigenvalues --    1.68743   1.69300   1.70429   1.71726   1.72142
 Alpha virt. eigenvalues --    1.72865   1.74988   1.75378   1.76094   1.80674
 Alpha virt. eigenvalues --    1.81585   1.82852   1.83549   1.83939   1.85894
 Alpha virt. eigenvalues --    1.86176   1.86422   1.89563   1.90353   1.90979
 Alpha virt. eigenvalues --    1.91672   1.93244   1.96928   1.98109   2.01614
 Alpha virt. eigenvalues --    2.02420   2.05050   2.06056   2.07943   2.09481
 Alpha virt. eigenvalues --    2.10543   2.13678   2.15101   2.18244   2.19972
 Alpha virt. eigenvalues --    2.20229   2.23502   2.24996   2.25727   2.25990
 Alpha virt. eigenvalues --    2.26973   2.29247   2.30416   2.31792   2.33168
 Alpha virt. eigenvalues --    2.35437   2.35733   2.36606   2.38043   2.40091
 Alpha virt. eigenvalues --    2.40288   2.42100   2.43550   2.44576   2.46693
 Alpha virt. eigenvalues --    2.47155   2.47846   2.49286   2.50411   2.50777
 Alpha virt. eigenvalues --    2.52986   2.53801   2.55250   2.55906   2.56541
 Alpha virt. eigenvalues --    2.56852   2.59177   2.61385   2.62848   2.63843
 Alpha virt. eigenvalues --    2.64046   2.64873   2.65859   2.66551   2.67831
 Alpha virt. eigenvalues --    2.69346   2.71195   2.73400   2.74314   2.75341
 Alpha virt. eigenvalues --    2.76169   2.76861   2.77641   2.78288   2.79684
 Alpha virt. eigenvalues --    2.80794   2.81950   2.83553   2.84424   2.85166
 Alpha virt. eigenvalues --    2.85986   2.88692   2.89771   2.89999   2.93781
 Alpha virt. eigenvalues --    2.97054   2.99000   2.99237   3.04514   3.08782
 Alpha virt. eigenvalues --    3.10714   3.12128   3.14364   3.20004   3.21090
 Alpha virt. eigenvalues --    3.21696   3.22559   3.25322   3.25857   3.26338
 Alpha virt. eigenvalues --    3.31001   3.31625   3.34071   3.36423   3.38487
 Alpha virt. eigenvalues --    3.38888   3.39717   3.40394   3.40777   3.41365
 Alpha virt. eigenvalues --    3.41647   3.44216   3.45561   3.47351   3.49851
 Alpha virt. eigenvalues --    3.50883   3.54596   3.56511   3.59103   3.60838
 Alpha virt. eigenvalues --    3.64662   3.92895   4.00969   4.30477   4.37056
 Alpha virt. eigenvalues --   21.65038  21.77071  22.05950  22.10257  22.12666
 Alpha virt. eigenvalues --   22.13537  22.17199  22.20317  22.21496  22.28072
 Alpha virt. eigenvalues --   22.32035  31.92847  43.64946  43.67441
          Condensed to atoms (all electrons):
               1          2          3          4          5          6
     1  O    7.951950   0.000000  -0.000246   0.000017   0.021315   0.021176
     2  O    0.000000   8.134381   0.000422   0.000027  -0.196883   0.001850
     3  N   -0.000246   0.000422   6.158069   0.364092  -0.062982   0.431208
     4  H    0.000017   0.000027   0.364092   0.392053   0.012788  -0.038217
     5  C    0.021315  -0.196883  -0.062982   0.012788   7.376076   0.000265
     6  C    0.021176   0.001850   0.431208  -0.038217   0.000265   5.823937
     7  C   -0.000125   0.001149   0.358294  -0.042970   0.131223  -0.253001
     8  C   -0.000280   0.593903   0.004322  -0.000943  -0.547567   0.054317
     9  C    0.005022   0.027940   0.010710   0.000350  -0.676466  -0.092606
    10  H    0.006764  -0.000469  -0.000658  -0.000008  -0.059607   0.006081
    11  H    0.004722  -0.000337  -0.000251   0.000030  -0.057777   0.013665
    12  C   -0.265035  -0.004334  -0.077478   0.018296   0.102799  -0.306328
    13  C    0.730350   0.000004  -0.000769   0.000640   0.071595   0.057447
    14  C   -0.000015  -0.079142  -0.049226  -0.000658   0.030002  -0.001700
    15  H    0.000000   0.004595   0.001865   0.000421   0.010257   0.004774
    16  H    0.000000   0.039913   0.003572   0.000686  -0.001482   0.000014
    17  H    0.000000  -0.000138  -0.001746   0.000100  -0.017412   0.002280
    18  C   -0.000235  -0.098226  -0.000303   0.000017  -0.148906  -0.002219
    19  H   -0.000003   0.005371   0.000007  -0.000001   0.002455   0.000011
    20  H    0.000944   0.007797   0.000071   0.000000   0.085714  -0.001608
    21  H   -0.000007   0.002279  -0.000001   0.000000  -0.011104   0.000059
    22  C   -0.128148   0.000000   0.000040   0.000112   0.000928  -0.008211
    23  H    0.003313   0.000000   0.000124  -0.000037  -0.000310  -0.007249
    24  H    0.003229   0.000000   0.000104  -0.000023  -0.000166   0.000790
    25  H    0.011327  -0.000000   0.000015  -0.000003  -0.000062  -0.001960
    26  C    0.000769   0.000011  -0.033349  -0.012252   0.002578   0.259286
    27  H   -0.000133   0.000000  -0.000972   0.000955   0.000419  -0.046197
    28  H   -0.000113   0.000000  -0.002996   0.000497   0.000042  -0.063403
    29  H    0.000014   0.000000   0.004953   0.002642  -0.000412  -0.051557
               7          8          9         10         11         12
     1  O   -0.000125  -0.000280   0.005022   0.006764   0.004722  -0.265035
     2  O    0.001149   0.593903   0.027940  -0.000469  -0.000337  -0.004334
     3  N    0.358294   0.004322   0.010710  -0.000658  -0.000251  -0.077478
     4  H   -0.042970  -0.000943   0.000350  -0.000008   0.000030   0.018296
     5  C    0.131223  -0.547567  -0.676466  -0.059607  -0.057777   0.102799
     6  C   -0.253001   0.054317  -0.092606   0.006081   0.013665  -0.306328
     7  C    6.055890  -0.327408  -0.338855   0.006602  -0.001722   0.132829
     8  C   -0.327408   5.883752   0.291176  -0.004182   0.004917  -0.116353
     9  C   -0.338855   0.291176   6.528611   0.457281   0.425950  -0.148589
    10  H    0.006602  -0.004182   0.457281   0.470752  -0.026580  -0.056359
    11  H   -0.001722   0.004917   0.425950  -0.026580   0.479218  -0.030401
    12  C    0.132829  -0.116353  -0.148589  -0.056359  -0.030401   7.680397
    13  C    0.029716  -0.010987  -0.188100  -0.003336  -0.007179  -0.496768
    14  C    0.167673  -0.088947   0.018085  -0.000227  -0.000261   0.006734
    15  H   -0.084466   0.008590  -0.000412  -0.000027   0.000087  -0.001563
    16  H   -0.042212  -0.019875   0.002313  -0.000007  -0.000009  -0.000626
    17  H   -0.032870   0.007113  -0.000754   0.000118  -0.000039  -0.000584
    18  C    0.025952   0.310887  -0.016147  -0.004800  -0.009901   0.011797
    19  H    0.002168  -0.035424  -0.004370   0.000981  -0.000501  -0.000465
    20  H    0.005945  -0.141708  -0.013741  -0.004960  -0.003891   0.006279
    21  H   -0.001813  -0.029654  -0.001524  -0.000879   0.001030   0.000139
    22  C    0.001309  -0.000041   0.023174   0.001203   0.000441  -0.356246
    23  H   -0.000052   0.000004  -0.000937  -0.000141   0.000072   0.033353
    24  H   -0.000045   0.000002  -0.001054   0.000081  -0.000115   0.020745
    25  H    0.000014  -0.000002  -0.000279  -0.000101  -0.000037   0.029455
    26  C    0.005353   0.000948   0.016283  -0.000110  -0.000142  -0.107593
    27  H   -0.000628  -0.000007  -0.000808  -0.000032   0.000023  -0.003790
    28  H   -0.000658  -0.000008   0.000584   0.000030  -0.000025   0.000140
    29  H    0.003866   0.000030  -0.000785   0.000012   0.000005   0.023841
              13         14         15         16         17         18
     1  O    0.730350  -0.000015   0.000000   0.000000   0.000000  -0.000235
     2  O    0.000004  -0.079142   0.004595   0.039913  -0.000138  -0.098226
     3  N   -0.000769  -0.049226   0.001865   0.003572  -0.001746  -0.000303
     4  H    0.000640  -0.000658   0.000421   0.000686   0.000100   0.000017
     5  C    0.071595   0.030002   0.010257  -0.001482  -0.017412  -0.148906
     6  C    0.057447  -0.001700   0.004774   0.000014   0.002280  -0.002219
     7  C    0.029716   0.167673  -0.084466  -0.042212  -0.032870   0.025952
     8  C   -0.010987  -0.088947   0.008590  -0.019875   0.007113   0.310887
     9  C   -0.188100   0.018085  -0.000412   0.002313  -0.000754  -0.016147
    10  H   -0.003336  -0.000227  -0.000027  -0.000007   0.000118  -0.004800
    11  H   -0.007179  -0.000261   0.000087  -0.000009  -0.000039  -0.009901
    12  C   -0.496768   0.006734  -0.001563  -0.000626  -0.000584   0.011797
    13  C    5.548796  -0.000131  -0.000039   0.000006  -0.000023   0.001002
    14  C   -0.000131   5.314807   0.401557   0.398748   0.385241  -0.003358
    15  H   -0.000039   0.401557   0.588826  -0.021598  -0.042603   0.000230
    16  H    0.000006   0.398748  -0.021598   0.453597  -0.009328   0.001834
    17  H   -0.000023   0.385241  -0.042603  -0.009328   0.555938   0.000087
    18  C    0.001002  -0.003358   0.000230   0.001834   0.000087   5.196304
    19  H    0.000002  -0.000526  -0.000029   0.000253   0.000044   0.389695
    20  H    0.002485   0.000544  -0.000027  -0.000227  -0.000005   0.396783
    21  H   -0.000048   0.000231   0.000009  -0.000168  -0.000071   0.402655
    22  C    0.344369   0.000027   0.000001  -0.000000  -0.000001   0.000018
    23  H   -0.058430   0.000001   0.000000  -0.000000  -0.000000  -0.000001
    24  H   -0.051150   0.000000  -0.000000   0.000000   0.000000   0.000000
    25  H   -0.049046   0.000000   0.000000  -0.000000  -0.000000   0.000000
    26  C   -0.040767  -0.000631   0.000026   0.000020  -0.000176  -0.000025
    27  H   -0.001131  -0.000017   0.000034  -0.000002  -0.000048  -0.000001
    28  H    0.002722  -0.000066  -0.000058   0.000002   0.000033   0.000000
    29  H   -0.000243   0.000564   0.000031   0.000000   0.000010   0.000001
              19         20         21         22         23         24
     1  O   -0.000003   0.000944  -0.000007  -0.128148   0.003313   0.003229
     2  O    0.005371   0.007797   0.002279   0.000000   0.000000   0.000000
     3  N    0.000007   0.000071  -0.000001   0.000040   0.000124   0.000104
     4  H   -0.000001   0.000000   0.000000   0.000112  -0.000037  -0.000023
     5  C    0.002455   0.085714  -0.011104   0.000928  -0.000310  -0.000166
     6  C    0.000011  -0.001608   0.000059  -0.008211  -0.007249   0.000790
     7  C    0.002168   0.005945  -0.001813   0.001309  -0.000052  -0.000045
     8  C   -0.035424  -0.141708  -0.029654  -0.000041   0.000004   0.000002
     9  C   -0.004370  -0.013741  -0.001524   0.023174  -0.000937  -0.001054
    10  H    0.000981  -0.004960  -0.000879   0.001203  -0.000141   0.000081
    11  H   -0.000501  -0.003891   0.001030   0.000441   0.000072  -0.000115
    12  C   -0.000465   0.006279   0.000139  -0.356246   0.033353   0.020745
    13  C    0.000002   0.002485  -0.000048   0.344369  -0.058430  -0.051150
    14  C   -0.000526   0.000544   0.000231   0.000027   0.000001   0.000000
    15  H   -0.000029  -0.000027   0.000009   0.000001   0.000000  -0.000000
    16  H    0.000253  -0.000227  -0.000168  -0.000000  -0.000000   0.000000
    17  H    0.000044  -0.000005  -0.000071  -0.000001  -0.000000   0.000000
    18  C    0.389695   0.396783   0.402655   0.000018  -0.000001   0.000000
    19  H    0.556527  -0.025494  -0.038042  -0.000001  -0.000000   0.000000
    20  H   -0.025494   0.568388  -0.023625   0.000071  -0.000002  -0.000001
    21  H   -0.038042  -0.023625   0.546292  -0.000001   0.000000  -0.000000
    22  C   -0.000001   0.000071  -0.000001   5.474586   0.380917   0.396207
    23  H   -0.000000  -0.000002   0.000000   0.380917   0.549146  -0.033799
    24  H    0.000000  -0.000001  -0.000000   0.396207  -0.033799   0.526725
    25  H   -0.000000  -0.000001   0.000000   0.377891  -0.015311  -0.010403
    26  C    0.000000  -0.000018   0.000000  -0.045684   0.009624  -0.008530
    27  H   -0.000000  -0.000000   0.000000   0.001819  -0.003040  -0.002286
    28  H    0.000000   0.000000  -0.000000  -0.010361  -0.002844   0.001200
    29  H    0.000000  -0.000000  -0.000000   0.002124   0.000452   0.000171
              25         26         27         28         29
     1  O    0.011327   0.000769  -0.000133  -0.000113   0.000014
     2  O   -0.000000   0.000011   0.000000   0.000000   0.000000
     3  N    0.000015  -0.033349  -0.000972  -0.002996   0.004953
     4  H   -0.000003  -0.012252   0.000955   0.000497   0.002642
     5  C   -0.000062   0.002578   0.000419   0.000042  -0.000412
     6  C   -0.001960   0.259286  -0.046197  -0.063403  -0.051557
     7  C    0.000014   0.005353  -0.000628  -0.000658   0.003866
     8  C   -0.000002   0.000948  -0.000007  -0.000008   0.000030
     9  C   -0.000279   0.016283  -0.000808   0.000584  -0.000785
    10  H   -0.000101  -0.000110  -0.000032   0.000030   0.000012
    11  H   -0.000037  -0.000142   0.000023  -0.000025   0.000005
    12  C    0.029455  -0.107593  -0.003790   0.000140   0.023841
    13  C   -0.049046  -0.040767  -0.001131   0.002722  -0.000243
    14  C    0.000000  -0.000631  -0.000017  -0.000066   0.000564
    15  H    0.000000   0.000026   0.000034  -0.000058   0.000031
    16  H   -0.000000   0.000020  -0.000002   0.000002   0.000000
    17  H   -0.000000  -0.000176  -0.000048   0.000033   0.000010
    18  C    0.000000  -0.000025  -0.000001   0.000000   0.000001
    19  H   -0.000000   0.000000  -0.000000   0.000000   0.000000
    20  H   -0.000001  -0.000018  -0.000000   0.000000  -0.000000
    21  H    0.000000   0.000000   0.000000  -0.000000  -0.000000
    22  C    0.377891  -0.045684   0.001819  -0.010361   0.002124
    23  H   -0.015311   0.009624  -0.003040  -0.002844   0.000452
    24  H   -0.010403  -0.008530  -0.002286   0.001200   0.000171
    25  H    0.496120   0.002185   0.000402  -0.000053  -0.000032
    26  C    0.002185   5.178610   0.421302   0.439606   0.381635
    27  H    0.000402   0.421302   0.531208  -0.043493  -0.020373
    28  H   -0.000053   0.439606  -0.043493   0.518125  -0.016679
    29  H   -0.000032   0.381635  -0.020373  -0.016679   0.524595
 Mulliken charges:
               1
     1  O   -0.366573
     2  O   -0.440114
     3  N   -0.106891
     4  H    0.301386
     5  C   -0.067320
     6  C    0.197094
     7  C    0.198841
     8  C    0.163426
     9  C   -0.322050
    10  H    0.212575
    11  H    0.209010
    12  C   -0.094292
    13  C    0.119014
    14  C   -0.499309
    15  H    0.129518
    16  H    0.194577
    17  H    0.154834
    18  C   -0.453141
    19  H    0.147343
    20  H    0.140285
    21  H    0.154240
    22  C   -0.456543
    23  H    0.145147
    24  H    0.158317
    25  H    0.159879
    26  C   -0.468960
    27  H    0.166795
    28  H    0.177777
    29  H    0.145135
 Sum of Mulliken charges =  -0.00000
 Mulliken charges with hydrogens summed into heavy atoms:
               1
     1  O   -0.366573
     2  O   -0.440114
     3  N    0.194495
     5  C   -0.067320
     6  C    0.197094
     7  C    0.198841
     8  C    0.163426
     9  C    0.099534
    12  C   -0.094292
    13  C    0.119014
    14  C   -0.020380
    18  C   -0.011274
    22  C    0.006800
    26  C    0.020748
 Electronic spatial extent (au):  <R**2>=           3234.6091
 Charge=              0.0000 electrons
 Dipole moment (field-independent basis, Debye):
    X=              5.8334    Y=              7.4314    Z=             -0.1314  Tot=              9.4484
 Quadrupole moment (field-independent basis, Debye-Ang):
   XX=           -106.5797   YY=            -79.4186   ZZ=            -84.3828
   XY=             12.8409   XZ=              0.5566   YZ=              0.1183
 Traceless Quadrupole moment (field-independent basis, Debye-Ang):
   XX=            -16.4527   YY=             10.7084   ZZ=              5.7442
   XY=             12.8409   XZ=              0.5566   YZ=              0.1183
 Octapole moment (field-independent basis, Debye-Ang**2):
  XXX=            134.0167  YYY=             66.2332  ZZZ=              0.8830  XYY=            -30.7927
  XXY=             28.9060  XXZ=             -2.4679  XZZ=              2.1642  YZZ=             -1.7621
  YYZ=             -0.4747  XYZ=             -0.0433
 Hexadecapole moment (field-independent basis, Debye-Ang**3):
 XXXX=          -3266.2543 YYYY=          -1299.1258 ZZZZ=           -123.6168 XXXY=             34.9990
 XXXZ=             14.4127 YYYX=             92.0914 YYYZ=             -0.7919 ZZZX=             -1.8129
 ZZZY=              0.0544 XXYY=           -718.3931 XXZZ=           -491.0110 YYZZ=           -237.7913
 XXYZ=              2.2537 YYXZ=             -0.9854 ZZXY=              2.5878
 N-N= 8.991178300587D+02 E-N=-3.273710353437D+03  KE= 6.307242648308D+02
 No NMR shielding tensors so no spin-rotation constants.
 Leave Link  601 at Fri Jan 23 18:26:03 2026, MaxMem=  2147483648 cpu:               1.8 elap:               0.1
 (Enter /data/home/wyx/g16/l9999.exe)
 Electronic transition elements 
                 1             2             3             4             5 
      1  -0.633198D+03 -0.633189D+03 -0.633162D+03 -0.633131D+03 -0.633117D+03
      2   0.160964D+01  0.202408D+00 -0.902220D-02 -0.618073D+00 -0.139678D+00
      3   0.541261D+00  0.356789D-01 -0.934834D-02  0.171253D+01  0.131459D+01
      4   0.227645D+00 -0.125914D-01  0.364570D-01 -0.110684D+00 -0.187339D-01
      5  -0.183911D+00 -0.255508D-01  0.500160D-03  0.102223D+00  0.301442D-01
      6  -0.629008D-01 -0.461376D-02  0.140129D-02 -0.300631D+00 -0.257377D+00
      7  -0.261393D-01  0.152851D-03 -0.233342D-02  0.180124D-01  0.402718D-02
      8  -0.145928D+00 -0.807735D+00 -0.333841D+00  0.435317D-01 -0.104023D-01
      9   0.370485D-02  0.117359D-02  0.877321D+00 -0.404890D-02 -0.770867D-02
     10   0.142330D+01  0.121829D+00 -0.421835D-01 -0.483018D+00 -0.280119D+00
     11  -0.253943D-02  0.124446D-01  0.132074D-01  0.140029D+01  0.479709D+00
     12   0.239035D+00  0.461612D-01  0.362293D-02 -0.288496D+00 -0.285773D+00
     13  -0.144196D-01 -0.790055D-02 -0.241805D-01 -0.970144D-02 -0.155686D-01
     14   0.547486D+00  0.697409D-01 -0.356100D-02  0.380788D+00  0.379529D+00
     15  -0.462591D-02 -0.234849D-01 -0.750304D-01  0.203444D+00  0.900264D-01
     16   0.749982D-01 -0.313960D-01 -0.255082D-01  0.507056D-01  0.321264D-01
                 6 
      1  -0.633092D+03
      2  -0.302742D-01
      3   0.411085D-01
      4   0.168162D-01
      5   0.838310D-02
      6  -0.852937D-02
      7  -0.233406D-01
      8  -0.352200D-01
      9  -0.177121D-01
     10  -0.233241D-01
     11  -0.470507D-02
     12  -0.155468D-01
     13   0.740363D-02
     14  -0.211863D-01
     15  -0.325426D-02
     16   0.387809D-01
 1\1\GINC-CN013\SP\RCAM-B3LYP TD-FC\TZVP\C11H15N1O2\WYX\23-Jan-2026\0\\
 #p CAM-B3LYP TZVP em=gd3bj td(nstates=6,root=1) scrf=(Solvent=TetraHyd
 roFuran,CorrectedLR,NonEquilibrium=Save) Geom=Check Guess=Read\\Title 
 Card Required\\0,1\O,0,2.798035,-1.572028,0.417829\O,0,-3.437111,-1.65
 3321,-0.43864\N,0,-0.654499,1.524434,-0.120601\H,0,-0.973501,2.477794,
 -0.161363\C,0,-1.241474,-0.768716,-0.183694\C,0,0.674573,1.312704,0.08
 7494\C,0,-1.618978,0.538403,-0.244897\C,0,-2.17453,-1.826255,-0.297965
 \C,0,0.209314,-1.133434,0.005091\H,0,0.317558,-1.77306,0.884487\H,0,0.
 554957,-1.732344,-0.841891\C,0,1.144524,0.0414,0.15485\C,0,2.52047,-0.
 373637,0.370227\C,0,-2.991841,1.075036,-0.42639\H,0,-3.006357,1.873184
 ,-1.173932\H,0,-3.703838,0.322532,-0.760528\H,0,-3.386173,1.481203,0.5
 09033\C,0,-1.810302,-3.280677,-0.270984\H,0,-2.239637,-3.858895,-1.091
 914\H,0,-0.735758,-3.443892,-0.310817\H,0,-2.154384,-3.749835,0.655524
 \C,0,3.656826,0.601779,0.538556\H,0,3.760292,1.279296,-0.306625\H,0,3.
 554519,1.206571,1.438632\H,0,4.563556,0.007354,0.621762\C,0,1.44429,2.
 58998,0.212239\H,0,1.975773,2.662621,1.15755\H,0,2.168686,2.715323,-0.
 590069\H,0,0.785009,3.45648,0.167035\\Version=ES64L-G16RevA.03\State=1
 -A\HF=-633.3157855\RMSD=1.883e-09\Dipole=1.1279419,3.5405658,0.1015645
 \Quadrupole=-15.709719,11.7473026,3.9624165,0.5861142,-2.5034074,0.296
 8608\PG=C01 [X(C11H15N1O2)]\\@


 SOME PEOPLE TRY TO PULL THE WOOL OVER YOUR EYES
 USING THE WRONG YARN.
 Job cpu time:       0 days  2 hours 45 minutes  6.2 seconds.
 Elapsed time:       0 days  0 hours 10 minutes 22.9 seconds.
 File lengths (MBytes):  RWF=    736 Int=      0 D2E=      0 Chk=     67 Scr=      1
 Normal termination of Gaussian 16 at Fri Jan 23 18:26:05 2026.
