 Entering Gaussian System, Link 0=g16
 Input=DDL-S2-cLR-14.gjf
 Output=DDL-S2-cLR-14.log
 Initial command:
 /data/home/wyx/g16/l1.exe "/scr/tmp/wyx/13109/Gau-1698752.inp" -scrdir="/scr/tmp/wyx/13109/"
 Entering Link 1 = /data/home/wyx/g16/l1.exe PID=   1698753.
  
 Copyright (c) 1988,1990,1992,1993,1995,1998,2003,2009,2016,
            Gaussian, Inc.  All Rights Reserved.
  
 This is part of the Gaussian(R) 16 program.  It is based on
 the Gaussian(R) 09 system (copyright 2009, Gaussian, Inc.),
 the Gaussian(R) 03 system (copyright 2003, Gaussian, Inc.),
 the Gaussian(R) 98 system (copyright 1998, Gaussian, Inc.),
 the Gaussian(R) 94 system (copyright 1995, Gaussian, Inc.),
 the Gaussian 92(TM) system (copyright 1992, Gaussian, Inc.),
 the Gaussian 90(TM) system (copyright 1990, Gaussian, Inc.),
 the Gaussian 88(TM) system (copyright 1988, Gaussian, Inc.),
 the Gaussian 86(TM) system (copyright 1986, Carnegie Mellon
 University), and the Gaussian 82(TM) system (copyright 1983,
 Carnegie Mellon University). Gaussian is a federally registered
 trademark of Gaussian, Inc.
  
 This software contains proprietary and confidential information,
 including trade secrets, belonging to Gaussian, Inc.
  
 This software is provided under written license and may be
 used, copied, transmitted, or stored only in accord with that
 written license.
  
 The following legend is applicable only to US Government
 contracts under FAR:
  
                    RESTRICTED RIGHTS LEGEND
  
 Use, reproduction and disclosure by the US Government is
 subject to restrictions as set forth in subparagraphs (a)
 and (c) of the Commercial Computer Software - Restricted
 Rights clause in FAR 52.227-19.
  
 Gaussian, Inc.
 340 Quinnipiac St., Bldg. 40, Wallingford CT 06492
  
  
 ---------------------------------------------------------------
 Warning -- This program may not be used in any manner that
 competes with the business of Gaussian, Inc. or will provide
 assistance to any competitor of Gaussian, Inc.  The licensee
 of this program is prohibited from giving any competitor of
 Gaussian, Inc. access to this program.  By using this program,
 the user acknowledges that Gaussian, Inc. is engaged in the
 business of creating and licensing software in the field of
 computational chemistry and represents and warrants to the
 licensee that it is not a competitor of Gaussian, Inc. and that
 it will not use this program in any manner prohibited above.
 ---------------------------------------------------------------
  

 Cite this work as:
 Gaussian 16, Revision A.03,
 M. J. Frisch, G. W. Trucks, H. B. Schlegel, G. E. Scuseria, 
 M. A. Robb, J. R. Cheeseman, G. Scalmani, V. Barone, 
 G. A. Petersson, H. Nakatsuji, X. Li, M. Caricato, A. V. Marenich, 
 J. Bloino, B. G. Janesko, R. Gomperts, B. Mennucci, H. P. Hratchian, 
 J. V. Ortiz, A. F. Izmaylov, J. L. Sonnenberg, D. Williams-Young, 
 F. Ding, F. Lipparini, F. Egidi, J. Goings, B. Peng, A. Petrone, 
 T. Henderson, D. Ranasinghe, V. G. Zakrzewski, J. Gao, N. Rega, 
 G. Zheng, W. Liang, M. Hada, M. Ehara, K. Toyota, R. Fukuda, 
 J. Hasegawa, M. Ishida, T. Nakajima, Y. Honda, O. Kitao, H. Nakai, 
 T. Vreven, K. Throssell, J. A. Montgomery, Jr., J. E. Peralta, 
 F. Ogliaro, M. J. Bearpark, J. J. Heyd, E. N. Brothers, K. N. Kudin, 
 V. N. Staroverov, T. A. Keith, R. Kobayashi, J. Normand, 
 K. Raghavachari, A. P. Rendell, J. C. Burant, S. S. Iyengar, 
 J. Tomasi, M. Cossi, J. M. Millam, M. Klene, C. Adamo, R. Cammi, 
 J. W. Ochterski, R. L. Martin, K. Morokuma, O. Farkas, 
 J. B. Foresman, and D. J. Fox, Gaussian, Inc., Wallingford CT, 2016.
 
 ******************************************
 Gaussian 16:  ES64L-G16RevA.03 25-Dec-2016
                23-Jan-2026 
 ******************************************
 %nprocshared=16
 Will use up to   16 processors via shared memory.
 %mem=16GB
 %oldchk=DDL-LR-14.chk
 %chk=DDL-S2-cLR-14.chk
 Copying data from "DDL-LR-14.chk" to current chk file "DDL-S2-cLR-14.chk"
 IOpt=  2 FromEx=T IUOpen= 4 IOptOp= 5 NList=   0 IFRang= 0 IUIn= 4 IUOut= 2.
 ----------------------------------------------------------------------
 #p CAM-B3LYP TZVP em=gd3bj td(nstates=6,root=2) scrf=(Solvent=TetraHyd
 roFuran,CorrectedLR,NonEquilibrium=Save) Geom=Check Guess=Read
 ----------------------------------------------------------------------
 1/29=2,30=1,38=1,172=1/1;
 2/12=2,40=1/2;
 3/5=19,7=101,11=9,14=-4,25=1,30=1,70=9002201,71=1,72=20,74=-40,116=-2,124=41/1,2,3,8;
 4/5=1/1;
 5/5=2,38=6,53=20/2;
 8/6=1,10=1,107=2,108=6/1;
 9/8=2,15=1,41=6,42=1,70=2,73=22/14;
 10/5=4,13=10,28=2,74=20/2;
 6/7=2,8=2,9=2,10=2,22=-1/1;
 99/5=1,9=1/99;
 Leave Link    1 at Fri Jan 23 21:32:36 2026, MaxMem=  2147483648 cpu:               0.8 elap:               0.3
 (Enter /data/home/wyx/g16/l101.exe)
 -------------------
 Title Card Required
 -------------------
 Structure from the checkpoint file:  "DDL-S2-cLR-14.chk"
 Charge =  0 Multiplicity = 1
 Z-Matrix found in chk file.
 O,0,2.827452,-1.568839,0.204959
 O,0,-3.43095,-1.625334,0.021855
 N,0,-0.634557,1.513028,-0.34534
 H,0,-0.944428,2.469426,-0.393936
 C,0,-1.238288,-0.757245,-0.218258
 C,0,0.698467,1.29764,-0.082536
 C,0,-1.609976,0.54084,-0.289423
 C,0,-2.221601,-1.824288,-0.122425
 C,0,0.223177,-1.119463,-0.317897
 H,0,0.456209,-1.940001,0.357832
 H,0,0.455957,-1.498149,-1.321033
 C,0,1.150105,0.027647,0.007032
 C,0,2.512323,-0.390422,0.334072
 C,0,-3.000506,1.080343,-0.307623
 H,0,-3.013105,2.099703,-0.695799
 H,0,-3.666555,0.47381,-0.914794
 H,0,-3.423211,1.091434,0.697478
 C,0,-1.749793,-3.249627,-0.20855
 H,0,-2.581045,-3.930142,-0.380613
 H,0,-1.016046,-3.39905,-1.001587
 H,0,-1.264885,-3.553008,0.72299
 C,0,3.554276,0.558675,0.869593
 H,0,4.002458,1.140716,0.063339
 H,0,3.167035,1.252999,1.611084
 H,0,4.336239,-0.049505,1.318129
 C,0,1.46039,2.576843,0.06914
 H,0,1.567617,2.853334,1.118694
 H,0,2.448911,2.534006,-0.373046
 H,0,0.934329,3.394631,-0.423336
 Recover connectivity data from disk.
 ITRead=  0  0  0  0  0  0  0  0  0  0  0  0  0  0  0  0  0  0  0  0
 ITRead=  0  0  0  0  0  0  0  0  0
 MicOpt= -1 -1 -1 -1 -1 -1 -1 -1 -1 -1 -1 -1 -1 -1 -1 -1 -1 -1 -1 -1
 MicOpt= -1 -1 -1 -1 -1 -1 -1 -1 -1
 NAtoms=     29 NQM=       29 NQMF=       0 NMMI=      0 NMMIF=      0
                NMic=       0 NMicF=      0.
                    Isotopes and Nuclear Properties:
 (Nuclear quadrupole moments (NQMom) in fm**2, nuclear magnetic moments (NMagM)
  in nuclear magnetons)

  Atom         1           2           3           4           5           6           7           8           9          10
 IAtWgt=          16          16          14           1          12          12          12          12          12           1
 AtmWgt=  15.9949146  15.9949146  14.0030740   1.0078250  12.0000000  12.0000000  12.0000000  12.0000000  12.0000000   1.0078250
 NucSpn=           0           0           2           1           0           0           0           0           0           1
 AtZEff=   5.6000000   5.6000000   4.5500000   1.0000000   3.6000000   3.6000000   3.6000000   3.6000000   3.6000000   1.0000000
 NQMom=    0.0000000   0.0000000   2.0440000   0.0000000   0.0000000   0.0000000   0.0000000   0.0000000   0.0000000   0.0000000
 NMagM=    0.0000000   0.0000000   0.4037610   2.7928460   0.0000000   0.0000000   0.0000000   0.0000000   0.0000000   2.7928460
 AtZNuc=   8.0000000   8.0000000   7.0000000   1.0000000   6.0000000   6.0000000   6.0000000   6.0000000   6.0000000   1.0000000

  Atom        11          12          13          14          15          16          17          18          19          20
 IAtWgt=           1          12          12          12           1           1           1          12           1           1
 AtmWgt=   1.0078250  12.0000000  12.0000000  12.0000000   1.0078250   1.0078250   1.0078250  12.0000000   1.0078250   1.0078250
 NucSpn=           1           0           0           0           1           1           1           0           1           1
 AtZEff=   1.0000000   3.6000000   3.6000000   3.6000000   1.0000000   1.0000000   1.0000000   3.6000000   1.0000000   1.0000000
 NQMom=    0.0000000   0.0000000   0.0000000   0.0000000   0.0000000   0.0000000   0.0000000   0.0000000   0.0000000   0.0000000
 NMagM=    2.7928460   0.0000000   0.0000000   0.0000000   2.7928460   2.7928460   2.7928460   0.0000000   2.7928460   2.7928460
 AtZNuc=   1.0000000   6.0000000   6.0000000   6.0000000   1.0000000   1.0000000   1.0000000   6.0000000   1.0000000   1.0000000

  Atom        21          22          23          24          25          26          27          28          29
 IAtWgt=           1          12           1           1           1          12           1           1           1
 AtmWgt=   1.0078250  12.0000000   1.0078250   1.0078250   1.0078250  12.0000000   1.0078250   1.0078250   1.0078250
 NucSpn=           1           0           1           1           1           0           1           1           1
 AtZEff=   1.0000000   3.6000000   1.0000000   1.0000000   1.0000000   3.6000000   1.0000000   1.0000000   1.0000000
 NQMom=    0.0000000   0.0000000   0.0000000   0.0000000   0.0000000   0.0000000   0.0000000   0.0000000   0.0000000
 NMagM=    2.7928460   0.0000000   2.7928460   2.7928460   2.7928460   0.0000000   2.7928460   2.7928460   2.7928460
 AtZNuc=   1.0000000   6.0000000   1.0000000   1.0000000   1.0000000   6.0000000   1.0000000   1.0000000   1.0000000
 Leave Link  101 at Fri Jan 23 21:32:39 2026, MaxMem=  2147483648 cpu:               0.8 elap:               0.1
 (Enter /data/home/wyx/g16/l202.exe)
                          Input orientation:                          
 ---------------------------------------------------------------------
 Center     Atomic      Atomic             Coordinates (Angstroms)
 Number     Number       Type             X           Y           Z
 ---------------------------------------------------------------------
      1          8           0        2.827452   -1.568839    0.204959
      2          8           0       -3.430950   -1.625334    0.021855
      3          7           0       -0.634557    1.513028   -0.345340
      4          1           0       -0.944428    2.469426   -0.393936
      5          6           0       -1.238288   -0.757245   -0.218258
      6          6           0        0.698467    1.297640   -0.082536
      7          6           0       -1.609976    0.540840   -0.289423
      8          6           0       -2.221601   -1.824288   -0.122425
      9          6           0        0.223177   -1.119463   -0.317897
     10          1           0        0.456209   -1.940001    0.357832
     11          1           0        0.455957   -1.498149   -1.321033
     12          6           0        1.150105    0.027647    0.007032
     13          6           0        2.512323   -0.390422    0.334072
     14          6           0       -3.000506    1.080343   -0.307623
     15          1           0       -3.013105    2.099703   -0.695799
     16          1           0       -3.666555    0.473810   -0.914794
     17          1           0       -3.423211    1.091434    0.697478
     18          6           0       -1.749793   -3.249627   -0.208550
     19          1           0       -2.581045   -3.930142   -0.380613
     20          1           0       -1.016046   -3.399050   -1.001587
     21          1           0       -1.264885   -3.553008    0.722990
     22          6           0        3.554276    0.558675    0.869593
     23          1           0        4.002458    1.140716    0.063339
     24          1           0        3.167035    1.252999    1.611084
     25          1           0        4.336239   -0.049505    1.318129
     26          6           0        1.460390    2.576843    0.069140
     27          1           0        1.567617    2.853334    1.118694
     28          1           0        2.448911    2.534006   -0.373046
     29          1           0        0.934329    3.394631   -0.423336
 ---------------------------------------------------------------------
                    Distance matrix (angstroms):
                    1          2          3          4          5
     1  O    0.000000
     2  O    6.261335   0.000000
     3  N    4.667573   4.219474   0.000000
     4  H    5.558178   4.808610   1.006518   0.000000
     5  C    4.167498   2.370443   2.352611   3.244784   0.000000
     6  C    3.582169   5.060312   1.375649   2.041851   2.827011
     7  C    4.938211   2.846955   1.378303   2.042871   1.352125
     8  C    5.066100   1.234068   3.702172   4.487858   1.454190
     9  C    2.693987   3.704589   2.768839   3.774812   1.508976
    10  H    2.404979   3.914320   3.688852   4.687215   2.145253
    11  H    2.820928   4.114313   3.347893   4.308392   2.153025
    12  C    2.324099   4.870178   2.348519   3.241933   2.524130
    13  C    1.226639   6.078238   3.739997   4.545091   3.808768
    14  C    6.422305   2.759443   2.405484   2.482833   2.547573
    15  H    6.955693   3.816480   2.474773   2.123026   3.397083
    16  H    6.899159   2.310677   3.255344   3.415224   2.810185
    17  H    6.811051   2.799528   3.006959   3.038817   3.005008
    18  C    4.893589   2.348979   4.893398   5.778456   2.544347
    19  H    5.930471   2.489269   5.780844   6.605540   3.449149
    20  H    4.424692   3.166270   4.970383   5.900286   2.764440
    21  H    4.577391   2.983179   5.215684   6.133509   2.950076
    22  C    2.344425   7.367628   4.464658   5.048348   5.087606
    23  H    2.956752   7.931476   4.669855   5.142592   5.580947
    24  H    3.171005   7.371829   4.283376   4.733279   5.176335
    25  H    2.413289   8.030740   5.469685   6.096033   5.825524
    26  C    4.367377   6.448700   2.385854   2.451352   4.299024
    27  H    4.688039   6.800529   2.964690   2.957331   4.764118
    28  H    4.160615   7.213101   3.248221   3.394018   4.944869
    29  H    5.349271   6.667376   2.451105   2.094420   4.690458
                    6          7          8          9         10
     6  C    0.000000
     7  C    2.438126   0.000000
     8  C    4.274906   2.448633   0.000000
     9  C    2.474608   2.473432   2.551848   0.000000
    10  H    3.276421   3.292815   2.722995   1.088208   0.000000
    11  H    3.067429   3.080548   2.951668   1.097211   1.736036
    12  C    1.350882   2.822995   3.849003   1.510177   2.115701
    13  C    2.512606   4.271925   4.967333   2.489328   2.574755
    14  C    3.712180   1.491633   3.012951   3.902741   4.638339
    15  H    3.846448   2.136344   4.043877   4.580323   5.428212
    16  H    4.519377   2.150604   2.827896   4.245565   4.944011
    17  H    4.199901   2.136574   3.258457   4.383514   4.935064
    18  C    5.165994   3.793907   1.503866   2.905541   2.627233
    19  H    6.178491   4.576131   2.151856   3.970833   3.705519
    20  H    5.083612   4.047550   2.169370   2.683211   2.478786
    21  H    5.294564   4.231272   2.149071   3.036431   2.386901
    22  C    3.099720   5.292744   6.326402   3.914397   4.012892
    23  H    3.310931   5.655414   6.896714   4.420036   4.706743
    24  H    2.994022   5.190273   6.442992   4.244507   4.372010
    25  H    4.124324   6.187908   6.944805   4.553973   4.421626
    26  C    1.496627   3.701489   5.741403   3.917036   4.636119
    27  H    2.149083   4.174628   6.146438   4.433332   4.978976
    28  H    2.162649   4.522639   6.393060   4.278407   4.951947
    29  H    2.137556   3.825643   6.106354   4.570984   5.412681
                   11         12         13         14         15
    11  H    0.000000
    12  C    2.138610   0.000000
    13  C    2.862704   1.461976   0.000000
    14  C    4.429758   4.293571   5.741620   0.000000
    15  H    5.036849   4.703159   6.147496   1.090841   0.000000
    16  H    4.587893   4.924331   6.362790   1.086352   1.765923
    17  H    5.082152   4.745901   6.128501   1.090427   1.768054
    18  C    3.028304   4.381371   5.160923   4.508075   5.518034
    19  H    4.002794   5.453058   6.243620   5.028542   6.053515
    20  H    2.425338   4.177532   4.825476   4.948195   5.858160
    21  H    3.370723   4.377883   4.941711   5.053957   6.084602
    22  C    4.316126   2.608839   1.507725   6.680056   6.925006
    23  H    4.632253   3.062354   2.153644   7.013042   7.121381
    24  H    4.849337   2.853503   2.181797   6.461409   6.650770
    25  H    4.911246   3.446212   2.100300   7.599175   7.917566
    26  C    4.421202   2.568761   3.159338   4.720281   4.563436
    27  H    5.111111   3.065064   3.468437   5.103491   4.984311
    28  H    4.596610   2.848367   3.009371   5.640351   5.488753
    29  H    4.997399   3.401229   4.170175   4.566426   4.163329
                   16         17         18         19         20
    16  H    0.000000
    17  H    1.743587   0.000000
    18  C    4.246968   4.739834   0.000000
    19  H    4.567108   5.204589   1.087973   0.000000
    20  H    4.693802   5.370820   1.090697   1.765471   0.000000
    21  H    4.966449   5.121510   1.093134   1.758535   1.749225
    22  C    7.438524   6.999913   6.618059   7.704197   6.328724
    23  H    7.759850   7.452860   7.241369   8.321851   6.850469
    24  H    7.327015   6.655233   6.910854   7.992010   6.779807
    25  H    8.324933   7.867402   7.043530   8.111343   6.726625
    26  C    5.628183   5.143035   6.658088   7.673091   6.556713
    27  H    6.098669   5.309433   7.071981   8.091654   7.089655
    28  H    6.475865   6.140753   7.148887   8.190588   6.899431
    29  H    5.471824   5.054611   7.169157   8.124776   7.091716
                   21         22         23         24         25
    21  H    0.000000
    22  C    6.336540   0.000000
    23  H    7.085978   1.090727   0.000000
    24  H    6.597600   1.087129   1.762400   0.000000
    25  H    6.633349   1.087444   1.761401   1.774648   0.000000
    26  C    6.740157   3.016303   2.919692   2.653826   4.090010
    27  H    7.015758   3.045378   3.158368   2.315525   4.016406
    28  H    7.214244   2.582231   2.131947   2.468492   3.618924
    29  H    7.377011   4.071662   3.838020   3.702760   5.144683
                   26         27         28         29
    26  C    0.000000
    27  H    1.090646   0.000000
    28  H    1.083761   1.761800   0.000000
    29  H    1.089977   1.752687   1.742746   0.000000
 Stoichiometry    C11H15NO2
 Framework group  C1[X(C11H15NO2)]
 Deg. of freedom    81
 Full point group                 C1      NOp   1
 RotChk:  IX=0 Diff= 1.15D-15
 Largest Abelian subgroup         C1      NOp   1
 Largest concise Abelian subgroup C1      NOp   1
                         Standard orientation:                         
 ---------------------------------------------------------------------
 Center     Atomic      Atomic             Coordinates (Angstroms)
 Number     Number       Type             X           Y           Z
 ---------------------------------------------------------------------
      1          8           0        2.279925   -2.287851   -0.149537
      2          8           0       -3.609278   -0.234105    0.401579
      3          7           0        0.032515    1.802319   -0.226343
      4          1           0        0.062449    2.808361   -0.218541
      5          6           0       -1.289462   -0.137938   -0.076127
      6          6           0        1.232841    1.137788   -0.126204
      7          6           0       -1.203664    1.211462   -0.076443
      8          6           0       -2.561093   -0.817709    0.112376
      9          6           0       -0.056375   -0.962150   -0.353944
     10          1           0       -0.047181   -1.851747    0.272736
     11          1           0       -0.071023   -1.336960   -1.385047
     12          6           0        1.233229   -0.213058   -0.116416
     13          6           0        2.398688   -1.081761    0.039901
     14          6           0       -2.322434    2.185597    0.079705
     15          1           0       -2.028315    3.171349   -0.283227
     16          1           0       -3.213816    1.874162   -0.457517
     17          1           0       -2.609934    2.278216    1.127463
     18          6           0       -2.612749   -2.311017   -0.057845
     19          1           0       -3.638704   -2.662401   -0.145203
     20          1           0       -2.059482   -2.650426   -0.934382
     21          1           0       -2.166063   -2.813755    0.803937
     22          6           0        3.750388   -0.569845    0.468950
     23          1           0        4.283615   -0.124968   -0.372144
     24          1           0        3.700720    0.168978    1.264891
     25          1           0        4.321383   -1.430167    0.810042
     26          6           0        2.395104    2.076598   -0.038621
     27          1           0        2.697739    2.238688    0.996583
     28          1           0        3.259025    1.731365   -0.594492
     29          1           0        2.129968    3.050924   -0.449038
 ---------------------------------------------------------------------
 Rotational constants (GHZ):           1.0861107           0.4892530           0.3454743
 Leave Link  202 at Fri Jan 23 21:32:39 2026, MaxMem=  2147483648 cpu:               0.0 elap:               0.0
 (Enter /data/home/wyx/g16/l301.exe)
 Standard basis: TZVP (5D, 7F)
 Ernie: Thresh=  0.10000D-02 Tol=  0.10000D-05 Strict=F.
 There are   370 symmetry adapted cartesian basis functions of A   symmetry.
 There are   356 symmetry adapted basis functions of A   symmetry.
   356 basis functions,   610 primitive gaussians,   370 cartesian basis functions
    52 alpha electrons       52 beta electrons
       nuclear repulsion energy       900.8243922815 Hartrees.
 IExCor=20419 DFT=T Ex+Corr=CAM-B3LYP ExCW=0 ScaHFX=  1.000000
 ScaDFX=  1.000000  1.000000  1.000000  0.810000 ScalE2=  1.000000  1.000000
 IRadAn=      5 IRanWt=     -1 IRanGd=            0 ICorTp=0 IEmpDi=141
 HFx  wShort=  0.000000 wLong=  0.330000 cFull=  0.190000 cShort=  0.000000 cLong=  0.460000
 DFx  wShort=  0.000000 wLong=  0.330000 cFull=  0.190000 cShort=  0.000000 cLong=  0.460000
 NAtoms=   29 NActive=   29 NUniq=   29 SFac= 1.00D+00 NAtFMM=   60 NAOKFM=F Big=F
 Integral buffers will be    131072 words long.
 Raffenetti 1 integral format.
 Two-electron integral symmetry is turned on.
 R6Disp:  Grimme-D3(BJ) Dispersion energy=       -0.0261936496 Hartrees.
 Nuclear repulsion after empirical dispersion term =      900.7981986319 Hartrees.
 ------------------------------------------------------------------------------
 Polarizable Continuum Model (PCM)
 =================================
 Model                : PCM.
 Atomic radii         : UFF (Universal Force Field).
 Polarization charges : Total charges.
 Charge compensation  : None.
 Solution method      : On-the-fly selection.
 Cavity type          : Scaled VdW (van der Waals Surface) (Alpha=1.100).
 Cavity algorithm     : GePol (No added spheres)
                        Default sphere list used, NSphG=   29.
                        Lebedev-Laikov grids with approx.  5.0 points / Ang**2.
                        Smoothing algorithm: York/Karplus (Gamma=1.0000).
                        Polarization charges: spherical gaussians, with
                                              point-specific exponents (IZeta= 3).
                        Self-potential: point-specific (ISelfS= 7).
                        Self-field    : sphere-specific E.n sum rule (ISelfD= 2).
 1st derivatives      : Analytical E(r).r(x)/FMM algorithm (CHGder, D1EAlg=3).
                        Cavity 1st derivative terms included.
 Solvent              : TetraHydroFuran, Eps=   7.425700 Eps(inf)=   1.974025
 ------------------------------------------------------------------------------
 GePol: Number of generator spheres                  =      29
 GePol: Total number of spheres                      =      29
 GePol: Number of exposed spheres                    =      29 (100.00%)
 GePol: Number of points                             =    2104
 GePol: Average weight of points                     =       0.13
 GePol: Minimum weight of points                     =   0.12D-10
 GePol: Maximum weight of points                     =    0.20577
 GePol: Number of points with low weight             =     142
 GePol: Fraction of low-weight points (<1% of avg)   =       6.75%
 GePol: Cavity surface area                          =    268.162 Ang**2
 GePol: Cavity volume                                =    286.105 Ang**3
 Leave Link  301 at Fri Jan 23 21:32:39 2026, MaxMem=  2147483648 cpu:               0.6 elap:               0.0
 (Enter /data/home/wyx/g16/l302.exe)
 NPDir=0 NMtPBC=     1 NCelOv=     1 NCel=       1 NClECP=     1 NCelD=      1
         NCelK=      1 NCelE2=     1 NClLst=     1 CellRange=     0.0.
 One-electron integrals computed using PRISM.
 One-electron integral symmetry used in STVInt
 NBasis=   356 RedAO= T EigKep=  4.46D-05  NBF=   356
 NBsUse=   356 1.00D-06 EigRej= -1.00D+00 NBFU=   356
 Precomputing XC quadrature grid using
 IXCGrd= 4 IRadAn=           5 IRanWt=          -1 IRanGd=           0 AccXCQ= 0.00D+00.
 Generated NRdTot=       0 NPtTot=           0 NUsed=           0 NTot=          32
 NSgBfM=   366   366   366   366   366 MxSgAt=    29 MxSgA2=    29.
 Leave Link  302 at Fri Jan 23 21:32:40 2026, MaxMem=  2147483648 cpu:               3.1 elap:               0.2
 (Enter /data/home/wyx/g16/l303.exe)
 DipDrv:  MaxL=1.
 Leave Link  303 at Fri Jan 23 21:32:40 2026, MaxMem=  2147483648 cpu:               0.5 elap:               0.0
 (Enter /data/home/wyx/g16/l308.exe)
 Leave Link  308 at Fri Jan 23 21:32:40 2026, MaxMem=  2147483648 cpu:               0.7 elap:               0.1
 (Enter /data/home/wyx/g16/l401.exe)
 Initial guess from the checkpoint file:  "DDL-S2-cLR-14.chk"
 B after Tr=    -0.000000   -0.000000   -0.000000
         Rot=    1.000000   -0.000000   -0.000000   -0.000000 Ang=   0.00 deg.
 Guess basis will be translated and rotated to current coordinates.
 JPrj=2 DoOrth=T DoCkMO=T.
 Leave Link  401 at Fri Jan 23 21:32:41 2026, MaxMem=  2147483648 cpu:               2.2 elap:               0.1
 (Enter /data/home/wyx/g16/l502.exe)
 Integral symmetry usage will be decided dynamically.
 Closed shell SCF:
 Using DIIS extrapolation, IDIIS=  1040.
 NGot=  2147483648 LenX=  2147200095 LenY=  2147062754
 Requested convergence on RMS density matrix=1.00D-08 within 128 cycles.
 Requested convergence on MAX density matrix=1.00D-06.
 Requested convergence on             energy=1.00D-06.
 No special actions if energy rises.
 Fock matrices will be formed incrementally for  20 cycles.

 Cycle   1  Pass 1  IDiag  1:
 FoFJK:  IHMeth= 1 ICntrl=       0 DoSepK=T KAlg= 0 I1Cent=           0 FoldK=F
 IRaf=         1 NMat=       1 IRICut=       1 DoRegI=T DoRafI=F ISym2E= 0 IDoP0=0 IntGTp=1.
 FoFCou: FMM=F IPFlag=           0 FMFlag=      100000 FMFlg1=           0
         NFxFlg=           0 DoJE=T BraDBF=F KetDBF=F FulRan=T
         wScrn=  0.000000 ICntrl=       500 IOpCl=  0 I1Cent=           0 NGrid=           0
         NMat0=    1 NMatS0=      1 NMatT0=    0 NMatD0=    1 NMtDS0=    0 NMtDT0=    0
 Symmetry not used in FoFCou.
 Inv3:  Mode=1 IEnd=    13280448.
 Iteration    1 A*A^-1 deviation from unit magnitude is 2.66D-15 for    151.
 Iteration    1 A*A^-1 deviation from orthogonality  is 2.11D-15 for   1936    349.
 Iteration    1 A^-1*A deviation from unit magnitude is 2.78D-15 for    153.
 Iteration    1 A^-1*A deviation from orthogonality  is 1.72D-15 for   1521   1277.
 E= -633.328072930128    
 DIIS: error= 1.76D-08 at cycle   1 NSaved=   1.
 NSaved= 1 IEnMin= 1 EnMin= -633.328072930128     IErMin= 1 ErrMin= 1.76D-08
 ErrMax= 1.76D-08  0.00D+00 EMaxC= 1.00D-01 BMatC= 8.15D-14 BMatP= 8.15D-14
 IDIUse=1 WtCom= 1.00D+00 WtEn= 0.00D+00
 Coeff-Com:  0.100D+01
 Coeff:      0.100D+01
 Gap=     0.239 Goal=   None    Shift=    0.000
 RMSDP=3.46D-09 MaxDP=8.57D-08              OVMax= 4.00D-07

 Error on total polarization charges =  0.01419
 SCF Done:  E(RCAM-B3LYP) =  -633.328072930     A.U. after    1 cycles
            NFock=  1  Conv=0.35D-08     -V/T= 2.0041
 KE= 6.307300425456D+02 PE=-3.277683669860D+03 EE= 1.112827355752D+03
 Leave Link  502 at Fri Jan 23 21:32:46 2026, MaxMem=  2147483648 cpu:              85.0 elap:               5.6
 (Enter /data/home/wyx/g16/l801.exe)
 DoSCS=F DFT=T ScalE2(SS,OS)=  1.000000  1.000000
 ExpMin= 9.52D-02 ExpMax= 2.70D+04 ExpMxC= 9.22D+02 IAcc=3 IRadAn=         5 AccDes= 0.00D+00
 HarFok:  IExCor=  205 AccDes= 0.00D+00 IRadAn=         5 IDoV=-2 UseB2=F ITyADJ=14
 ICtDFT= 12500011 ScaDFX=  1.000000  1.000000  1.000000  1.000000
 Largest valence mixing into a core orbital is  5.64D-05
 Largest core mixing into a valence orbital is  1.19D-05
 Range of M.O.s used for correlation:    15   356
 NBasis=   356 NAE=    52 NBE=    52 NFC=    14 NFV=     0
 NROrb=    342 NOA=    38 NOB=    38 NVA=   304 NVB=   304

 **** Warning!!: The largest alpha MO coefficient is  0.56757313D+02

 Leave Link  801 at Fri Jan 23 21:32:47 2026, MaxMem=  2147483648 cpu:               1.0 elap:               0.1
 (Enter /data/home/wyx/g16/l914.exe)
 RHF ground state
 Two-electron integrals replicated using symmetry.
 MDV=  2147483648 DFT=T DoStab=F Mixed=T DoRPA=T DoScal=F NonHer=T
 NEqPCM:  Using equilibrium solvation (IEInf=0, Eps=   7.4257, EpsInf=   1.9740)
 Making orbital integer symmetry assigments:
 Orbital symmetries:
       Occupied  (A) (A) (A) (A) (A) (A) (A) (A) (A) (A) (A) (A)
                 (A) (A) (A) (A) (A) (A) (A) (A) (A) (A) (A) (A)
                 (A) (A) (A) (A) (A) (A) (A) (A) (A) (A) (A) (A)
                 (A) (A) (A) (A) (A) (A) (A) (A) (A) (A) (A) (A)
                 (A) (A) (A) (A)
       Virtual   (A) (A) (A) (A) (A) (A) (A) (A) (A) (A) (A) (A)
                 (A) (A) (A) (A) (A) (A) (A) (A) (A) (A) (A) (A)
                 (A) (A) (A) (A) (A) (A) (A) (A) (A) (A) (A) (A)
                 (A) (A) (A) (A) (A) (A) (A) (A) (A) (A) (A) (A)
                 (A) (A) (A) (A) (A) (A) (A) (A) (A) (A) (A) (A)
                 (A) (A) (A) (A) (A) (A) (A) (A) (A) (A) (A) (A)
                 (A) (A) (A) (A) (A) (A) (A) (A) (A) (A) (A) (A)
                 (A) (A) (A) (A) (A) (A) (A) (A) (A) (A) (A) (A)
                 (A) (A) (A) (A) (A) (A) (A) (A) (A) (A) (A) (A)
                 (A) (A) (A) (A) (A) (A) (A) (A) (A) (A) (A) (A)
                 (A) (A) (A) (A) (A) (A) (A) (A) (A) (A) (A) (A)
                 (A) (A) (A) (A) (A) (A) (A) (A) (A) (A) (A) (A)
                 (A) (A) (A) (A) (A) (A) (A) (A) (A) (A) (A) (A)
                 (A) (A) (A) (A) (A) (A) (A) (A) (A) (A) (A) (A)
                 (A) (A) (A) (A) (A) (A) (A) (A) (A) (A) (A) (A)
                 (A) (A) (A) (A) (A) (A) (A) (A) (A) (A) (A) (A)
                 (A) (A) (A) (A) (A) (A) (A) (A) (A) (A) (A) (A)
                 (A) (A) (A) (A) (A) (A) (A) (A) (A) (A) (A) (A)
                 (A) (A) (A) (A) (A) (A) (A) (A) (A) (A) (A) (A)
                 (A) (A) (A) (A) (A) (A) (A) (A) (A) (A) (A) (A)
                 (A) (A) (A) (A) (A) (A) (A) (A) (A) (A) (A) (A)
                 (A) (A) (A) (A) (A) (A) (A) (A) (A) (A) (A) (A)
                 (A) (A) (A) (A) (A) (A) (A) (A) (A) (A) (A) (A)
                 (A) (A) (A) (A) (A) (A) (A) (A) (A) (A) (A) (A)
                 (A) (A) (A) (A) (A) (A) (A) (A) (A) (A) (A) (A)
                 (A) (A) (A) (A)
 PCM Corrected Linear-Response:
 Compute the excitation energies in the ground state reaction field.
    24 initial guesses have been made.
 Convergence on wavefunction:    0.000001000000000
 Davidson Disk Diagonalization:  ConvIn= 1.00D-06 SkipCon=T Conv= 1.00D-06.
 Max sub-space:  2000 roots to seek:    24 dimension of matrix:        23104
 Iteration     1 Dimension    24 NMult     0 NNew     24
 CISAX will form    24 AO SS matrices at one time.
 NMat=    24 NSing=    24 JSym2X= 0.
 FoFJK:  IHMeth= 1 ICntrl=       0 DoSepK=T KAlg= 0 I1Cent=           0 FoldK=F
 IRaf=         1 NMat=      48 IRICut=       1 DoRegI=T DoRafI=F ISym2E= 0 IDoP0=3 IntGTp=3.
 FoFCou: FMM=F IPFlag=           0 FMFlag=      100000 FMFlg1=           0
         NFxFlg=           0 DoJE=F BraDBF=F KetDBF=F FulRan=T
         wScrn=  0.000000 ICntrl=       500 IOpCl=  0 I1Cent=           0 NGrid=           0
         NMat0=   24 NMatS0=     24 NMatT0=    0 NMatD0=   24 NMtDS0=    0 NMtDT0=    0
 Symmetry not used in FoFCou.
 New state      2 was old state      3
 New state      3 was old state      4
 New state      4 was old state      2
 New state      5 was old state      6
 New state      6 was old state      5
 Excitation Energies [eV] at current iteration:
 Root      1 :     4.039371689387525
 Root      2 :     4.278833174115507
 Root      3 :     4.529784310581409
 Root      4 :     5.597679129594630
 Root      5 :     6.247464781316386
 Root      6 :     6.612551023466072
 Root      7 :     6.774802305621527
 Root      8 :     6.842275332546722
 Root      9 :     6.986085265532523
 Root     10 :     7.107050087430477
 Root     11 :     7.334274808635266
 Root     12 :     7.485646763426531
 Root     13 :     7.619184864225143
 Root     14 :     7.660466705660016
 Root     15 :     7.782036058653555
 Root     16 :     8.101779667117317
 Root     17 :     8.174114820097554
 Root     18 :     8.281729123928049
 Root     19 :     8.320602355557559
 Root     20 :     8.610855819851693
 Root     21 :     8.742232463253341
 Root     22 :     9.018503374472022
 Root     23 :     9.100042406914975
 Root     24 :     9.163440948703416
 Iteration     2 Dimension    36 NMult    24 NNew     12
 CISAX will form    12 AO SS matrices at one time.
 NMat=    12 NSing=    12 JSym2X= 0.
 Root      1 not converged, maximum delta is    0.107917519504405
 Root      2 not converged, maximum delta is    0.105770900136644
 Root      3 not converged, maximum delta is    0.094084366133236
 Root      4 not converged, maximum delta is    0.224893304149558
 New state      5 was old state      6
 Root      5 not converged, maximum delta is    0.231018615266536
 New state      6 was old state      5
 Root      6 not converged, maximum delta is    0.136419961599819
 Excitation Energies [eV] at current iteration:
 Root      1 :     3.592560771754148   Change is   -0.446810917633377
 Root      2 :     4.028494828548287   Change is   -0.250338345567220
 Root      3 :     4.257120374159356   Change is   -0.272663936422053
 Root      4 :     5.274665398746499   Change is   -0.323013730848132
 Root      5 :     5.785872255723993   Change is   -0.826678767742078
 Root      6 :     6.114394249557273   Change is   -0.133070531759112
 Iteration     3 Dimension    48 NMult    36 NNew     12
 CISAX will form    12 AO SS matrices at one time.
 NMat=    12 NSing=    12 JSym2X= 0.
 Root      1 not converged, maximum delta is    0.010916858716639
 Root      2 not converged, maximum delta is    0.012216084109786
 Root      3 not converged, maximum delta is    0.015321159350820
 Root      4 not converged, maximum delta is    0.027197031923527
 Root      5 not converged, maximum delta is    0.026917274208209
 Root      6 not converged, maximum delta is    0.019758008362578
 Excitation Energies [eV] at current iteration:
 Root      1 :     3.572466183676900   Change is   -0.020094588077248
 Root      2 :     4.015260425535889   Change is   -0.013234403012398
 Root      3 :     4.242695882786183   Change is   -0.014424491373173
 Root      4 :     5.251856430747502   Change is   -0.022808967998996
 Root      5 :     5.741815513655277   Change is   -0.044056742068716
 Root      6 :     6.103269679120561   Change is   -0.011124570436712
 Iteration     4 Dimension    60 NMult    48 NNew     12
 CISAX will form    12 AO SS matrices at one time.
 NMat=    12 NSing=    12 JSym2X= 0.
 Root      1 not converged, maximum delta is    0.002463485613787
 Root      2 not converged, maximum delta is    0.001828743045322
 Root      3 not converged, maximum delta is    0.002234624526987
 Root      4 not converged, maximum delta is    0.002646104547145
 Root      5 not converged, maximum delta is    0.004573401678900
 Root      6 not converged, maximum delta is    0.004011613144255
 Excitation Energies [eV] at current iteration:
 Root      1 :     3.570734433371741   Change is   -0.001731750305158
 Root      2 :     4.014351252903158   Change is   -0.000909172632731
 Root      3 :     4.241934951820332   Change is   -0.000760930965852
 Root      4 :     5.249808171870751   Change is   -0.002048258876750
 Root      5 :     5.737410515926935   Change is   -0.004404997728343
 Root      6 :     6.102456561687914   Change is   -0.000813117432647
 Iteration     5 Dimension    72 NMult    60 NNew     12
 CISAX will form    12 AO SS matrices at one time.
 NMat=    12 NSing=    12 JSym2X= 0.
 Root      1 not converged, maximum delta is    0.000750800541787
 Root      2 not converged, maximum delta is    0.000304802812461
 Root      3 not converged, maximum delta is    0.000611821516435
 Root      4 not converged, maximum delta is    0.000942376079420
 Root      5 not converged, maximum delta is    0.001116633288603
 Root      6 not converged, maximum delta is    0.001048048565998
 Excitation Energies [eV] at current iteration:
 Root      1 :     3.570624747744599   Change is   -0.000109685627142
 Root      2 :     4.014302007245631   Change is   -0.000049245657528
 Root      3 :     4.241887491260825   Change is   -0.000047460559507
 Root      4 :     5.249647829334348   Change is   -0.000160342536403
 Root      5 :     5.737031035835026   Change is   -0.000379480091909
 Root      6 :     6.102390154135351   Change is   -0.000066407552563
 Iteration     6 Dimension    84 NMult    72 NNew     12
 CISAX will form    12 AO SS matrices at one time.
 NMat=    12 NSing=    12 JSym2X= 0.
 Root      1 not converged, maximum delta is    0.000225048825398
 Root      2 not converged, maximum delta is    0.000078490766274
 Root      3 not converged, maximum delta is    0.000179261172609
 Root      4 not converged, maximum delta is    0.000532375064872
 Root      5 not converged, maximum delta is    0.000276475342250
 Root      6 not converged, maximum delta is    0.000277925966348
 Excitation Energies [eV] at current iteration:
 Root      1 :     3.570618455414219   Change is   -0.000006292330380
 Root      2 :     4.014298196948625   Change is   -0.000003810297005
 Root      3 :     4.241884358828496   Change is   -0.000003132432329
 Root      4 :     5.249631991290725   Change is   -0.000015838043624
 Root      5 :     5.736999241955001   Change is   -0.000031793880025
 Root      6 :     6.102384257525941   Change is   -0.000005896609410
 Iteration     7 Dimension    96 NMult    84 NNew     12
 CISAX will form    12 AO SS matrices at one time.
 NMat=    12 NSing=    12 JSym2X= 0.
 Root      1 not converged, maximum delta is    0.000017630884354
 Root      2 not converged, maximum delta is    0.000012671847434
 Root      3 not converged, maximum delta is    0.000047967452659
 Root      4 not converged, maximum delta is    0.000186935596101
 Root      5 not converged, maximum delta is    0.000146180946164
 Root      6 not converged, maximum delta is    0.000157582778174
 Excitation Energies [eV] at current iteration:
 Root      1 :     3.570618120314423   Change is   -0.000000335099796
 Root      2 :     4.014298013053399   Change is   -0.000000183895226
 Root      3 :     4.241884142419853   Change is   -0.000000216408644
 Root      4 :     5.249630345936184   Change is   -0.000001645354540
 Root      5 :     5.736996363031762   Change is   -0.000002878923239
 Root      6 :     6.102383582069389   Change is   -0.000000675456552
 Iteration     8 Dimension   108 NMult    96 NNew     12
 CISAX will form    12 AO SS matrices at one time.
 NMat=    12 NSing=    12 JSym2X= 0.
 Root      1 not converged, maximum delta is    0.000004063370007
 Root      2 not converged, maximum delta is    0.000003450670293
 Root      3 not converged, maximum delta is    0.000005820898637
 Root      4 not converged, maximum delta is    0.000030792152717
 Root      5 not converged, maximum delta is    0.000029672744714
 Root      6 not converged, maximum delta is    0.000038805430107
 Excitation Energies [eV] at current iteration:
 Root      1 :     3.570618107591041   Change is   -0.000000012723382
 Root      2 :     4.014298003011699   Change is   -0.000000010041699
 Root      3 :     4.241884132795903   Change is   -0.000000009623949
 Root      4 :     5.249630224448377   Change is   -0.000000121487807
 Root      5 :     5.736996145853865   Change is   -0.000000217177897
 Root      6 :     6.102383522260350   Change is   -0.000000059809038
 Iteration     9 Dimension   120 NMult   108 NNew     12
 CISAX will form    12 AO SS matrices at one time.
 NMat=    12 NSing=    12 JSym2X= 0.
 Root      1 has converged.
 Root      2 has converged.
 Root      3 not converged, maximum delta is    0.000001233955434
 Root      4 not converged, maximum delta is    0.000002568735647
 Root      5 not converged, maximum delta is    0.000005675067341
 Root      6 not converged, maximum delta is    0.000004635752763
 Excitation Energies [eV] at current iteration:
 Root      1 :     3.570618107040323   Change is   -0.000000000550718
 Root      2 :     4.014298002683856   Change is   -0.000000000327844
 Root      3 :     4.241884132456424   Change is   -0.000000000339479
 Root      4 :     5.249630219210355   Change is   -0.000000005238021
 Root      5 :     5.736996134312478   Change is   -0.000000011541387
 Root      6 :     6.102383518900979   Change is   -0.000000003359372
 Iteration    10 Dimension   128 NMult   120 NNew      8
 CISAX will form     8 AO SS matrices at one time.
 NMat=     8 NSing=     8 JSym2X= 0.
 Root      1 has converged.
 Root      2 has converged.
 Root      3 has converged.
 Root      4 has converged.
 Root      5 not converged, maximum delta is    0.000001547809188
 Root      6 not converged, maximum delta is    0.000001111070254
 Excitation Energies [eV] at current iteration:
 Root      1 :     3.570618107036870   Change is   -0.000000000003453
 Root      2 :     4.014298002682300   Change is   -0.000000000001556
 Root      3 :     4.241884132443401   Change is   -0.000000000013023
 Root      4 :     5.249630218978374   Change is   -0.000000000231982
 Root      5 :     5.736996133652983   Change is   -0.000000000659495
 Root      6 :     6.102383518700175   Change is   -0.000000000200804
 Iteration    11 Dimension   132 NMult   128 NNew      4
 CISAX will form     4 AO SS matrices at one time.
 NMat=     4 NSing=     4 JSym2X= 0.
 Root      1 has converged.
 Root      2 has converged.
 Root      3 has converged.
 Root      4 has converged.
 Root      5 has converged.
 Root      6 has converged.
 Excitation Energies [eV] at current iteration:
 Root      1 :     3.570618107036225   Change is   -0.000000000000645
 Root      2 :     4.014298002682218   Change is   -0.000000000000082
 Root      3 :     4.241884132443363   Change is   -0.000000000000039
 Root      4 :     5.249630218971984   Change is   -0.000000000006390
 Root      5 :     5.736996133612402   Change is   -0.000000000040581
 Root      6 :     6.102383518685639   Change is   -0.000000000014536
 Convergence achieved on expansion vectors.
 PCM Corrected Linear-Response:
 The state of interest is root number   2
 Excitation energy =    4.0143 eV, Total energy =  -633.180550193    
 Recompute the excitation energies using the linear response reaction field.
 Convergence on wavefunction:    0.000001000000000
 Davidson Disk Diagonalization:  ConvIn= 1.00D-06 SkipCon=T Conv= 1.00D-06.
 Max sub-space:  2000 roots to seek:     6 dimension of matrix:        23104
 Iteration     1 Dimension     6 NMult     0 NNew      6
 CISAX will form     6 AO SS matrices at one time.
 NMat=     6 NSing=     6 JSym2X= 0.
 Excitation Energies [eV] at current iteration:
 Root      1 :     3.661606949085484
 Root      2 :     4.043268226784478
 Root      3 :     4.269481223756794
 Root      4 :     5.326308503009650
 Root      5 :     5.901053340225878
 Root      6 :     6.080193997615885
 Iteration     2 Dimension    18 NMult     6 NNew     12
 CISAX will form    12 AO SS matrices at one time.
 NMat=    12 NSing=    12 JSym2X= 0.
 Root      1 not converged, maximum delta is    0.032687221161237
 Root      2 not converged, maximum delta is    0.041522338403782
 Root      3 not converged, maximum delta is    0.007065855735812
 Root      4 not converged, maximum delta is    0.216097500821752
 Root      5 not converged, maximum delta is    0.244482114973640
 Root      6 not converged, maximum delta is    0.086822912571915
 Excitation Energies [eV] at current iteration:
 Root      1 :     3.457391133135503   Change is   -0.204215815949982
 Root      2 :     4.008165489215244   Change is   -0.035102737569234
 Root      3 :     4.236896254244782   Change is   -0.032584969512011
 Root      4 :     5.121847669923358   Change is   -0.204460833086292
 Root      5 :     5.616690284903626   Change is   -0.284363055322251
 Root      6 :     6.061033250250410   Change is   -0.019160747365476
 Iteration     3 Dimension    30 NMult    18 NNew     12
 CISAX will form    12 AO SS matrices at one time.
 NMat=    12 NSing=    12 JSym2X= 0.
 Root      1 not converged, maximum delta is    0.002925458939382
 Root      2 not converged, maximum delta is    0.000975510636558
 Root      3 not converged, maximum delta is    0.000948150247871
 Root      4 not converged, maximum delta is    0.012114775435899
 Root      5 not converged, maximum delta is    0.009399163426004
 Root      6 not converged, maximum delta is    0.008865699504075
 Excitation Energies [eV] at current iteration:
 Root      1 :     3.454512894751764   Change is   -0.002878238383739
 Root      2 :     4.007854419916655   Change is   -0.000311069298589
 Root      3 :     4.236600346650374   Change is   -0.000295907594408
 Root      4 :     5.113598523533709   Change is   -0.008249146389649
 Root      5 :     5.608778969309737   Change is   -0.007911315593890
 Root      6 :     6.059721859987110   Change is   -0.001311390263300
 Iteration     4 Dimension    42 NMult    30 NNew     12
 CISAX will form    12 AO SS matrices at one time.
 NMat=    12 NSing=    12 JSym2X= 0.
 Root      1 not converged, maximum delta is    0.001743607037755
 Root      2 not converged, maximum delta is    0.000277253035784
 Root      3 not converged, maximum delta is    0.000182563715279
 Root      4 not converged, maximum delta is    0.001915108677857
 Root      5 not converged, maximum delta is    0.002604548915982
 Root      6 not converged, maximum delta is    0.010069046597687
 Excitation Energies [eV] at current iteration:
 Root      1 :     3.454110522400988   Change is   -0.000402372350776
 Root      2 :     4.007835798256264   Change is   -0.000018621660392
 Root      3 :     4.236584790448199   Change is   -0.000015556202176
 Root      4 :     5.112490106391114   Change is   -0.001108417142595
 Root      5 :     5.607738152267324   Change is   -0.001040817042413
 Root      6 :     6.059247793806691   Change is   -0.000474066180419
 Iteration     5 Dimension    54 NMult    42 NNew     12
 CISAX will form    12 AO SS matrices at one time.
 NMat=    12 NSing=    12 JSym2X= 0.
 Root      1 not converged, maximum delta is    0.000716520439629
 Root      2 not converged, maximum delta is    0.000123550496974
 Root      3 not converged, maximum delta is    0.000083434107079
 Root      4 not converged, maximum delta is    0.000887557316300
 Root      5 not converged, maximum delta is    0.000930218586397
 Root      6 not converged, maximum delta is    0.004689986278224
 Excitation Energies [eV] at current iteration:
 Root      1 :     3.454080769573307   Change is   -0.000029752827681
 Root      2 :     4.007834570888295   Change is   -0.000001227367969
 Root      3 :     4.236583645174949   Change is   -0.000001145273250
 Root      4 :     5.112382940474769   Change is   -0.000107165916345
 Root      5 :     5.607618521326184   Change is   -0.000119630941139
 Root      6 :     6.059135904960225   Change is   -0.000111888846465
 Iteration     6 Dimension    66 NMult    54 NNew     12
 CISAX will form    12 AO SS matrices at one time.
 NMat=    12 NSing=    12 JSym2X= 0.
 Root      1 not converged, maximum delta is    0.000109169108487
 Root      2 not converged, maximum delta is    0.000032356719821
 Root      3 not converged, maximum delta is    0.000022950968684
 Root      4 not converged, maximum delta is    0.000398879458474
 Root      5 not converged, maximum delta is    0.000545925398195
 Root      6 not converged, maximum delta is    0.000904754030497
 Excitation Energies [eV] at current iteration:
 Root      1 :     3.454078519046295   Change is   -0.000002250527012
 Root      2 :     4.007834435736328   Change is   -0.000000135151967
 Root      3 :     4.236583544171644   Change is   -0.000000101003305
 Root      4 :     5.112372155439784   Change is   -0.000010785034985
 Root      5 :     5.607602320337244   Change is   -0.000016200988941
 Root      6 :     6.059121755591925   Change is   -0.000014149368301
 Iteration     7 Dimension    78 NMult    66 NNew     12
 CISAX will form    12 AO SS matrices at one time.
 NMat=    12 NSing=    12 JSym2X= 0.
 Root      1 not converged, maximum delta is    0.000011399608789
 Root      2 not converged, maximum delta is    0.000003763111275
 Root      3 not converged, maximum delta is    0.000007245491596
 Root      4 not converged, maximum delta is    0.000152533370227
 Root      5 not converged, maximum delta is    0.000207675643761
 Root      6 not converged, maximum delta is    0.000111226188453
 Excitation Energies [eV] at current iteration:
 Root      1 :     3.454078424145159   Change is   -0.000000094901137
 Root      2 :     4.007834430017520   Change is   -0.000000005718807
 Root      3 :     4.236583537285734   Change is   -0.000000006885910
 Root      4 :     5.112371069833565   Change is   -0.000001085606219
 Root      5 :     5.607600439592133   Change is   -0.000001880745111
 Root      6 :     6.059120283372859   Change is   -0.000001472219067
 Iteration     8 Dimension    90 NMult    78 NNew     12
 CISAX will form    12 AO SS matrices at one time.
 NMat=    12 NSing=    12 JSym2X= 0.
 Root      1 not converged, maximum delta is    0.000003014907536
 Root      2 not converged, maximum delta is    0.000001192788474
 Root      3 not converged, maximum delta is    0.000001271981424
 Root      4 not converged, maximum delta is    0.000036561769869
 Root      5 not converged, maximum delta is    0.000062701795267
 Root      6 not converged, maximum delta is    0.000047634685337
 Excitation Energies [eV] at current iteration:
 Root      1 :     3.454078418648519   Change is   -0.000000005496640
 Root      2 :     4.007834429764467   Change is   -0.000000000253052
 Root      3 :     4.236583536946489   Change is   -0.000000000339244
 Root      4 :     5.112370993344798   Change is   -0.000000076488767
 Root      5 :     5.607600256490574   Change is   -0.000000183101559
 Root      6 :     6.059120118794913   Change is   -0.000000164577946
 Iteration     9 Dimension   102 NMult    90 NNew     12
 CISAX will form    12 AO SS matrices at one time.
 NMat=    12 NSing=    12 JSym2X= 0.
 Root      1 has converged.
 Root      2 has converged.
 Root      3 has converged.
 Root      4 not converged, maximum delta is    0.000007969024866
 Root      5 not converged, maximum delta is    0.000013369511195
 Root      6 not converged, maximum delta is    0.000019094682365
 Excitation Energies [eV] at current iteration:
 Root      1 :     3.454078418474182   Change is   -0.000000000174336
 Root      2 :     4.007834429752714   Change is   -0.000000000011753
 Root      3 :     4.236583536930191   Change is   -0.000000000016299
 Root      4 :     5.112370987634829   Change is   -0.000000005709968
 Root      5 :     5.607600240949638   Change is   -0.000000015540937
 Root      6 :     6.059120098670956   Change is   -0.000000020123957
 Iteration    10 Dimension   108 NMult   102 NNew      6
 CISAX will form     6 AO SS matrices at one time.
 NMat=     6 NSing=     6 JSym2X= 0.
 Root      1 has converged.
 Root      2 has converged.
 Root      3 has converged.
 Root      4 not converged, maximum delta is    0.000001587049883
 Root      5 not converged, maximum delta is    0.000002925839093
 Root      6 not converged, maximum delta is    0.000006180816272
 Excitation Energies [eV] at current iteration:
 Root      1 :     3.454078418474135   Change is   -0.000000000000048
 Root      2 :     4.007834429752735   Change is    0.000000000000020
 Root      3 :     4.236583536929977   Change is   -0.000000000000213
 Root      4 :     5.112370987267688   Change is   -0.000000000367142
 Root      5 :     5.607600239792947   Change is   -0.000000001156690
 Root      6 :     6.059120096598211   Change is   -0.000000002072744
 Iteration    11 Dimension   114 NMult   108 NNew      6
 CISAX will form     6 AO SS matrices at one time.
 NMat=     6 NSing=     6 JSym2X= 0.
 Root      1 has converged.
 Root      2 has converged.
 Root      3 has converged.
 Root      4 has converged.
 Root      5 has converged.
 Root      6 not converged, maximum delta is    0.000001277165571
 Excitation Energies [eV] at current iteration:
 Root      1 :     3.454078418473992   Change is   -0.000000000000143
 Root      2 :     4.007834429752755   Change is    0.000000000000020
 Root      3 :     4.236583536929841   Change is   -0.000000000000136
 Root      4 :     5.112370987245129   Change is   -0.000000000022560
 Root      5 :     5.607600239708534   Change is   -0.000000000084412
 Root      6 :     6.059120096433623   Change is   -0.000000000164589
 Iteration    12 Dimension   116 NMult   114 NNew      2
 CISAX will form     2 AO SS matrices at one time.
 NMat=     2 NSing=     2 JSym2X= 0.
 Root      1 has converged.
 Root      2 has converged.
 Root      3 has converged.
 Root      4 has converged.
 Root      5 has converged.
 Root      6 has converged.
 Excitation Energies [eV] at current iteration:
 Root      1 :     3.454078418473944   Change is   -0.000000000000048
 Root      2 :     4.007834429752694   Change is   -0.000000000000061
 Root      3 :     4.236583536929822   Change is   -0.000000000000020
 Root      4 :     5.112370987245112   Change is   -0.000000000000017
 Root      5 :     5.607600239708462   Change is   -0.000000000000073
 Root      6 :     6.059120096419092   Change is   -0.000000000014531
 Convergence achieved on expansion vectors.
 ***********************************************************************
 Excited states from <AA,BB:AA,BB> singles matrix:
 ***********************************************************************
 
 1PDM for each excited state written to RWF  633
 Ground to excited state transition densities written to RWF  633
 Ground to excited state transition electric dipole moments (Au):
       state          X           Y           Z        Dip. S.      Osc.
         1         1.6221     -0.1777     -0.0466      2.6649      0.2255
         2         0.2020     -0.0253     -0.0467      0.0436      0.0043
         3        -0.0079     -0.1281      0.0402      0.0181      0.0019
         4        -0.1625     -1.7704      0.1264      3.1766      0.3979
         5         0.1076      1.4620     -0.0228      2.1496      0.2953
         6         0.0283      0.2157      0.0649      0.0515      0.0076
 Ground to excited state transition velocity dipole moments (Au):
       state          X           Y           Z        Dip. S.      Osc.
         1        -0.1978      0.0183      0.0064      0.0395      0.2074
         2        -0.0290      0.0031      0.0047      0.0009      0.0039
         3         0.0010      0.0189     -0.0027      0.0004      0.0016
         4         0.0330      0.3182     -0.0192      0.1027      0.3644
         5        -0.0220     -0.2961      0.0055      0.0882      0.2853
         6        -0.0070     -0.0444     -0.0338      0.0032      0.0095
 Ground to excited state transition magnetic dipole moments (Au):
       state          X           Y           Z
         1         0.0931     -0.0100      1.4433
         2        -0.8118      0.2262      0.4089
         3        -0.0859      0.9875      0.1212
         4         0.0717     -0.0958      0.1519
         5        -0.2138      0.1026     -0.2674
         6        -0.0469     -0.0075      0.0043
 Ground to excited state transition velocity quadrupole moments (Au):
       state          XX          YY          ZZ          XY          XZ          YZ
         1         0.2097     -0.1117     -0.0017      0.5476     -0.0590     -0.0085
         2         0.0130      0.0070     -0.0037      0.0823     -0.0303     -0.0829
         3        -0.0122      0.0093     -0.0258      0.0382     -0.0710     -0.0017
         4        -1.3250      0.3104      0.0033      0.1223      0.0817     -0.0477
         5         0.5576     -0.2859     -0.0523     -0.1762     -0.0637     -0.0562
         6        -0.2322     -0.1891      0.1652      0.0117      0.0290      0.0344
 <0|del|b> * <b|rxdel|0> + <0|del|b> * <b|delr+rdel|0>
 Rotatory Strengths (R) in cgs (10**-40 erg-esu-cm/Gauss)
       state          XX          YY          ZZ    R(velocity)    E-M Angle
         1        38.2455    -30.5398    -59.4587    -17.2510       91.85
         2         7.3916     65.8847     52.1487     41.8083       19.06
         3        44.5810     -0.7103     39.2480     27.7062       17.06
         4      -116.2214      0.4241     -1.0531    -38.9501      120.07
         5       -88.6544      9.3270    -13.8324    -31.0532      104.82
         6         1.7196      0.5373     -0.6125      0.5481       78.87
 1/2[<0|r|b>*<b|rxdel|0> + (<0|rxdel|b>*<b|r|0>)*]
 Rotatory Strengths (R) in cgs (10**-40 erg-esu-cm/Gauss)
       state          XX          YY          ZZ     R(length)
         1      -106.7670     -1.2532     47.5329    -20.1624
         2       115.9585      4.0465     13.5100     44.5050
         3        -0.4810     89.4329     -3.4414     28.5035
         4         8.2339   -119.9908    -13.5795    -41.7788
         5        16.2665   -106.1063     -4.3106    -31.3835
         6         0.9388      1.1432     -0.1950      0.6290
  1/2[<0|del|b>*<b|r|0> + (<0|r|b>*<b|del|0>)*] (Au)
       state          X           Y           Z        Dip. S.   Osc.(frdel)
         1        -0.3208     -0.0033     -0.0003      0.3244      0.2162
         2        -0.0059     -0.0001     -0.0002      0.0061      0.0041
         3        -0.0000     -0.0024     -0.0001      0.0025      0.0017
         4        -0.0054     -0.5633     -0.0024      0.5711      0.3807
         5        -0.0024     -0.4329     -0.0001      0.4354      0.2903
         6        -0.0002     -0.0096     -0.0022      0.0120      0.0080

 Excitation energies and oscillator strengths:
 
 Excited State   1:      Singlet-A      3.4541 eV  358.95 nm  f=0.2255  <S**2>=0.000
      52 -> 53         0.69782
 
 Excited State   2:      Singlet-A      4.0078 eV  309.35 nm  f=0.0043  <S**2>=0.000
      50 -> 54        -0.14825
      51 -> 53         0.56776
      51 -> 54        -0.34280
 This state for optimization and/or second-order correction.
 Total Energy, E(TD-HF/TD-DFT) =  -633.180787725    
 Copying the excited state density for this state as the 1-particle RhoCI density.
 
 Excited State   3:      Singlet-A      4.2366 eV  292.65 nm  f=0.0019  <S**2>=0.000
      49 -> 53         0.14610
      49 -> 54         0.10760
      50 -> 53         0.54304
      50 -> 54         0.31761
      50 -> 58         0.11749
      51 -> 53        -0.10982
      51 -> 54        -0.17381
 
 Excited State   4:      Singlet-A      5.1124 eV  242.52 nm  f=0.3979  <S**2>=0.000
      52 -> 54         0.69281
 
 Excited State   5:      Singlet-A      5.6076 eV  221.10 nm  f=0.2953  <S**2>=0.000
      49 -> 53         0.65672
      50 -> 53        -0.18497
 
 Excited State   6:      Singlet-A      6.0591 eV  204.62 nm  f=0.0076  <S**2>=0.000
      52 -> 55         0.66069
      52 -> 56         0.13547
 SavETr:  write IOETrn=   770 NScale= 10 NData=  16 NLR=1 NState=    6 LETran=     118.
 The selected state is a singlet.
 CISGrd: IGrad=1 NXY=2 DFT=T
 CISAX will form     1 AO SS matrices at one time.
 NMat=     1 NSing=     1 JSym2X= 0.
 Leave Link  914 at Fri Jan 23 21:40:55 2026, MaxMem=  2147483648 cpu:            7766.6 elap:             487.5
 (Enter /data/home/wyx/g16/l1002.exe)
 Minotr:  Closed shell wavefunction.
          Computing CIS/TDA/TD derivatives.
          Using Z-Vector for PSCF gradient.
          Skipping F1 and S1 gradient terms here.
 NEqPCM:  Using equilibrium solvation (IEInf=0, Eps=   7.4257, EpsInf=   1.9740)
          Frozen-core window.
          Direct CPHF calculation.
          Differentiating once with respect to electric field.
                with respect to dipole field.
          Electric field/nuclear overlap derivatives assumed to be zero.
          Requested convergence is 1.0D-10 RMS, and 1.0D-09 maximum.
          NewPWx=F KeepS1=T KeepF1=T KeepIn=T MapXYZ=F SortEE=F KeepMc=T.
 Two-electron integral symmetry used by symmetrizing perturbed Fock matrices.
          MDV=    2147483648 using IRadAn=       5.
          Solving linear equations separately, MaxMat=     384.
          There are     1 degrees of freedom in the 1st order CPHF.  IDoFFX=0 NUNeed=     1.
 FoFJK:  IHMeth= 1 ICntrl=       0 DoSepK=T KAlg= 0 I1Cent=           0 FoldK=F
 IRaf=         1 NMat=       1 IRICut=       1 DoRegI=T DoRafI=F ISym2E=-1 IDoP0=0 IntGTp=1.
 FoFCou: FMM=F IPFlag=           0 FMFlag=      100000 FMFlg1=           0
         NFxFlg=           0 DoJE=T BraDBF=F KetDBF=F FulRan=T
         wScrn=  0.000000 ICntrl=       500 IOpCl=  0 I1Cent=           0 NGrid=           0
         NMat0=    1 NMatS0=      1 NMatT0=    0 NMatD0=    1 NMtDS0=    0 NMtDT0=    0
 Petite list used in FoFCou.
 LinEq1:  Iter=  0 NonCon=     1 RMS=8.14D-03 Max=3.07D-01 NDo=     1
 AX will form     1 AO Fock derivatives at one time.
 LinEq1:  Iter=  1 NonCon=     1 RMS=2.16D-03 Max=8.24D-02 NDo=     1
 LinEq1:  Iter=  2 NonCon=     1 RMS=1.48D-03 Max=8.11D-02 NDo=     1
 LinEq1:  Iter=  3 NonCon=     1 RMS=6.08D-04 Max=3.30D-02 NDo=     1
 LinEq1:  Iter=  4 NonCon=     1 RMS=3.13D-04 Max=1.25D-02 NDo=     1
 LinEq1:  Iter=  5 NonCon=     1 RMS=1.63D-04 Max=8.06D-03 NDo=     1
 LinEq1:  Iter=  6 NonCon=     1 RMS=7.96D-05 Max=2.45D-03 NDo=     1
 LinEq1:  Iter=  7 NonCon=     1 RMS=4.50D-05 Max=1.98D-03 NDo=     1
 LinEq1:  Iter=  8 NonCon=     1 RMS=1.85D-05 Max=5.33D-04 NDo=     1
 LinEq1:  Iter=  9 NonCon=     1 RMS=1.41D-05 Max=6.66D-04 NDo=     1
 LinEq1:  Iter= 10 NonCon=     1 RMS=5.63D-06 Max=1.21D-04 NDo=     1
 LinEq1:  Iter= 11 NonCon=     1 RMS=3.38D-06 Max=1.24D-04 NDo=     1
 LinEq1:  Iter= 12 NonCon=     1 RMS=1.11D-06 Max=2.98D-05 NDo=     1
 LinEq1:  Iter= 13 NonCon=     1 RMS=5.16D-07 Max=1.50D-05 NDo=     1
 LinEq1:  Iter= 14 NonCon=     1 RMS=2.12D-07 Max=8.92D-06 NDo=     1
 LinEq1:  Iter= 15 NonCon=     1 RMS=9.81D-08 Max=4.29D-06 NDo=     1
 LinEq1:  Iter= 16 NonCon=     1 RMS=4.29D-08 Max=1.53D-06 NDo=     1
 LinEq1:  Iter= 17 NonCon=     1 RMS=1.51D-08 Max=2.80D-07 NDo=     1
 LinEq1:  Iter= 18 NonCon=     1 RMS=5.95D-09 Max=9.94D-08 NDo=     1
 LinEq1:  Iter= 19 NonCon=     1 RMS=1.74D-09 Max=3.36D-08 NDo=     1
 LinEq1:  Iter= 20 NonCon=     1 RMS=4.59D-10 Max=1.28D-08 NDo=     1
 LinEq1:  Iter= 21 NonCon=     1 RMS=1.50D-10 Max=4.35D-09 NDo=     1
 LinEq1:  Iter= 22 NonCon=     1 RMS=6.71D-11 Max=2.61D-09 NDo=     1
 LinEq1:  Iter= 23 NonCon=     1 RMS=2.47D-11 Max=1.23D-09 NDo=     1
 LinEq1:  Iter= 24 NonCon=     0 RMS=9.38D-12 Max=2.85D-10 NDo=     1
 Linear equations converged to 1.000D-10 1.000D-09 after    24 iterations.
 PCM Corrected Linear-Response - Equilibrium solvation:
 Corrected transition energy               =    3.9395          eV
 Total energy after correction             = -633.183300191     a.u.
 NEqPCM:  Using non-equilibrium solvation (IEInf=1, Eps=   7.4257, EpsInf=   1.9740)
 Inv3:  Mode=1 IEnd=    13280448.
 Iteration    1 A*A^-1 deviation from unit magnitude is 3.44D-15 for    893.
 Iteration    1 A*A^-1 deviation from orthogonality  is 1.60D-15 for   1901   1455.
 Iteration    1 A^-1*A deviation from unit magnitude is 3.44D-15 for    507.
 Iteration    1 A^-1*A deviation from orthogonality  is 1.44D-15 for   2023    563.
 NEqSol: Computing the dynamic-inertial partition of the PCM polarization charges.
 End of Minotr F.D. properties file   721 does not exist.
 End of Minotr F.D. properties file   722 does not exist.
 End of Minotr F.D. properties file   788 does not exist.
 Leave Link 1002 at Fri Jan 23 21:43:00 2026, MaxMem=  2147483648 cpu:            1969.5 elap:             124.4
 (Enter /data/home/wyx/g16/l601.exe)
 Copying SCF densities to generalized density rwf, IOpCl= 0 IROHF=0.

 **********************************************************************

            Population analysis using the CI density.

 **********************************************************************

 Orbital symmetries:
       Occupied  (A) (A) (A) (A) (A) (A) (A) (A) (A) (A) (A) (A)
                 (A) (A) (A) (A) (A) (A) (A) (A) (A) (A) (A) (A)
                 (A) (A) (A) (A) (A) (A) (A) (A) (A) (A) (A) (A)
                 (A) (A) (A) (A) (A) (A) (A) (A) (A) (A) (A) (A)
                 (A) (A) (A) (A)
       Virtual   (A) (A) (A) (A) (A) (A) (A) (A) (A) (A) (A) (A)
                 (A) (A) (A) (A) (A) (A) (A) (A) (A) (A) (A) (A)
                 (A) (A) (A) (A) (A) (A) (A) (A) (A) (A) (A) (A)
                 (A) (A) (A) (A) (A) (A) (A) (A) (A) (A) (A) (A)
                 (A) (A) (A) (A) (A) (A) (A) (A) (A) (A) (A) (A)
                 (A) (A) (A) (A) (A) (A) (A) (A) (A) (A) (A) (A)
                 (A) (A) (A) (A) (A) (A) (A) (A) (A) (A) (A) (A)
                 (A) (A) (A) (A) (A) (A) (A) (A) (A) (A) (A) (A)
                 (A) (A) (A) (A) (A) (A) (A) (A) (A) (A) (A) (A)
                 (A) (A) (A) (A) (A) (A) (A) (A) (A) (A) (A) (A)
                 (A) (A) (A) (A) (A) (A) (A) (A) (A) (A) (A) (A)
                 (A) (A) (A) (A) (A) (A) (A) (A) (A) (A) (A) (A)
                 (A) (A) (A) (A) (A) (A) (A) (A) (A) (A) (A) (A)
                 (A) (A) (A) (A) (A) (A) (A) (A) (A) (A) (A) (A)
                 (A) (A) (A) (A) (A) (A) (A) (A) (A) (A) (A) (A)
                 (A) (A) (A) (A) (A) (A) (A) (A) (A) (A) (A) (A)
                 (A) (A) (A) (A) (A) (A) (A) (A) (A) (A) (A) (A)
                 (A) (A) (A) (A) (A) (A) (A) (A) (A) (A) (A) (A)
                 (A) (A) (A) (A) (A) (A) (A) (A) (A) (A) (A) (A)
                 (A) (A) (A) (A) (A) (A) (A) (A) (A) (A) (A) (A)
                 (A) (A) (A) (A) (A) (A) (A) (A) (A) (A) (A) (A)
                 (A) (A) (A) (A) (A) (A) (A) (A) (A) (A) (A) (A)
                 (A) (A) (A) (A) (A) (A) (A) (A) (A) (A) (A) (A)
                 (A) (A) (A) (A) (A) (A) (A) (A) (A) (A) (A) (A)
                 (A) (A) (A) (A) (A) (A) (A) (A) (A) (A) (A) (A)
                 (A) (A) (A) (A)
 The electronic state is 1-A.
 Alpha  occ. eigenvalues --  -19.17851 -19.17208 -14.44152 -10.33388 -10.33061
 Alpha  occ. eigenvalues --  -10.32068 -10.31553 -10.25957 -10.25053 -10.24840
 Alpha  occ. eigenvalues --  -10.24777 -10.24605 -10.24184 -10.23728  -1.12024
 Alpha  occ. eigenvalues --   -1.11104  -1.07568  -0.91347  -0.90362  -0.83833
 Alpha  occ. eigenvalues --   -0.82534  -0.81575  -0.78571  -0.74140  -0.71226
 Alpha  occ. eigenvalues --   -0.68708  -0.61735  -0.58327  -0.56839  -0.55177
 Alpha  occ. eigenvalues --   -0.54623  -0.54021  -0.52561  -0.51929  -0.50707
 Alpha  occ. eigenvalues --   -0.49884  -0.49491  -0.49090  -0.48490  -0.48205
 Alpha  occ. eigenvalues --   -0.46825  -0.45271  -0.44977  -0.43536  -0.43066
 Alpha  occ. eigenvalues --   -0.42381  -0.41947  -0.41765  -0.32924  -0.32222
 Alpha  occ. eigenvalues --   -0.31185  -0.26233
 Alpha virt. eigenvalues --   -0.02347   0.02432   0.06298   0.08077   0.08502
 Alpha virt. eigenvalues --    0.09997   0.10676   0.12020   0.12632   0.13568
 Alpha virt. eigenvalues --    0.14153   0.14897   0.15565   0.16360   0.16972
 Alpha virt. eigenvalues --    0.17512   0.17725   0.17893   0.18108   0.19238
 Alpha virt. eigenvalues --    0.19849   0.22057   0.22689   0.23407   0.23596
 Alpha virt. eigenvalues --    0.24196   0.24722   0.25603   0.25963   0.26606
 Alpha virt. eigenvalues --    0.26940   0.27307   0.28788   0.28956   0.30135
 Alpha virt. eigenvalues --    0.31400   0.32000   0.32532   0.33588   0.34298
 Alpha virt. eigenvalues --    0.35311   0.35847   0.36796   0.38279   0.38806
 Alpha virt. eigenvalues --    0.39874   0.40956   0.41869   0.42244   0.42677
 Alpha virt. eigenvalues --    0.44094   0.44355   0.45551   0.46036   0.46302
 Alpha virt. eigenvalues --    0.47237   0.48005   0.48317   0.48471   0.48808
 Alpha virt. eigenvalues --    0.49582   0.49977   0.50829   0.51311   0.51443
 Alpha virt. eigenvalues --    0.52803   0.53174   0.53681   0.54039   0.54318
 Alpha virt. eigenvalues --    0.54598   0.55872   0.55952   0.56756   0.58071
 Alpha virt. eigenvalues --    0.58641   0.58886   0.60762   0.61236   0.62235
 Alpha virt. eigenvalues --    0.63172   0.65558   0.65965   0.66682   0.68066
 Alpha virt. eigenvalues --    0.69372   0.70455   0.71661   0.72730   0.73109
 Alpha virt. eigenvalues --    0.73510   0.74508   0.74942   0.76103   0.77358
 Alpha virt. eigenvalues --    0.78728   0.79935   0.82937   0.84183   0.85029
 Alpha virt. eigenvalues --    0.89081   0.92687   0.96028   0.99981   1.24773
 Alpha virt. eigenvalues --    1.25556   1.27095   1.27999   1.29302   1.31680
 Alpha virt. eigenvalues --    1.32503   1.32880   1.33868   1.35258   1.35784
 Alpha virt. eigenvalues --    1.36767   1.37321   1.37885   1.39022   1.39730
 Alpha virt. eigenvalues --    1.40004   1.40421   1.41198   1.41479   1.41770
 Alpha virt. eigenvalues --    1.43349   1.44072   1.44257   1.45235   1.47109
 Alpha virt. eigenvalues --    1.47813   1.49157   1.49721   1.50611   1.51348
 Alpha virt. eigenvalues --    1.52295   1.52593   1.53565   1.54673   1.57600
 Alpha virt. eigenvalues --    1.58252   1.60436   1.60573   1.61351   1.62220
 Alpha virt. eigenvalues --    1.62645   1.63522   1.64261   1.65539   1.66290
 Alpha virt. eigenvalues --    1.66864   1.67375   1.68002   1.68474   1.68859
 Alpha virt. eigenvalues --    1.69070   1.69938   1.70774   1.71821   1.72819
 Alpha virt. eigenvalues --    1.73308   1.74918   1.76105   1.76784   1.78532
 Alpha virt. eigenvalues --    1.80153   1.82874   1.84181   1.85676   1.86423
 Alpha virt. eigenvalues --    1.87019   1.87496   1.88271   1.89277   1.90566
 Alpha virt. eigenvalues --    1.91272   1.94093   1.95232   1.98082   1.99548
 Alpha virt. eigenvalues --    2.00819   2.04018   2.04458   2.06360   2.09353
 Alpha virt. eigenvalues --    2.11072   2.13101   2.14556   2.17082   2.19359
 Alpha virt. eigenvalues --    2.21025   2.21219   2.21766   2.23094   2.25862
 Alpha virt. eigenvalues --    2.26753   2.27931   2.29415   2.30842   2.32129
 Alpha virt. eigenvalues --    2.33862   2.34681   2.35838   2.37193   2.37934
 Alpha virt. eigenvalues --    2.39056   2.40757   2.41781   2.44455   2.44744
 Alpha virt. eigenvalues --    2.45593   2.48298   2.49917   2.50627   2.52278
 Alpha virt. eigenvalues --    2.52650   2.52846   2.54446   2.56647   2.58227
 Alpha virt. eigenvalues --    2.58994   2.60335   2.61116   2.61330   2.62561
 Alpha virt. eigenvalues --    2.63871   2.65360   2.66797   2.67292   2.69410
 Alpha virt. eigenvalues --    2.70716   2.71766   2.73218   2.73964   2.74192
 Alpha virt. eigenvalues --    2.75951   2.77105   2.77226   2.78150   2.79426
 Alpha virt. eigenvalues --    2.80866   2.81393   2.82526   2.83770   2.84668
 Alpha virt. eigenvalues --    2.85847   2.86036   2.87933   2.90545   2.92546
 Alpha virt. eigenvalues --    2.97561   2.99579   3.00463   3.04286   3.10261
 Alpha virt. eigenvalues --    3.11982   3.14013   3.16439   3.18041   3.18406
 Alpha virt. eigenvalues --    3.21213   3.22063   3.25156   3.26298   3.26925
 Alpha virt. eigenvalues --    3.27083   3.29728   3.33468   3.34858   3.36508
 Alpha virt. eigenvalues --    3.37247   3.39083   3.39883   3.40314   3.41891
 Alpha virt. eigenvalues --    3.42866   3.44649   3.45329   3.46107   3.47672
 Alpha virt. eigenvalues --    3.49367   3.50686   3.54562   3.57801   3.59448
 Alpha virt. eigenvalues --    3.60492   3.90327   3.99601   4.34877   4.35553
 Alpha virt. eigenvalues --   21.63234  21.78396  22.08092  22.10776  22.11498
 Alpha virt. eigenvalues --   22.13802  22.15647  22.18247  22.21319  22.26018
 Alpha virt. eigenvalues --   22.31132  31.93163  43.62874  43.65221
          Condensed to atoms (all electrons):
               1          2          3          4          5          6
     1  O    7.955492   0.000000  -0.000215   0.000018   0.015946   0.018237
     2  O    0.000000   7.993258   0.000793   0.000024  -0.096022   0.000264
     3  N   -0.000215   0.000793   6.400347   0.375618  -0.090100   0.385106
     4  H    0.000018   0.000024   0.375618   0.420239   0.016677  -0.047851
     5  C    0.015946  -0.096022  -0.090100   0.016677   6.038104  -0.079903
     6  C    0.018237   0.000264   0.385106  -0.047851  -0.079903   5.623072
     7  C   -0.000493   0.012478   0.308947  -0.044631   0.289908  -0.099279
     8  C    0.000031   0.295363   0.014172  -0.001063   0.349156   0.018426
     9  C   -0.025039   0.010303   0.004187  -0.000188  -0.411585  -0.110057
    10  H    0.016651  -0.000062  -0.001129   0.000024  -0.106124   0.023016
    11  H    0.004047  -0.000011   0.003838   0.000003  -0.025859  -0.014027
    12  C   -0.233300  -0.000927  -0.103328   0.016536   0.201748  -0.193484
    13  C    0.722849   0.000018  -0.000226   0.000450   0.078691   0.172830
    14  C   -0.000005  -0.003692  -0.032266  -0.005656  -0.075240   0.006094
    15  H    0.000000   0.000600   0.002895   0.001135   0.015893   0.003780
    16  H    0.000000   0.005037   0.002345   0.000722   0.004261  -0.000604
    17  H   -0.000000  -0.002082  -0.001417   0.000700  -0.005392   0.000116
    18  C   -0.000149  -0.047197  -0.000382   0.000011  -0.022210  -0.000627
    19  H   -0.000004   0.001123   0.000000  -0.000001   0.008010   0.000097
    20  H    0.000090   0.002463   0.000042   0.000001  -0.009281  -0.000476
    21  H   -0.000056   0.002534  -0.000028   0.000000  -0.013469  -0.000076
    22  C   -0.115814   0.000000   0.000063   0.000128   0.004125  -0.002389
    23  H    0.001912  -0.000000   0.000004  -0.000021  -0.000129   0.011222
    24  H    0.004498  -0.000000  -0.000018  -0.000047  -0.000456  -0.031115
    25  H    0.009652  -0.000000   0.000031  -0.000003  -0.000155  -0.001633
    26  C    0.000841   0.000003  -0.033694  -0.007143  -0.003149   0.182072
    27  H   -0.000040   0.000000  -0.003771   0.000472   0.000543  -0.036088
    28  H   -0.000226   0.000000   0.001924   0.000952  -0.000171  -0.053031
    29  H    0.000025  -0.000000   0.001001   0.001205  -0.000344  -0.049828
               7          8          9         10         11         12
     1  O   -0.000493   0.000031  -0.025039   0.016651   0.004047  -0.233300
     2  O    0.012478   0.295363   0.010303  -0.000062  -0.000011  -0.000927
     3  N    0.308947   0.014172   0.004187  -0.001129   0.003838  -0.103328
     4  H   -0.044631  -0.001063  -0.000188   0.000024   0.000003   0.016536
     5  C    0.289908   0.349156  -0.411585  -0.106124  -0.025859   0.201748
     6  C   -0.099279   0.018426  -0.110057   0.023016  -0.014027  -0.193484
     7  C    5.559429  -0.131715  -0.057549   0.017793  -0.008967  -0.031635
     8  C   -0.131715   5.404745  -0.022786  -0.012721  -0.006176  -0.023972
     9  C   -0.057549  -0.022786   6.374569   0.528461   0.389587  -0.130717
    10  H    0.017793  -0.012721   0.528461   0.505351  -0.035980  -0.107016
    11  H   -0.008967  -0.006176   0.389587  -0.035980   0.552159  -0.012277
    12  C   -0.031635  -0.023972  -0.130717  -0.107016  -0.012277   7.470915
    13  C    0.008861  -0.003006  -0.278863   0.000792   0.001218  -0.387472
    14  C    0.185425  -0.030425   0.013268   0.000507  -0.001179  -0.003705
    15  H   -0.057666   0.001290  -0.001623  -0.000005   0.000095   0.000339
    16  H   -0.050903  -0.022377   0.001337  -0.000061   0.000107  -0.000566
    17  H   -0.048198  -0.000635   0.001647   0.000063  -0.000071  -0.000680
    18  C    0.011626   0.188447  -0.017217   0.007911  -0.010569  -0.001713
    19  H    0.000541  -0.043121   0.002856   0.000512  -0.000131  -0.000914
    20  H    0.001241  -0.037462   0.001447  -0.005490   0.002932   0.001618
    21  H   -0.001868  -0.054101  -0.010964  -0.001503   0.001149   0.003133
    22  C   -0.000060  -0.000039   0.000558   0.001341   0.001633  -0.291525
    23  H    0.000038   0.000001  -0.002318  -0.000138   0.000148  -0.006409
    24  H   -0.000040  -0.000006   0.003202  -0.000071  -0.000124   0.062518
    25  H    0.000016   0.000001   0.000455  -0.000129  -0.000047   0.025301
    26  C    0.000930   0.000484   0.028218   0.000011  -0.000849  -0.082405
    27  H    0.000439  -0.000037  -0.001550   0.000042  -0.000010  -0.017115
    28  H   -0.001120   0.000009   0.001039   0.000009  -0.000098  -0.002107
    29  H    0.004380  -0.000010  -0.001192  -0.000009   0.000095   0.022759
              13         14         15         16         17         18
     1  O    0.722849  -0.000005   0.000000   0.000000  -0.000000  -0.000149
     2  O    0.000018  -0.003692   0.000600   0.005037  -0.002082  -0.047197
     3  N   -0.000226  -0.032266   0.002895   0.002345  -0.001417  -0.000382
     4  H    0.000450  -0.005656   0.001135   0.000722   0.000700   0.000011
     5  C    0.078691  -0.075240   0.015893   0.004261  -0.005392  -0.022210
     6  C    0.172830   0.006094   0.003780  -0.000604   0.000116  -0.000627
     7  C    0.008861   0.185425  -0.057666  -0.050903  -0.048198   0.011626
     8  C   -0.003006  -0.030425   0.001290  -0.022377  -0.000635   0.188447
     9  C   -0.278863   0.013268  -0.001623   0.001337   0.001647  -0.017217
    10  H    0.000792   0.000507  -0.000005  -0.000061   0.000063   0.007911
    11  H    0.001218  -0.001179   0.000095   0.000107  -0.000071  -0.010569
    12  C   -0.387472  -0.003705   0.000339  -0.000566  -0.000680  -0.001713
    13  C    5.440116  -0.000177   0.000023  -0.000006  -0.000042   0.000359
    14  C   -0.000177   5.169158   0.398847   0.439175   0.414488   0.002854
    15  H    0.000023   0.398847   0.551058  -0.025667  -0.025547   0.000013
    16  H   -0.000006   0.439175  -0.025667   0.511451  -0.028352  -0.000826
    17  H   -0.000042   0.414488  -0.025547  -0.028352   0.529246  -0.000518
    18  C    0.000359   0.002854   0.000013  -0.000826  -0.000518   5.083136
    19  H   -0.000036  -0.000179   0.000001   0.000180   0.000040   0.397270
    20  H    0.000180  -0.000364  -0.000003   0.000068   0.000031   0.409640
    21  H    0.000025  -0.000056   0.000004  -0.000077  -0.000064   0.433016
    22  C    0.302122  -0.000022   0.000003  -0.000001  -0.000001   0.000007
    23  H   -0.028402  -0.000001   0.000000  -0.000000  -0.000000  -0.000002
    24  H   -0.083822  -0.000001  -0.000000   0.000000   0.000000   0.000004
    25  H   -0.045488   0.000001  -0.000000   0.000000  -0.000000  -0.000001
    26  C   -0.052172   0.001661  -0.000394   0.000105   0.000008   0.000021
    27  H    0.006705  -0.000157   0.000025  -0.000001  -0.000036  -0.000001
    28  H   -0.006727   0.000116  -0.000022   0.000001   0.000005   0.000000
    29  H   -0.000102  -0.000380   0.000169  -0.000012  -0.000010   0.000000
              19         20         21         22         23         24
     1  O   -0.000004   0.000090  -0.000056  -0.115814   0.001912   0.004498
     2  O    0.001123   0.002463   0.002534   0.000000  -0.000000  -0.000000
     3  N    0.000000   0.000042  -0.000028   0.000063   0.000004  -0.000018
     4  H   -0.000001   0.000001   0.000000   0.000128  -0.000021  -0.000047
     5  C    0.008010  -0.009281  -0.013469   0.004125  -0.000129  -0.000456
     6  C    0.000097  -0.000476  -0.000076  -0.002389   0.011222  -0.031115
     7  C    0.000541   0.001241  -0.001868  -0.000060   0.000038  -0.000040
     8  C   -0.043121  -0.037462  -0.054101  -0.000039   0.000001  -0.000006
     9  C    0.002856   0.001447  -0.010964   0.000558  -0.002318   0.003202
    10  H    0.000512  -0.005490  -0.001503   0.001341  -0.000138  -0.000071
    11  H   -0.000131   0.002932   0.001149   0.001633   0.000148  -0.000124
    12  C   -0.000914   0.001618   0.003133  -0.291525  -0.006409   0.062518
    13  C   -0.000036   0.000180   0.000025   0.302122  -0.028402  -0.083822
    14  C   -0.000179  -0.000364  -0.000056  -0.000022  -0.000001  -0.000001
    15  H    0.000001  -0.000003   0.000004   0.000003   0.000000  -0.000000
    16  H    0.000180   0.000068  -0.000077  -0.000001  -0.000000   0.000000
    17  H    0.000040   0.000031  -0.000064  -0.000001  -0.000000   0.000000
    18  C    0.397270   0.409640   0.433016   0.000007  -0.000002   0.000004
    19  H    0.516179  -0.018873  -0.028565  -0.000001  -0.000000   0.000000
    20  H   -0.018873   0.517937  -0.038830   0.000012  -0.000000  -0.000000
    21  H   -0.028565  -0.038830   0.531565   0.000001   0.000000  -0.000000
    22  C   -0.000001   0.000012   0.000001   5.449681   0.400637   0.390911
    23  H   -0.000000  -0.000000   0.000000   0.400637   0.506330  -0.029354
    24  H    0.000000  -0.000000  -0.000000   0.390911  -0.029354   0.547982
    25  H    0.000000   0.000000  -0.000000   0.382959  -0.008599  -0.021046
    26  C    0.000001  -0.000005  -0.000005  -0.034488  -0.015448   0.015435
    27  H   -0.000000  -0.000000   0.000001  -0.010504   0.001537  -0.001938
    28  H    0.000000   0.000000  -0.000000   0.007767  -0.001703  -0.008368
    29  H   -0.000000   0.000000   0.000000   0.002046   0.000239   0.000649
              25         26         27         28         29
     1  O    0.009652   0.000841  -0.000040  -0.000226   0.000025
     2  O   -0.000000   0.000003   0.000000   0.000000  -0.000000
     3  N    0.000031  -0.033694  -0.003771   0.001924   0.001001
     4  H   -0.000003  -0.007143   0.000472   0.000952   0.001205
     5  C   -0.000155  -0.003149   0.000543  -0.000171  -0.000344
     6  C   -0.001633   0.182072  -0.036088  -0.053031  -0.049828
     7  C    0.000016   0.000930   0.000439  -0.001120   0.004380
     8  C    0.000001   0.000484  -0.000037   0.000009  -0.000010
     9  C    0.000455   0.028218  -0.001550   0.001039  -0.001192
    10  H   -0.000129   0.000011   0.000042   0.000009  -0.000009
    11  H   -0.000047  -0.000849  -0.000010  -0.000098   0.000095
    12  C    0.025301  -0.082405  -0.017115  -0.002107   0.022759
    13  C   -0.045488  -0.052172   0.006705  -0.006727  -0.000102
    14  C    0.000001   0.001661  -0.000157   0.000116  -0.000380
    15  H   -0.000000  -0.000394   0.000025  -0.000022   0.000169
    16  H    0.000000   0.000105  -0.000001   0.000001  -0.000012
    17  H   -0.000000   0.000008  -0.000036   0.000005  -0.000010
    18  C   -0.000001   0.000021  -0.000001   0.000000   0.000000
    19  H    0.000000   0.000001  -0.000000   0.000000  -0.000000
    20  H    0.000000  -0.000005  -0.000000   0.000000   0.000000
    21  H   -0.000000  -0.000005   0.000001  -0.000000   0.000000
    22  C    0.382959  -0.034488  -0.010504   0.007767   0.002046
    23  H   -0.008599  -0.015448   0.001537  -0.001703   0.000239
    24  H   -0.021046   0.015435  -0.001938  -0.008368   0.000649
    25  H    0.499916   0.001933   0.000054   0.000840  -0.000048
    26  C    0.001933   5.258635   0.425904   0.430144   0.387972
    27  H    0.000054   0.425904   0.496569  -0.030685  -0.018486
    28  H    0.000840   0.430144  -0.030685   0.526472  -0.028171
    29  H   -0.000048   0.387972  -0.018486  -0.028171   0.530184
 Mulliken charges:
               1
     1  O   -0.374950
     2  O   -0.174270
     3  N   -0.234740
     4  H    0.271688
     5  C   -0.083476
     6  C    0.276136
     7  C    0.132071
     8  C    0.117528
     9  C   -0.289486
    10  H    0.167953
    11  H    0.159363
    12  C   -0.173600
    13  C    0.151302
    14  C   -0.478091
    15  H    0.134758
    16  H    0.164662
    17  H    0.166701
    18  C   -0.432903
    19  H    0.165016
    20  H    0.173081
    21  H    0.178236
    22  C   -0.489150
    23  H    0.170456
    24  H    0.151209
    25  H    0.155990
    26  C   -0.504628
    27  H    0.188126
    28  H    0.163151
    29  H    0.147868
 Sum of Mulliken charges =  -0.00000
 Mulliken charges with hydrogens summed into heavy atoms:
               1
     1  O   -0.374950
     2  O   -0.174270
     3  N    0.036948
     5  C   -0.083476
     6  C    0.276136
     7  C    0.132071
     8  C    0.117528
     9  C    0.037830
    12  C   -0.173600
    13  C    0.151302
    14  C   -0.011970
    18  C    0.083430
    22  C   -0.011495
    26  C   -0.005484
 Electronic spatial extent (au):  <R**2>=           3184.1039
 Charge=             -0.0000 electrons
 Dipole moment (field-independent basis, Debye):
    X=              0.2337    Y=              5.8443    Z=              0.0583  Tot=              5.8493
 Quadrupole moment (field-independent basis, Debye-Ang):
   XX=            -86.6850   YY=            -79.3220   ZZ=            -86.0989
   XY=             15.6088   XZ=              3.0734   YZ=             -1.0195
 Traceless Quadrupole moment (field-independent basis, Debye-Ang):
   XX=             -2.6497   YY=              4.7133   ZZ=             -2.0636
   XY=             15.6088   XZ=              3.0734   YZ=             -1.0195
 Octapole moment (field-independent basis, Debye-Ang**2):
  XXX=             41.1031  YYY=             53.0908  ZZZ=              2.2121  XYY=            -41.9615
  XXY=             17.3268  XXZ=             -3.1446  XZZ=              2.0090  YZZ=             -2.3758
  YYZ=              1.6521  XYZ=             -3.8740
 Hexadecapole moment (field-independent basis, Debye-Ang**3):
 XXXX=          -2828.1210 YYYY=          -1274.0685 ZZZZ=           -153.1632 XXXY=             85.9161
 XXXZ=             27.9808 YYYX=            106.2146 YYYZ=            -17.9787 ZZZX=             -3.8010
 ZZZY=              5.7599 XXYY=           -681.2018 XXZZ=           -489.2343 YYZZ=           -243.8744
 XXYZ=             -6.8797 YYXZ=              6.6560 ZZXY=              0.4222
 N-N= 9.007981986319D+02 E-N=-3.277847859577D+03  KE= 6.308295473499D+02
 No NMR shielding tensors so no spin-rotation constants.
 Leave Link  601 at Fri Jan 23 21:43:00 2026, MaxMem=  2147483648 cpu:               1.8 elap:               0.1
 (Enter /data/home/wyx/g16/l9999.exe)
 Electronic transition elements 
                 1             2             3             4             5 
      1  -0.633201D+03 -0.633181D+03 -0.633172D+03 -0.633140D+03 -0.633122D+03
      2   0.158151D+01  0.202789D+00  0.307776D-01  0.426214D+00 -0.386389D+00
      3   0.382526D+00  0.438135D-01 -0.122290D+00 -0.171738D+01  0.141094D+01
      4   0.131990D+00 -0.240091D-01  0.466134D-01  0.213336D+00 -0.978877D-01
      5  -0.191807D+00 -0.286655D-01 -0.508061D-02 -0.734620D-01  0.779805D-01
      6  -0.497527D-01 -0.683973D-02  0.181096D-01  0.310016D+00 -0.285786D+00
      7  -0.151357D-01  0.144791D-02 -0.369195D-02 -0.344372D-01  0.206378D-01
      8  -0.789346D-01 -0.882720D+00 -0.425269D+00  0.812929D-01 -0.202874D+00
      9   0.519592D-01 -0.544551D-01  0.902013D+00 -0.626716D-01  0.184317D-01
     10   0.144325D+01  0.308678D+00  0.531137D-01  0.163865D+00 -0.293637D+00
     11  -0.159961D+00 -0.392557D-01 -0.184356D-01 -0.122158D+01  0.574520D+00
     12   0.273818D+00  0.565543D-01  0.301412D-01  0.199224D+00 -0.304157D+00
     13  -0.176504D-01 -0.990373D-03 -0.403678D-01  0.110086D-01 -0.509215D-01
     14   0.523149D+00  0.752505D-01  0.241998D-01 -0.420753D+00  0.140190D+00
     15  -0.822129D-01 -0.631085D-02 -0.659519D-01 -0.429502D-01  0.301209D-01
     16   0.279191D-01 -0.812382D-01 -0.242227D-01 -0.709797D-01 -0.532532D-01
                 6 
      1  -0.633105D+03
      2  -0.533940D-01
      3   0.213755D+00
      4   0.545883D-01
      5   0.122835D-01
      6  -0.448215D-01
      7  -0.316288D-01
      8  -0.418636D-01
      9  -0.228921D-01
     10  -0.188571D-03
     11  -0.232837D+00
     12  -0.184680D+00
     13   0.161521D+00
     14  -0.102315D-01
     15  -0.311023D-01
     16   0.485607D-01
 1\1\GINC-CN013\SP\RCAM-B3LYP TD-FC\TZVP\C11H15N1O2\WYX\23-Jan-2026\0\\
 #p CAM-B3LYP TZVP em=gd3bj td(nstates=6,root=2) scrf=(Solvent=TetraHyd
 roFuran,CorrectedLR,NonEquilibrium=Save) Geom=Check Guess=Read\\Title 
 Card Required\\0,1\O,0,2.827452,-1.568839,0.204959\O,0,-3.43095,-1.625
 334,0.021855\N,0,-0.634557,1.513028,-0.34534\H,0,-0.944428,2.469426,-0
 .393936\C,0,-1.238288,-0.757245,-0.218258\C,0,0.698467,1.29764,-0.0825
 36\C,0,-1.609976,0.54084,-0.289423\C,0,-2.221601,-1.824288,-0.122425\C
 ,0,0.223177,-1.119463,-0.317897\H,0,0.456209,-1.940001,0.357832\H,0,0.
 455957,-1.498149,-1.321033\C,0,1.150105,0.027647,0.007032\C,0,2.512323
 ,-0.390422,0.334072\C,0,-3.000506,1.080343,-0.307623\H,0,-3.013105,2.0
 99703,-0.695799\H,0,-3.666555,0.47381,-0.914794\H,0,-3.423211,1.091434
 ,0.697478\C,0,-1.749793,-3.249627,-0.20855\H,0,-2.581045,-3.930142,-0.
 380613\H,0,-1.016046,-3.39905,-1.001587\H,0,-1.264885,-3.553008,0.7229
 9\C,0,3.554276,0.558675,0.869593\H,0,4.002458,1.140716,0.063339\H,0,3.
 167035,1.252999,1.611084\H,0,4.336239,-0.049505,1.318129\C,0,1.46039,2
 .576843,0.06914\H,0,1.567617,2.853334,1.118694\H,0,2.448911,2.534006,-
 0.373046\H,0,0.934329,3.394631,-0.423336\\Version=ES64L-G16RevA.03\Sta
 te=1-A\HF=-633.3280729\RMSD=3.460e-09\Dipole=-0.6868148,2.1939604,-0.1
 035706\Quadrupole=-9.1780232,10.283028,-1.1050047,7.2000937,1.3548497,
 0.668708\PG=C01 [X(C11H15N1O2)]\\@


 BULLDOZER: SOMEONE WHO SLEEPS THROUGH SPEECHES.
 Job cpu time:       0 days  2 hours 43 minutes 53.2 seconds.
 Elapsed time:       0 days  0 hours 10 minutes 18.6 seconds.
 File lengths (MBytes):  RWF=    734 Int=      0 D2E=      0 Chk=     67 Scr=      1
 Normal termination of Gaussian 16 at Fri Jan 23 21:43:03 2026.
