 Entering Gaussian System, Link 0=g16
 Input=DDL-LR-4.gjf
 Output=DDL-LR-4.log
 Initial command:
 /data/home/wyx/g16/l1.exe "/scr/tmp/wyx/13109/Gau-1683998.inp" -scrdir="/scr/tmp/wyx/13109/"
 Entering Link 1 = /data/home/wyx/g16/l1.exe PID=   1683999.
  
 Copyright (c) 1988,1990,1992,1993,1995,1998,2003,2009,2016,
            Gaussian, Inc.  All Rights Reserved.
  
 This is part of the Gaussian(R) 16 program.  It is based on
 the Gaussian(R) 09 system (copyright 2009, Gaussian, Inc.),
 the Gaussian(R) 03 system (copyright 2003, Gaussian, Inc.),
 the Gaussian(R) 98 system (copyright 1998, Gaussian, Inc.),
 the Gaussian(R) 94 system (copyright 1995, Gaussian, Inc.),
 the Gaussian 92(TM) system (copyright 1992, Gaussian, Inc.),
 the Gaussian 90(TM) system (copyright 1990, Gaussian, Inc.),
 the Gaussian 88(TM) system (copyright 1988, Gaussian, Inc.),
 the Gaussian 86(TM) system (copyright 1986, Carnegie Mellon
 University), and the Gaussian 82(TM) system (copyright 1983,
 Carnegie Mellon University). Gaussian is a federally registered
 trademark of Gaussian, Inc.
  
 This software contains proprietary and confidential information,
 including trade secrets, belonging to Gaussian, Inc.
  
 This software is provided under written license and may be
 used, copied, transmitted, or stored only in accord with that
 written license.
  
 The following legend is applicable only to US Government
 contracts under FAR:
  
                    RESTRICTED RIGHTS LEGEND
  
 Use, reproduction and disclosure by the US Government is
 subject to restrictions as set forth in subparagraphs (a)
 and (c) of the Commercial Computer Software - Restricted
 Rights clause in FAR 52.227-19.
  
 Gaussian, Inc.
 340 Quinnipiac St., Bldg. 40, Wallingford CT 06492
  
  
 ---------------------------------------------------------------
 Warning -- This program may not be used in any manner that
 competes with the business of Gaussian, Inc. or will provide
 assistance to any competitor of Gaussian, Inc.  The licensee
 of this program is prohibited from giving any competitor of
 Gaussian, Inc. access to this program.  By using this program,
 the user acknowledges that Gaussian, Inc. is engaged in the
 business of creating and licensing software in the field of
 computational chemistry and represents and warrants to the
 licensee that it is not a competitor of Gaussian, Inc. and that
 it will not use this program in any manner prohibited above.
 ---------------------------------------------------------------
  

 Cite this work as:
 Gaussian 16, Revision A.03,
 M. J. Frisch, G. W. Trucks, H. B. Schlegel, G. E. Scuseria, 
 M. A. Robb, J. R. Cheeseman, G. Scalmani, V. Barone, 
 G. A. Petersson, H. Nakatsuji, X. Li, M. Caricato, A. V. Marenich, 
 J. Bloino, B. G. Janesko, R. Gomperts, B. Mennucci, H. P. Hratchian, 
 J. V. Ortiz, A. F. Izmaylov, J. L. Sonnenberg, D. Williams-Young, 
 F. Ding, F. Lipparini, F. Egidi, J. Goings, B. Peng, A. Petrone, 
 T. Henderson, D. Ranasinghe, V. G. Zakrzewski, J. Gao, N. Rega, 
 G. Zheng, W. Liang, M. Hada, M. Ehara, K. Toyota, R. Fukuda, 
 J. Hasegawa, M. Ishida, T. Nakajima, Y. Honda, O. Kitao, H. Nakai, 
 T. Vreven, K. Throssell, J. A. Montgomery, Jr., J. E. Peralta, 
 F. Ogliaro, M. J. Bearpark, J. J. Heyd, E. N. Brothers, K. N. Kudin, 
 V. N. Staroverov, T. A. Keith, R. Kobayashi, J. Normand, 
 K. Raghavachari, A. P. Rendell, J. C. Burant, S. S. Iyengar, 
 J. Tomasi, M. Cossi, J. M. Millam, M. Klene, C. Adamo, R. Cammi, 
 J. W. Ochterski, R. L. Martin, K. Morokuma, O. Farkas, 
 J. B. Foresman, and D. J. Fox, Gaussian, Inc., Wallingford CT, 2016.
 
 ******************************************
 Gaussian 16:  ES64L-G16RevA.03 25-Dec-2016
                23-Jan-2026 
 ******************************************
 %nprocshared=16
 Will use up to   16 processors via shared memory.
 %mem=16GB
 %chk=DDL-LR-4.chk
 ----------------------------------------------------------------------
 #p CAM-B3LYP TZVP em=gd3bj td(nstates=6,root=1) scrf=(Solvent=TetraHyd
 roFuran)
 ----------------------------------------------------------------------
 1/38=1,172=1/1;
 2/12=2,17=6,18=5,40=1/2;
 3/5=19,7=101,11=9,25=1,30=1,70=2201,72=20,74=-40,124=41/1,2,3,8;
 4//1;
 5/5=2,38=5,53=20/2;
 8/6=1,10=1,107=1,108=6/1;
 9/8=1,41=6,42=1,70=2/14;
 6/7=2,8=2,9=2,10=2/1;
 99/5=1,9=1/99;
 Leave Link    1 at Fri Jan 23 15:30:21 2026, MaxMem=  2147483648 cpu:               0.4 elap:               0.1
 (Enter /data/home/wyx/g16/l101.exe)
 -------------------
 Title Card Required
 -------------------
 Symbolic Z-matrix:
 Charge =  0 Multiplicity = 1
 O                     2.79804  -1.57203   0.41783 
 O                    -3.43711  -1.65332  -0.43864 
 N                    -0.6545    1.52443  -0.1206 
 H                    -0.9735    2.47779  -0.16136 
 C                    -1.24147  -0.76872  -0.18369 
 C                     0.67457   1.3127    0.08749 
 C                    -1.61898   0.5384   -0.2449 
 C                    -2.17453  -1.82626  -0.29797 
 C                     0.20931  -1.13343   0.00509 
 H                     0.31756  -1.77306   0.88449 
 H                     0.55496  -1.73234  -0.84189 
 C                     1.14452   0.0414    0.15485 
 C                     2.52047  -0.37364   0.37023 
 C                    -2.99184   1.07504  -0.42639 
 H                    -3.00636   1.87318  -1.17393 
 H                    -3.70384   0.32253  -0.76053 
 H                    -3.38617   1.4812    0.50903 
 C                    -1.8103   -3.28068  -0.27098 
 H                    -2.23964  -3.8589   -1.09191 
 H                    -0.73576  -3.44389  -0.31082 
 H                    -2.15438  -3.74984   0.65552 
 C                     3.65683   0.60178   0.53856 
 H                     3.76029   1.2793   -0.30663 
 H                     3.55452   1.20657   1.43863 
 H                     4.56356   0.00735   0.62176 
 C                     1.44429   2.58998   0.21224 
 H                     1.97577   2.66262   1.15755 
 H                     2.16869   2.71532  -0.59007 
 H                     0.78501   3.45648   0.16704 
 
 ITRead=  0  0  0  0  0  0  0  0  0  0  0  0  0  0  0  0  0  0  0  0
 ITRead=  0  0  0  0  0  0  0  0  0
 MicOpt= -1 -1 -1 -1 -1 -1 -1 -1 -1 -1 -1 -1 -1 -1 -1 -1 -1 -1 -1 -1
 MicOpt= -1 -1 -1 -1 -1 -1 -1 -1 -1
 NAtoms=     29 NQM=       29 NQMF=       0 NMMI=      0 NMMIF=      0
                NMic=       0 NMicF=      0.
                    Isotopes and Nuclear Properties:
 (Nuclear quadrupole moments (NQMom) in fm**2, nuclear magnetic moments (NMagM)
  in nuclear magnetons)

  Atom         1           2           3           4           5           6           7           8           9          10
 IAtWgt=          16          16          14           1          12          12          12          12          12           1
 AtmWgt=  15.9949146  15.9949146  14.0030740   1.0078250  12.0000000  12.0000000  12.0000000  12.0000000  12.0000000   1.0078250
 NucSpn=           0           0           2           1           0           0           0           0           0           1
 AtZEff=  -0.0000000  -0.0000000  -0.0000000  -0.0000000  -0.0000000  -0.0000000  -0.0000000  -0.0000000  -0.0000000  -0.0000000
 NQMom=    0.0000000   0.0000000   2.0440000   0.0000000   0.0000000   0.0000000   0.0000000   0.0000000   0.0000000   0.0000000
 NMagM=    0.0000000   0.0000000   0.4037610   2.7928460   0.0000000   0.0000000   0.0000000   0.0000000   0.0000000   2.7928460
 AtZNuc=   8.0000000   8.0000000   7.0000000   1.0000000   6.0000000   6.0000000   6.0000000   6.0000000   6.0000000   1.0000000

  Atom        11          12          13          14          15          16          17          18          19          20
 IAtWgt=           1          12          12          12           1           1           1          12           1           1
 AtmWgt=   1.0078250  12.0000000  12.0000000  12.0000000   1.0078250   1.0078250   1.0078250  12.0000000   1.0078250   1.0078250
 NucSpn=           1           0           0           0           1           1           1           0           1           1
 AtZEff=  -0.0000000  -0.0000000  -0.0000000  -0.0000000  -0.0000000  -0.0000000  -0.0000000  -0.0000000  -0.0000000  -0.0000000
 NQMom=    0.0000000   0.0000000   0.0000000   0.0000000   0.0000000   0.0000000   0.0000000   0.0000000   0.0000000   0.0000000
 NMagM=    2.7928460   0.0000000   0.0000000   0.0000000   2.7928460   2.7928460   2.7928460   0.0000000   2.7928460   2.7928460
 AtZNuc=   1.0000000   6.0000000   6.0000000   6.0000000   1.0000000   1.0000000   1.0000000   6.0000000   1.0000000   1.0000000

  Atom        21          22          23          24          25          26          27          28          29
 IAtWgt=           1          12           1           1           1          12           1           1           1
 AtmWgt=   1.0078250  12.0000000   1.0078250   1.0078250   1.0078250  12.0000000   1.0078250   1.0078250   1.0078250
 NucSpn=           1           0           1           1           1           0           1           1           1
 AtZEff=  -0.0000000  -0.0000000  -0.0000000  -0.0000000  -0.0000000  -0.0000000  -0.0000000  -0.0000000  -0.0000000
 NQMom=    0.0000000   0.0000000   0.0000000   0.0000000   0.0000000   0.0000000   0.0000000   0.0000000   0.0000000
 NMagM=    2.7928460   0.0000000   2.7928460   2.7928460   2.7928460   0.0000000   2.7928460   2.7928460   2.7928460
 AtZNuc=   1.0000000   6.0000000   1.0000000   1.0000000   1.0000000   6.0000000   1.0000000   1.0000000   1.0000000
 Leave Link  101 at Fri Jan 23 15:30:21 2026, MaxMem=  2147483648 cpu:               0.8 elap:               0.1
 (Enter /data/home/wyx/g16/l202.exe)
                          Input orientation:                          
 ---------------------------------------------------------------------
 Center     Atomic      Atomic             Coordinates (Angstroms)
 Number     Number       Type             X           Y           Z
 ---------------------------------------------------------------------
      1          8           0        2.798035   -1.572028    0.417829
      2          8           0       -3.437111   -1.653321   -0.438640
      3          7           0       -0.654499    1.524434   -0.120601
      4          1           0       -0.973501    2.477794   -0.161363
      5          6           0       -1.241474   -0.768716   -0.183694
      6          6           0        0.674573    1.312704    0.087494
      7          6           0       -1.618978    0.538403   -0.244897
      8          6           0       -2.174530   -1.826255   -0.297965
      9          6           0        0.209314   -1.133434    0.005091
     10          1           0        0.317558   -1.773060    0.884487
     11          1           0        0.554957   -1.732344   -0.841891
     12          6           0        1.144524    0.041400    0.154850
     13          6           0        2.520470   -0.373637    0.370227
     14          6           0       -2.991841    1.075036   -0.426390
     15          1           0       -3.006357    1.873184   -1.173932
     16          1           0       -3.703838    0.322532   -0.760528
     17          1           0       -3.386173    1.481203    0.509033
     18          6           0       -1.810302   -3.280677   -0.270984
     19          1           0       -2.239637   -3.858895   -1.091914
     20          1           0       -0.735758   -3.443892   -0.310817
     21          1           0       -2.154384   -3.749835    0.655524
     22          6           0        3.656826    0.601779    0.538556
     23          1           0        3.760292    1.279296   -0.306625
     24          1           0        3.554519    1.206571    1.438632
     25          1           0        4.563556    0.007354    0.621762
     26          6           0        1.444290    2.589980    0.212239
     27          1           0        1.975773    2.662621    1.157550
     28          1           0        2.168686    2.715323   -0.590069
     29          1           0        0.785009    3.456480    0.167035
 ---------------------------------------------------------------------
                    Distance matrix (angstroms):
                    1          2          3          4          5
     1  O    0.000000
     2  O    6.294219   0.000000
     3  N    4.668830   4.235824   0.000000
     4  H    5.564261   4.817922   1.006141   0.000000
     5  C    4.162304   2.380829   2.367923   3.257627   0.000000
     6  C    3.597206   5.097065   1.361824   2.033596   2.842022
     7  C    4.939952   2.854260   1.384892   2.045692   1.361916
     8  C    5.030248   1.282110   3.683622   4.470567   1.414935
     9  C    2.657855   3.709932   2.797541   3.803646   1.507795
    10  H    2.531985   3.982781   3.581698   4.564033   2.140163
    11  H    2.577595   4.013161   3.548189   4.530404   2.142187
    12  C    2.325168   4.920944   2.347711   3.243769   2.542417
    13  C    1.231036   6.146920   3.731489   4.541044   3.822975
    14  C    6.422018   2.764480   2.399715   2.472178   2.553842
    15  H    6.934995   3.628008   2.600456   2.350181   3.327915
    16  H    6.874026   2.019592   3.339542   3.529716   2.754414
    17  H    6.897461   3.275045   2.803632   2.695109   3.184610
    18  C    4.962934   2.307142   4.944450   5.819986   2.577040
    19  H    5.734738   2.593312   5.695291   6.528603   3.372002
    20  H    4.064787   3.243423   4.972630   5.928341   2.725523
    21  H    5.415330   2.690345   5.538045   6.391021   3.228740
    22  C    2.340413   7.507618   4.457948   5.044725   5.137436
    23  H    3.095290   7.773048   4.425503   4.885314   5.406212
    24  H    3.055310   7.783702   4.499786   4.967792   5.434634
    25  H    2.377625   8.239719   5.484590   6.113539   5.911803
    26  C    4.381461   6.500563   2.377201   2.449056   4.318672
    27  H    4.376706   7.104540   3.138068   3.236033   4.891185
    28  H    4.448968   7.108653   3.099837   3.180180   4.892122
    29  H    5.422275   6.656065   2.426462   2.039125   4.699141
                    6          7          8          9         10
     6  C    0.000000
     7  C    2.443441   0.000000
     8  C    4.256645   2.429622   0.000000
     9  C    2.491355   2.490017   2.500911   0.000000
    10  H    3.206961   3.220022   2.758899   1.092783   0.000000
    11  H    3.185966   3.199795   2.784739   1.093408   1.743100
    12  C    1.357057   2.836151   3.835270   1.509066   2.123325
    13  C    2.516152   4.283133   4.959799   2.460093   2.660013
    14  C    3.709873   1.485149   3.016949   3.912916   4.558747
    15  H    3.931231   2.137655   3.891671   4.557454   5.346082
    16  H    4.568377   2.158499   2.677692   4.244852   4.823817
    17  H    4.086043   2.140154   3.613669   4.474127   4.944574
    18  C    5.234717   3.823958   1.499578   2.960696   2.852334
    19  H    6.052195   4.520939   2.183167   3.824777   3.846572
    20  H    4.977237   4.079595   2.164943   2.516183   2.308659
    21  H    5.827088   4.414341   2.147023   3.585483   3.173415
    22  C    3.098823   5.334034   6.371800   3.896266   4.112206
    23  H    3.110966   5.430403   6.698256   4.304402   4.752688
    24  H    3.182912   5.481404   6.710872   4.326784   4.434320
    25  H    4.136855   6.265528   7.043424   4.543248   4.611659
    26  C    1.496482   3.715044   5.732303   3.928344   4.556047
    27  H    2.158800   4.404701   6.284389   4.342646   4.743364
    28  H    2.158427   4.382297   6.290849   4.359620   5.074108
    29  H    2.148092   3.803159   6.073087   4.628711   5.299183
                   11         12         13         14         15
    11  H    0.000000
    12  C    2.118313   0.000000
    13  C    2.679283   1.453228   0.000000
    14  C    4.542444   4.302994   5.754896   0.000000
    15  H    5.078685   4.727675   6.162666   1.093650   0.000000
    16  H    4.729320   4.942020   6.364375   1.088508   1.749830
    17  H    5.261595   4.767147   6.192587   1.093383   1.769260
    18  C    2.884046   4.466377   5.255247   4.515797   5.367322
    19  H    3.520580   5.312181   6.078116   5.035117   5.783711
    20  H    2.208479   3.987426   4.526953   5.052126   5.845672
    21  H    3.695003   5.050439   5.773592   5.015102   5.974204
    22  C    4.120116   2.602483   1.507009   6.734973   6.996220
    23  H    4.430650   2.930459   2.174276   6.756283   6.847807
    24  H    4.778638   2.968804   2.169747   6.808116   7.093304
    25  H    4.608437   3.450934   2.093472   7.702116   8.000589
    26  C    4.537024   2.566790   3.156921   4.730979   4.716304
    27  H    5.033110   2.926975   3.183620   5.450365   5.557035
    28  H    4.738067   2.958661   3.253858   5.417414   5.275525
    29  H    5.291007   3.433973   4.209858   4.504223   4.321976
                   16         17         18         19         20
    16  H    0.000000
    17  H    1.747917   0.000000
    18  C    4.099786   5.076150   0.000000
    19  H    4.442751   5.691592   1.092058   0.000000
    20  H    4.816398   5.652735   1.087599   1.744704   0.000000
    21  H    4.581505   5.376107   1.094038   1.752912   1.743535
    22  C    7.479637   7.097753   6.754133   7.571283   6.031889
    23  H    7.538877   7.195695   7.199038   7.938314   6.520965
    24  H    7.635547   7.008051   7.199964   8.101534   6.564591
    25  H    8.388079   8.085984   7.227324   8.010493   6.392459
    26  C    5.708837   4.964962   6.729821   7.540565   6.436910
    27  H    6.435295   5.528724   7.190123   8.084550   6.840907
    28  H    6.343583   5.795475   7.203206   7.931299   6.815402
    29  H    5.552635   4.627898   7.233034   8.015494   7.082105
                   21         22         23         24         25
    21  H    0.000000
    22  C    7.260881   0.000000
    23  H    7.823125   1.088148   0.000000
    24  H    7.600710   1.089209   1.758850   0.000000
    25  H    7.697293   1.087393   1.767759   1.767358   0.000000
    26  C    7.303438   2.992447   2.711269   2.805517   4.070318
    27  H    7.643940   2.730597   2.691079   2.165993   3.746216
    28  H    7.876465   2.820536   2.162342   2.883140   3.812746
    29  H    7.798053   4.066286   3.717095   3.788038   5.136211
                   26         27         28         29
    26  C    0.000000
    27  H    1.086906   0.000000
    28  H    1.088190   1.759024   0.000000
    29  H    1.089733   1.740474   1.742723   0.000000
 Stoichiometry    C11H15NO2
 Framework group  C1[X(C11H15NO2)]
 Deg. of freedom    81
 Full point group                 C1      NOp   1
 Largest Abelian subgroup         C1      NOp   1
 Largest concise Abelian subgroup C1      NOp   1
                         Standard orientation:                         
 ---------------------------------------------------------------------
 Center     Atomic      Atomic             Coordinates (Angstroms)
 Number     Number       Type             X           Y           Z
 ---------------------------------------------------------------------
      1          8           0        2.253211   -2.315570    0.012476
      2          8           0       -3.673415   -0.196361    0.047782
      3          7           0        0.058911    1.805307   -0.024820
      4          1           0        0.090118    2.810940   -0.017948
      5          6           0       -1.293979   -0.138014   -0.009006
      6          6           0        1.245686    1.137600   -0.007559
      7          6           0       -1.196345    1.220391   -0.013328
      8          6           0       -2.543701   -0.801303    0.007805
      9          6           0       -0.050190   -0.990103   -0.028430
     10          1           0       -0.056777   -1.672093    0.825397
     11          1           0       -0.050243   -1.627119   -0.917110
     12          6           0        1.247133   -0.219454   -0.010167
     13          6           0        2.407439   -1.094245    0.007228
     14          6           0       -2.306899    2.206334    0.002641
     15          1           0       -2.140640    2.997771   -0.733603
     16          1           0       -3.274136    1.763943   -0.228863
     17          1           0       -2.407581    2.674969    0.985356
     18          6           0       -2.709557   -2.291417   -0.020183
     19          1           0       -3.418004   -2.642982   -0.773241
     20          1           0       -1.774753   -2.813093   -0.212189
     21          1           0       -3.070141   -2.659999    0.944724
     22          6           0        3.824279   -0.580845    0.014954
     23          1           0        4.045034    0.061849   -0.834916
     24          1           0        4.059170   -0.025006    0.921732
     25          1           0        4.469201   -1.455063   -0.032399
     26          6           0        2.421892    2.062642    0.009605
     27          1           0        3.065172    1.898752    0.870242
     28          1           0        3.031807    1.971400   -0.886965
     29          1           0        2.106490    3.104510    0.060101
 ---------------------------------------------------------------------
 Rotational constants (GHZ):           1.1027059           0.4826739           0.3392595
 Leave Link  202 at Fri Jan 23 15:30:21 2026, MaxMem=  2147483648 cpu:               0.0 elap:               0.0
 (Enter /data/home/wyx/g16/l301.exe)
 Standard basis: TZVP (5D, 7F)
 Ernie: Thresh=  0.10000D-02 Tol=  0.10000D-05 Strict=F.
 There are   370 symmetry adapted cartesian basis functions of A   symmetry.
 There are   356 symmetry adapted basis functions of A   symmetry.
   356 basis functions,   610 primitive gaussians,   370 cartesian basis functions
    52 alpha electrons       52 beta electrons
       nuclear repulsion energy       899.1439204817 Hartrees.
 IExCor=20419 DFT=T Ex+Corr=CAM-B3LYP ExCW=0 ScaHFX=  1.000000
 ScaDFX=  1.000000  1.000000  1.000000  0.810000 ScalE2=  1.000000  1.000000
 IRadAn=      5 IRanWt=     -1 IRanGd=            0 ICorTp=0 IEmpDi=141
 HFx  wShort=  0.000000 wLong=  0.330000 cFull=  0.190000 cShort=  0.000000 cLong=  0.460000
 DFx  wShort=  0.000000 wLong=  0.330000 cFull=  0.190000 cShort=  0.000000 cLong=  0.460000
 NAtoms=   29 NActive=   29 NUniq=   29 SFac= 1.00D+00 NAtFMM=   60 NAOKFM=F Big=F
 Integral buffers will be    131072 words long.
 Raffenetti 1 integral format.
 Two-electron integral symmetry is turned on.
 R6Disp:  Grimme-D3(BJ) Dispersion energy=       -0.0260904230 Hartrees.
 Nuclear repulsion after empirical dispersion term =      899.1178300587 Hartrees.
 ------------------------------------------------------------------------------
 Polarizable Continuum Model (PCM)
 =================================
 Model                : PCM.
 Atomic radii         : UFF (Universal Force Field).
 Polarization charges : Total charges.
 Charge compensation  : None.
 Solution method      : On-the-fly selection.
 Cavity type          : Scaled VdW (van der Waals Surface) (Alpha=1.100).
 Cavity algorithm     : GePol (No added spheres)
                        Default sphere list used, NSphG=   29.
                        Lebedev-Laikov grids with approx.  5.0 points / Ang**2.
                        Smoothing algorithm: York/Karplus (Gamma=1.0000).
                        Polarization charges: spherical gaussians, with
                                              point-specific exponents (IZeta= 3).
                        Self-potential: point-specific (ISelfS= 7).
                        Self-field    : sphere-specific E.n sum rule (ISelfD= 2).
 Solvent              : TetraHydroFuran, Eps=   7.425700 Eps(inf)=   1.974025
 ------------------------------------------------------------------------------
 GePol: Number of generator spheres                  =      29
 GePol: Total number of spheres                      =      29
 GePol: Number of exposed spheres                    =      29 (100.00%)
 GePol: Number of points                             =    2120
 GePol: Average weight of points                     =       0.13
 GePol: Minimum weight of points                     =   0.32D-11
 GePol: Maximum weight of points                     =    0.20577
 GePol: Number of points with low weight             =     144
 GePol: Fraction of low-weight points (<1% of avg)   =       6.79%
 GePol: Cavity surface area                          =    268.995 Ang**2
 GePol: Cavity volume                                =    286.447 Ang**3
 Leave Link  301 at Fri Jan 23 15:30:21 2026, MaxMem=  2147483648 cpu:               0.6 elap:               0.0
 (Enter /data/home/wyx/g16/l302.exe)
 NPDir=0 NMtPBC=     1 NCelOv=     1 NCel=       1 NClECP=     1 NCelD=      1
         NCelK=      1 NCelE2=     1 NClLst=     1 CellRange=     0.0.
 One-electron integrals computed using PRISM.
 One-electron integral symmetry used in STVInt
 NBasis=   356 RedAO= T EigKep=  3.34D-05  NBF=   356
 NBsUse=   356 1.00D-06 EigRej= -1.00D+00 NBFU=   356
 Precomputing XC quadrature grid using
 IXCGrd= 4 IRadAn=           5 IRanWt=          -1 IRanGd=           0 AccXCQ= 0.00D+00.
 Generated NRdTot=       0 NPtTot=           0 NUsed=           0 NTot=          32
 NSgBfM=   366   366   366   366   366 MxSgAt=    29 MxSgA2=    29.
 Leave Link  302 at Fri Jan 23 15:30:21 2026, MaxMem=  2147483648 cpu:               3.1 elap:               0.2
 (Enter /data/home/wyx/g16/l303.exe)
 DipDrv:  MaxL=1.
 Leave Link  303 at Fri Jan 23 15:30:22 2026, MaxMem=  2147483648 cpu:               0.6 elap:               0.0
 (Enter /data/home/wyx/g16/l308.exe)
 Leave Link  308 at Fri Jan 23 15:30:22 2026, MaxMem=  2147483648 cpu:               0.7 elap:               0.1
 (Enter /data/home/wyx/g16/l401.exe)
 ExpMin= 9.52D-02 ExpMax= 2.70D+04 ExpMxC= 9.22D+02 IAcc=3 IRadAn=         5 AccDes= 0.00D+00
 Harris functional with IExCor=20419 and IRadAn=       5 diagonalized for initial guess.
 HarFok:  IExCor=20419 AccDes= 0.00D+00 IRadAn=         5 IDoV= 1 UseB2=F ITyADJ=14
 ICtDFT=  3500011 ScaDFX=  1.000000  1.000000  1.000000  1.000000
 FoFCou: FMM=F IPFlag=           0 FMFlag=      100000 FMFlg1=           0
         NFxFlg=           0 DoJE=T BraDBF=F KetDBF=T FulRan=T
         wScrn=  0.000000 ICntrl=       500 IOpCl=  0 I1Cent=   200000004 NGrid=           0
         NMat0=    1 NMatS0=      1 NMatT0=    0 NMatD0=    1 NMtDS0=    0 NMtDT0=    0
 Petite list used in FoFCou.
 Harris En= -608.707578868336    
 JPrj=0 DoOrth=F DoCkMO=F.
 Leave Link  401 at Fri Jan 23 15:30:23 2026, MaxMem=  2147483648 cpu:              11.8 elap:               0.7
 (Enter /data/home/wyx/g16/l502.exe)
 Integral symmetry usage will be decided dynamically.
 Closed shell SCF:
 Using DIIS extrapolation, IDIIS=  1040.
 NGot=  2147483648 LenX=  2147200095 LenY=  2147062754
 Requested convergence on RMS density matrix=1.00D-08 within 128 cycles.
 Requested convergence on MAX density matrix=1.00D-06.
 Requested convergence on             energy=1.00D-06.
 No special actions if energy rises.
 Fock matrices will be formed incrementally for  20 cycles.

 Cycle   1  Pass 1  IDiag  1:
 FoFJK:  IHMeth= 1 ICntrl=       0 DoSepK=T KAlg= 0 I1Cent=           0 FoldK=F
 IRaf=         1 NMat=       1 IRICut=       1 DoRegI=T DoRafI=F ISym2E= 0 IDoP0=0 IntGTp=1.
 FoFCou: FMM=F IPFlag=           0 FMFlag=      100000 FMFlg1=           0
         NFxFlg=           0 DoJE=T BraDBF=F KetDBF=F FulRan=T
         wScrn=  0.000000 ICntrl=       500 IOpCl=  0 I1Cent=           0 NGrid=           0
         NMat0=    1 NMatS0=      1 NMatT0=    0 NMatD0=    1 NMtDS0=    0 NMtDT0=    0
 Symmetry not used in FoFCou.
 Inv3:  Mode=1 IEnd=    13483200.
 Iteration    1 A*A^-1 deviation from unit magnitude is 3.00D-15 for   1581.
 Iteration    1 A*A^-1 deviation from orthogonality  is 2.21D-15 for   1933     85.
 Iteration    1 A^-1*A deviation from unit magnitude is 3.22D-15 for   1422.
 Iteration    1 A^-1*A deviation from orthogonality  is 2.05D-15 for   1761    784.
 E= -633.114174476502    
 DIIS: error= 4.23D-02 at cycle   1 NSaved=   1.
 NSaved= 1 IEnMin= 1 EnMin= -633.114174476502     IErMin= 1 ErrMin= 4.23D-02
 ErrMax= 4.23D-02  0.00D+00 EMaxC= 1.00D-01 BMatC= 1.10D+00 BMatP= 1.10D+00
 IDIUse=3 WtCom= 5.77D-01 WtEn= 4.23D-01
 Coeff-Com:  0.100D+01
 Coeff-En:   0.100D+01
 Coeff:      0.100D+01
 Gap=     0.220 Goal=   None    Shift=    0.000
 GapD=    0.220 DampG=1.000 DampE=0.500 DampFc=0.5000 IDamp=-1.
 Damping current iteration by 5.00D-01
 RMSDP=3.94D-03 MaxDP=1.79D-01              OVMax= 1.54D-01

 Cycle   2  Pass 1  IDiag  1:
 RMSU=  1.70D-03    CP:  9.31D-01
 E= -633.211514749491     Delta-E=       -0.097340272989 Rises=F Damp=T
 DIIS: error= 1.93D-02 at cycle   2 NSaved=   2.
 NSaved= 2 IEnMin= 2 EnMin= -633.211514749491     IErMin= 2 ErrMin= 1.93D-02
 ErrMax= 1.93D-02  0.00D+00 EMaxC= 1.00D-01 BMatC= 2.24D-01 BMatP= 1.10D+00
 IDIUse=3 WtCom= 8.07D-01 WtEn= 1.93D-01
 Coeff-Com: -0.589D+00 0.159D+01
 Coeff-En:   0.000D+00 0.100D+01
 Coeff:     -0.475D+00 0.148D+01
 Gap=     0.233 Goal=   None    Shift=    0.000
 RMSDP=1.62D-03 MaxDP=5.19D-02 DE=-9.73D-02 OVMax= 1.42D-01

 Cycle   3  Pass 1  IDiag  1:
 RMSU=  1.54D-03    CP:  9.07D-01  1.23D+00
 E= -633.261310837787     Delta-E=       -0.049796088296 Rises=F Damp=F
 DIIS: error= 1.63D-02 at cycle   3 NSaved=   3.
 NSaved= 3 IEnMin= 3 EnMin= -633.261310837787     IErMin= 3 ErrMin= 1.63D-02
 ErrMax= 1.63D-02  0.00D+00 EMaxC= 1.00D-01 BMatC= 6.45D-02 BMatP= 2.24D-01
 IDIUse=3 WtCom= 8.37D-01 WtEn= 1.63D-01
 Coeff-Com: -0.362D+00 0.795D+00 0.567D+00
 Coeff-En:   0.000D+00 0.000D+00 0.100D+01
 Coeff:     -0.303D+00 0.665D+00 0.638D+00
 Gap=     0.233 Goal=   None    Shift=    0.000
 RMSDP=1.52D-03 MaxDP=8.22D-02 DE=-4.98D-02 OVMax= 8.39D-02

 Cycle   4  Pass 1  IDiag  1:
 RMSU=  5.69D-04    CP:  8.53D-01  1.74D+00  4.88D-01
 E= -633.308625444923     Delta-E=       -0.047314607136 Rises=F Damp=F
 DIIS: error= 5.46D-03 at cycle   4 NSaved=   4.
 NSaved= 4 IEnMin= 4 EnMin= -633.308625444923     IErMin= 4 ErrMin= 5.46D-03
 ErrMax= 5.46D-03  0.00D+00 EMaxC= 1.00D-01 BMatC= 9.07D-03 BMatP= 6.45D-02
 IDIUse=3 WtCom= 9.45D-01 WtEn= 5.46D-02
 Coeff-Com: -0.163D+00 0.354D+00 0.376D+00 0.434D+00
 Coeff-En:   0.000D+00 0.000D+00 0.725D-01 0.927D+00
 Coeff:     -0.154D+00 0.334D+00 0.359D+00 0.461D+00
 Gap=     0.227 Goal=   None    Shift=    0.000
 RMSDP=4.28D-04 MaxDP=2.43D-02 DE=-4.73D-02 OVMax= 2.02D-02

 Cycle   5  Pass 1  IDiag  1:
 RMSU=  1.01D-04    CP:  8.68D-01  1.65D+00  6.52D-01  6.42D-01
 E= -633.315697960653     Delta-E=       -0.007072515729 Rises=F Damp=F
 DIIS: error= 5.62D-04 at cycle   5 NSaved=   5.
 NSaved= 5 IEnMin= 5 EnMin= -633.315697960653     IErMin= 5 ErrMin= 5.62D-04
 ErrMax= 5.62D-04  0.00D+00 EMaxC= 1.00D-01 BMatC= 9.63D-05 BMatP= 9.07D-03
 IDIUse=3 WtCom= 9.94D-01 WtEn= 5.62D-03
 Coeff-Com: -0.315D-01 0.676D-01 0.882D-01 0.164D+00 0.712D+00
 Coeff-En:   0.000D+00 0.000D+00 0.000D+00 0.000D+00 0.100D+01
 Coeff:     -0.313D-01 0.672D-01 0.877D-01 0.163D+00 0.714D+00
 Gap=     0.227 Goal=   None    Shift=    0.000
 RMSDP=1.57D-04 MaxDP=1.11D-02 DE=-7.07D-03 OVMax= 2.64D-03

 Cycle   6  Pass 1  IDiag  1:
 RMSU=  5.79D-05    CP:  8.61D-01  1.68D+00  6.44D-01  7.96D-01  1.04D+00
 E= -633.315755559231     Delta-E=       -0.000057598579 Rises=F Damp=F
 DIIS: error= 5.07D-04 at cycle   6 NSaved=   6.
 NSaved= 6 IEnMin= 6 EnMin= -633.315755559231     IErMin= 6 ErrMin= 5.07D-04
 ErrMax= 5.07D-04  0.00D+00 EMaxC= 1.00D-01 BMatC= 3.10D-05 BMatP= 9.63D-05
 IDIUse=3 WtCom= 9.95D-01 WtEn= 5.07D-03
 Coeff-Com:  0.177D-01-0.386D-01-0.306D-01-0.322D-02 0.434D+00 0.621D+00
 Coeff-En:   0.000D+00 0.000D+00 0.000D+00 0.000D+00 0.150D+00 0.850D+00
 Coeff:      0.176D-01-0.384D-01-0.304D-01-0.320D-02 0.432D+00 0.622D+00
 Gap=     0.228 Goal=   None    Shift=    0.000
 RMSDP=2.91D-05 MaxDP=2.08D-03 DE=-5.76D-05 OVMax= 3.13D-03

 Cycle   7  Pass 1  IDiag  1:
 RMSU=  1.87D-05    CP:  8.61D-01  1.68D+00  6.50D-01  7.85D-01  1.14D+00
                    CP:  7.63D-01
 E= -633.315783708208     Delta-E=       -0.000028148977 Rises=F Damp=F
 DIIS: error= 5.61D-05 at cycle   7 NSaved=   7.
 NSaved= 7 IEnMin= 7 EnMin= -633.315783708208     IErMin= 7 ErrMin= 5.61D-05
 ErrMax= 5.61D-05  0.00D+00 EMaxC= 1.00D-01 BMatC= 1.11D-06 BMatP= 3.10D-05
 IDIUse=1 WtCom= 1.00D+00 WtEn= 0.00D+00
 Coeff-Com:  0.469D-02-0.101D-01-0.938D-02-0.107D-01 0.219D-01 0.170D+00
 Coeff-Com:  0.834D+00
 Coeff:      0.469D-02-0.101D-01-0.938D-02-0.107D-01 0.219D-01 0.170D+00
 Coeff:      0.834D+00
 Gap=     0.228 Goal=   None    Shift=    0.000
 RMSDP=1.83D-05 MaxDP=1.05D-03 DE=-2.81D-05 OVMax= 6.32D-04

 Cycle   8  Pass 1  IDiag  1:
 RMSU=  6.26D-06    CP:  8.60D-01  1.68D+00  6.50D-01  8.03D-01  1.18D+00
                    CP:  8.91D-01  9.45D-01
 E= -633.315785225296     Delta-E=       -0.000001517088 Rises=F Damp=F
 DIIS: error= 2.33D-05 at cycle   8 NSaved=   8.
 NSaved= 8 IEnMin= 8 EnMin= -633.315785225296     IErMin= 8 ErrMin= 2.33D-05
 ErrMax= 2.33D-05  0.00D+00 EMaxC= 1.00D-01 BMatC= 1.98D-07 BMatP= 1.11D-06
 IDIUse=1 WtCom= 1.00D+00 WtEn= 0.00D+00
 Coeff-Com: -0.217D-03 0.536D-03-0.267D-03-0.575D-02-0.618D-01-0.471D-02
 Coeff-Com:  0.348D+00 0.725D+00
 Coeff:     -0.217D-03 0.536D-03-0.267D-03-0.575D-02-0.618D-01-0.471D-02
 Coeff:      0.348D+00 0.725D+00
 Gap=     0.228 Goal=   None    Shift=    0.000
 RMSDP=6.46D-06 MaxDP=3.84D-04 DE=-1.52D-06 OVMax= 4.06D-04

 Cycle   9  Pass 1  IDiag  1:
 RMSU=  2.54D-06    CP:  8.60D-01  1.69D+00  6.51D-01  8.09D-01  1.20D+00
                    CP:  9.18D-01  1.06D+00  1.04D+00
 E= -633.315785500583     Delta-E=       -0.000000275287 Rises=F Damp=F
 DIIS: error= 9.91D-06 at cycle   9 NSaved=   9.
 NSaved= 9 IEnMin= 9 EnMin= -633.315785500583     IErMin= 9 ErrMin= 9.91D-06
 ErrMax= 9.91D-06  0.00D+00 EMaxC= 1.00D-01 BMatC= 3.57D-08 BMatP= 1.98D-07
 IDIUse=1 WtCom= 1.00D+00 WtEn= 0.00D+00
 Coeff-Com: -0.872D-03 0.191D-02 0.153D-02-0.757D-03-0.308D-01-0.223D-01
 Coeff-Com:  0.977D-02 0.331D+00 0.710D+00
 Coeff:     -0.872D-03 0.191D-02 0.153D-02-0.757D-03-0.308D-01-0.223D-01
 Coeff:      0.977D-02 0.331D+00 0.710D+00
 Gap=     0.228 Goal=   None    Shift=    0.000
 RMSDP=2.46D-06 MaxDP=1.47D-04 DE=-2.75D-07 OVMax= 1.56D-04

 Cycle  10  Pass 1  IDiag  1:
 RMSU=  1.01D-06    CP:  8.60D-01  1.69D+00  6.50D-01  8.10D-01  1.20D+00
                    CP:  9.40D-01  1.06D+00  1.20D+00  7.78D-01
 E= -633.315785541335     Delta-E=       -0.000000040752 Rises=F Damp=F
 DIIS: error= 4.43D-06 at cycle  10 NSaved=  10.
 NSaved=10 IEnMin=10 EnMin= -633.315785541335     IErMin=10 ErrMin= 4.43D-06
 ErrMax= 4.43D-06  0.00D+00 EMaxC= 1.00D-01 BMatC= 6.75D-09 BMatP= 3.57D-08
 IDIUse=1 WtCom= 1.00D+00 WtEn= 0.00D+00
 Coeff-Com: -0.500D-03 0.109D-02 0.100D-02 0.431D-03-0.919D-02-0.109D-01
 Coeff-Com: -0.471D-01 0.818D-01 0.379D+00 0.604D+00
 Coeff:     -0.500D-03 0.109D-02 0.100D-02 0.431D-03-0.919D-02-0.109D-01
 Coeff:     -0.471D-01 0.818D-01 0.379D+00 0.604D+00
 Gap=     0.228 Goal=   None    Shift=    0.000
 RMSDP=8.46D-07 MaxDP=5.77D-05 DE=-4.08D-08 OVMax= 4.45D-05

 Cycle  11  Pass 1  IDiag  1:
 RMSU=  2.84D-07    CP:  8.60D-01  1.69D+00  6.50D-01  8.11D-01  1.20D+00
                    CP:  9.44D-01  1.07D+00  1.22D+00  9.14D-01  1.03D+00
 E= -633.315785548689     Delta-E=       -0.000000007354 Rises=F Damp=F
 DIIS: error= 1.52D-06 at cycle  11 NSaved=  11.
 NSaved=11 IEnMin=11 EnMin= -633.315785548689     IErMin=11 ErrMin= 1.52D-06
 ErrMax= 1.52D-06  0.00D+00 EMaxC= 1.00D-01 BMatC= 4.49D-10 BMatP= 6.75D-09
 IDIUse=1 WtCom= 1.00D+00 WtEn= 0.00D+00
 Coeff-Com:  0.280D-04-0.641D-04-0.165D-04 0.167D-03 0.244D-02 0.176D-02
 Coeff-Com: -0.168D-01-0.297D-01-0.142D-01 0.182D+00 0.875D+00
 Coeff:      0.280D-04-0.641D-04-0.165D-04 0.167D-03 0.244D-02 0.176D-02
 Coeff:     -0.168D-01-0.297D-01-0.142D-01 0.182D+00 0.875D+00
 Gap=     0.228 Goal=   None    Shift=    0.000
 RMSDP=3.65D-07 MaxDP=2.50D-05 DE=-7.35D-09 OVMax= 2.67D-05

 Cycle  12  Pass 1  IDiag  1:
 RMSU=  1.43D-07    CP:  8.60D-01  1.69D+00  6.50D-01  8.11D-01  1.20D+00
                    CP:  9.46D-01  1.07D+00  1.25D+00  8.95D-01  1.13D+00
                    CP:  1.05D+00
 E= -633.315785549578     Delta-E=       -0.000000000889 Rises=F Damp=F
 DIIS: error= 7.33D-07 at cycle  12 NSaved=  12.
 NSaved=12 IEnMin=12 EnMin= -633.315785549578     IErMin=12 ErrMin= 7.33D-07
 ErrMax= 7.33D-07  0.00D+00 EMaxC= 1.00D-01 BMatC= 5.20D-11 BMatP= 4.49D-10
 IDIUse=1 WtCom= 1.00D+00 WtEn= 0.00D+00
 Coeff-Com:  0.404D-04-0.889D-04-0.658D-04 0.428D-04 0.153D-02 0.140D-02
 Coeff-Com: -0.277D-02-0.151D-01-0.380D-01 0.142D-01 0.306D+00 0.733D+00
 Coeff:      0.404D-04-0.889D-04-0.658D-04 0.428D-04 0.153D-02 0.140D-02
 Coeff:     -0.277D-02-0.151D-01-0.380D-01 0.142D-01 0.306D+00 0.733D+00
 Gap=     0.228 Goal=   None    Shift=    0.000
 RMSDP=8.93D-08 MaxDP=6.22D-06 DE=-8.89D-10 OVMax= 8.26D-06

 Cycle  13  Pass 1  IDiag  1:
 RMSU=  3.68D-08    CP:  8.60D-01  1.69D+00  6.50D-01  8.11D-01  1.20D+00
                    CP:  9.47D-01  1.07D+00  1.25D+00  8.92D-01  1.17D+00
                    CP:  1.13D+00  1.12D+00
 E= -633.315785549696     Delta-E=       -0.000000000118 Rises=F Damp=F
 DIIS: error= 3.81D-07 at cycle  13 NSaved=  13.
 NSaved=13 IEnMin=13 EnMin= -633.315785549696     IErMin=13 ErrMin= 3.81D-07
 ErrMax= 3.81D-07  0.00D+00 EMaxC= 1.00D-01 BMatC= 8.08D-12 BMatP= 5.20D-11
 IDIUse=1 WtCom= 1.00D+00 WtEn= 0.00D+00
 Coeff-Com:  0.497D-05-0.102D-04-0.161D-04-0.291D-04-0.176D-03-0.512D-04
 Coeff-Com:  0.303D-02 0.422D-02-0.805D-02-0.351D-01-0.124D+00 0.155D+00
 Coeff-Com:  0.101D+01
 Coeff:      0.497D-05-0.102D-04-0.161D-04-0.291D-04-0.176D-03-0.512D-04
 Coeff:      0.303D-02 0.422D-02-0.805D-02-0.351D-01-0.124D+00 0.155D+00
 Coeff:      0.101D+01
 Gap=     0.228 Goal=   None    Shift=    0.000
 RMSDP=6.91D-08 MaxDP=2.50D-06 DE=-1.18D-10 OVMax= 6.22D-06

 Cycle  14  Pass 1  IDiag  1:
 RMSU=  1.95D-08    CP:  8.60D-01  1.69D+00  6.50D-01  8.11D-01  1.20D+00
                    CP:  9.47D-01  1.07D+00  1.26D+00  8.79D-01  1.20D+00
                    CP:  1.17D+00  1.34D+00  1.30D+00
 E= -633.315785549730     Delta-E=       -0.000000000034 Rises=F Damp=F
 DIIS: error= 1.36D-07 at cycle  14 NSaved=  14.
 NSaved=14 IEnMin=14 EnMin= -633.315785549730     IErMin=14 ErrMin= 1.36D-07
 ErrMax= 1.36D-07  0.00D+00 EMaxC= 1.00D-01 BMatC= 7.54D-13 BMatP= 8.08D-12
 IDIUse=1 WtCom= 1.00D+00 WtEn= 0.00D+00
 Coeff-Com: -0.371D-05 0.828D-05 0.524D-05-0.758D-05-0.189D-03-0.153D-03
 Coeff-Com:  0.601D-03 0.225D-02 0.344D-02-0.248D-02-0.494D-01-0.797D-01
 Coeff-Com:  0.404D-01 0.109D+01
 Coeff:     -0.371D-05 0.828D-05 0.524D-05-0.758D-05-0.189D-03-0.153D-03
 Coeff:      0.601D-03 0.225D-02 0.344D-02-0.248D-02-0.494D-01-0.797D-01
 Coeff:      0.404D-01 0.109D+01
 Gap=     0.228 Goal=   None    Shift=    0.000
 RMSDP=2.52D-08 MaxDP=1.10D-06 DE=-3.43D-11 OVMax= 2.56D-06

 Cycle  15  Pass 1  IDiag  1:
 RMSU=  6.22D-09    CP:  8.60D-01  1.69D+00  6.50D-01  8.11D-01  1.20D+00
                    CP:  9.47D-01  1.07D+00  1.26D+00  8.75D-01  1.20D+00
                    CP:  1.18D+00  1.41D+00  1.52D+00  1.32D+00
 E= -633.315785549730     Delta-E=       -0.000000000000 Rises=F Damp=F
 DIIS: error= 2.75D-08 at cycle  15 NSaved=  15.
 NSaved=15 IEnMin=15 EnMin= -633.315785549730     IErMin=15 ErrMin= 2.75D-08
 ErrMax= 2.75D-08  0.00D+00 EMaxC= 1.00D-01 BMatC= 1.57D-13 BMatP= 7.54D-13
 IDIUse=1 WtCom= 1.00D+00 WtEn= 0.00D+00
 Coeff-Com: -0.191D-05 0.412D-05 0.372D-05 0.717D-06-0.462D-04-0.566D-04
 Coeff-Com: -0.159D-03 0.190D-03 0.201D-02 0.383D-02-0.291D-02-0.418D-01
 Coeff-Com: -0.108D+00 0.376D+00 0.772D+00
 Coeff:     -0.191D-05 0.412D-05 0.372D-05 0.717D-06-0.462D-04-0.566D-04
 Coeff:     -0.159D-03 0.190D-03 0.201D-02 0.383D-02-0.291D-02-0.418D-01
 Coeff:     -0.108D+00 0.376D+00 0.772D+00
 Gap=     0.228 Goal=   None    Shift=    0.000
 RMSDP=5.60D-09 MaxDP=2.50D-07 DE=-3.41D-13 OVMax= 5.89D-07

 Error on total polarization charges =  0.01466
 SCF Done:  E(RCAM-B3LYP) =  -633.315785550     A.U. after   15 cycles
            NFock= 15  Conv=0.56D-08     -V/T= 2.0042
 KE= 6.306665962320D+02 PE=-3.274213539497D+03 EE= 1.111113327657D+03
 Leave Link  502 at Fri Jan 23 15:31:22 2026, MaxMem=  2147483648 cpu:             933.2 elap:              58.8
 (Enter /data/home/wyx/g16/l801.exe)
 DoSCS=F DFT=T ScalE2(SS,OS)=  1.000000  1.000000
 ExpMin= 9.52D-02 ExpMax= 2.70D+04 ExpMxC= 9.22D+02 IAcc=3 IRadAn=         5 AccDes= 0.00D+00
 HarFok:  IExCor=  205 AccDes= 0.00D+00 IRadAn=         5 IDoV=-2 UseB2=F ITyADJ=14
 ICtDFT= 12500011 ScaDFX=  1.000000  1.000000  1.000000  1.000000
 Largest valence mixing into a core orbital is  5.63D-05
 Largest core mixing into a valence orbital is  1.05D-05
 Range of M.O.s used for correlation:    15   356
 NBasis=   356 NAE=    52 NBE=    52 NFC=    14 NFV=     0
 NROrb=    342 NOA=    38 NOB=    38 NVA=   304 NVB=   304

 **** Warning!!: The largest alpha MO coefficient is  0.43803060D+02

 Leave Link  801 at Fri Jan 23 15:31:22 2026, MaxMem=  2147483648 cpu:               1.0 elap:               0.1
 (Enter /data/home/wyx/g16/l914.exe)
 RHF ground state
 Two-electron integrals replicated using symmetry.
 MDV=  2147483648 DFT=T DoStab=F Mixed=T DoRPA=T DoScal=F NonHer=T
 NEqPCM:  Using non-equilibrium solvation (IEInf=1, Eps=   7.4257, EpsInf=   1.9740)
 Inv3:  Mode=1 IEnd=    13483200.
 Iteration    1 A*A^-1 deviation from unit magnitude is 3.11D-15 for   1260.
 Iteration    1 A*A^-1 deviation from orthogonality  is 1.96D-15 for   1817    202.
 Iteration    1 A^-1*A deviation from unit magnitude is 2.89D-15 for   1948.
 Iteration    1 A^-1*A deviation from orthogonality  is 1.63D-15 for   1844    639.
 Making orbital integer symmetry assigments:
 Orbital symmetries:
       Occupied  (A) (A) (A) (A) (A) (A) (A) (A) (A) (A) (A) (A)
                 (A) (A) (A) (A) (A) (A) (A) (A) (A) (A) (A) (A)
                 (A) (A) (A) (A) (A) (A) (A) (A) (A) (A) (A) (A)
                 (A) (A) (A) (A) (A) (A) (A) (A) (A) (A) (A) (A)
                 (A) (A) (A) (A)
       Virtual   (A) (A) (A) (A) (A) (A) (A) (A) (A) (A) (A) (A)
                 (A) (A) (A) (A) (A) (A) (A) (A) (A) (A) (A) (A)
                 (A) (A) (A) (A) (A) (A) (A) (A) (A) (A) (A) (A)
                 (A) (A) (A) (A) (A) (A) (A) (A) (A) (A) (A) (A)
                 (A) (A) (A) (A) (A) (A) (A) (A) (A) (A) (A) (A)
                 (A) (A) (A) (A) (A) (A) (A) (A) (A) (A) (A) (A)
                 (A) (A) (A) (A) (A) (A) (A) (A) (A) (A) (A) (A)
                 (A) (A) (A) (A) (A) (A) (A) (A) (A) (A) (A) (A)
                 (A) (A) (A) (A) (A) (A) (A) (A) (A) (A) (A) (A)
                 (A) (A) (A) (A) (A) (A) (A) (A) (A) (A) (A) (A)
                 (A) (A) (A) (A) (A) (A) (A) (A) (A) (A) (A) (A)
                 (A) (A) (A) (A) (A) (A) (A) (A) (A) (A) (A) (A)
                 (A) (A) (A) (A) (A) (A) (A) (A) (A) (A) (A) (A)
                 (A) (A) (A) (A) (A) (A) (A) (A) (A) (A) (A) (A)
                 (A) (A) (A) (A) (A) (A) (A) (A) (A) (A) (A) (A)
                 (A) (A) (A) (A) (A) (A) (A) (A) (A) (A) (A) (A)
                 (A) (A) (A) (A) (A) (A) (A) (A) (A) (A) (A) (A)
                 (A) (A) (A) (A) (A) (A) (A) (A) (A) (A) (A) (A)
                 (A) (A) (A) (A) (A) (A) (A) (A) (A) (A) (A) (A)
                 (A) (A) (A) (A) (A) (A) (A) (A) (A) (A) (A) (A)
                 (A) (A) (A) (A) (A) (A) (A) (A) (A) (A) (A) (A)
                 (A) (A) (A) (A) (A) (A) (A) (A) (A) (A) (A) (A)
                 (A) (A) (A) (A) (A) (A) (A) (A) (A) (A) (A) (A)
                 (A) (A) (A) (A) (A) (A) (A) (A) (A) (A) (A) (A)
                 (A) (A) (A) (A) (A) (A) (A) (A) (A) (A) (A) (A)
                 (A) (A) (A) (A)
    24 initial guesses have been made.
 Convergence on wavefunction:    0.001000000000000
 Davidson Disk Diagonalization:  ConvIn= 1.00D-03 SkipCon=T Conv= 1.00D-03.
 Max sub-space:  2000 roots to seek:    24 dimension of matrix:        23104
 Iteration     1 Dimension    24 NMult     0 NNew     24
 CISAX will form    24 AO SS matrices at one time.
 NMat=    24 NSing=    24 JSym2X= 0.
 FoFJK:  IHMeth= 1 ICntrl=       0 DoSepK=T KAlg= 0 I1Cent=           0 FoldK=F
 IRaf=         1 NMat=      48 IRICut=       1 DoRegI=T DoRafI=F ISym2E= 0 IDoP0=3 IntGTp=3.
 New state      1 was old state      2
 New state      2 was old state      1
 New state      3 was old state      4
 New state      4 was old state      3
 New state      5 was old state      6
 New state      6 was old state      5
 Excitation Energies [eV] at current iteration:
 Root      1 :     3.661716117913870
 Root      2 :     3.742116200500911
 Root      3 :     4.449838417901432
 Root      4 :     5.478379844792152
 Root      5 :     6.219452803976168
 Root      6 :     6.364118568678757
 Root      7 :     6.585247254922578
 Root      8 :     6.678566728101796
 Root      9 :     6.819220792205453
 Root     10 :     7.116601264717818
 Root     11 :     7.187679150724578
 Root     12 :     7.322562770215129
 Root     13 :     7.488752885821812
 Root     14 :     7.697468460686507
 Root     15 :     7.703730692214401
 Root     16 :     7.789529200717496
 Root     17 :     8.205977526523036
 Root     18 :     8.261481794393930
 Root     19 :     8.338034769644484
 Root     20 :     8.381339521677155
 Root     21 :     8.578488833781243
 Root     22 :     8.611246583607262
 Root     23 :     8.754643490458353
 Root     24 :     9.014301334791009
 Iteration     2 Dimension    36 NMult    24 NNew     12
 CISAX will form    12 AO SS matrices at one time.
 NMat=    12 NSing=    12 JSym2X= 0.
 New state      1 was old state      2
 Root      1 not converged, maximum delta is    0.356603824685581
 New state      2 was old state      1
 Root      2 not converged, maximum delta is    0.359704652371228
 Root      3 not converged, maximum delta is    0.095849583546659
 Root      4 not converged, maximum delta is    0.322160626220805
 New state      5 was old state      6
 Root      5 not converged, maximum delta is    0.299373523076202
 New state      6 was old state      5
 Root      6 not converged, maximum delta is    0.058956131548088
 Excitation Energies [eV] at current iteration:
 Root      1 :     3.280758665684645   Change is   -0.461357534816266
 Root      2 :     3.471074631307633   Change is   -0.190641486606237
 Root      3 :     4.211428078392155   Change is   -0.238410339509277
 Root      4 :     5.139571466633019   Change is   -0.338808378159133
 Root      5 :     5.507598549955941   Change is   -0.856520018722816
 Root      6 :     6.105043074220990   Change is   -0.114409729755178
 Iteration     3 Dimension    48 NMult    36 NNew     12
 CISAX will form    12 AO SS matrices at one time.
 NMat=    12 NSing=    12 JSym2X= 0.
 Root      1 not converged, maximum delta is    0.009107108771179
 Root      2 not converged, maximum delta is    0.011087856286092
 Root      3 not converged, maximum delta is    0.018611523644100
 Root      4 not converged, maximum delta is    0.030599678908854
 Root      5 not converged, maximum delta is    0.029912048657382
 Root      6 not converged, maximum delta is    0.008845363745044
 Excitation Energies [eV] at current iteration:
 Root      1 :     3.263848807920736   Change is   -0.016909857763909
 Root      2 :     3.462160010370714   Change is   -0.008914620936919
 Root      3 :     4.198736397921357   Change is   -0.012691680470798
 Root      4 :     5.115489354038306   Change is   -0.024082112594713
 Root      5 :     5.480474371487715   Change is   -0.027124178468225
 Root      6 :     6.100362171742865   Change is   -0.004680902478125
 Iteration     4 Dimension    60 NMult    48 NNew     12
 CISAX will form    12 AO SS matrices at one time.
 NMat=    12 NSing=    12 JSym2X= 0.
 Root      1 not converged, maximum delta is    0.002494146556222
 Root      2 not converged, maximum delta is    0.001900269151838
 Root      3 not converged, maximum delta is    0.001940351118492
 Root      4 not converged, maximum delta is    0.004089063969686
 Root      5 not converged, maximum delta is    0.005243736854807
 Root      6 not converged, maximum delta is    0.001873275473262
 Excitation Energies [eV] at current iteration:
 Root      1 :     3.262420874494252   Change is   -0.001427933426483
 Root      2 :     3.461606729998763   Change is   -0.000553280371951
 Root      3 :     4.198290717672466   Change is   -0.000445680248891
 Root      4 :     5.112656534071770   Change is   -0.002832819966536
 Root      5 :     5.476432191969453   Change is   -0.004042179518262
 Root      6 :     6.100116038709912   Change is   -0.000246133032953
 Iteration     5 Dimension    72 NMult    60 NNew     12
 CISAX will form    12 AO SS matrices at one time.
 NMat=    12 NSing=    12 JSym2X= 0.
 Root      1 has converged.
 Root      2 has converged.
 Root      3 has converged.
 Root      4 has converged.
 Root      5 not converged, maximum delta is    0.001164057731674
 Root      6 has converged.
 Excitation Energies [eV] at current iteration:
 Root      1 :     3.262340775095678   Change is   -0.000080099398574
 Root      2 :     3.461578292446882   Change is   -0.000028437551881
 Root      3 :     4.198271186535318   Change is   -0.000019531137148
 Root      4 :     5.112475106613810   Change is   -0.000181427457960
 Root      5 :     5.476148282941664   Change is   -0.000283909027789
 Root      6 :     6.100100882279169   Change is   -0.000015156430743
 Iteration     6 Dimension    74 NMult    72 NNew      2
 CISAX will form     2 AO SS matrices at one time.
 NMat=     2 NSing=     2 JSym2X= 0.
 Root      1 has converged.
 Root      2 has converged.
 Root      3 has converged.
 Root      4 has converged.
 Root      5 has converged.
 Root      6 has converged.
 Excitation Energies [eV] at current iteration:
 Root      1 :     3.262340293586893   Change is   -0.000000481508786
 Root      2 :     3.461578267746237   Change is   -0.000000024700645
 Root      3 :     4.198271121283821   Change is   -0.000000065251497
 Root      4 :     5.112466441866125   Change is   -0.000008664747686
 Root      5 :     5.476126737356610   Change is   -0.000021545585054
 Root      6 :     6.100100817807427   Change is   -0.000000064471741
 Convergence achieved on expansion vectors.
 ***********************************************************************
 Excited states from <AA,BB:AA,BB> singles matrix:
 ***********************************************************************
 
 1PDM for each excited state written to RWF  633
 Ground to excited state transition densities written to RWF  633
 Ground to excited state transition electric dipole moments (Au):
       state          X           Y           Z        Dip. S.      Osc.
         1         1.5547     -0.0410      0.0010      2.4188      0.1933
         2         0.2335     -0.0292     -0.0383      0.0568      0.0048
         3        -0.0066     -0.0054      0.0352      0.0013      0.0001
         4        -0.0502      1.3585     -0.0169      1.8484      0.2315
         5         0.2931      1.3688      0.0004      1.9594      0.2629
         6        -0.0084      0.0425      0.0405      0.0035      0.0005
 Ground to excited state transition velocity dipole moments (Au):
       state          X           Y           Z        Dip. S.      Osc.
         1        -0.1816      0.0039     -0.0002      0.0330      0.1835
         2        -0.0296      0.0036      0.0034      0.0009      0.0047
         3         0.0006      0.0010     -0.0021      0.0000      0.0000
         4         0.0029     -0.2381      0.0025      0.0567      0.2012
         5        -0.0564     -0.2695     -0.0002      0.0758      0.2512
         6         0.0011     -0.0085     -0.0285      0.0009      0.0026
 Ground to excited state transition magnetic dipole moments (Au):
       state          X           Y           Z
         1         0.0780     -0.0293      1.4271
         2        -0.7280      0.2705      0.2824
         3        -0.0090      0.9335      0.0068
         4        -0.0168      0.0037     -0.4151
         5        -0.0522      0.0130     -0.3388
         6        -0.0551      0.0099     -0.0198
 Ground to excited state transition velocity quadrupole moments (Au):
       state          XX          YY          ZZ          XY          XZ          YZ
         1         0.3395     -0.1311     -0.0122      0.4719     -0.0044     -0.0001
         2         0.0586     -0.0043     -0.0016      0.0744     -0.0359     -0.0264
         3        -0.0108      0.0056     -0.0025     -0.0015     -0.0744      0.0046
         4         1.2554     -0.2421     -0.0320     -0.2377     -0.0047     -0.0008
         5         0.8712     -0.4632     -0.0359      0.0049      0.0063     -0.0274
         6        -0.0063     -0.0047      0.0079     -0.0129      0.0038      0.0268
 <0|del|b> * <b|rxdel|0> + <0|del|b> * <b|delr+rdel|0>
 Rotatory Strengths (R) in cgs (10**-40 erg-esu-cm/Gauss)
       state          XX          YY          ZZ    R(velocity)    E-M Angle
         1        -1.4323    -42.2932    -42.2261    -28.6506       93.22
         2         6.4908     64.1352     60.1890     43.6050       18.70
         3         2.2034     -0.0453      1.8796      1.3459       66.35
         4        -6.8528     -0.9385      0.3784     -2.4710       91.14
         5        -3.0177      8.0227     -6.6851     -0.5600       90.29
         6         1.3881      0.2610     -0.3193      0.4433       76.17
 1/2[<0|r|b>*<b|rxdel|0> + (<0|rxdel|b>*<b|r|0>)*]
 Rotatory Strengths (R) in cgs (10**-40 erg-esu-cm/Gauss)
       state          XX          YY          ZZ     R(length)
         1       -85.7491     -0.8484     -0.9839    -29.1938
         2       120.2228      5.5837      7.6451     44.4839
         3        -0.0419      3.5662     -0.1684      1.1186
         4        -0.5978     -3.5260     -4.9695     -3.0311
         5        10.8309    -12.5537      0.0913     -0.5438
         6        -0.3269     -0.2968      0.5669     -0.0189
  1/2[<0|del|b>*<b|r|0> + (<0|r|b>*<b|del|0>)*] (Au)
       state          X           Y           Z        Dip. S.   Osc.(frdel)
         1        -0.2824     -0.0002     -0.0000      0.2825      0.1884
         2        -0.0069     -0.0001     -0.0001      0.0072      0.0048
         3        -0.0000     -0.0000     -0.0001      0.0001      0.0001
         4        -0.0001     -0.3235     -0.0000      0.3237      0.2158
         5        -0.0165     -0.3689     -0.0000      0.3855      0.2570
         6        -0.0000     -0.0004     -0.0012      0.0015      0.0010

 Excitation energies and oscillator strengths:
 
 Excited State   1:      Singlet-A      3.2623 eV  380.05 nm  f=0.1933  <S**2>=0.000
      52 -> 53         0.69567
 This state for optimization and/or second-order correction.
 Total Energy, E(TD-HF/TD-DFT) =  -633.195896750    
 Copying the excited state density for this state as the 1-particle RhoCI density.
 
 Excited State   2:      Singlet-A      3.4616 eV  358.17 nm  f=0.0048  <S**2>=0.000
      51 -> 53         0.62189
      51 -> 54         0.28177
 
 Excited State   3:      Singlet-A      4.1983 eV  295.32 nm  f=0.0001  <S**2>=0.000
      50 -> 53         0.53255
      50 -> 54        -0.42100
      50 -> 58         0.12218
 
 Excited State   4:      Singlet-A      5.1125 eV  242.51 nm  f=0.2315  <S**2>=0.000
      52 -> 54         0.70003
 
 Excited State   5:      Singlet-A      5.4761 eV  226.41 nm  f=0.2629  <S**2>=0.000
      49 -> 53         0.69588
 
 Excited State   6:      Singlet-A      6.1001 eV  203.25 nm  f=0.0005  <S**2>=0.000
      52 -> 55         0.66306
      52 -> 57         0.14619
      52 -> 61        -0.10693
 SavETr:  write IOETrn=   770 NScale= 10 NData=  16 NLR=1 NState=    6 LETran=     118.
 Leave Link  914 at Fri Jan 23 15:33:30 2026, MaxMem=  2147483648 cpu:            2039.2 elap:             128.0
 (Enter /data/home/wyx/g16/l601.exe)
 Copying SCF densities to generalized density rwf, IOpCl= 0 IROHF=0.

 **********************************************************************

            Population analysis using the SCF density.

 **********************************************************************

 Orbital symmetries:
       Occupied  (A) (A) (A) (A) (A) (A) (A) (A) (A) (A) (A) (A)
                 (A) (A) (A) (A) (A) (A) (A) (A) (A) (A) (A) (A)
                 (A) (A) (A) (A) (A) (A) (A) (A) (A) (A) (A) (A)
                 (A) (A) (A) (A) (A) (A) (A) (A) (A) (A) (A) (A)
                 (A) (A) (A) (A)
       Virtual   (A) (A) (A) (A) (A) (A) (A) (A) (A) (A) (A) (A)
                 (A) (A) (A) (A) (A) (A) (A) (A) (A) (A) (A) (A)
                 (A) (A) (A) (A) (A) (A) (A) (A) (A) (A) (A) (A)
                 (A) (A) (A) (A) (A) (A) (A) (A) (A) (A) (A) (A)
                 (A) (A) (A) (A) (A) (A) (A) (A) (A) (A) (A) (A)
                 (A) (A) (A) (A) (A) (A) (A) (A) (A) (A) (A) (A)
                 (A) (A) (A) (A) (A) (A) (A) (A) (A) (A) (A) (A)
                 (A) (A) (A) (A) (A) (A) (A) (A) (A) (A) (A) (A)
                 (A) (A) (A) (A) (A) (A) (A) (A) (A) (A) (A) (A)
                 (A) (A) (A) (A) (A) (A) (A) (A) (A) (A) (A) (A)
                 (A) (A) (A) (A) (A) (A) (A) (A) (A) (A) (A) (A)
                 (A) (A) (A) (A) (A) (A) (A) (A) (A) (A) (A) (A)
                 (A) (A) (A) (A) (A) (A) (A) (A) (A) (A) (A) (A)
                 (A) (A) (A) (A) (A) (A) (A) (A) (A) (A) (A) (A)
                 (A) (A) (A) (A) (A) (A) (A) (A) (A) (A) (A) (A)
                 (A) (A) (A) (A) (A) (A) (A) (A) (A) (A) (A) (A)
                 (A) (A) (A) (A) (A) (A) (A) (A) (A) (A) (A) (A)
                 (A) (A) (A) (A) (A) (A) (A) (A) (A) (A) (A) (A)
                 (A) (A) (A) (A) (A) (A) (A) (A) (A) (A) (A) (A)
                 (A) (A) (A) (A) (A) (A) (A) (A) (A) (A) (A) (A)
                 (A) (A) (A) (A) (A) (A) (A) (A) (A) (A) (A) (A)
                 (A) (A) (A) (A) (A) (A) (A) (A) (A) (A) (A) (A)
                 (A) (A) (A) (A) (A) (A) (A) (A) (A) (A) (A) (A)
                 (A) (A) (A) (A) (A) (A) (A) (A) (A) (A) (A) (A)
                 (A) (A) (A) (A) (A) (A) (A) (A) (A) (A) (A) (A)
                 (A) (A) (A) (A)
 The electronic state is 1-A.
 Alpha  occ. eigenvalues --  -19.17692 -19.16407 -14.44580 -10.33219 -10.33173
 Alpha  occ. eigenvalues --  -10.32487 -10.32465 -10.26097 -10.25213 -10.25148
 Alpha  occ. eigenvalues --  -10.25020 -10.24349 -10.24065 -10.23767  -1.11711
 Alpha  occ. eigenvalues --   -1.08789  -1.07831  -0.91666  -0.90710  -0.83932
 Alpha  occ. eigenvalues --   -0.82573  -0.81545  -0.78820  -0.74458  -0.71767
 Alpha  occ. eigenvalues --   -0.69225  -0.62205  -0.58588  -0.57007  -0.55251
 Alpha  occ. eigenvalues --   -0.54870  -0.54162  -0.52437  -0.51898  -0.50681
 Alpha  occ. eigenvalues --   -0.49515  -0.49296  -0.49004  -0.48521  -0.48193
 Alpha  occ. eigenvalues --   -0.46655  -0.45297  -0.44602  -0.43881  -0.42945
 Alpha  occ. eigenvalues --   -0.42422  -0.41555  -0.40591  -0.33069  -0.32133
 Alpha  occ. eigenvalues --   -0.30564  -0.26257
 Alpha virt. eigenvalues --   -0.03483   0.02000   0.06294   0.08246   0.08480
 Alpha virt. eigenvalues --    0.09912   0.10802   0.11474   0.12701   0.13053
 Alpha virt. eigenvalues --    0.14448   0.15159   0.15557   0.16435   0.17083
 Alpha virt. eigenvalues --    0.17450   0.17545   0.17706   0.18820   0.19427
 Alpha virt. eigenvalues --    0.20015   0.20632   0.22714   0.23279   0.24263
 Alpha virt. eigenvalues --    0.24604   0.25107   0.25538   0.26241   0.26729
 Alpha virt. eigenvalues --    0.27067   0.27429   0.28839   0.29228   0.29876
 Alpha virt. eigenvalues --    0.30835   0.31083   0.33608   0.34427   0.34726
 Alpha virt. eigenvalues --    0.35471   0.35795   0.36585   0.37169   0.37432
 Alpha virt. eigenvalues --    0.40130   0.40941   0.41450   0.42781   0.42910
 Alpha virt. eigenvalues --    0.44524   0.45336   0.45623   0.46350   0.46375
 Alpha virt. eigenvalues --    0.47427   0.47767   0.48059   0.48662   0.48782
 Alpha virt. eigenvalues --    0.50056   0.50962   0.51138   0.51299   0.51740
 Alpha virt. eigenvalues --    0.52107   0.52841   0.53140   0.53630   0.53812
 Alpha virt. eigenvalues --    0.55122   0.55744   0.56246   0.57193   0.57719
 Alpha virt. eigenvalues --    0.58059   0.59030   0.61853   0.62506   0.63089
 Alpha virt. eigenvalues --    0.63727   0.64819   0.65733   0.66900   0.67782
 Alpha virt. eigenvalues --    0.68866   0.70151   0.71045   0.71775   0.72120
 Alpha virt. eigenvalues --    0.73552   0.75847   0.77754   0.78550   0.79894
 Alpha virt. eigenvalues --    0.82110   0.82971   0.84994   0.88712   0.91685
 Alpha virt. eigenvalues --    0.93642   0.96509   0.99790   1.03822   1.19094
 Alpha virt. eigenvalues --    1.21521   1.22321   1.24977   1.29852   1.30776
 Alpha virt. eigenvalues --    1.32161   1.33738   1.33969   1.35442   1.36517
 Alpha virt. eigenvalues --    1.37596   1.37939   1.39233   1.39507   1.39953
 Alpha virt. eigenvalues --    1.40214   1.40763   1.40919   1.41425   1.42114
 Alpha virt. eigenvalues --    1.42578   1.43496   1.44522   1.45045   1.45747
 Alpha virt. eigenvalues --    1.48494   1.49701   1.50733   1.50798   1.51375
 Alpha virt. eigenvalues --    1.52079   1.53212   1.55685   1.57347   1.58076
 Alpha virt. eigenvalues --    1.58369   1.59690   1.60216   1.61197   1.61985
 Alpha virt. eigenvalues --    1.62458   1.62792   1.63768   1.64158   1.64592
 Alpha virt. eigenvalues --    1.65176   1.65653   1.65754   1.66723   1.67661
 Alpha virt. eigenvalues --    1.68743   1.69300   1.70429   1.71726   1.72142
 Alpha virt. eigenvalues --    1.72865   1.74988   1.75378   1.76094   1.80674
 Alpha virt. eigenvalues --    1.81585   1.82852   1.83549   1.83939   1.85894
 Alpha virt. eigenvalues --    1.86176   1.86422   1.89563   1.90353   1.90979
 Alpha virt. eigenvalues --    1.91672   1.93244   1.96928   1.98109   2.01614
 Alpha virt. eigenvalues --    2.02420   2.05050   2.06056   2.07943   2.09481
 Alpha virt. eigenvalues --    2.10543   2.13678   2.15101   2.18244   2.19972
 Alpha virt. eigenvalues --    2.20229   2.23502   2.24996   2.25727   2.25990
 Alpha virt. eigenvalues --    2.26973   2.29247   2.30416   2.31792   2.33168
 Alpha virt. eigenvalues --    2.35437   2.35733   2.36606   2.38043   2.40091
 Alpha virt. eigenvalues --    2.40288   2.42100   2.43550   2.44576   2.46693
 Alpha virt. eigenvalues --    2.47155   2.47846   2.49286   2.50411   2.50777
 Alpha virt. eigenvalues --    2.52986   2.53801   2.55250   2.55906   2.56541
 Alpha virt. eigenvalues --    2.56852   2.59177   2.61385   2.62848   2.63843
 Alpha virt. eigenvalues --    2.64046   2.64873   2.65859   2.66551   2.67831
 Alpha virt. eigenvalues --    2.69346   2.71195   2.73400   2.74314   2.75341
 Alpha virt. eigenvalues --    2.76169   2.76861   2.77641   2.78288   2.79684
 Alpha virt. eigenvalues --    2.80794   2.81950   2.83553   2.84424   2.85166
 Alpha virt. eigenvalues --    2.85986   2.88692   2.89771   2.89999   2.93781
 Alpha virt. eigenvalues --    2.97054   2.99000   2.99237   3.04514   3.08782
 Alpha virt. eigenvalues --    3.10714   3.12128   3.14364   3.20004   3.21090
 Alpha virt. eigenvalues --    3.21696   3.22559   3.25322   3.25857   3.26338
 Alpha virt. eigenvalues --    3.31001   3.31625   3.34071   3.36423   3.38487
 Alpha virt. eigenvalues --    3.38888   3.39717   3.40394   3.40777   3.41365
 Alpha virt. eigenvalues --    3.41647   3.44216   3.45561   3.47351   3.49851
 Alpha virt. eigenvalues --    3.50883   3.54596   3.56511   3.59103   3.60838
 Alpha virt. eigenvalues --    3.64662   3.92896   4.00969   4.30477   4.37056
 Alpha virt. eigenvalues --   21.65038  21.77071  22.05950  22.10257  22.12666
 Alpha virt. eigenvalues --   22.13537  22.17199  22.20317  22.21496  22.28072
 Alpha virt. eigenvalues --   22.32035  31.92847  43.64946  43.67441
          Condensed to atoms (all electrons):
               1          2          3          4          5          6
     1  O    7.922476   0.000000  -0.000206   0.000017   0.016880   0.016283
     2  O    0.000000   8.090578   0.000657   0.000014  -0.179163   0.001855
     3  N   -0.000206   0.000657   6.342473   0.369294  -0.100657   0.385132
     4  H    0.000017   0.000014   0.369294   0.401209   0.011629  -0.039029
     5  C    0.016880  -0.179163  -0.100657   0.011629   7.175502  -0.038673
     6  C    0.016283   0.001855   0.385132  -0.039029  -0.038673   5.517293
     7  C    0.000212  -0.009205   0.356305  -0.045040   0.365911  -0.167135
     8  C   -0.000345   0.608337   0.004108  -0.001252  -0.475420   0.048720
     9  C    0.006636   0.026126   0.023043   0.001213  -0.696718  -0.072169
    10  H    0.007490  -0.000219  -0.000031  -0.000002  -0.093372   0.006851
    11  H    0.005905  -0.000099   0.000682   0.000017  -0.080668   0.014663
    12  C   -0.254298  -0.004337  -0.104003   0.019534   0.217199  -0.092737
    13  C    0.751008   0.000004  -0.000884   0.000545   0.064550   0.077918
    14  C   -0.000013  -0.073056  -0.049043   0.001229   0.002890  -0.002790
    15  H    0.000000   0.004560   0.003361  -0.000276   0.002908   0.004273
    16  H    0.000000   0.033616   0.003406   0.000728   0.011257  -0.000259
    17  H    0.000000   0.001884  -0.002542   0.000404  -0.017059   0.000136
    18  C   -0.000335  -0.087549  -0.000304   0.000014  -0.131389  -0.002401
    19  H    0.000004   0.000361   0.000010  -0.000001   0.003248   0.000050
    20  H    0.000937   0.007315   0.000071   0.000001   0.079252  -0.001412
    21  H    0.000007  -0.001752   0.000011  -0.000001  -0.010513   0.000083
    22  C   -0.129869   0.000000  -0.000038   0.000118   0.000034  -0.004536
    23  H    0.003299   0.000000   0.000145  -0.000037  -0.000251  -0.008775
    24  H    0.003122   0.000000   0.000165  -0.000021  -0.000157  -0.000270
    25  H    0.011244  -0.000000   0.000011  -0.000003  -0.000025  -0.002448
    26  C    0.000777   0.000011  -0.026568  -0.012475   0.002462   0.243248
    27  H   -0.000063  -0.000000  -0.002038   0.000785   0.000480  -0.038758
    28  H   -0.000030  -0.000000  -0.002284   0.000695   0.000426  -0.043199
    29  H    0.000013   0.000000   0.005012   0.002716  -0.000438  -0.052301
               7          8          9         10         11         12
     1  O    0.000212  -0.000345   0.006636   0.007490   0.005905  -0.254298
     2  O   -0.009205   0.608337   0.026126  -0.000219  -0.000099  -0.004337
     3  N    0.356305   0.004108   0.023043  -0.000031   0.000682  -0.104003
     4  H   -0.045040  -0.001252   0.001213  -0.000002   0.000017   0.019534
     5  C    0.365911  -0.475420  -0.696718  -0.093372  -0.080668   0.217199
     6  C   -0.167135   0.048720  -0.072169   0.006851   0.014663  -0.092737
     7  C    5.533324  -0.269983  -0.270313   0.008657   0.003734   0.060962
     8  C   -0.269983   5.735148   0.244770  -0.006107   0.002557  -0.099069
     9  C   -0.270313   0.244770   6.430774   0.505403   0.464150  -0.180092
    10  H    0.008657  -0.006107   0.505403   0.525968  -0.040622  -0.065469
    11  H    0.003734   0.002557   0.464150  -0.040622   0.538721  -0.049737
    12  C    0.060962  -0.099069  -0.180092  -0.065469  -0.049737   7.524648
    13  C    0.028274  -0.010541  -0.193645  -0.006865  -0.007730  -0.490847
    14  C    0.210787  -0.084723   0.017577   0.000154  -0.000628   0.006275
    15  H   -0.060928   0.006881  -0.000253  -0.000023   0.000089  -0.001322
    16  H   -0.054873  -0.024868   0.002560  -0.000053   0.000037  -0.000438
    17  H   -0.018797   0.006179  -0.000823   0.000082  -0.000022  -0.000153
    18  C    0.023089   0.286935  -0.019442  -0.004737  -0.012370   0.012411
    19  H   -0.000732  -0.027441  -0.001840   0.000365   0.000470  -0.000168
    20  H    0.005985  -0.136476  -0.017025  -0.006040  -0.001408   0.005798
    21  H   -0.000928  -0.013492  -0.001747   0.000408   0.000440  -0.000754
    22  C    0.001357  -0.000049   0.020656   0.001121   0.000552  -0.346128
    23  H   -0.000065   0.000004  -0.000720  -0.000153   0.000116   0.031757
    24  H   -0.000027   0.000002  -0.001122   0.000128  -0.000136   0.019310
    25  H    0.000011  -0.000002  -0.000011  -0.000084  -0.000030   0.027999
    26  C    0.005875   0.000915   0.015800  -0.000049  -0.000153  -0.103608
    27  H   -0.001405  -0.000004   0.000070   0.000008   0.000004  -0.001662
    28  H   -0.001194  -0.000006  -0.000515  -0.000001   0.000026  -0.008941
    29  H    0.003804   0.000025  -0.000667   0.000015   0.000002   0.021450
              13         14         15         16         17         18
     1  O    0.751008  -0.000013   0.000000   0.000000   0.000000  -0.000335
     2  O    0.000004  -0.073056   0.004560   0.033616   0.001884  -0.087549
     3  N   -0.000884  -0.049043   0.003361   0.003406  -0.002542  -0.000304
     4  H    0.000545   0.001229  -0.000276   0.000728   0.000404   0.000014
     5  C    0.064550   0.002890   0.002908   0.011257  -0.017059  -0.131389
     6  C    0.077918  -0.002790   0.004273  -0.000259   0.000136  -0.002401
     7  C    0.028274   0.210787  -0.060928  -0.054873  -0.018797   0.023089
     8  C   -0.010541  -0.084723   0.006881  -0.024868   0.006179   0.286935
     9  C   -0.193645   0.017577  -0.000253   0.002560  -0.000823  -0.019442
    10  H   -0.006865   0.000154  -0.000023  -0.000053   0.000082  -0.004737
    11  H   -0.007730  -0.000628   0.000089   0.000037  -0.000022  -0.012370
    12  C   -0.490847   0.006275  -0.001322  -0.000438  -0.000153   0.012411
    13  C    5.502648  -0.000033  -0.000030   0.000005  -0.000022   0.000885
    14  C   -0.000033   5.277540   0.388489   0.416518   0.396544  -0.002996
    15  H   -0.000030   0.388489   0.564381  -0.020402  -0.031390   0.000143
    16  H    0.000005   0.416518  -0.020402   0.447694  -0.014662   0.001228
    17  H   -0.000022   0.396544  -0.031390  -0.014662   0.512016   0.000073
    18  C    0.000885  -0.002996   0.000143   0.001228   0.000073   5.173572
    19  H   -0.000017   0.000000   0.000004   0.000038  -0.000010   0.406320
    20  H    0.002263   0.000464  -0.000018  -0.000163  -0.000008   0.408844
    21  H   -0.000037  -0.000172  -0.000007   0.000013   0.000018   0.402168
    22  C    0.346529   0.000022   0.000000   0.000000  -0.000001   0.000013
    23  H   -0.056847   0.000000   0.000000  -0.000000  -0.000000  -0.000001
    24  H   -0.049150   0.000001  -0.000000  -0.000000   0.000000   0.000000
    25  H   -0.049760   0.000000   0.000000  -0.000000  -0.000000   0.000001
    26  C   -0.043949  -0.000821   0.000007   0.000024  -0.000108  -0.000022
    27  H   -0.002710  -0.000047   0.000013   0.000001  -0.000006  -0.000000
    28  H    0.002348  -0.000005  -0.000017  -0.000001   0.000008   0.000000
    29  H   -0.000321   0.000588   0.000038  -0.000002  -0.000007   0.000000
              19         20         21         22         23         24
     1  O    0.000004   0.000937   0.000007  -0.129869   0.003299   0.003122
     2  O    0.000361   0.007315  -0.001752   0.000000   0.000000   0.000000
     3  N    0.000010   0.000071   0.000011  -0.000038   0.000145   0.000165
     4  H   -0.000001   0.000001  -0.000001   0.000118  -0.000037  -0.000021
     5  C    0.003248   0.079252  -0.010513   0.000034  -0.000251  -0.000157
     6  C    0.000050  -0.001412   0.000083  -0.004536  -0.008775  -0.000270
     7  C   -0.000732   0.005985  -0.000928   0.001357  -0.000065  -0.000027
     8  C   -0.027441  -0.136476  -0.013492  -0.000049   0.000004   0.000002
     9  C   -0.001840  -0.017025  -0.001747   0.020656  -0.000720  -0.001122
    10  H    0.000365  -0.006040   0.000408   0.001121  -0.000153   0.000128
    11  H    0.000470  -0.001408   0.000440   0.000552   0.000116  -0.000136
    12  C   -0.000168   0.005798  -0.000754  -0.346128   0.031757   0.019310
    13  C   -0.000017   0.002263  -0.000037   0.346529  -0.056847  -0.049150
    14  C    0.000000   0.000464  -0.000172   0.000022   0.000000   0.000001
    15  H    0.000004  -0.000018  -0.000007   0.000000   0.000000  -0.000000
    16  H    0.000038  -0.000163   0.000013   0.000000  -0.000000  -0.000000
    17  H   -0.000010  -0.000008   0.000018  -0.000001  -0.000000   0.000000
    18  C    0.406320   0.408844   0.402168   0.000013  -0.000001   0.000000
    19  H    0.502792  -0.027028  -0.017191  -0.000000   0.000000   0.000000
    20  H   -0.027028   0.548050  -0.021491   0.000065  -0.000001  -0.000001
    21  H   -0.017191  -0.021491   0.497381  -0.000001   0.000000   0.000000
    22  C   -0.000000   0.000065  -0.000001   5.458516   0.382452   0.396963
    23  H    0.000000  -0.000001   0.000000   0.382452   0.547514  -0.033984
    24  H    0.000000  -0.000001   0.000000   0.396963  -0.033984   0.524282
    25  H    0.000000  -0.000000  -0.000000   0.381847  -0.015863  -0.010548
    26  C    0.000000  -0.000018   0.000001  -0.045768   0.010079  -0.007871
    27  H    0.000000   0.000000  -0.000000   0.001718  -0.003421  -0.000331
    28  H   -0.000000   0.000000   0.000000  -0.008423  -0.001746   0.000324
    29  H   -0.000000  -0.000000   0.000000   0.002145   0.000431   0.000174
              25         26         27         28         29
     1  O    0.011244   0.000777  -0.000063  -0.000030   0.000013
     2  O   -0.000000   0.000011  -0.000000  -0.000000   0.000000
     3  N    0.000011  -0.026568  -0.002038  -0.002284   0.005012
     4  H   -0.000003  -0.012475   0.000785   0.000695   0.002716
     5  C   -0.000025   0.002462   0.000480   0.000426  -0.000438
     6  C   -0.002448   0.243248  -0.038758  -0.043199  -0.052301
     7  C    0.000011   0.005875  -0.001405  -0.001194   0.003804
     8  C   -0.000002   0.000915  -0.000004  -0.000006   0.000025
     9  C   -0.000011   0.015800   0.000070  -0.000515  -0.000667
    10  H   -0.000084  -0.000049   0.000008  -0.000001   0.000015
    11  H   -0.000030  -0.000153   0.000004   0.000026   0.000002
    12  C    0.027999  -0.103608  -0.001662  -0.008941   0.021450
    13  C   -0.049760  -0.043949  -0.002710   0.002348  -0.000321
    14  C    0.000000  -0.000821  -0.000047  -0.000005   0.000588
    15  H    0.000000   0.000007   0.000013  -0.000017   0.000038
    16  H   -0.000000   0.000024   0.000001  -0.000001  -0.000002
    17  H   -0.000000  -0.000108  -0.000006   0.000008  -0.000007
    18  C    0.000001  -0.000022  -0.000000   0.000000   0.000000
    19  H    0.000000   0.000000   0.000000  -0.000000  -0.000000
    20  H   -0.000000  -0.000018   0.000000   0.000000  -0.000000
    21  H   -0.000000   0.000001  -0.000000   0.000000   0.000000
    22  C    0.381847  -0.045768   0.001718  -0.008423   0.002145
    23  H   -0.015863   0.010079  -0.003421  -0.001746   0.000431
    24  H   -0.010548  -0.007871  -0.000331   0.000324   0.000174
    25  H    0.495046   0.002282   0.000251   0.000083  -0.000030
    26  C    0.002282   5.195252   0.420310   0.436356   0.385701
    27  H    0.000251   0.420310   0.507268  -0.032693  -0.020054
    28  H    0.000083   0.436356  -0.032693   0.492051  -0.017247
    29  H   -0.000030   0.385701  -0.020054  -0.017247   0.520473
 Mulliken charges:
               1
     1  O   -0.361152
     2  O   -0.419939
     3  N   -0.205290
     4  H    0.287974
     5  C   -0.130126
     6  C    0.250387
     7  C    0.292338
     8  C    0.205197
     9  C   -0.301678
    10  H    0.167177
    11  H    0.161437
    12  C   -0.143583
    13  C    0.136412
    14  C   -0.504752
    15  H    0.139518
    16  H    0.198596
    17  H    0.168264
    18  C   -0.454152
    19  H    0.160766
    20  H    0.152046
    21  H    0.167556
    22  C   -0.459295
    23  H    0.146066
    24  H    0.159148
    25  H    0.160030
    26  C   -0.477691
    27  H    0.172283
    28  H    0.183983
    29  H    0.148479
 Sum of Mulliken charges =  -0.00000
 Mulliken charges with hydrogens summed into heavy atoms:
               1
     1  O   -0.361152
     2  O   -0.419939
     3  N    0.082684
     5  C   -0.130126
     6  C    0.250387
     7  C    0.292338
     8  C    0.205197
     9  C    0.026936
    12  C   -0.143583
    13  C    0.136412
    14  C    0.001626
    18  C    0.026215
    22  C    0.005950
    26  C    0.027054
 Electronic spatial extent (au):  <R**2>=           3228.8224
 Charge=             -0.0000 electrons
 Dipole moment (field-independent basis, Debye):
    X=              4.3883    Y=              7.2616    Z=             -0.0664  Tot=              8.4849
 Quadrupole moment (field-independent basis, Debye-Ang):
   XX=            -99.5539   YY=            -78.8167   ZZ=            -84.2271
   XY=             13.3499   XZ=              0.4041   YZ=              0.1045
 Traceless Quadrupole moment (field-independent basis, Debye-Ang):
   XX=            -12.0213   YY=              8.7159   ZZ=              3.3054
   XY=             13.3499   XZ=              0.4041   YZ=              0.1045
 Octapole moment (field-independent basis, Debye-Ang**2):
  XXX=            118.6642  YYY=             63.2656  ZZZ=              1.0938  XYY=            -36.6945
  XXY=             26.9431  XXZ=             -2.0359  XZZ=              0.3429  YZZ=             -1.4685
  YYZ=             -0.0044  XYZ=             -0.1475
 Hexadecapole moment (field-independent basis, Debye-Ang**3):
 XXXX=          -3180.4519 YYYY=          -1287.5655 ZZZZ=           -122.8115 XXXY=             46.8791
 XXXZ=             12.5568 YYYX=             93.5476 YYYZ=             -0.7200 ZZZX=             -2.2905
 ZZZY=              0.0301 XXYY=           -689.3920 XXZZ=           -482.0129 YYZZ=           -235.9152
 XXYZ=              2.3528 YYXZ=             -2.1951 ZZXY=              3.6745
 N-N= 8.991178300587D+02 E-N=-3.274213541395D+03  KE= 6.306665962320D+02
 Leave Link  601 at Fri Jan 23 15:33:31 2026, MaxMem=  2147483648 cpu:               0.7 elap:               0.1
 (Enter /data/home/wyx/g16/l9999.exe)
 Electronic transition elements 
                 1             2             3             4             5 
      1  -0.633196D+03 -0.633189D+03 -0.633162D+03 -0.633128D+03 -0.633115D+03
      2   0.145650D+01  0.232160D+00 -0.924388D-02 -0.512945D+00 -0.200345D+00
      3   0.503929D+00  0.540253D-01 -0.728788D-02  0.125563D+01  0.138502D+01
      4   0.208340D+00 -0.556591D-02  0.342813D-01 -0.932102D-01 -0.312666D-01
      5  -0.169828D+00 -0.292460D-01  0.532973D-03  0.845122D-01  0.406734D-01
      6  -0.597196D-01 -0.692016D-02  0.111563D-02 -0.222122D+00 -0.272298D+00
      7  -0.243826D-01 -0.719360D-03 -0.200162D-02  0.151187D-01  0.620009D-02
      8  -0.119709D+00 -0.808834D+00 -0.331383D+00  0.419229D-01 -0.495571D-02
      9   0.281698D-02  0.168201D-03  0.871700D+00 -0.331714D-02 -0.679316D-02
     10   0.142452D+01  0.169513D+00 -0.424729D-01 -0.413346D+00 -0.342951D+00
     11  -0.246147D-01  0.916897D-02  0.123464D-01  0.120464D+01  0.686698D+00
     12   0.234715D+00  0.517984D-01  0.254619D-02 -0.215356D+00 -0.297716D+00
     13  -0.139485D-01 -0.825282D-02 -0.225014D-01 -0.805424D-02 -0.168307D-01
     14   0.506092D+00  0.813402D-01 -0.354994D-02  0.306845D+00  0.438806D+00
     15  -0.694380D-02 -0.231392D-01 -0.692406D-01  0.172184D+00  0.117970D+00
     16   0.702355D-01 -0.261101D-01 -0.224137D-01  0.418796D-01  0.396362D-01
                 6 
      1  -0.633092D+03
      2  -0.281758D-01
      3   0.369607D-01
      4   0.367896D-01
      5   0.793933D-02
      6  -0.763139D-02
      7  -0.276036D-01
      8  -0.517089D-01
      9  -0.999568D-02
     10  -0.273807D-01
     11   0.411779D-02
     12  -0.132665D-01
     13   0.609059D-02
     14  -0.139422D-01
     15  -0.631937D-02
     16   0.247459D-01
 1\1\GINC-CN013\SP\RCAM-B3LYP TD-FC\TZVP\C11H15N1O2\WYX\23-Jan-2026\0\\
 #p CAM-B3LYP TZVP em=gd3bj td(nstates=6,root=1) scrf=(Solvent=TetraHyd
 roFuran)\\Title Card Required\\0,1\O,0,2.798035,-1.572028,0.417829\O,0
 ,-3.437111,-1.653321,-0.43864\N,0,-0.654499,1.524434,-0.120601\H,0,-0.
 973501,2.477794,-0.161363\C,0,-1.241474,-0.768716,-0.183694\C,0,0.6745
 73,1.312704,0.087494\C,0,-1.618978,0.538403,-0.244897\C,0,-2.17453,-1.
 826255,-0.297965\C,0,0.209314,-1.133434,0.005091\H,0,0.317558,-1.77306
 ,0.884487\H,0,0.554957,-1.732344,-0.841891\C,0,1.144524,0.0414,0.15485
 \C,0,2.52047,-0.373637,0.370227\C,0,-2.991841,1.075036,-0.42639\H,0,-3
 .006357,1.873184,-1.173932\H,0,-3.703838,0.322532,-0.760528\H,0,-3.386
 173,1.481203,0.509033\C,0,-1.810302,-3.280677,-0.270984\H,0,-2.239637,
 -3.858895,-1.091914\H,0,-0.735758,-3.443892,-0.310817\H,0,-2.154384,-3
 .749835,0.655524\C,0,3.656826,0.601779,0.538556\H,0,3.760292,1.279296,
 -0.306625\H,0,3.554519,1.206571,1.438632\H,0,4.563556,0.007354,0.62176
 2\C,0,1.44429,2.58998,0.212239\H,0,1.975773,2.662621,1.15755\H,0,2.168
 686,2.715323,-0.590069\H,0,0.785009,3.45648,0.167035\\Version=ES64L-G1
 6RevA.03\State=1-A\HF=-633.3157855\RMSD=5.601e-09\PG=C01 [X(C11H15N1O2
 )]\\@


 UNDER MOST GREENE GRASSE LY MOST GREATE SNAKES.
 -- PROVERBS AND REASONS OF THE YEAR 1585
           AS REPRINTED IN PAISLEY MAGAZINE 1828.
 Job cpu time:       0 days  0 hours 49 minutes 52.6 seconds.
 Elapsed time:       0 days  0 hours  3 minutes  8.2 seconds.
 File lengths (MBytes):  RWF=    835 Int=      0 D2E=      0 Chk=     34 Scr=      1
 Normal termination of Gaussian 16 at Fri Jan 23 15:33:33 2026.
