 Entering Gaussian System, Link 0=g16
 Input=DDL-LR-Eq-16.gjf
 Output=DDL-LR-Eq-16.log
 Initial command:
 /data/home/wyx/g16/l1.exe "/scr/tmp/wyx/13109/Gau-1689614.inp" -scrdir="/scr/tmp/wyx/13109/"
 Entering Link 1 = /data/home/wyx/g16/l1.exe PID=   1689615.
  
 Copyright (c) 1988,1990,1992,1993,1995,1998,2003,2009,2016,
            Gaussian, Inc.  All Rights Reserved.
  
 This is part of the Gaussian(R) 16 program.  It is based on
 the Gaussian(R) 09 system (copyright 2009, Gaussian, Inc.),
 the Gaussian(R) 03 system (copyright 2003, Gaussian, Inc.),
 the Gaussian(R) 98 system (copyright 1998, Gaussian, Inc.),
 the Gaussian(R) 94 system (copyright 1995, Gaussian, Inc.),
 the Gaussian 92(TM) system (copyright 1992, Gaussian, Inc.),
 the Gaussian 90(TM) system (copyright 1990, Gaussian, Inc.),
 the Gaussian 88(TM) system (copyright 1988, Gaussian, Inc.),
 the Gaussian 86(TM) system (copyright 1986, Carnegie Mellon
 University), and the Gaussian 82(TM) system (copyright 1983,
 Carnegie Mellon University). Gaussian is a federally registered
 trademark of Gaussian, Inc.
  
 This software contains proprietary and confidential information,
 including trade secrets, belonging to Gaussian, Inc.
  
 This software is provided under written license and may be
 used, copied, transmitted, or stored only in accord with that
 written license.
  
 The following legend is applicable only to US Government
 contracts under FAR:
  
                    RESTRICTED RIGHTS LEGEND
  
 Use, reproduction and disclosure by the US Government is
 subject to restrictions as set forth in subparagraphs (a)
 and (c) of the Commercial Computer Software - Restricted
 Rights clause in FAR 52.227-19.
  
 Gaussian, Inc.
 340 Quinnipiac St., Bldg. 40, Wallingford CT 06492
  
  
 ---------------------------------------------------------------
 Warning -- This program may not be used in any manner that
 competes with the business of Gaussian, Inc. or will provide
 assistance to any competitor of Gaussian, Inc.  The licensee
 of this program is prohibited from giving any competitor of
 Gaussian, Inc. access to this program.  By using this program,
 the user acknowledges that Gaussian, Inc. is engaged in the
 business of creating and licensing software in the field of
 computational chemistry and represents and warrants to the
 licensee that it is not a competitor of Gaussian, Inc. and that
 it will not use this program in any manner prohibited above.
 ---------------------------------------------------------------
  

 Cite this work as:
 Gaussian 16, Revision A.03,
 M. J. Frisch, G. W. Trucks, H. B. Schlegel, G. E. Scuseria, 
 M. A. Robb, J. R. Cheeseman, G. Scalmani, V. Barone, 
 G. A. Petersson, H. Nakatsuji, X. Li, M. Caricato, A. V. Marenich, 
 J. Bloino, B. G. Janesko, R. Gomperts, B. Mennucci, H. P. Hratchian, 
 J. V. Ortiz, A. F. Izmaylov, J. L. Sonnenberg, D. Williams-Young, 
 F. Ding, F. Lipparini, F. Egidi, J. Goings, B. Peng, A. Petrone, 
 T. Henderson, D. Ranasinghe, V. G. Zakrzewski, J. Gao, N. Rega, 
 G. Zheng, W. Liang, M. Hada, M. Ehara, K. Toyota, R. Fukuda, 
 J. Hasegawa, M. Ishida, T. Nakajima, Y. Honda, O. Kitao, H. Nakai, 
 T. Vreven, K. Throssell, J. A. Montgomery, Jr., J. E. Peralta, 
 F. Ogliaro, M. J. Bearpark, J. J. Heyd, E. N. Brothers, K. N. Kudin, 
 V. N. Staroverov, T. A. Keith, R. Kobayashi, J. Normand, 
 K. Raghavachari, A. P. Rendell, J. C. Burant, S. S. Iyengar, 
 J. Tomasi, M. Cossi, J. M. Millam, M. Klene, C. Adamo, R. Cammi, 
 J. W. Ochterski, R. L. Martin, K. Morokuma, O. Farkas, 
 J. B. Foresman, and D. J. Fox, Gaussian, Inc., Wallingford CT, 2016.
 
 ******************************************
 Gaussian 16:  ES64L-G16RevA.03 25-Dec-2016
                23-Jan-2026 
 ******************************************
 %nprocshared=16
 Will use up to   16 processors via shared memory.
 %mem=16GB
 %oldchk=DDL-LR-16.chk
 %chk=DDL-LR-Eq-16.chk
 Copying data from "DDL-LR-16.chk" to current chk file "DDL-LR-Eq-16.chk"
 IOpt=  2 FromEx=T IUOpen= 4 IOptOp= 5 NList=   0 IFRang= 0 IUIn= 4 IUOut= 2.
 ----------------------------------------------------------------------
 #p CAM-B3LYP TZVP em=gd3bj td(Eqsolv,nstates=6,root=1) scrf=(Solvent=T
 etraHydroFuran) Geom=Check Guess=Read
 ----------------------------------------------------------------------
 1/29=2,38=1,172=1/1;
 2/12=2,40=1/2;
 3/5=19,7=101,11=9,14=-4,25=1,30=1,70=2201,72=20,74=-40,116=-2,124=41/1,2,3,8;
 4/5=1/1;
 5/5=2,38=6,53=20/2;
 8/6=1,10=1,107=1,108=6/1;
 9/8=1,41=6,42=1,70=2,73=2/14;
 6/7=2,8=2,9=2,10=2/1;
 99/5=1,9=1/99;
 Leave Link    1 at Fri Jan 23 16:38:44 2026, MaxMem=  2147483648 cpu:               0.7 elap:               0.2
 (Enter /data/home/wyx/g16/l101.exe)
 -------------------
 Title Card Required
 -------------------
 Structure from the checkpoint file:  "DDL-LR-Eq-16.chk"
 Charge =  0 Multiplicity = 1
 Z-Matrix found in chk file.
 O,0,2.835925,-1.560951,0.161667
 O,0,-3.415029,-1.619354,0.11864
 N,0,-0.631846,1.509108,-0.392752
 H,0,-0.941148,2.46576,-0.445047
 C,0,-1.235313,-0.757398,-0.22626
 C,0,0.703835,1.294074,-0.119428
 C,0,-1.607796,0.540263,-0.297357
 C,0,-2.224477,-1.827114,-0.083849
 C,0,0.224485,-1.116306,-0.387165
 H,0,0.481138,-1.96843,0.237854
 H,0,0.429148,-1.447151,-1.414001
 C,0,1.152071,0.022822,-0.026381
 C,0,2.512561,-0.39087,0.328886
 C,0,-3.000808,1.082849,-0.278698
 H,0,-3.004853,2.129495,-0.583623
 H,0,-3.653961,0.512986,-0.932748
 H,0,-3.425621,1.01043,0.72226
 C,0,-1.730233,-3.248785,-0.194346
 H,0,-2.585065,-3.91881,-0.231723
 H,0,-1.107685,-3.39076,-1.078323
 H,0,-1.117542,-3.503371,0.673002
 C,0,3.527245,0.547336,0.937308
 H,0,4.041376,1.108011,0.154821
 H,0,3.088462,1.257749,1.633131
 H,0,4.268268,-0.058347,1.453493
 C,0,1.466445,2.57484,0.038198
 H,0,1.484868,2.890303,1.08265
 H,0,2.486921,2.498359,-0.315789
 H,0,0.978629,3.363262,-0.53442
 Recover connectivity data from disk.
 ITRead=  0  0  0  0  0  0  0  0  0  0  0  0  0  0  0  0  0  0  0  0
 ITRead=  0  0  0  0  0  0  0  0  0
 MicOpt= -1 -1 -1 -1 -1 -1 -1 -1 -1 -1 -1 -1 -1 -1 -1 -1 -1 -1 -1 -1
 MicOpt= -1 -1 -1 -1 -1 -1 -1 -1 -1
 NAtoms=     29 NQM=       29 NQMF=       0 NMMI=      0 NMMIF=      0
                NMic=       0 NMicF=      0.
                    Isotopes and Nuclear Properties:
 (Nuclear quadrupole moments (NQMom) in fm**2, nuclear magnetic moments (NMagM)
  in nuclear magnetons)

  Atom         1           2           3           4           5           6           7           8           9          10
 IAtWgt=          16          16          14           1          12          12          12          12          12           1
 AtmWgt=  15.9949146  15.9949146  14.0030740   1.0078250  12.0000000  12.0000000  12.0000000  12.0000000  12.0000000   1.0078250
 NucSpn=           0           0           2           1           0           0           0           0           0           1
 AtZEff=   5.6000000   5.6000000   4.5500000   1.0000000   3.6000000   3.6000000   3.6000000   3.6000000   3.6000000   1.0000000
 NQMom=    0.0000000   0.0000000   2.0440000   0.0000000   0.0000000   0.0000000   0.0000000   0.0000000   0.0000000   0.0000000
 NMagM=    0.0000000   0.0000000   0.4037610   2.7928460   0.0000000   0.0000000   0.0000000   0.0000000   0.0000000   2.7928460
 AtZNuc=   8.0000000   8.0000000   7.0000000   1.0000000   6.0000000   6.0000000   6.0000000   6.0000000   6.0000000   1.0000000

  Atom        11          12          13          14          15          16          17          18          19          20
 IAtWgt=           1          12          12          12           1           1           1          12           1           1
 AtmWgt=   1.0078250  12.0000000  12.0000000  12.0000000   1.0078250   1.0078250   1.0078250  12.0000000   1.0078250   1.0078250
 NucSpn=           1           0           0           0           1           1           1           0           1           1
 AtZEff=   1.0000000   3.6000000   3.6000000   3.6000000   1.0000000   1.0000000   1.0000000   3.6000000   1.0000000   1.0000000
 NQMom=    0.0000000   0.0000000   0.0000000   0.0000000   0.0000000   0.0000000   0.0000000   0.0000000   0.0000000   0.0000000
 NMagM=    2.7928460   0.0000000   0.0000000   0.0000000   2.7928460   2.7928460   2.7928460   0.0000000   2.7928460   2.7928460
 AtZNuc=   1.0000000   6.0000000   6.0000000   6.0000000   1.0000000   1.0000000   1.0000000   6.0000000   1.0000000   1.0000000

  Atom        21          22          23          24          25          26          27          28          29
 IAtWgt=           1          12           1           1           1          12           1           1           1
 AtmWgt=   1.0078250  12.0000000   1.0078250   1.0078250   1.0078250  12.0000000   1.0078250   1.0078250   1.0078250
 NucSpn=           1           0           1           1           1           0           1           1           1
 AtZEff=   1.0000000   3.6000000   1.0000000   1.0000000   1.0000000   3.6000000   1.0000000   1.0000000   1.0000000
 NQMom=    0.0000000   0.0000000   0.0000000   0.0000000   0.0000000   0.0000000   0.0000000   0.0000000   0.0000000
 NMagM=    2.7928460   0.0000000   2.7928460   2.7928460   2.7928460   0.0000000   2.7928460   2.7928460   2.7928460
 AtZNuc=   1.0000000   6.0000000   1.0000000   1.0000000   1.0000000   6.0000000   1.0000000   1.0000000   1.0000000
 Leave Link  101 at Fri Jan 23 16:38:47 2026, MaxMem=  2147483648 cpu:               0.9 elap:               0.1
 (Enter /data/home/wyx/g16/l202.exe)
                          Input orientation:                          
 ---------------------------------------------------------------------
 Center     Atomic      Atomic             Coordinates (Angstroms)
 Number     Number       Type             X           Y           Z
 ---------------------------------------------------------------------
      1          8           0        2.835925   -1.560951    0.161667
      2          8           0       -3.415029   -1.619354    0.118640
      3          7           0       -0.631846    1.509108   -0.392752
      4          1           0       -0.941148    2.465760   -0.445047
      5          6           0       -1.235313   -0.757398   -0.226260
      6          6           0        0.703835    1.294074   -0.119428
      7          6           0       -1.607796    0.540263   -0.297357
      8          6           0       -2.224477   -1.827114   -0.083849
      9          6           0        0.224485   -1.116306   -0.387165
     10          1           0        0.481138   -1.968430    0.237854
     11          1           0        0.429148   -1.447151   -1.414001
     12          6           0        1.152071    0.022822   -0.026381
     13          6           0        2.512561   -0.390870    0.328886
     14          6           0       -3.000808    1.082849   -0.278698
     15          1           0       -3.004853    2.129495   -0.583623
     16          1           0       -3.653961    0.512986   -0.932748
     17          1           0       -3.425621    1.010430    0.722260
     18          6           0       -1.730233   -3.248785   -0.194346
     19          1           0       -2.585065   -3.918810   -0.231723
     20          1           0       -1.107685   -3.390760   -1.078323
     21          1           0       -1.117542   -3.503371    0.673002
     22          6           0        3.527245    0.547336    0.937308
     23          1           0        4.041376    1.108011    0.154821
     24          1           0        3.088462    1.257749    1.633131
     25          1           0        4.268268   -0.058347    1.453493
     26          6           0        1.466445    2.574840    0.038198
     27          1           0        1.484868    2.890303    1.082650
     28          1           0        2.486921    2.498359   -0.315789
     29          1           0        0.978629    3.363262   -0.534420
 ---------------------------------------------------------------------
                    Distance matrix (angstroms):
                    1          2          3          4          5
     1  O    0.000000
     2  O    6.251375   0.000000
     3  N    4.664556   4.218401   0.000000
     4  H    5.554168   4.808949   1.006770   0.000000
     5  C    4.167873   2.369195   2.351370   3.243940   0.000000
     6  C    3.574352   5.050721   1.380214   2.045689   2.824933
     7  C    4.936847   2.846593   1.378492   2.042981   1.351933
     8  C    5.073341   1.225390   3.709754   4.495127   1.463905
     9  C    2.705281   3.708768   2.761545   3.767393   1.511858
    10  H    2.390997   3.913590   3.705357   4.706516   2.151326
    11  H    2.878933   4.142021   3.302745   4.257635   2.157989
    12  C    2.319281   4.855530   2.350667   3.244194   2.519583
    13  C    1.225404   6.057202   3.744058   4.548342   3.806454
    14  C    6.422698   2.762491   2.409707   2.486426   2.550732
    15  H    6.949067   3.836051   2.460178   2.095508   3.404869
    16  H    6.900549   2.389431   3.227543   3.377948   2.821854
    17  H    6.792144   2.698191   3.049116   3.106959   2.970245
    18  C    4.881120   2.364644   4.887061   5.774213   2.540270
    19  H    5.924642   2.469634   5.770900   6.596264   3.437497
    20  H    4.520822   3.145542   4.970426   5.893013   2.770721
    21  H    4.434452   3.022463   5.147492   6.075498   2.891870
    22  C    2.350408   7.318465   4.471253   5.055471   5.073281
    23  H    2.928569   7.939635   4.722258   5.198930   5.609672
    24  H    3.189679   7.270956   4.243592   4.692107   5.119881
    25  H    2.445044   7.953089   5.465954   6.092092   5.796520
    26  C    4.358381   6.436344   2.392557   2.458033   4.298051
    27  H    4.742070   6.728693   2.926600   2.898215   4.734802
    28  H    4.102166   7.209529   3.272804   3.430660   4.946008
    29  H    5.308668   6.675116   2.459997   2.121094   4.687893
                    6          7          8          9         10
     6  C    0.000000
     7  C    2.437935   0.000000
     8  C    4.279964   2.455678   0.000000
     9  C    2.472123   2.471748   2.568008   0.000000
    10  H    3.289556   3.308117   2.728336   1.087490   0.000000
    11  H    3.043959   3.057098   2.992558   1.098061   1.732934
    12  C    1.351168   2.821000   3.850538   1.512678   2.117795
    13  C    2.512272   4.270425   4.967160   2.504851   2.573648
    14  C    3.714076   1.495069   3.018036   3.905197   4.658442
    15  H    3.829853   2.135269   4.063683   4.582842   5.442421
    16  H    4.501330   2.142722   2.870561   4.242004   4.962537
    17  H    4.223896   2.136624   3.184998   4.367734   4.936702
    18  C    5.154403   3.792425   1.509184   2.899236   2.591576
    19  H    6.164709   4.565380   2.127694   3.971368   3.664162
    20  H    5.113585   4.038931   2.163606   2.724980   2.505934
    21  H    5.192383   4.187233   2.146617   2.936506   2.258578
    22  C    3.105793   5.281391   6.305797   3.928124   4.012117
    23  H    3.353955   5.695608   6.923354   4.450842   4.706026
    24  H    2.959599   5.128002   6.379006   4.233214   4.376433
    25  H    4.124113   6.160514   6.902731   4.567218   4.412318
    26  C    1.498927   3.701764   5.745868   3.917647   4.653170
    27  H    2.145449   4.122096   6.113426   4.449926   5.032737
    28  H    2.160615   4.538853   6.400061   4.264917   4.927666
    29  H    2.128208   3.836029   6.115791   4.544991   5.410254
                   11         12         13         14         15
    11  H    0.000000
    12  C    2.146841   0.000000
    13  C    2.914446   1.465704   0.000000
    14  C    4.410715   4.293451   5.739185   0.000000
    15  H    5.027354   4.693464   6.134066   1.090167   0.000000
    16  H    4.554725   4.915252   6.358826   1.085879   1.776607
    17  H    5.046044   4.742478   6.113950   1.089783   1.770503
    18  C    3.065350   4.363405   5.142252   4.514923   5.540947
    19  H    4.073372   5.435514   6.224663   5.019128   6.073059
    20  H    2.500430   4.226774   4.907724   4.923057   5.858088
    21  H    3.312985   4.251390   4.794135   5.048350   6.072086
    22  C    4.370908   2.616345   1.509964   6.661901   6.890919
    23  H    4.694491   3.091691   2.148073   7.055560   7.158077
    24  H    4.865537   2.833485   2.179601   6.384739   6.542356
    25  H    4.989002   3.450695   2.111355   7.559251   7.863510
    26  C    4.400145   2.572119   3.158211   4.720467   4.536243
    27  H    5.114814   3.092434   3.520001   5.024087   4.849009
    28  H    4.583399   2.827342   2.960390   5.667470   5.510660
    29  H    4.920942   3.383301   4.146294   4.593647   4.170459
                   16         17         18         19         20
    16  H    0.000000
    17  H    1.743170   0.000000
    18  C    4.289159   4.674978   0.000000
    19  H    4.612460   5.090582   1.086770   0.000000
    20  H    4.663040   5.290123   1.090476   1.782756   0.000000
    21  H    5.014277   5.069917   1.092015   1.773342   1.754969
    22  C    7.420782   6.971589   6.582724   7.659858   6.407335
    23  H    7.794554   7.489162   7.239825   8.326348   6.947835
    24  H    7.252494   6.582107   6.846046   7.903376   6.824095
    25  H    8.293508   7.802110   6.991157   8.044333   6.812924
    26  C    5.604689   5.181470   6.647363   7.658661   6.592507
    27  H    6.010077   5.270361   7.046701   8.040892   7.130420
    28  H    6.483269   6.184629   7.129432   8.179986   6.941496
    29  H    5.453772   5.149027   7.153513   8.112960   7.089806
                   21         22         23         24         25
    21  H    0.000000
    22  C    6.168641   0.000000
    23  H    6.938861   1.091317   0.000000
    24  H    6.424997   1.086916   1.765182   0.000000
    25  H    6.440831   1.087389   1.760233   1.776604   0.000000
    26  C    6.635105   3.027551   2.965714   2.628589   4.097188
    27  H    6.915158   3.111579   3.251640   2.353673   4.071778
    28  H    7.070405   2.541460   2.137960   2.387311   3.583337
    29  H    7.280278   4.073189   3.865440   3.685493   5.145963
                   26         27         28         29
    26  C    0.000000
    27  H    1.091209   0.000000
    28  H    1.082833   1.764472   0.000000
    29  H    1.089709   1.759228   1.752370   0.000000
 Stoichiometry    C11H15NO2
 Framework group  C1[X(C11H15NO2)]
 Deg. of freedom    81
 Full point group                 C1      NOp   1
 RotChk:  IX=0 Diff= 1.03D-15
 Largest Abelian subgroup         C1      NOp   1
 Largest concise Abelian subgroup C1      NOp   1
                         Standard orientation:                         
 ---------------------------------------------------------------------
 Center     Atomic      Atomic             Coordinates (Angstroms)
 Number     Number       Type             X           Y           Z
 ---------------------------------------------------------------------
      1          8           0        2.288218   -2.276543   -0.181993
      2          8           0       -3.587161   -0.244219    0.473193
      3          7           0        0.026432    1.802057   -0.268162
      4          1           0        0.055308    2.808391   -0.261635
      5          6           0       -1.288722   -0.139131   -0.091803
      6          6           0        1.230534    1.137598   -0.151448
      7          6           0       -1.205503    1.210234   -0.088377
      8          6           0       -2.562577   -0.824320    0.133650
      9          6           0       -0.059177   -0.953762   -0.423932
     10          1           0       -0.046475   -1.879248    0.146989
     11          1           0       -0.079003   -1.270431   -1.475153
     12          6           0        1.229284   -0.213528   -0.140885
     13          6           0        2.397379   -1.078164    0.049499
     14          6           0       -2.324210    2.184095    0.099555
     15          1           0       -2.003644    3.188751   -0.176791
     16          1           0       -3.191714    1.905829   -0.491325
     17          1           0       -2.649333    2.196388    1.139638
     18          6           0       -2.591352   -2.319843   -0.066891
     19          1           0       -3.621737   -2.662814   -0.025097
     20          1           0       -2.142287   -2.606932   -1.018237
     21          1           0       -2.019826   -2.816749    0.719836
     22          6           0        3.723436   -0.571149    0.563793
     23          1           0        4.318444   -0.167263   -0.257069
     24          1           0        3.620364    0.200935    1.321849
     25          1           0        4.262333   -1.419665    0.978553
     26          6           0        2.392762    2.078531   -0.048227
     27          1           0        2.617923    2.305253    0.995150
     28          1           0        3.287845    1.687921   -0.515965
     29          1           0        2.147210    3.017971   -0.542818
 ---------------------------------------------------------------------
 Rotational constants (GHZ):           1.0782823           0.4906712           0.3474065
 Leave Link  202 at Fri Jan 23 16:38:47 2026, MaxMem=  2147483648 cpu:               0.0 elap:               0.0
 (Enter /data/home/wyx/g16/l301.exe)
 Standard basis: TZVP (5D, 7F)
 Ernie: Thresh=  0.10000D-02 Tol=  0.10000D-05 Strict=F.
 There are   370 symmetry adapted cartesian basis functions of A   symmetry.
 There are   356 symmetry adapted basis functions of A   symmetry.
   356 basis functions,   610 primitive gaussians,   370 cartesian basis functions
    52 alpha electrons       52 beta electrons
       nuclear repulsion energy       900.7283840088 Hartrees.
 IExCor=20419 DFT=T Ex+Corr=CAM-B3LYP ExCW=0 ScaHFX=  1.000000
 ScaDFX=  1.000000  1.000000  1.000000  0.810000 ScalE2=  1.000000  1.000000
 IRadAn=      5 IRanWt=     -1 IRanGd=            0 ICorTp=0 IEmpDi=141
 HFx  wShort=  0.000000 wLong=  0.330000 cFull=  0.190000 cShort=  0.000000 cLong=  0.460000
 DFx  wShort=  0.000000 wLong=  0.330000 cFull=  0.190000 cShort=  0.000000 cLong=  0.460000
 NAtoms=   29 NActive=   29 NUniq=   29 SFac= 1.00D+00 NAtFMM=   60 NAOKFM=F Big=F
 Integral buffers will be    131072 words long.
 Raffenetti 1 integral format.
 Two-electron integral symmetry is turned on.
 R6Disp:  Grimme-D3(BJ) Dispersion energy=       -0.0262127044 Hartrees.
 Nuclear repulsion after empirical dispersion term =      900.7021713043 Hartrees.
 ------------------------------------------------------------------------------
 Polarizable Continuum Model (PCM)
 =================================
 Model                : PCM.
 Atomic radii         : UFF (Universal Force Field).
 Polarization charges : Total charges.
 Charge compensation  : None.
 Solution method      : On-the-fly selection.
 Cavity type          : Scaled VdW (van der Waals Surface) (Alpha=1.100).
 Cavity algorithm     : GePol (No added spheres)
                        Default sphere list used, NSphG=   29.
                        Lebedev-Laikov grids with approx.  5.0 points / Ang**2.
                        Smoothing algorithm: York/Karplus (Gamma=1.0000).
                        Polarization charges: spherical gaussians, with
                                              point-specific exponents (IZeta= 3).
                        Self-potential: point-specific (ISelfS= 7).
                        Self-field    : sphere-specific E.n sum rule (ISelfD= 2).
 Solvent              : TetraHydroFuran, Eps=   7.425700 Eps(inf)=   1.974025
 ------------------------------------------------------------------------------
 GePol: Number of generator spheres                  =      29
 GePol: Total number of spheres                      =      29
 GePol: Number of exposed spheres                    =      29 (100.00%)
 GePol: Number of points                             =    2087
 GePol: Average weight of points                     =       0.13
 GePol: Minimum weight of points                     =   0.28D-10
 GePol: Maximum weight of points                     =    0.20577
 GePol: Number of points with low weight             =     143
 GePol: Fraction of low-weight points (<1% of avg)   =       6.85%
 GePol: Cavity surface area                          =    268.837 Ang**2
 GePol: Cavity volume                                =    286.879 Ang**3
 Leave Link  301 at Fri Jan 23 16:38:47 2026, MaxMem=  2147483648 cpu:               0.6 elap:               0.0
 (Enter /data/home/wyx/g16/l302.exe)
 NPDir=0 NMtPBC=     1 NCelOv=     1 NCel=       1 NClECP=     1 NCelD=      1
         NCelK=      1 NCelE2=     1 NClLst=     1 CellRange=     0.0.
 One-electron integrals computed using PRISM.
 One-electron integral symmetry used in STVInt
 NBasis=   356 RedAO= T EigKep=  4.74D-05  NBF=   356
 NBsUse=   356 1.00D-06 EigRej= -1.00D+00 NBFU=   356
 Precomputing XC quadrature grid using
 IXCGrd= 4 IRadAn=           5 IRanWt=          -1 IRanGd=           0 AccXCQ= 0.00D+00.
 Generated NRdTot=       0 NPtTot=           0 NUsed=           0 NTot=          32
 NSgBfM=   366   366   366   366   366 MxSgAt=    29 MxSgA2=    29.
 Leave Link  302 at Fri Jan 23 16:38:47 2026, MaxMem=  2147483648 cpu:               3.1 elap:               0.2
 (Enter /data/home/wyx/g16/l303.exe)
 DipDrv:  MaxL=1.
 Leave Link  303 at Fri Jan 23 16:38:47 2026, MaxMem=  2147483648 cpu:               0.6 elap:               0.0
 (Enter /data/home/wyx/g16/l308.exe)
 Leave Link  308 at Fri Jan 23 16:38:48 2026, MaxMem=  2147483648 cpu:               0.7 elap:               0.1
 (Enter /data/home/wyx/g16/l401.exe)
 Initial guess from the checkpoint file:  "DDL-LR-Eq-16.chk"
 B after Tr=    -0.000000   -0.000000    0.000000
         Rot=    1.000000    0.000000   -0.000000   -0.000000 Ang=   0.00 deg.
 Guess basis will be translated and rotated to current coordinates.
 JPrj=2 DoOrth=T DoCkMO=T.
 Leave Link  401 at Fri Jan 23 16:38:48 2026, MaxMem=  2147483648 cpu:               2.2 elap:               0.2
 (Enter /data/home/wyx/g16/l502.exe)
 Integral symmetry usage will be decided dynamically.
 Closed shell SCF:
 Using DIIS extrapolation, IDIIS=  1040.
 NGot=  2147483648 LenX=  2147200095 LenY=  2147062754
 Requested convergence on RMS density matrix=1.00D-08 within 128 cycles.
 Requested convergence on MAX density matrix=1.00D-06.
 Requested convergence on             energy=1.00D-06.
 No special actions if energy rises.
 Fock matrices will be formed incrementally for  20 cycles.

 Cycle   1  Pass 1  IDiag  1:
 FoFJK:  IHMeth= 1 ICntrl=       0 DoSepK=T KAlg= 0 I1Cent=           0 FoldK=F
 IRaf=         1 NMat=       1 IRICut=       1 DoRegI=T DoRafI=F ISym2E= 0 IDoP0=0 IntGTp=1.
 FoFCou: FMM=F IPFlag=           0 FMFlag=      100000 FMFlg1=           0
         NFxFlg=           0 DoJE=T BraDBF=F KetDBF=F FulRan=T
         wScrn=  0.000000 ICntrl=       500 IOpCl=  0 I1Cent=           0 NGrid=           0
         NMat0=    1 NMatS0=      1 NMatT0=    0 NMatD0=    1 NMtDS0=    0 NMtDT0=    0
 Symmetry not used in FoFCou.
 Inv3:  Mode=1 IEnd=    13066707.
 Iteration    1 A*A^-1 deviation from unit magnitude is 2.89D-15 for    493.
 Iteration    1 A*A^-1 deviation from orthogonality  is 1.96D-15 for   1654    769.
 Iteration    1 A^-1*A deviation from unit magnitude is 2.66D-15 for    493.
 Iteration    1 A^-1*A deviation from orthogonality  is 1.87D-15 for   1492    553.
 E= -633.328952766746    
 DIIS: error= 1.54D-08 at cycle   1 NSaved=   1.
 NSaved= 1 IEnMin= 1 EnMin= -633.328952766746     IErMin= 1 ErrMin= 1.54D-08
 ErrMax= 1.54D-08  0.00D+00 EMaxC= 1.00D-01 BMatC= 6.52D-14 BMatP= 6.52D-14
 IDIUse=1 WtCom= 1.00D+00 WtEn= 0.00D+00
 Coeff-Com:  0.100D+01
 Coeff:      0.100D+01
 Gap=     0.241 Goal=   None    Shift=    0.000
 RMSDP=2.81D-09 MaxDP=8.13D-08              OVMax= 3.49D-07

 Error on total polarization charges =  0.01420
 SCF Done:  E(RCAM-B3LYP) =  -633.328952767     A.U. after    1 cycles
            NFock=  1  Conv=0.28D-08     -V/T= 2.0042
 KE= 6.307042775156D+02 PE=-3.277490870816D+03 EE= 1.112755469229D+03
 Leave Link  502 at Fri Jan 23 16:38:54 2026, MaxMem=  2147483648 cpu:              86.0 elap:               5.7
 (Enter /data/home/wyx/g16/l801.exe)
 DoSCS=F DFT=T ScalE2(SS,OS)=  1.000000  1.000000
 ExpMin= 9.52D-02 ExpMax= 2.70D+04 ExpMxC= 9.22D+02 IAcc=3 IRadAn=         5 AccDes= 0.00D+00
 HarFok:  IExCor=  205 AccDes= 0.00D+00 IRadAn=         5 IDoV=-2 UseB2=F ITyADJ=14
 ICtDFT= 12500011 ScaDFX=  1.000000  1.000000  1.000000  1.000000
 Largest valence mixing into a core orbital is  5.65D-05
 Largest core mixing into a valence orbital is  1.21D-05
 Range of M.O.s used for correlation:    15   356
 NBasis=   356 NAE=    52 NBE=    52 NFC=    14 NFV=     0
 NROrb=    342 NOA=    38 NOB=    38 NVA=   304 NVB=   304

 **** Warning!!: The largest alpha MO coefficient is  0.49905876D+02

 Leave Link  801 at Fri Jan 23 16:38:55 2026, MaxMem=  2147483648 cpu:               1.0 elap:               0.1
 (Enter /data/home/wyx/g16/l914.exe)
 RHF ground state
 Two-electron integrals replicated using symmetry.
 MDV=  2147483648 DFT=T DoStab=F Mixed=T DoRPA=T DoScal=F NonHer=T
 NEqPCM:  Using equilibrium solvation (IEInf=0, Eps=   7.4257, EpsInf=   1.9740)
 Making orbital integer symmetry assigments:
 Orbital symmetries:
       Occupied  (A) (A) (A) (A) (A) (A) (A) (A) (A) (A) (A) (A)
                 (A) (A) (A) (A) (A) (A) (A) (A) (A) (A) (A) (A)
                 (A) (A) (A) (A) (A) (A) (A) (A) (A) (A) (A) (A)
                 (A) (A) (A) (A) (A) (A) (A) (A) (A) (A) (A) (A)
                 (A) (A) (A) (A)
       Virtual   (A) (A) (A) (A) (A) (A) (A) (A) (A) (A) (A) (A)
                 (A) (A) (A) (A) (A) (A) (A) (A) (A) (A) (A) (A)
                 (A) (A) (A) (A) (A) (A) (A) (A) (A) (A) (A) (A)
                 (A) (A) (A) (A) (A) (A) (A) (A) (A) (A) (A) (A)
                 (A) (A) (A) (A) (A) (A) (A) (A) (A) (A) (A) (A)
                 (A) (A) (A) (A) (A) (A) (A) (A) (A) (A) (A) (A)
                 (A) (A) (A) (A) (A) (A) (A) (A) (A) (A) (A) (A)
                 (A) (A) (A) (A) (A) (A) (A) (A) (A) (A) (A) (A)
                 (A) (A) (A) (A) (A) (A) (A) (A) (A) (A) (A) (A)
                 (A) (A) (A) (A) (A) (A) (A) (A) (A) (A) (A) (A)
                 (A) (A) (A) (A) (A) (A) (A) (A) (A) (A) (A) (A)
                 (A) (A) (A) (A) (A) (A) (A) (A) (A) (A) (A) (A)
                 (A) (A) (A) (A) (A) (A) (A) (A) (A) (A) (A) (A)
                 (A) (A) (A) (A) (A) (A) (A) (A) (A) (A) (A) (A)
                 (A) (A) (A) (A) (A) (A) (A) (A) (A) (A) (A) (A)
                 (A) (A) (A) (A) (A) (A) (A) (A) (A) (A) (A) (A)
                 (A) (A) (A) (A) (A) (A) (A) (A) (A) (A) (A) (A)
                 (A) (A) (A) (A) (A) (A) (A) (A) (A) (A) (A) (A)
                 (A) (A) (A) (A) (A) (A) (A) (A) (A) (A) (A) (A)
                 (A) (A) (A) (A) (A) (A) (A) (A) (A) (A) (A) (A)
                 (A) (A) (A) (A) (A) (A) (A) (A) (A) (A) (A) (A)
                 (A) (A) (A) (A) (A) (A) (A) (A) (A) (A) (A) (A)
                 (A) (A) (A) (A) (A) (A) (A) (A) (A) (A) (A) (A)
                 (A) (A) (A) (A) (A) (A) (A) (A) (A) (A) (A) (A)
                 (A) (A) (A) (A) (A) (A) (A) (A) (A) (A) (A) (A)
                 (A) (A) (A) (A)
    24 initial guesses have been made.
 Convergence on wavefunction:    0.001000000000000
 Davidson Disk Diagonalization:  ConvIn= 1.00D-03 SkipCon=T Conv= 1.00D-03.
 Max sub-space:  2000 roots to seek:    24 dimension of matrix:        23104
 Iteration     1 Dimension    24 NMult     0 NNew     24
 CISAX will form    24 AO SS matrices at one time.
 NMat=    24 NSing=    24 JSym2X= 0.
 FoFJK:  IHMeth= 1 ICntrl=       0 DoSepK=T KAlg= 0 I1Cent=           0 FoldK=F
 IRaf=         1 NMat=      48 IRICut=       1 DoRegI=T DoRafI=F ISym2E= 0 IDoP0=3 IntGTp=3.
 FoFCou: FMM=F IPFlag=           0 FMFlag=      100000 FMFlg1=           0
         NFxFlg=           0 DoJE=F BraDBF=F KetDBF=F FulRan=T
         wScrn=  0.000000 ICntrl=       500 IOpCl=  0 I1Cent=           0 NGrid=           0
         NMat0=   24 NMatS0=     24 NMatT0=    0 NMatD0=   24 NMtDS0=    0 NMtDT0=    0
 Symmetry not used in FoFCou.
 New state      2 was old state      3
 New state      3 was old state      4
 New state      4 was old state      2
 New state      5 was old state      6
 New state      6 was old state      5
 Excitation Energies [eV] at current iteration:
 Root      1 :     3.950796057876445
 Root      2 :     4.353863648486981
 Root      3 :     4.534745496547552
 Root      4 :     5.556849071369423
 Root      5 :     6.194791920124866
 Root      6 :     6.368538788612656
 Root      7 :     6.760212749083998
 Root      8 :     6.794535493035515
 Root      9 :     7.023491452003441
 Root     10 :     7.097392898194638
 Root     11 :     7.226987527988654
 Root     12 :     7.469419334759698
 Root     13 :     7.618733861961510
 Root     14 :     7.699074769089163
 Root     15 :     7.783185472055505
 Root     16 :     8.028410051223055
 Root     17 :     8.130650252831048
 Root     18 :     8.266651038437953
 Root     19 :     8.297264645561629
 Root     20 :     8.593929231668518
 Root     21 :     8.685280722154477
 Root     22 :     8.960459068986681
 Root     23 :     9.031459073736222
 Root     24 :     9.142909901545321
 Iteration     2 Dimension    36 NMult    24 NNew     12
 CISAX will form    12 AO SS matrices at one time.
 NMat=    12 NSing=    12 JSym2X= 0.
 Root      1 not converged, maximum delta is    0.048794523804190
 Root      2 not converged, maximum delta is    0.072849105163982
 Root      3 not converged, maximum delta is    0.091280892270932
 Root      4 not converged, maximum delta is    0.339823987658930
 New state      5 was old state      6
 Root      5 not converged, maximum delta is    0.392208456187673
 New state      6 was old state      5
 Root      6 not converged, maximum delta is    0.274091173900779
 Excitation Energies [eV] at current iteration:
 Root      1 :     3.529784995387904   Change is   -0.421011062488541
 Root      2 :     4.112826665153182   Change is   -0.241036983333799
 Root      3 :     4.257081546936661   Change is   -0.277663949610892
 Root      4 :     5.143783412269022   Change is   -0.413065659100401
 Root      5 :     5.621987621269996   Change is   -0.746551167342661
 Root      6 :     6.080551282128476   Change is   -0.114240637996390
 Iteration     3 Dimension    48 NMult    36 NNew     12
 CISAX will form    12 AO SS matrices at one time.
 NMat=    12 NSing=    12 JSym2X= 0.
 Root      1 not converged, maximum delta is    0.007788528569340
 Root      2 not converged, maximum delta is    0.013216703207818
 Root      3 not converged, maximum delta is    0.013396562135678
 Root      4 not converged, maximum delta is    0.013168873135958
 Root      5 not converged, maximum delta is    0.013271260698816
 Root      6 not converged, maximum delta is    0.018706279584012
 Excitation Energies [eV] at current iteration:
 Root      1 :     3.514781645193405   Change is   -0.015003350194499
 Root      2 :     4.099206942491770   Change is   -0.013619722661412
 Root      3 :     4.242909885107255   Change is   -0.014171661829406
 Root      4 :     5.122840308163459   Change is   -0.020943104105564
 Root      5 :     5.604293189810762   Change is   -0.017694431459234
 Root      6 :     6.069759381373000   Change is   -0.010791900755476
 Iteration     4 Dimension    60 NMult    48 NNew     12
 CISAX will form    12 AO SS matrices at one time.
 NMat=    12 NSing=    12 JSym2X= 0.
 Root      1 not converged, maximum delta is    0.002080096407037
 Root      2 not converged, maximum delta is    0.002130579554066
 Root      3 not converged, maximum delta is    0.002154987004165
 Root      4 not converged, maximum delta is    0.003144183546570
 Root      5 not converged, maximum delta is    0.002480411682620
 Root      6 not converged, maximum delta is    0.003596176612005
 Excitation Energies [eV] at current iteration:
 Root      1 :     3.513531197547204   Change is   -0.001250447646201
 Root      2 :     4.098336572550244   Change is   -0.000870369941526
 Root      3 :     4.242089578794573   Change is   -0.000820306312681
 Root      4 :     5.121239858051891   Change is   -0.001600450111568
 Root      5 :     5.602692900536702   Change is   -0.001600289274059
 Root      6 :     6.069026894996938   Change is   -0.000732486376062
 Iteration     5 Dimension    72 NMult    60 NNew     12
 CISAX will form    12 AO SS matrices at one time.
 NMat=    12 NSing=    12 JSym2X= 0.
 Root      1 has converged.
 Root      2 has converged.
 Root      3 has converged.
 Root      4 has converged.
 Root      5 not converged, maximum delta is    0.001018143802482
 Root      6 has converged.
 Excitation Energies [eV] at current iteration:
 Root      1 :     3.513469463940198   Change is   -0.000061733607006
 Root      2 :     4.098292444634012   Change is   -0.000044127916232
 Root      3 :     4.242044680742062   Change is   -0.000044898052511
 Root      4 :     5.121094077150951   Change is   -0.000145780900940
 Root      5 :     5.602535960104182   Change is   -0.000156940432521
 Root      6 :     6.068977614197393   Change is   -0.000049280799545
 Iteration     6 Dimension    74 NMult    72 NNew      2
 CISAX will form     2 AO SS matrices at one time.
 NMat=     2 NSing=     2 JSym2X= 0.
 Root      1 has converged.
 Root      2 has converged.
 Root      3 has converged.
 Root      4 has converged.
 Root      5 has converged.
 Root      6 has converged.
 Excitation Energies [eV] at current iteration:
 Root      1 :     3.513469436749290   Change is   -0.000000027190907
 Root      2 :     4.098292419762938   Change is   -0.000000024871074
 Root      3 :     4.242044643561362   Change is   -0.000000037180700
 Root      4 :     5.121091725181015   Change is   -0.000002351969936
 Root      5 :     5.602526206681437   Change is   -0.000009753422745
 Root      6 :     6.068977463707465   Change is   -0.000000150489928
 Convergence achieved on expansion vectors.
 ***********************************************************************
 Excited states from <AA,BB:AA,BB> singles matrix:
 ***********************************************************************
 
 1PDM for each excited state written to RWF  633
 Ground to excited state transition densities written to RWF  633
 Ground to excited state transition electric dipole moments (Au):
       state          X           Y           Z        Dip. S.      Osc.
         1        -1.6018      0.1987      0.0493      2.6077      0.2245
         2        -0.1887     -0.0023      0.0473      0.0378      0.0038
         3         0.0048      0.1504     -0.0394      0.0242      0.0025
         4        -0.1956     -1.7707      0.1481      3.1955      0.4009
         5        -0.0596     -1.4544      0.0316      2.1200      0.2910
         6         0.0308      0.2361      0.0763      0.0625      0.0093
 Ground to excited state transition velocity dipole moments (Au):
       state          X           Y           Z        Dip. S.      Osc.
         1         0.1985     -0.0208     -0.0072      0.0399      0.2060
         2         0.0274      0.0006     -0.0044      0.0008      0.0034
         3        -0.0005     -0.0221      0.0026      0.0005      0.0021
         4         0.0386      0.3195     -0.0227      0.1041      0.3686
         5         0.0125      0.2941     -0.0073      0.0867      0.2808
         6        -0.0073     -0.0489     -0.0361      0.0038      0.0112
 Ground to excited state transition magnetic dipole moments (Au):
       state          X           Y           Z
         1        -0.1004      0.0029     -1.4220
         2         0.8091     -0.1534     -0.4093
         3         0.1506     -1.0053     -0.1730
         4         0.0758     -0.1142      0.0907
         5         0.2145     -0.1074      0.2871
         6        -0.0619     -0.0107      0.0116
 Ground to excited state transition velocity quadrupole moments (Au):
       state          XX          YY          ZZ          XY          XZ          YZ
         1        -0.1759      0.1034     -0.0006     -0.5578      0.0670      0.0104
         2        -0.0030     -0.0046      0.0038     -0.0729      0.0234      0.0871
         3         0.0129     -0.0112      0.0307     -0.0470      0.0660      0.0074
         4        -1.2737      0.3171     -0.0082      0.0923      0.0927     -0.0635
         5        -0.5366      0.2601      0.0555      0.2185      0.0720      0.0432
         6        -0.2578     -0.2242      0.1952      0.0151      0.0365      0.0186
 <0|del|b> * <b|rxdel|0> + <0|del|b> * <b|delr+rdel|0>
 Rotatory Strengths (R) in cgs (10**-40 erg-esu-cm/Gauss)
       state          XX          YY          ZZ    R(velocity)    E-M Angle
         1        42.8311    -31.8386    -64.2006    -17.7360       91.96
         2         4.7431     61.0634     46.2229     37.3431       20.66
         3        52.5085     -0.9364     47.0178     32.8633       19.14
         4      -131.9900      0.9600     -2.8028    -44.6109      132.20
         5       -96.9706      4.6579    -14.1828    -35.4985      106.35
         6         2.1243      0.7034     -1.0700      0.5859       81.86
 1/2[<0|r|b>*<b|rxdel|0> + (<0|rxdel|b>*<b|r|0>)*]
 Rotatory Strengths (R) in cgs (10**-40 erg-esu-cm/Gauss)
       state          XX          YY          ZZ     R(length)
         1      -113.7077     -0.4089     49.5839    -21.5109
         2       107.9540     -0.2513     13.6949     40.4658
         3        -0.5155    106.9324     -4.8196     33.8658
         4        10.4867   -142.9979     -9.5007    -47.3373
         5         9.0385   -110.4291     -6.4052    -35.9319
         6         1.3466      1.7821     -0.6278      0.8336
  1/2[<0|del|b>*<b|r|0> + (<0|r|b>*<b|del|0>)*] (Au)
       state          X           Y           Z        Dip. S.   Osc.(frdel)
         1        -0.3180     -0.0041     -0.0004      0.3225      0.2150
         2        -0.0052     -0.0000     -0.0002      0.0054      0.0036
         3        -0.0000     -0.0033     -0.0001      0.0034      0.0023
         4        -0.0075     -0.5656     -0.0034      0.5766      0.3844
         5        -0.0007     -0.4278     -0.0002      0.4288      0.2859
         6        -0.0002     -0.0116     -0.0028      0.0145      0.0097

 Excitation energies and oscillator strengths:
 
 Excited State   1:      Singlet-A      3.5135 eV  352.88 nm  f=0.2245  <S**2>=0.000
      52 -> 53         0.69753
 This state for optimization and/or second-order correction.
 Total Energy, E(TD-HF/TD-DFT) =  -633.199835141    
 Copying the excited state density for this state as the 1-particle RhoCI density.
 
 Excited State   2:      Singlet-A      4.0983 eV  302.53 nm  f=0.0038  <S**2>=0.000
      50 -> 54         0.19514
      51 -> 53         0.55610
      51 -> 54         0.33435
 
 Excited State   3:      Singlet-A      4.2420 eV  292.27 nm  f=0.0025  <S**2>=0.000
      49 -> 53         0.20184
      49 -> 54        -0.14420
      50 -> 53         0.53219
      50 -> 54        -0.26758
      50 -> 58         0.11176
      51 -> 54         0.20999
 
 Excited State   4:      Singlet-A      5.1211 eV  242.11 nm  f=0.4009  <S**2>=0.000
      52 -> 54         0.69177
 
 Excited State   5:      Singlet-A      5.6025 eV  221.30 nm  f=0.2910  <S**2>=0.000
      49 -> 53         0.62658
      50 -> 53        -0.23488
      51 -> 53         0.14770
 
 Excited State   6:      Singlet-A      6.0690 eV  204.29 nm  f=0.0093  <S**2>=0.000
      52 -> 55         0.66184
      52 -> 56         0.13726
 SavETr:  write IOETrn=   770 NScale= 10 NData=  16 NLR=1 NState=    6 LETran=     118.
 Leave Link  914 at Fri Jan 23 16:41:04 2026, MaxMem=  2147483648 cpu:            2051.1 elap:             128.5
 (Enter /data/home/wyx/g16/l601.exe)
 Copying SCF densities to generalized density rwf, IOpCl= 0 IROHF=0.

 **********************************************************************

            Population analysis using the SCF density.

 **********************************************************************

 Orbital symmetries:
       Occupied  (A) (A) (A) (A) (A) (A) (A) (A) (A) (A) (A) (A)
                 (A) (A) (A) (A) (A) (A) (A) (A) (A) (A) (A) (A)
                 (A) (A) (A) (A) (A) (A) (A) (A) (A) (A) (A) (A)
                 (A) (A) (A) (A) (A) (A) (A) (A) (A) (A) (A) (A)
                 (A) (A) (A) (A)
       Virtual   (A) (A) (A) (A) (A) (A) (A) (A) (A) (A) (A) (A)
                 (A) (A) (A) (A) (A) (A) (A) (A) (A) (A) (A) (A)
                 (A) (A) (A) (A) (A) (A) (A) (A) (A) (A) (A) (A)
                 (A) (A) (A) (A) (A) (A) (A) (A) (A) (A) (A) (A)
                 (A) (A) (A) (A) (A) (A) (A) (A) (A) (A) (A) (A)
                 (A) (A) (A) (A) (A) (A) (A) (A) (A) (A) (A) (A)
                 (A) (A) (A) (A) (A) (A) (A) (A) (A) (A) (A) (A)
                 (A) (A) (A) (A) (A) (A) (A) (A) (A) (A) (A) (A)
                 (A) (A) (A) (A) (A) (A) (A) (A) (A) (A) (A) (A)
                 (A) (A) (A) (A) (A) (A) (A) (A) (A) (A) (A) (A)
                 (A) (A) (A) (A) (A) (A) (A) (A) (A) (A) (A) (A)
                 (A) (A) (A) (A) (A) (A) (A) (A) (A) (A) (A) (A)
                 (A) (A) (A) (A) (A) (A) (A) (A) (A) (A) (A) (A)
                 (A) (A) (A) (A) (A) (A) (A) (A) (A) (A) (A) (A)
                 (A) (A) (A) (A) (A) (A) (A) (A) (A) (A) (A) (A)
                 (A) (A) (A) (A) (A) (A) (A) (A) (A) (A) (A) (A)
                 (A) (A) (A) (A) (A) (A) (A) (A) (A) (A) (A) (A)
                 (A) (A) (A) (A) (A) (A) (A) (A) (A) (A) (A) (A)
                 (A) (A) (A) (A) (A) (A) (A) (A) (A) (A) (A) (A)
                 (A) (A) (A) (A) (A) (A) (A) (A) (A) (A) (A) (A)
                 (A) (A) (A) (A) (A) (A) (A) (A) (A) (A) (A) (A)
                 (A) (A) (A) (A) (A) (A) (A) (A) (A) (A) (A) (A)
                 (A) (A) (A) (A) (A) (A) (A) (A) (A) (A) (A) (A)
                 (A) (A) (A) (A) (A) (A) (A) (A) (A) (A) (A) (A)
                 (A) (A) (A) (A) (A) (A) (A) (A) (A) (A) (A) (A)
                 (A) (A) (A) (A)
 The electronic state is 1-A.
 Alpha  occ. eigenvalues --  -19.17892 -19.17407 -14.44051 -10.33474 -10.33076
 Alpha  occ. eigenvalues --  -10.31947 -10.31385 -10.25935 -10.25061 -10.24848
 Alpha  occ. eigenvalues --  -10.24821 -10.24498 -10.24292 -10.23765  -1.12110
 Alpha  occ. eigenvalues --   -1.11608  -1.07375  -0.91195  -0.90195  -0.83792
 Alpha  occ. eigenvalues --   -0.82501  -0.81570  -0.78469  -0.74010  -0.71021
 Alpha  occ. eigenvalues --   -0.68545  -0.61516  -0.58176  -0.56745  -0.55162
 Alpha  occ. eigenvalues --   -0.54516  -0.53976  -0.52573  -0.51917  -0.50747
 Alpha  occ. eigenvalues --   -0.50023  -0.49493  -0.49104  -0.48611  -0.48137
 Alpha  occ. eigenvalues --   -0.46862  -0.45352  -0.45083  -0.43382  -0.43069
 Alpha  occ. eigenvalues --   -0.42403  -0.42067  -0.42002  -0.32818  -0.32225
 Alpha  occ. eigenvalues --   -0.31226  -0.26266
 Alpha virt. eigenvalues --   -0.02136   0.02476   0.06304   0.08089   0.08539
 Alpha virt. eigenvalues --    0.10078   0.10723   0.11954   0.12625   0.13491
 Alpha virt. eigenvalues --    0.14284   0.14867   0.15619   0.16039   0.16878
 Alpha virt. eigenvalues --    0.17467   0.17817   0.17879   0.18128   0.19169
 Alpha virt. eigenvalues --    0.19883   0.22008   0.22587   0.23453   0.23573
 Alpha virt. eigenvalues --    0.23895   0.24815   0.25508   0.25897   0.26366
 Alpha virt. eigenvalues --    0.26831   0.27159   0.28738   0.29163   0.30119
 Alpha virt. eigenvalues --    0.31551   0.31938   0.32778   0.33573   0.34232
 Alpha virt. eigenvalues --    0.35436   0.35793   0.36781   0.37991   0.38984
 Alpha virt. eigenvalues --    0.40194   0.40882   0.41759   0.42281   0.42718
 Alpha virt. eigenvalues --    0.43927   0.44095   0.45399   0.45937   0.46152
 Alpha virt. eigenvalues --    0.47168   0.47653   0.47908   0.48329   0.48940
 Alpha virt. eigenvalues --    0.49407   0.50246   0.50612   0.51276   0.51624
 Alpha virt. eigenvalues --    0.52869   0.53099   0.53332   0.54158   0.54449
 Alpha virt. eigenvalues --    0.54505   0.55833   0.56196   0.56662   0.58010
 Alpha virt. eigenvalues --    0.58506   0.59128   0.60478   0.61133   0.62237
 Alpha virt. eigenvalues --    0.63188   0.65463   0.65850   0.66541   0.67889
 Alpha virt. eigenvalues --    0.68560   0.69978   0.71231   0.72304   0.73022
 Alpha virt. eigenvalues --    0.73496   0.73818   0.75005   0.76173   0.77511
 Alpha virt. eigenvalues --    0.78167   0.79781   0.81718   0.83545   0.84176
 Alpha virt. eigenvalues --    0.89183   0.93028   0.98709   0.99940   1.24916
 Alpha virt. eigenvalues --    1.25849   1.27227   1.27490   1.29304   1.31639
 Alpha virt. eigenvalues --    1.32352   1.32974   1.33994   1.35302   1.35880
 Alpha virt. eigenvalues --    1.36517   1.37035   1.38032   1.39262   1.39842
 Alpha virt. eigenvalues --    1.39956   1.40206   1.41138   1.41657   1.41783
 Alpha virt. eigenvalues --    1.43148   1.44068   1.44784   1.45218   1.46806
 Alpha virt. eigenvalues --    1.48096   1.48860   1.49542   1.50605   1.51064
 Alpha virt. eigenvalues --    1.52297   1.52504   1.54245   1.54420   1.57521
 Alpha virt. eigenvalues --    1.58254   1.60438   1.60680   1.61168   1.62170
 Alpha virt. eigenvalues --    1.62462   1.63361   1.64224   1.65222   1.65610
 Alpha virt. eigenvalues --    1.67047   1.67462   1.67727   1.68029   1.68587
 Alpha virt. eigenvalues --    1.68792   1.69859   1.70634   1.72232   1.72444
 Alpha virt. eigenvalues --    1.73110   1.75074   1.75966   1.76792   1.78740
 Alpha virt. eigenvalues --    1.79603   1.83253   1.84381   1.85982   1.86490
 Alpha virt. eigenvalues --    1.86937   1.87173   1.88485   1.88981   1.90738
 Alpha virt. eigenvalues --    1.91535   1.94333   1.95214   1.97899   1.99530
 Alpha virt. eigenvalues --    2.00683   2.03655   2.04230   2.06113   2.09277
 Alpha virt. eigenvalues --    2.11279   2.12851   2.14250   2.16301   2.19294
 Alpha virt. eigenvalues --    2.20373   2.21069   2.21774   2.22446   2.25874
 Alpha virt. eigenvalues --    2.26762   2.27061   2.28752   2.30213   2.31039
 Alpha virt. eigenvalues --    2.32641   2.34653   2.35934   2.36056   2.37748
 Alpha virt. eigenvalues --    2.39423   2.40067   2.41456   2.43920   2.44649
 Alpha virt. eigenvalues --    2.45759   2.47627   2.49981   2.50327   2.51672
 Alpha virt. eigenvalues --    2.52989   2.53365   2.54869   2.56687   2.58580
 Alpha virt. eigenvalues --    2.58962   2.59829   2.60535   2.61224   2.62470
 Alpha virt. eigenvalues --    2.64330   2.65425   2.66883   2.67685   2.69129
 Alpha virt. eigenvalues --    2.70296   2.71923   2.72703   2.73438   2.74611
 Alpha virt. eigenvalues --    2.75912   2.76566   2.77348   2.78092   2.79335
 Alpha virt. eigenvalues --    2.80680   2.81200   2.82778   2.83500   2.84530
 Alpha virt. eigenvalues --    2.85545   2.85838   2.87489   2.90470   2.91631
 Alpha virt. eigenvalues --    2.97764   3.00066   3.01204   3.03294   3.09936
 Alpha virt. eigenvalues --    3.11926   3.15046   3.16273   3.16788   3.19974
 Alpha virt. eigenvalues --    3.20507   3.22182   3.25250   3.26623   3.27001
 Alpha virt. eigenvalues --    3.27673   3.29360   3.33262   3.34802   3.36407
 Alpha virt. eigenvalues --    3.36932   3.38628   3.39633   3.40037   3.41331
 Alpha virt. eigenvalues --    3.42574   3.44549   3.45338   3.46326   3.47854
 Alpha virt. eigenvalues --    3.48071   3.49159   3.55132   3.57967   3.59543
 Alpha virt. eigenvalues --    3.60292   3.89566   3.99068   4.34583   4.36048
 Alpha virt. eigenvalues --   21.62814  21.78900  22.08199  22.10982  22.11513
 Alpha virt. eigenvalues --   22.14155  22.15129  22.17748  22.21107  22.25051
 Alpha virt. eigenvalues --   22.30831  31.93375  43.62780  43.65127
          Condensed to atoms (all electrons):
               1          2          3          4          5          6
     1  O    7.935911   0.000000  -0.000246   0.000018   0.015526   0.018913
     2  O    0.000000   7.965659   0.000457   0.000037  -0.197906   0.000829
     3  N   -0.000246   0.000457   6.411699   0.375848  -0.113106   0.325801
     4  H    0.000018   0.000037   0.375848   0.412353   0.017184  -0.048102
     5  C    0.015526  -0.197906  -0.113106   0.017184   6.911490  -0.047650
     6  C    0.018913   0.000829   0.325801  -0.048102  -0.047650   5.660005
     7  C   -0.000517  -0.029844   0.369504  -0.041524   0.345234  -0.085886
     8  C   -0.000080   0.710655   0.005005  -0.000590  -0.199695   0.023971
     9  C   -0.031543   0.017009   0.015897  -0.000245  -0.419577  -0.152783
    10  H    0.017881  -0.000021  -0.001250   0.000020  -0.102593   0.024567
    11  H    0.002961   0.000073   0.003832   0.000000  -0.032391  -0.014110
    12  C   -0.213755  -0.002098  -0.093129   0.014603   0.119685  -0.201187
    13  C    0.707465  -0.000029  -0.000021   0.000357   0.072583   0.195265
    14  C   -0.000004  -0.011235  -0.036023  -0.008332  -0.068742   0.008555
    15  H   -0.000000   0.004315   0.002209   0.001313   0.018339   0.006564
    16  H   -0.000000   0.001430   0.001811   0.000748  -0.010722  -0.000764
    17  H   -0.000000   0.001229  -0.002935   0.000898  -0.003850  -0.002053
    18  C   -0.000140  -0.105531  -0.000599   0.000020  -0.274638   0.000635
    19  H   -0.000004   0.009472   0.000002  -0.000001   0.024467   0.000029
    20  H    0.000073   0.003263   0.000116   0.000000   0.038907  -0.001011
    21  H    0.000026   0.001210   0.000011  -0.000000   0.005756   0.000246
    22  C   -0.106605   0.000000  -0.000095   0.000118   0.004123  -0.004396
    23  H    0.001119  -0.000000  -0.000045  -0.000017  -0.000104   0.011502
    24  H    0.004635  -0.000000  -0.000100  -0.000050  -0.000543  -0.035717
    25  H    0.007919   0.000000   0.000033  -0.000002  -0.000134  -0.001452
    26  C    0.000906   0.000002  -0.031732  -0.005230   0.000056   0.171953
    27  H   -0.000042  -0.000000  -0.002284   0.000411   0.000396  -0.036192
    28  H   -0.000245   0.000000   0.003546   0.000913   0.000047  -0.044534
    29  H    0.000026  -0.000000  -0.000485   0.000748  -0.000612  -0.049990
               7          8          9         10         11         12
     1  O   -0.000517  -0.000080  -0.031543   0.017881   0.002961  -0.213755
     2  O   -0.029844   0.710655   0.017009  -0.000021   0.000073  -0.002098
     3  N    0.369504   0.005005   0.015897  -0.001250   0.003832  -0.093129
     4  H   -0.041524  -0.000590  -0.000245   0.000020   0.000000   0.014603
     5  C    0.345234  -0.199695  -0.419577  -0.102593  -0.032391   0.119685
     6  C   -0.085886   0.023971  -0.152783   0.024567  -0.014110  -0.201187
     7  C    5.443760  -0.163322  -0.162761   0.018243  -0.003789  -0.005177
     8  C   -0.163322   5.304827   0.065507  -0.009140  -0.004361  -0.026360
     9  C   -0.162761   0.065507   6.195111   0.518665   0.395216   0.076174
    10  H    0.018243  -0.009140   0.518665   0.498709  -0.032402  -0.103361
    11  H   -0.003789  -0.004361   0.395216  -0.032402   0.548871  -0.022775
    12  C   -0.005177  -0.026360   0.076174  -0.103361  -0.022775   7.233016
    13  C    0.009740  -0.004663  -0.256896  -0.001609   0.001620  -0.371527
    14  C    0.254385  -0.039752   0.010519   0.000474  -0.001301  -0.004707
    15  H   -0.072143   0.005576  -0.000153  -0.000002   0.000072  -0.001204
    16  H   -0.029820  -0.007534  -0.000612  -0.000050   0.000186  -0.000084
    17  H   -0.026001  -0.002357   0.000633   0.000050  -0.000067   0.000993
    18  C    0.003074   0.307801   0.002303   0.008641  -0.008511  -0.004694
    19  H    0.000179  -0.052501   0.000268   0.000501  -0.000065  -0.000189
    20  H   -0.000188  -0.059140  -0.009146  -0.004571   0.002043   0.006435
    21  H    0.001639  -0.027247  -0.009626  -0.002797   0.001066  -0.003792
    22  C   -0.000148  -0.000035   0.001578   0.001482   0.001350  -0.254763
    23  H    0.000046   0.000003  -0.001892  -0.000116   0.000135  -0.011465
    24  H    0.000020  -0.000012   0.003365  -0.000096  -0.000109   0.067089
    25  H    0.000007   0.000003   0.000259  -0.000152  -0.000027   0.022740
    26  C    0.001732   0.000349   0.018055   0.000018  -0.000740  -0.073535
    27  H   -0.000736  -0.000008  -0.000109   0.000041  -0.000025  -0.020453
    28  H   -0.000824   0.000002  -0.000890   0.000002  -0.000096  -0.008315
    29  H    0.003887  -0.000005  -0.000513  -0.000009   0.000113   0.024527
              13         14         15         16         17         18
     1  O    0.707465  -0.000004  -0.000000  -0.000000  -0.000000  -0.000140
     2  O   -0.000029  -0.011235   0.004315   0.001430   0.001229  -0.105531
     3  N   -0.000021  -0.036023   0.002209   0.001811  -0.002935  -0.000599
     4  H    0.000357  -0.008332   0.001313   0.000748   0.000898   0.000020
     5  C    0.072583  -0.068742   0.018339  -0.010722  -0.003850  -0.274638
     6  C    0.195265   0.008555   0.006564  -0.000764  -0.002053   0.000635
     7  C    0.009740   0.254385  -0.072143  -0.029820  -0.026001   0.003074
     8  C   -0.004663  -0.039752   0.005576  -0.007534  -0.002357   0.307801
     9  C   -0.256896   0.010519  -0.000153  -0.000612   0.000633   0.002303
    10  H   -0.001609   0.000474  -0.000002  -0.000050   0.000050   0.008641
    11  H    0.001620  -0.001301   0.000072   0.000186  -0.000067  -0.008511
    12  C   -0.371527  -0.004707  -0.001204  -0.000084   0.000993  -0.004694
    13  C    5.406193  -0.000068  -0.000013  -0.000001  -0.000024   0.000369
    14  C   -0.000068   5.066750   0.382520   0.427566   0.410703   0.001548
    15  H   -0.000013   0.382520   0.583741  -0.027955  -0.026623   0.000307
    16  H   -0.000001   0.427566  -0.027955   0.506212  -0.025957  -0.000273
    17  H   -0.000024   0.410703  -0.026623  -0.025957   0.510355  -0.000122
    18  C    0.000369   0.001548   0.000307  -0.000273  -0.000122   5.362785
    19  H   -0.000014   0.000067  -0.000006   0.000026  -0.000017   0.390093
    20  H    0.000408   0.000052  -0.000017  -0.000040   0.000007   0.380802
    21  H   -0.000011  -0.000284  -0.000007   0.000030  -0.000007   0.396164
    22  C    0.278491  -0.000026   0.000002  -0.000000   0.000000   0.000022
    23  H   -0.021390  -0.000000   0.000000  -0.000000   0.000000  -0.000002
    24  H   -0.090705  -0.000002   0.000000   0.000000   0.000000   0.000003
    25  H   -0.040742   0.000000   0.000000   0.000000  -0.000000  -0.000001
    26  C   -0.052279   0.001443   0.000047   0.000061  -0.000196   0.000028
    27  H    0.006176  -0.000097   0.000001   0.000004  -0.000014  -0.000001
    28  H   -0.005420   0.000096  -0.000012  -0.000001   0.000001  -0.000000
    29  H   -0.000538  -0.000280   0.000129  -0.000005   0.000004   0.000000
              19         20         21         22         23         24
     1  O   -0.000004   0.000073   0.000026  -0.106605   0.001119   0.004635
     2  O    0.009472   0.003263   0.001210   0.000000  -0.000000  -0.000000
     3  N    0.000002   0.000116   0.000011  -0.000095  -0.000045  -0.000100
     4  H   -0.000001   0.000000  -0.000000   0.000118  -0.000017  -0.000050
     5  C    0.024467   0.038907   0.005756   0.004123  -0.000104  -0.000543
     6  C    0.000029  -0.001011   0.000246  -0.004396   0.011502  -0.035717
     7  C    0.000179  -0.000188   0.001639  -0.000148   0.000046   0.000020
     8  C   -0.052501  -0.059140  -0.027247  -0.000035   0.000003  -0.000012
     9  C    0.000268  -0.009146  -0.009626   0.001578  -0.001892   0.003365
    10  H    0.000501  -0.004571  -0.002797   0.001482  -0.000116  -0.000096
    11  H   -0.000065   0.002043   0.001066   0.001350   0.000135  -0.000109
    12  C   -0.000189   0.006435  -0.003792  -0.254763  -0.011465   0.067089
    13  C   -0.000014   0.000408  -0.000011   0.278491  -0.021390  -0.090705
    14  C    0.000067   0.000052  -0.000284  -0.000026  -0.000000  -0.000002
    15  H   -0.000006  -0.000017  -0.000007   0.000002   0.000000   0.000000
    16  H    0.000026  -0.000040   0.000030  -0.000000  -0.000000   0.000000
    17  H   -0.000017   0.000007  -0.000007   0.000000   0.000000   0.000000
    18  C    0.390093   0.380802   0.396164   0.000022  -0.000002   0.000003
    19  H    0.505085  -0.020490  -0.010025  -0.000000   0.000000   0.000000
    20  H   -0.020490   0.536502  -0.026604   0.000013  -0.000000  -0.000000
    21  H   -0.010025  -0.026604   0.504976  -0.000013   0.000000  -0.000000
    22  C   -0.000000   0.000013  -0.000013   5.420988   0.399890   0.399770
    23  H    0.000000  -0.000000   0.000000   0.399890   0.495436  -0.027293
    24  H    0.000000  -0.000000  -0.000000   0.399770  -0.027293   0.539434
    25  H   -0.000000  -0.000000  -0.000000   0.385191  -0.007702  -0.021610
    26  C    0.000000  -0.000014   0.000006  -0.026451  -0.016017   0.015161
    27  H   -0.000000  -0.000000   0.000000  -0.010679   0.001134  -0.001297
    28  H   -0.000000  -0.000000  -0.000000   0.008943  -0.000562  -0.010925
    29  H    0.000000   0.000000  -0.000000   0.001986   0.000237   0.000750
              25         26         27         28         29
     1  O    0.007919   0.000906  -0.000042  -0.000245   0.000026
     2  O    0.000000   0.000002  -0.000000   0.000000  -0.000000
     3  N    0.000033  -0.031732  -0.002284   0.003546  -0.000485
     4  H   -0.000002  -0.005230   0.000411   0.000913   0.000748
     5  C   -0.000134   0.000056   0.000396   0.000047  -0.000612
     6  C   -0.001452   0.171953  -0.036192  -0.044534  -0.049990
     7  C    0.000007   0.001732  -0.000736  -0.000824   0.003887
     8  C    0.000003   0.000349  -0.000008   0.000002  -0.000005
     9  C    0.000259   0.018055  -0.000109  -0.000890  -0.000513
    10  H   -0.000152   0.000018   0.000041   0.000002  -0.000009
    11  H   -0.000027  -0.000740  -0.000025  -0.000096   0.000113
    12  C    0.022740  -0.073535  -0.020453  -0.008315   0.024527
    13  C   -0.040742  -0.052279   0.006176  -0.005420  -0.000538
    14  C    0.000000   0.001443  -0.000097   0.000096  -0.000280
    15  H    0.000000   0.000047   0.000001  -0.000012   0.000129
    16  H    0.000000   0.000061   0.000004  -0.000001  -0.000005
    17  H   -0.000000  -0.000196  -0.000014   0.000001   0.000004
    18  C   -0.000001   0.000028  -0.000001  -0.000000   0.000000
    19  H   -0.000000   0.000000  -0.000000  -0.000000   0.000000
    20  H   -0.000000  -0.000014  -0.000000  -0.000000   0.000000
    21  H   -0.000000   0.000006   0.000000  -0.000000  -0.000000
    22  C    0.385191  -0.026451  -0.010679   0.008943   0.001986
    23  H   -0.007702  -0.016017   0.001134  -0.000562   0.000237
    24  H   -0.021610   0.015161  -0.001297  -0.010925   0.000750
    25  H    0.491765   0.001836   0.000093   0.000931  -0.000044
    26  C    0.001836   5.257426   0.430117   0.426884   0.389736
    27  H    0.000093   0.430117   0.481247  -0.023941  -0.019913
    28  H    0.000931   0.426884  -0.023941   0.509811  -0.027028
    29  H   -0.000044   0.389736  -0.019913  -0.027028   0.524625
 Mulliken charges:
               1
     1  O   -0.360198
     2  O   -0.368975
     3  N   -0.233721
     4  H    0.278505
     5  C   -0.101527
     6  C    0.276991
     7  C    0.171228
     8  C    0.173103
     9  C   -0.273816
    10  H    0.168876
    11  H    0.163234
    12  C   -0.142692
    13  C    0.167280
    14  C   -0.393825
    15  H    0.123000
    16  H    0.165745
    17  H    0.165350
    18  C   -0.460083
    19  H    0.153122
    20  H    0.152601
    21  H    0.169284
    22  C   -0.500735
    23  H    0.177103
    24  H    0.158234
    25  H    0.161090
    26  C   -0.509620
    27  H    0.196171
    28  H    0.171620
    29  H    0.152654
 Sum of Mulliken charges =  -0.00000
 Mulliken charges with hydrogens summed into heavy atoms:
               1
     1  O   -0.360198
     2  O   -0.368975
     3  N    0.044784
     5  C   -0.101527
     6  C    0.276991
     7  C    0.171228
     8  C    0.173103
     9  C    0.058293
    12  C   -0.142692
    13  C    0.167280
    14  C    0.060272
    18  C    0.014924
    22  C   -0.004308
    26  C    0.010825
 Electronic spatial extent (au):  <R**2>=           3181.5988
 Charge=             -0.0000 electrons
 Dipole moment (field-independent basis, Debye):
    X=              3.7974    Y=              6.8782    Z=             -0.3399  Tot=              7.8642
 Quadrupole moment (field-independent basis, Debye-Ang):
   XX=            -96.9210   YY=            -78.9922   ZZ=            -85.0214
   XY=             12.1391   XZ=              5.6489   YZ=             -1.3977
 Traceless Quadrupole moment (field-independent basis, Debye-Ang):
   XX=             -9.9428   YY=              7.9860   ZZ=              1.9568
   XY=             12.1391   XZ=              5.6489   YZ=             -1.3977
 Octapole moment (field-independent basis, Debye-Ang**2):
  XXX=            103.4367  YYY=             60.3203  ZZZ=              2.1194  XYY=            -33.1876
  XXY=             28.3041  XXZ=            -10.6087  XZZ=              2.5353  YZZ=             -1.5625
  YYZ=              3.0776  XYZ=             -5.1159
 Hexadecapole moment (field-independent basis, Debye-Ang**3):
 XXXX=          -3002.1433 YYYY=          -1276.7905 ZZZZ=           -161.8701 XXXY=             34.3193
 XXXZ=             65.1507 YYYX=             83.3317 YYYZ=            -21.6843 ZZZX=             -2.4281
 ZZZY=              6.2586 XXYY=           -690.1234 XXZZ=           -487.0488 YYZZ=           -243.0465
 XXYZ=             -6.5246 YYXZ=              6.0928 ZZXY=             -1.7333
 N-N= 9.007021713043D+02 E-N=-3.277490869522D+03  KE= 6.307042775156D+02
 Leave Link  601 at Fri Jan 23 16:41:05 2026, MaxMem=  2147483648 cpu:               0.7 elap:               0.1
 (Enter /data/home/wyx/g16/l9999.exe)
 Electronic transition elements 
                 1             2             3             4             5 
      1  -0.633200D+03 -0.633178D+03 -0.633173D+03 -0.633141D+03 -0.633123D+03
      2  -0.157120D+01 -0.181137D+00 -0.412187D-01  0.390813D+00  0.425742D+00
      3  -0.353504D+00 -0.647960D-01  0.142153D+00 -0.172824D+01 -0.138765D+01
      4  -0.118445D+00  0.288575D-01 -0.478774D-01  0.236468D+00  0.114566D+00
      5   0.193608D+00  0.259250D-01  0.660906D-02 -0.678716D-01 -0.856021D-01
      6   0.473477D-01  0.967996D-02 -0.209449D-01  0.313012D+00  0.280749D+00
      7   0.133421D-01 -0.175057D-02  0.391907D-02 -0.383598D-01 -0.240578D-01
      8   0.641613D-01  0.854359D+00  0.495558D+00  0.988919D-01  0.204503D+00
      9  -0.666870D-01  0.119042D+00 -0.899203D+00 -0.795401D-01 -0.213033D-01
     10  -0.142253D+01 -0.318762D+00 -0.957132D-01  0.104478D+00  0.312544D+00
     11   0.192364D+00  0.440621D-01  0.264782D-01 -0.116266D+01 -0.588895D+00
     12  -0.281796D+00 -0.462884D-01 -0.368458D-01  0.192268D+00  0.311159D+00
     13   0.164238D-01 -0.155218D-02  0.427793D-01  0.558762D-02  0.567224D-01
     14  -0.518553D+00 -0.657406D-01 -0.304076D-01 -0.425893D+00 -0.897771D-01
     15   0.943672D-01 -0.973751D-03  0.600486D-01 -0.106616D-01 -0.169613D-01
     16  -0.187312D-01  0.843124D-01  0.277398D-01 -0.815395D-01  0.489208D-01
                 6 
      1  -0.633106D+03
      2  -0.584854D-01
      3   0.234416D+00
      4   0.643000D-01
      5   0.135168D-01
      6  -0.494014D-01
      7  -0.335941D-01
      8  -0.557110D-01
      9  -0.306905D-01
     10   0.621348D-02
     11  -0.264113D+00
     12  -0.216682D+00
     13   0.193919D+00
     14  -0.280075D-02
     15  -0.235000D-01
     16   0.400160D-01
 1\1\GINC-CN013\SP\RCAM-B3LYP TD-FC\TZVP\C11H15N1O2\WYX\23-Jan-2026\0\\
 #p CAM-B3LYP TZVP em=gd3bj td(Eqsolv,nstates=6,root=1) scrf=(Solvent=T
 etraHydroFuran) Geom=Check Guess=Read\\Title Card Required\\0,1\O,0,2.
 835925,-1.560951,0.161667\O,0,-3.415029,-1.619354,0.11864\N,0,-0.63184
 6,1.509108,-0.392752\H,0,-0.941148,2.46576,-0.445047\C,0,-1.235313,-0.
 757398,-0.22626\C,0,0.703835,1.294074,-0.119428\C,0,-1.607796,0.540263
 ,-0.297357\C,0,-2.224477,-1.827114,-0.083849\C,0,0.224485,-1.116306,-0
 .387165\H,0,0.481138,-1.96843,0.237854\H,0,0.429148,-1.447151,-1.41400
 1\C,0,1.152071,0.022822,-0.026381\C,0,2.512561,-0.39087,0.328886\C,0,-
 3.000808,1.082849,-0.278698\H,0,-3.004853,2.129495,-0.583623\H,0,-3.65
 3961,0.512986,-0.932748\H,0,-3.425621,1.01043,0.72226\C,0,-1.730233,-3
 .248785,-0.194346\H,0,-2.585065,-3.91881,-0.231723\H,0,-1.107685,-3.39
 076,-1.078323\H,0,-1.117542,-3.503371,0.673002\C,0,3.527245,0.547336,0
 .937308\H,0,4.041376,1.108011,0.154821\H,0,3.088462,1.257749,1.633131\
 H,0,4.268268,-0.058347,1.453493\C,0,1.466445,2.57484,0.038198\H,0,1.48
 4868,2.890303,1.08265\H,0,2.486921,2.498359,-0.315789\H,0,0.978629,3.3
 63262,-0.53442\\Version=ES64L-G16RevA.03\State=1-A\HF=-633.3289528\RMS
 D=2.807e-09\PG=C01 [X(C11H15N1O2)]\\@


 SEEN ON A WALL AT THE UNIVERSITY OF ILLINOIS AT CHICAGO CIRCLE:

 TO DO IS TO BE  -- SOCRATES
 TO BE IS TO DO  -- SARTRE
 OO BE DO BE DO  -- SINATRA
 Job cpu time:       0 days  0 hours 35 minutes 48.2 seconds.
 Elapsed time:       0 days  0 hours  2 minutes 15.1 seconds.
 File lengths (MBytes):  RWF=    733 Int=      0 D2E=      0 Chk=     67 Scr=      1
 Normal termination of Gaussian 16 at Fri Jan 23 16:41:07 2026.
