 Entering Gaussian System, Link 0=g16
 Input=DDL-LR-1.gjf
 Output=DDL-LR-1.log
 Initial command:
 /data/home/wyx/g16/l1.exe "/scr/tmp/wyx/13109/Gau-1682644.inp" -scrdir="/scr/tmp/wyx/13109/"
 Entering Link 1 = /data/home/wyx/g16/l1.exe PID=   1682645.
  
 Copyright (c) 1988,1990,1992,1993,1995,1998,2003,2009,2016,
            Gaussian, Inc.  All Rights Reserved.
  
 This is part of the Gaussian(R) 16 program.  It is based on
 the Gaussian(R) 09 system (copyright 2009, Gaussian, Inc.),
 the Gaussian(R) 03 system (copyright 2003, Gaussian, Inc.),
 the Gaussian(R) 98 system (copyright 1998, Gaussian, Inc.),
 the Gaussian(R) 94 system (copyright 1995, Gaussian, Inc.),
 the Gaussian 92(TM) system (copyright 1992, Gaussian, Inc.),
 the Gaussian 90(TM) system (copyright 1990, Gaussian, Inc.),
 the Gaussian 88(TM) system (copyright 1988, Gaussian, Inc.),
 the Gaussian 86(TM) system (copyright 1986, Carnegie Mellon
 University), and the Gaussian 82(TM) system (copyright 1983,
 Carnegie Mellon University). Gaussian is a federally registered
 trademark of Gaussian, Inc.
  
 This software contains proprietary and confidential information,
 including trade secrets, belonging to Gaussian, Inc.
  
 This software is provided under written license and may be
 used, copied, transmitted, or stored only in accord with that
 written license.
  
 The following legend is applicable only to US Government
 contracts under FAR:
  
                    RESTRICTED RIGHTS LEGEND
  
 Use, reproduction and disclosure by the US Government is
 subject to restrictions as set forth in subparagraphs (a)
 and (c) of the Commercial Computer Software - Restricted
 Rights clause in FAR 52.227-19.
  
 Gaussian, Inc.
 340 Quinnipiac St., Bldg. 40, Wallingford CT 06492
  
  
 ---------------------------------------------------------------
 Warning -- This program may not be used in any manner that
 competes with the business of Gaussian, Inc. or will provide
 assistance to any competitor of Gaussian, Inc.  The licensee
 of this program is prohibited from giving any competitor of
 Gaussian, Inc. access to this program.  By using this program,
 the user acknowledges that Gaussian, Inc. is engaged in the
 business of creating and licensing software in the field of
 computational chemistry and represents and warrants to the
 licensee that it is not a competitor of Gaussian, Inc. and that
 it will not use this program in any manner prohibited above.
 ---------------------------------------------------------------
  

 Cite this work as:
 Gaussian 16, Revision A.03,
 M. J. Frisch, G. W. Trucks, H. B. Schlegel, G. E. Scuseria, 
 M. A. Robb, J. R. Cheeseman, G. Scalmani, V. Barone, 
 G. A. Petersson, H. Nakatsuji, X. Li, M. Caricato, A. V. Marenich, 
 J. Bloino, B. G. Janesko, R. Gomperts, B. Mennucci, H. P. Hratchian, 
 J. V. Ortiz, A. F. Izmaylov, J. L. Sonnenberg, D. Williams-Young, 
 F. Ding, F. Lipparini, F. Egidi, J. Goings, B. Peng, A. Petrone, 
 T. Henderson, D. Ranasinghe, V. G. Zakrzewski, J. Gao, N. Rega, 
 G. Zheng, W. Liang, M. Hada, M. Ehara, K. Toyota, R. Fukuda, 
 J. Hasegawa, M. Ishida, T. Nakajima, Y. Honda, O. Kitao, H. Nakai, 
 T. Vreven, K. Throssell, J. A. Montgomery, Jr., J. E. Peralta, 
 F. Ogliaro, M. J. Bearpark, J. J. Heyd, E. N. Brothers, K. N. Kudin, 
 V. N. Staroverov, T. A. Keith, R. Kobayashi, J. Normand, 
 K. Raghavachari, A. P. Rendell, J. C. Burant, S. S. Iyengar, 
 J. Tomasi, M. Cossi, J. M. Millam, M. Klene, C. Adamo, R. Cammi, 
 J. W. Ochterski, R. L. Martin, K. Morokuma, O. Farkas, 
 J. B. Foresman, and D. J. Fox, Gaussian, Inc., Wallingford CT, 2016.
 
 ******************************************
 Gaussian 16:  ES64L-G16RevA.03 25-Dec-2016
                23-Jan-2026 
 ******************************************
 %nprocshared=16
 Will use up to   16 processors via shared memory.
 %mem=16GB
 %chk=DDL-LR-1.chk
 ----------------------------------------------------------------------
 #p CAM-B3LYP TZVP em=gd3bj td(nstates=6,root=1) scrf=(Solvent=TetraHyd
 roFuran)
 ----------------------------------------------------------------------
 1/38=1,172=1/1;
 2/12=2,17=6,18=5,40=1/2;
 3/5=19,7=101,11=9,25=1,30=1,70=2201,72=20,74=-40,124=41/1,2,3,8;
 4//1;
 5/5=2,38=5,53=20/2;
 8/6=1,10=1,107=1,108=6/1;
 9/8=1,41=6,42=1,70=2/14;
 6/7=2,8=2,9=2,10=2/1;
 99/5=1,9=1/99;
 Leave Link    1 at Fri Jan 23 15:13:33 2026, MaxMem=  2147483648 cpu:               0.4 elap:               0.1
 (Enter /data/home/wyx/g16/l101.exe)
 -------------------
 Title Card Required
 -------------------
 Symbolic Z-matrix:
 Charge =  0 Multiplicity = 1
 O                     2.79421  -1.56098   0.4863 
 O                    -3.41676  -1.65366  -0.58362 
 N                    -0.66216   1.52464  -0.05115 
 H                    -0.9819    2.47794  -0.09075 
 C                    -1.23933  -0.77688  -0.17245 
 C                     0.66826   1.31571   0.1414 
 C                    -1.62071   0.5359   -0.23153 
 C                    -2.15227  -1.83201  -0.34903 
 C                     0.20153  -1.13885   0.10526 
 H                     0.2689   -1.71733   1.03137 
 H                     0.57417  -1.80603  -0.67504 
 C                     1.14296   0.04104   0.20145 
 C                     2.52703  -0.3632    0.38231 
 C                    -2.98711   1.07313  -0.46477 
 H                    -2.99642   1.78146  -1.29837 
 H                    -3.7006    0.28452  -0.70304 
 H                    -3.36735   1.5921    0.42034 
 C                    -1.81976  -3.29781  -0.28347 
 H                    -2.07512  -3.81082  -1.21358 
 H                    -0.76016  -3.44137  -0.09287 
 H                    -2.37827  -3.78384   0.52039 
 C                     3.67939   0.61179   0.43402 
 H                     3.67482   1.31424  -0.39637 
 H                     3.67198   1.18759   1.3597 
 H                     4.5961    0.02824   0.40093 
 C                     1.443     2.59473   0.25898 
 H                     2.08923   2.60527   1.13116 
 H                     2.06065   2.77198  -0.62055 
 H                     0.76569   3.44253   0.35299 
 
 ITRead=  0  0  0  0  0  0  0  0  0  0  0  0  0  0  0  0  0  0  0  0
 ITRead=  0  0  0  0  0  0  0  0  0
 MicOpt= -1 -1 -1 -1 -1 -1 -1 -1 -1 -1 -1 -1 -1 -1 -1 -1 -1 -1 -1 -1
 MicOpt= -1 -1 -1 -1 -1 -1 -1 -1 -1
 NAtoms=     29 NQM=       29 NQMF=       0 NMMI=      0 NMMIF=      0
                NMic=       0 NMicF=      0.
                    Isotopes and Nuclear Properties:
 (Nuclear quadrupole moments (NQMom) in fm**2, nuclear magnetic moments (NMagM)
  in nuclear magnetons)

  Atom         1           2           3           4           5           6           7           8           9          10
 IAtWgt=          16          16          14           1          12          12          12          12          12           1
 AtmWgt=  15.9949146  15.9949146  14.0030740   1.0078250  12.0000000  12.0000000  12.0000000  12.0000000  12.0000000   1.0078250
 NucSpn=           0           0           2           1           0           0           0           0           0           1
 AtZEff=  -0.0000000  -0.0000000  -0.0000000  -0.0000000  -0.0000000  -0.0000000  -0.0000000  -0.0000000  -0.0000000  -0.0000000
 NQMom=    0.0000000   0.0000000   2.0440000   0.0000000   0.0000000   0.0000000   0.0000000   0.0000000   0.0000000   0.0000000
 NMagM=    0.0000000   0.0000000   0.4037610   2.7928460   0.0000000   0.0000000   0.0000000   0.0000000   0.0000000   2.7928460
 AtZNuc=   8.0000000   8.0000000   7.0000000   1.0000000   6.0000000   6.0000000   6.0000000   6.0000000   6.0000000   1.0000000

  Atom        11          12          13          14          15          16          17          18          19          20
 IAtWgt=           1          12          12          12           1           1           1          12           1           1
 AtmWgt=   1.0078250  12.0000000  12.0000000  12.0000000   1.0078250   1.0078250   1.0078250  12.0000000   1.0078250   1.0078250
 NucSpn=           1           0           0           0           1           1           1           0           1           1
 AtZEff=  -0.0000000  -0.0000000  -0.0000000  -0.0000000  -0.0000000  -0.0000000  -0.0000000  -0.0000000  -0.0000000  -0.0000000
 NQMom=    0.0000000   0.0000000   0.0000000   0.0000000   0.0000000   0.0000000   0.0000000   0.0000000   0.0000000   0.0000000
 NMagM=    2.7928460   0.0000000   0.0000000   0.0000000   2.7928460   2.7928460   2.7928460   0.0000000   2.7928460   2.7928460
 AtZNuc=   1.0000000   6.0000000   6.0000000   6.0000000   1.0000000   1.0000000   1.0000000   6.0000000   1.0000000   1.0000000

  Atom        21          22          23          24          25          26          27          28          29
 IAtWgt=           1          12           1           1           1          12           1           1           1
 AtmWgt=   1.0078250  12.0000000   1.0078250   1.0078250   1.0078250  12.0000000   1.0078250   1.0078250   1.0078250
 NucSpn=           1           0           1           1           1           0           1           1           1
 AtZEff=  -0.0000000  -0.0000000  -0.0000000  -0.0000000  -0.0000000  -0.0000000  -0.0000000  -0.0000000  -0.0000000
 NQMom=    0.0000000   0.0000000   0.0000000   0.0000000   0.0000000   0.0000000   0.0000000   0.0000000   0.0000000
 NMagM=    2.7928460   0.0000000   2.7928460   2.7928460   2.7928460   0.0000000   2.7928460   2.7928460   2.7928460
 AtZNuc=   1.0000000   6.0000000   1.0000000   1.0000000   1.0000000   6.0000000   1.0000000   1.0000000   1.0000000
 Leave Link  101 at Fri Jan 23 15:13:33 2026, MaxMem=  2147483648 cpu:               0.8 elap:               0.1
 (Enter /data/home/wyx/g16/l202.exe)
                          Input orientation:                          
 ---------------------------------------------------------------------
 Center     Atomic      Atomic             Coordinates (Angstroms)
 Number     Number       Type             X           Y           Z
 ---------------------------------------------------------------------
      1          8           0        2.794208   -1.560981    0.486295
      2          8           0       -3.416764   -1.653660   -0.583623
      3          7           0       -0.662164    1.524635   -0.051154
      4          1           0       -0.981904    2.477944   -0.090747
      5          6           0       -1.239328   -0.776881   -0.172451
      6          6           0        0.668258    1.315706    0.141399
      7          6           0       -1.620706    0.535895   -0.231529
      8          6           0       -2.152267   -1.832011   -0.349031
      9          6           0        0.201528   -1.138845    0.105261
     10          1           0        0.268899   -1.717327    1.031365
     11          1           0        0.574171   -1.806034   -0.675043
     12          6           0        1.142960    0.041038    0.201451
     13          6           0        2.527034   -0.363204    0.382312
     14          6           0       -2.987109    1.073130   -0.464771
     15          1           0       -2.996424    1.781455   -1.298371
     16          1           0       -3.700603    0.284517   -0.703038
     17          1           0       -3.367346    1.592097    0.420343
     18          6           0       -1.819755   -3.297814   -0.283465
     19          1           0       -2.075122   -3.810822   -1.213579
     20          1           0       -0.760164   -3.441365   -0.092866
     21          1           0       -2.378267   -3.783842    0.520388
     22          6           0        3.679388    0.611787    0.434016
     23          1           0        3.674822    1.314240   -0.396368
     24          1           0        3.671978    1.187594    1.359704
     25          1           0        4.596100    0.028244    0.400928
     26          6           0        1.442999    2.594731    0.258978
     27          1           0        2.089234    2.605268    1.131161
     28          1           0        2.060649    2.771979   -0.620554
     29          1           0        0.765692    3.442525    0.352994
 ---------------------------------------------------------------------
                    Distance matrix (angstroms):
                    1          2          3          4          5
     1  O    0.000000
     2  O    6.303133   0.000000
     3  N    4.664374   4.239446   0.000000
     4  H    5.559219   4.820957   1.006280   0.000000
     5  C    4.161511   2.383072   2.375880   3.266011   0.000000
     6  C    3.593598   5.101980   1.360423   2.031680   2.848913
     7  C    4.940003   2.853760   1.388865   2.049254   1.368328
     8  C    5.023827   1.298382   3.684591   4.473497   1.406392
     9  C    2.654313   3.719090   2.804381   3.810524   1.511360
    10  H    2.588191   4.024469   3.542463   4.519286   2.146709
    11  H    2.517404   3.994889   3.607093   4.595132   2.144885
    12  C    2.318237   4.927416   2.350179   3.246373   2.546388
    13  C    1.231610   6.158493   3.731329   4.539664   3.829409
    14  C    6.423916   2.762990   2.404226   2.476740   2.561783
    15  H    6.920139   3.533775   2.658999   2.449846   3.301540
    16  H    6.855869   1.962487   3.345887   3.546455   2.732391
    17  H    6.921777   3.397842   2.746793   2.595433   3.239124
    18  C    4.989767   2.311661   4.964877   5.839393   2.589271
    19  H    5.626876   2.617288   5.640460   6.481084   3.314709
    20  H    4.062614   3.239484   4.967142   5.923461   2.708396
    21  H    5.629989   2.614382   5.608172   6.444632   3.289228
    22  C    2.346742   7.518192   4.462931   5.048323   5.146841
    23  H    3.133923   7.689869   4.355788   4.809647   5.345259
    24  H    3.014629   7.880324   4.570438   5.042562   5.507049
    25  H    2.404109   8.246462   5.485700   6.112029   5.918548
    26  C    4.375772   6.509693   2.381806   2.452774   4.329986
    27  H    4.274397   7.169028   3.183681   3.307742   4.921144
    28  H    4.531861   7.041995   3.048572   3.102302   4.866729
    29  H    5.400715   6.658926   2.424956   2.044851   4.701020
                    6          7          8          9         10
     6  C    0.000000
     7  C    2.446740   0.000000
     8  C    4.254880   2.429680   0.000000
     9  C    2.498792   2.497743   2.495438   0.000000
    10  H    3.186035   3.200393   2.789389   1.094006   0.000000
    11  H    3.228109   3.240188   2.745983   1.092190   1.735767
    12  C    1.361516   2.840811   3.830126   1.512505   2.131804
    13  C    2.516312   4.288231   4.958640   2.467054   2.711843
    14  C    3.713219   1.486634   3.024930   3.922394   4.541658
    15  H    3.964814   2.140601   3.830272   4.552497   5.322732
    16  H    4.567644   2.147436   2.646197   4.231540   4.772052
    17  H    4.054664   2.142720   3.713875   4.504906   4.954585
    18  C    5.258829   3.839224   1.504474   2.982925   2.930732
    19  H    5.970208   4.479382   2.160807   3.749925   3.862244
    20  H    4.972423   4.071653   2.143267   2.503139   2.301124
    21  H    5.952339   4.449652   2.148630   3.718021   3.396921
    22  C    3.106128   5.342257   6.371304   3.907468   4.172893
    23  H    3.054279   5.354961   6.622394   4.281709   4.777984
    24  H    3.243919   5.565001   6.779352   4.362335   4.486348
    25  H    4.141601   6.269481   7.040131   4.556509   4.708411
    26  C    1.499984   3.723666   5.735125   3.937571   4.535299
    27  H    2.159114   4.461265   6.314328   4.316745   4.691312
    28  H    2.154079   4.324787   6.246528   4.390636   5.108138
    29  H    2.139538   3.805924   6.068612   4.622619   5.227912
                   11         12         13         14         15
    11  H    0.000000
    12  C    2.122130   0.000000
    13  C    2.648288   1.453198   0.000000
    14  C    4.584377   4.308890   5.760762   0.000000
    15  H    5.099781   4.734239   6.158965   1.093938   0.000000
    16  H    4.758664   4.933304   6.354604   1.089842   1.758156
    17  H    5.318150   4.774574   6.210343   1.094227   1.768451
    18  C    2.847740   4.490073   5.286754   4.527774   5.311644
    19  H    3.365702   5.214900   5.967644   5.024482   5.668293
    20  H    2.189449   3.979401   4.528415   5.047600   5.807921
    21  H    3.749356   5.208692   5.981790   4.993136   5.887490
    22  C    4.088795   2.610231   1.510364   6.742614   6.995409
    23  H    4.407699   2.896335   2.176598   6.666644   6.748142
    24  H    4.764285   3.008666   2.161288   6.905451   7.203167
    25  H    4.549528   3.458920   2.105852   7.703654   7.975449
    26  C    4.581920   2.571902   3.152733   4.739719   4.774435
    27  H    5.001737   2.887052   3.092615   5.537482   5.696070
    28  H    4.813605   2.995978   3.324549   5.328247   5.197553
    29  H    5.351720   3.425699   4.193657   4.512902   4.431667
                   16         17         18         19         20
    16  H    0.000000
    17  H    1.755793   0.000000
    18  C    4.067767   5.177027   0.000000
    19  H    4.435611   5.790603   1.092475   0.000000
    20  H    4.785466   5.691794   1.086125   1.766808   0.000000
    21  H    4.449369   5.467084   1.092858   1.760473   1.763981
    22  C    7.474240   7.114609   6.785303   7.442340   6.034506
    23  H    7.453272   7.094812   7.174550   7.745705   6.509761
    24  H    7.708787   7.113234   7.278600   8.039596   6.571233
    25  H    8.373751   8.115571   7.259081   7.864494   6.400905
    26  C    5.720070   4.916374   6.757359   7.454979   6.435229
    27  H    6.501722   5.595180   7.219954   8.000367   6.795519
    28  H    6.275850   5.651435   7.212042   7.796765   6.844055
    29  H    5.570997   4.528866   7.247192   7.945780   7.065053
                   21         22         23         24         25
    21  H    0.000000
    22  C    7.484931   0.000000
    23  H    7.966854   1.087657   0.000000
    24  H    7.875601   1.090187   1.760635   0.000000
    25  H    7.949092   1.087188   1.771502   1.765601   0.000000
    26  C    7.440202   2.994018   2.655216   2.856568   4.068053
    27  H    7.819996   2.643590   2.552291   2.137080   3.668606
    28  H    7.999032   2.898079   2.186508   3.004676   3.872986
    29  H    7.882441   4.063160   3.681600   3.813748   5.131436
                   26         27         28         29
    26  C    0.000000
    27  H    1.085557   0.000000
    28  H    1.089259   1.759862   0.000000
    29  H    1.089192   1.748801   1.753380   0.000000
 Stoichiometry    C11H15NO2
 Framework group  C1[X(C11H15NO2)]
 Deg. of freedom    81
 Full point group                 C1      NOp   1
 Largest Abelian subgroup         C1      NOp   1
 Largest concise Abelian subgroup C1      NOp   1
                         Standard orientation:                         
 ---------------------------------------------------------------------
 Center     Atomic      Atomic             Coordinates (Angstroms)
 Number     Number       Type             X           Y           Z
 ---------------------------------------------------------------------
      1          8           0       -2.253407   -2.313794   -0.062147
      2          8           0        3.677523   -0.183784    0.066751
      3          7           0       -0.064890    1.805214   -0.038801
      4          1           0       -0.098856    2.810903   -0.044754
      5          6           0        1.296109   -0.142029   -0.011714
      6          6           0       -1.249664    1.136635   -0.030845
      7          6           0        1.195446    1.222581   -0.006596
      8          6           0        2.537069   -0.802880    0.023370
      9          6           0        0.050984   -0.996577   -0.071881
     10          1           0        0.061642   -1.607819   -0.979140
     11          1           0        0.050892   -1.711889    0.753472
     12          6           0       -1.248907   -0.224858   -0.022863
     13          6           0       -2.412959   -1.094362    0.004121
     14          6           0        2.303735    2.213036    0.021233
     15          1           0        2.180627    2.920973    0.846078
     16          1           0        3.275052    1.735275    0.147890
     17          1           0        2.348233    2.787012   -0.909308
     18          6           0        2.735881   -2.294035    0.004095
     19          1           0        3.283804   -2.638802    0.884105
     20          1           0        1.779000   -2.806989   -0.026329
     21          1           0        3.310420   -2.594630   -0.875613
     22          6           0       -3.829670   -0.585672    0.128081
     23          1           0       -3.955559    0.114954    0.950440
     24          1           0       -4.155897   -0.090375   -0.786667
     25          1           0       -4.467989   -1.449535    0.296213
     26          6           0       -2.433201    2.058146   -0.027619
     27          1           0       -3.157862    1.799331   -0.793332
     28          1           0       -2.943151    2.052892    0.934882
     29          1           0       -2.117989    3.082930   -0.219445
 ---------------------------------------------------------------------
 Rotational constants (GHZ):           1.1016845           0.4805977           0.3383488
 Leave Link  202 at Fri Jan 23 15:13:33 2026, MaxMem=  2147483648 cpu:               0.0 elap:               0.0
 (Enter /data/home/wyx/g16/l301.exe)
 Standard basis: TZVP (5D, 7F)
 Ernie: Thresh=  0.10000D-02 Tol=  0.10000D-05 Strict=F.
 There are   370 symmetry adapted cartesian basis functions of A   symmetry.
 There are   356 symmetry adapted basis functions of A   symmetry.
   356 basis functions,   610 primitive gaussians,   370 cartesian basis functions
    52 alpha electrons       52 beta electrons
       nuclear repulsion energy       897.9449182816 Hartrees.
 IExCor=20419 DFT=T Ex+Corr=CAM-B3LYP ExCW=0 ScaHFX=  1.000000
 ScaDFX=  1.000000  1.000000  1.000000  0.810000 ScalE2=  1.000000  1.000000
 IRadAn=      5 IRanWt=     -1 IRanGd=            0 ICorTp=0 IEmpDi=141
 HFx  wShort=  0.000000 wLong=  0.330000 cFull=  0.190000 cShort=  0.000000 cLong=  0.460000
 DFx  wShort=  0.000000 wLong=  0.330000 cFull=  0.190000 cShort=  0.000000 cLong=  0.460000
 NAtoms=   29 NActive=   29 NUniq=   29 SFac= 1.00D+00 NAtFMM=   60 NAOKFM=F Big=F
 Integral buffers will be    131072 words long.
 Raffenetti 1 integral format.
 Two-electron integral symmetry is turned on.
 R6Disp:  Grimme-D3(BJ) Dispersion energy=       -0.0260559832 Hartrees.
 Nuclear repulsion after empirical dispersion term =      897.9188622984 Hartrees.
 ------------------------------------------------------------------------------
 Polarizable Continuum Model (PCM)
 =================================
 Model                : PCM.
 Atomic radii         : UFF (Universal Force Field).
 Polarization charges : Total charges.
 Charge compensation  : None.
 Solution method      : On-the-fly selection.
 Cavity type          : Scaled VdW (van der Waals Surface) (Alpha=1.100).
 Cavity algorithm     : GePol (No added spheres)
                        Default sphere list used, NSphG=   29.
                        Lebedev-Laikov grids with approx.  5.0 points / Ang**2.
                        Smoothing algorithm: York/Karplus (Gamma=1.0000).
                        Polarization charges: spherical gaussians, with
                                              point-specific exponents (IZeta= 3).
                        Self-potential: point-specific (ISelfS= 7).
                        Self-field    : sphere-specific E.n sum rule (ISelfD= 2).
 Solvent              : TetraHydroFuran, Eps=   7.425700 Eps(inf)=   1.974025
 ------------------------------------------------------------------------------
 GePol: Number of generator spheres                  =      29
 GePol: Total number of spheres                      =      29
 GePol: Number of exposed spheres                    =      29 (100.00%)
 GePol: Number of points                             =    2112
 GePol: Average weight of points                     =       0.13
 GePol: Minimum weight of points                     =   0.14D-07
 GePol: Maximum weight of points                     =    0.20577
 GePol: Number of points with low weight             =     141
 GePol: Fraction of low-weight points (<1% of avg)   =       6.68%
 GePol: Cavity surface area                          =    269.111 Ang**2
 GePol: Cavity volume                                =    286.429 Ang**3
 Leave Link  301 at Fri Jan 23 15:13:34 2026, MaxMem=  2147483648 cpu:               0.5 elap:               0.0
 (Enter /data/home/wyx/g16/l302.exe)
 NPDir=0 NMtPBC=     1 NCelOv=     1 NCel=       1 NClECP=     1 NCelD=      1
         NCelK=      1 NCelE2=     1 NClLst=     1 CellRange=     0.0.
 One-electron integrals computed using PRISM.
 One-electron integral symmetry used in STVInt
 NBasis=   356 RedAO= T EigKep=  3.51D-05  NBF=   356
 NBsUse=   356 1.00D-06 EigRej= -1.00D+00 NBFU=   356
 Precomputing XC quadrature grid using
 IXCGrd= 4 IRadAn=           5 IRanWt=          -1 IRanGd=           0 AccXCQ= 0.00D+00.
 Generated NRdTot=       0 NPtTot=           0 NUsed=           0 NTot=          32
 NSgBfM=   366   366   366   366   366 MxSgAt=    29 MxSgA2=    29.
 Leave Link  302 at Fri Jan 23 15:13:34 2026, MaxMem=  2147483648 cpu:               3.1 elap:               0.2
 (Enter /data/home/wyx/g16/l303.exe)
 DipDrv:  MaxL=1.
 Leave Link  303 at Fri Jan 23 15:13:34 2026, MaxMem=  2147483648 cpu:               0.6 elap:               0.0
 (Enter /data/home/wyx/g16/l308.exe)
 Leave Link  308 at Fri Jan 23 15:13:34 2026, MaxMem=  2147483648 cpu:               0.7 elap:               0.1
 (Enter /data/home/wyx/g16/l401.exe)
 ExpMin= 9.52D-02 ExpMax= 2.70D+04 ExpMxC= 9.22D+02 IAcc=3 IRadAn=         5 AccDes= 0.00D+00
 Harris functional with IExCor=20419 and IRadAn=       5 diagonalized for initial guess.
 HarFok:  IExCor=20419 AccDes= 0.00D+00 IRadAn=         5 IDoV= 1 UseB2=F ITyADJ=14
 ICtDFT=  3500011 ScaDFX=  1.000000  1.000000  1.000000  1.000000
 FoFCou: FMM=F IPFlag=           0 FMFlag=      100000 FMFlg1=           0
         NFxFlg=           0 DoJE=T BraDBF=F KetDBF=T FulRan=T
         wScrn=  0.000000 ICntrl=       500 IOpCl=  0 I1Cent=   200000004 NGrid=           0
         NMat0=    1 NMatS0=      1 NMatT0=    0 NMatD0=    1 NMtDS0=    0 NMtDT0=    0
 Petite list used in FoFCou.
 Harris En= -608.709108469229    
 JPrj=0 DoOrth=F DoCkMO=F.
 Leave Link  401 at Fri Jan 23 15:13:35 2026, MaxMem=  2147483648 cpu:              11.7 elap:               0.7
 (Enter /data/home/wyx/g16/l502.exe)
 Integral symmetry usage will be decided dynamically.
 Closed shell SCF:
 Using DIIS extrapolation, IDIIS=  1040.
 NGot=  2147483648 LenX=  2147200095 LenY=  2147062754
 Requested convergence on RMS density matrix=1.00D-08 within 128 cycles.
 Requested convergence on MAX density matrix=1.00D-06.
 Requested convergence on             energy=1.00D-06.
 No special actions if energy rises.
 Fock matrices will be formed incrementally for  20 cycles.

 Cycle   1  Pass 1  IDiag  1:
 FoFJK:  IHMeth= 1 ICntrl=       0 DoSepK=T KAlg= 0 I1Cent=           0 FoldK=F
 IRaf=         1 NMat=       1 IRICut=       1 DoRegI=T DoRafI=F ISym2E= 0 IDoP0=0 IntGTp=1.
 FoFCou: FMM=F IPFlag=           0 FMFlag=      100000 FMFlg1=           0
         NFxFlg=           0 DoJE=T BraDBF=F KetDBF=F FulRan=T
         wScrn=  0.000000 ICntrl=       500 IOpCl=  0 I1Cent=           0 NGrid=           0
         NMat0=    1 NMatS0=      1 NMatT0=    0 NMatD0=    1 NMtDS0=    0 NMtDT0=    0
 Symmetry not used in FoFCou.
 Inv3:  Mode=1 IEnd=    13381632.
 Iteration    1 A*A^-1 deviation from unit magnitude is 2.89D-15 for    499.
 Iteration    1 A*A^-1 deviation from orthogonality  is 2.69D-15 for   1802    636.
 Iteration    1 A^-1*A deviation from unit magnitude is 3.11D-15 for    499.
 Iteration    1 A^-1*A deviation from orthogonality  is 2.46D-15 for   1767    233.
 E= -633.110207731659    
 DIIS: error= 4.31D-02 at cycle   1 NSaved=   1.
 NSaved= 1 IEnMin= 1 EnMin= -633.110207731659     IErMin= 1 ErrMin= 4.31D-02
 ErrMax= 4.31D-02  0.00D+00 EMaxC= 1.00D-01 BMatC= 1.10D+00 BMatP= 1.10D+00
 IDIUse=3 WtCom= 5.69D-01 WtEn= 4.31D-01
 Coeff-Com:  0.100D+01
 Coeff-En:   0.100D+01
 Coeff:      0.100D+01
 Gap=     0.218 Goal=   None    Shift=    0.000
 GapD=    0.218 DampG=1.000 DampE=0.500 DampFc=0.5000 IDamp=-1.
 Damping current iteration by 5.00D-01
 RMSDP=4.01D-03 MaxDP=2.31D-01              OVMax= 1.57D-01

 Cycle   2  Pass 1  IDiag  1:
 RMSU=  1.73D-03    CP:  9.30D-01
 E= -633.207948972058     Delta-E=       -0.097741240399 Rises=F Damp=T
 DIIS: error= 1.97D-02 at cycle   2 NSaved=   2.
 NSaved= 2 IEnMin= 2 EnMin= -633.207948972058     IErMin= 2 ErrMin= 1.97D-02
 ErrMax= 1.97D-02  0.00D+00 EMaxC= 1.00D-01 BMatC= 2.24D-01 BMatP= 1.10D+00
 IDIUse=3 WtCom= 8.03D-01 WtEn= 1.97D-01
 Coeff-Com: -0.587D+00 0.159D+01
 Coeff-En:   0.000D+00 0.100D+01
 Coeff:     -0.471D+00 0.147D+01
 Gap=     0.231 Goal=   None    Shift=    0.000
 RMSDP=1.62D-03 MaxDP=5.28D-02 DE=-9.77D-02 OVMax= 1.44D-01

 Cycle   3  Pass 1  IDiag  1:
 RMSU=  1.53D-03    CP:  9.06D-01  1.23D+00
 E= -633.258480384941     Delta-E=       -0.050531412883 Rises=F Damp=F
 DIIS: error= 1.59D-02 at cycle   3 NSaved=   3.
 NSaved= 3 IEnMin= 3 EnMin= -633.258480384941     IErMin= 3 ErrMin= 1.59D-02
 ErrMax= 1.59D-02  0.00D+00 EMaxC= 1.00D-01 BMatC= 6.40D-02 BMatP= 2.24D-01
 IDIUse=3 WtCom= 8.41D-01 WtEn= 1.59D-01
 Coeff-Com: -0.360D+00 0.791D+00 0.569D+00
 Coeff-En:   0.000D+00 0.000D+00 0.100D+01
 Coeff:     -0.303D+00 0.665D+00 0.638D+00
 Gap=     0.230 Goal=   None    Shift=    0.000
 RMSDP=1.51D-03 MaxDP=9.99D-02 DE=-5.05D-02 OVMax= 8.45D-02

 Cycle   4  Pass 1  IDiag  1:
 RMSU=  5.57D-04    CP:  8.52D-01  1.74D+00  4.96D-01
 E= -633.305843816000     Delta-E=       -0.047363431059 Rises=F Damp=F
 DIIS: error= 5.33D-03 at cycle   4 NSaved=   4.
 NSaved= 4 IEnMin= 4 EnMin= -633.305843816000     IErMin= 4 ErrMin= 5.33D-03
 ErrMax= 5.33D-03  0.00D+00 EMaxC= 1.00D-01 BMatC= 8.78D-03 BMatP= 6.40D-02
 IDIUse=3 WtCom= 9.47D-01 WtEn= 5.33D-02
 Coeff-Com: -0.162D+00 0.352D+00 0.375D+00 0.435D+00
 Coeff-En:   0.000D+00 0.000D+00 0.681D-01 0.932D+00
 Coeff:     -0.154D+00 0.333D+00 0.358D+00 0.462D+00
 Gap=     0.225 Goal=   None    Shift=    0.000
 RMSDP=4.21D-04 MaxDP=2.84D-02 DE=-4.74D-02 OVMax= 2.03D-02

 Cycle   5  Pass 1  IDiag  1:
 RMSU=  1.03D-04    CP:  8.66D-01  1.65D+00  6.57D-01  6.39D-01
 E= -633.312756261320     Delta-E=       -0.006912445320 Rises=F Damp=F
 DIIS: error= 5.62D-04 at cycle   5 NSaved=   5.
 NSaved= 5 IEnMin= 5 EnMin= -633.312756261320     IErMin= 5 ErrMin= 5.62D-04
 ErrMax= 5.62D-04  0.00D+00 EMaxC= 1.00D-01 BMatC= 9.80D-05 BMatP= 8.78D-03
 IDIUse=3 WtCom= 9.94D-01 WtEn= 5.62D-03
 Coeff-Com: -0.325D-01 0.697D-01 0.902D-01 0.167D+00 0.706D+00
 Coeff-En:   0.000D+00 0.000D+00 0.000D+00 0.000D+00 0.100D+01
 Coeff:     -0.323D-01 0.693D-01 0.897D-01 0.166D+00 0.708D+00
 Gap=     0.225 Goal=   None    Shift=    0.000
 RMSDP=1.60D-04 MaxDP=1.16D-02 DE=-6.91D-03 OVMax= 2.80D-03

 Cycle   6  Pass 1  IDiag  1:
 RMSU=  6.30D-05    CP:  8.59D-01  1.68D+00  6.50D-01  7.95D-01  1.03D+00
 E= -633.312814678480     Delta-E=       -0.000058417159 Rises=F Damp=F
 DIIS: error= 4.91D-04 at cycle   6 NSaved=   6.
 NSaved= 6 IEnMin= 6 EnMin= -633.312814678480     IErMin= 6 ErrMin= 4.91D-04
 ErrMax= 4.91D-04  0.00D+00 EMaxC= 1.00D-01 BMatC= 3.29D-05 BMatP= 9.80D-05
 IDIUse=3 WtCom= 9.95D-01 WtEn= 4.91D-03
 Coeff-Com:  0.178D-01-0.388D-01-0.309D-01-0.353D-02 0.436D+00 0.620D+00
 Coeff-En:   0.000D+00 0.000D+00 0.000D+00 0.000D+00 0.161D+00 0.839D+00
 Coeff:      0.177D-01-0.387D-01-0.308D-01-0.352D-02 0.435D+00 0.621D+00
 Gap=     0.225 Goal=   None    Shift=    0.000
 RMSDP=3.19D-05 MaxDP=2.49D-03 DE=-5.84D-05 OVMax= 3.22D-03

 Cycle   7  Pass 1  IDiag  1:
 RMSU=  1.96D-05    CP:  8.60D-01  1.68D+00  6.56D-01  7.83D-01  1.14D+00
                    CP:  7.44D-01
 E= -633.312844474351     Delta-E=       -0.000029795871 Rises=F Damp=F
 DIIS: error= 4.97D-05 at cycle   7 NSaved=   7.
 NSaved= 7 IEnMin= 7 EnMin= -633.312844474351     IErMin= 7 ErrMin= 4.97D-05
 ErrMax= 4.97D-05  0.00D+00 EMaxC= 1.00D-01 BMatC= 1.21D-06 BMatP= 3.29D-05
 IDIUse=1 WtCom= 1.00D+00 WtEn= 0.00D+00
 Coeff-Com:  0.498D-02-0.108D-01-0.991D-02-0.111D-01 0.281D-01 0.177D+00
 Coeff-Com:  0.822D+00
 Coeff:      0.498D-02-0.108D-01-0.991D-02-0.111D-01 0.281D-01 0.177D+00
 Coeff:      0.822D+00
 Gap=     0.225 Goal=   None    Shift=    0.000
 RMSDP=1.86D-05 MaxDP=1.20D-03 DE=-2.98D-05 OVMax= 6.61D-04

 Cycle   8  Pass 1  IDiag  1:
 RMSU=  6.57D-06    CP:  8.59D-01  1.68D+00  6.56D-01  8.00D-01  1.17D+00
                    CP:  8.72D-01  9.10D-01
 E= -633.312846098379     Delta-E=       -0.000001624028 Rises=F Damp=F
 DIIS: error= 2.36D-05 at cycle   8 NSaved=   8.
 NSaved= 8 IEnMin= 8 EnMin= -633.312846098379     IErMin= 8 ErrMin= 2.36D-05
 ErrMax= 2.36D-05  0.00D+00 EMaxC= 1.00D-01 BMatC= 2.27D-07 BMatP= 1.21D-06
 IDIUse=1 WtCom= 1.00D+00 WtEn= 0.00D+00
 Coeff-Com: -0.148D-03 0.387D-03-0.393D-03-0.606D-02-0.623D-01-0.268D-02
 Coeff-Com:  0.351D+00 0.720D+00
 Coeff:     -0.148D-03 0.387D-03-0.393D-03-0.606D-02-0.623D-01-0.268D-02
 Coeff:      0.351D+00 0.720D+00
 Gap=     0.225 Goal=   None    Shift=    0.000
 RMSDP=7.00D-06 MaxDP=4.13D-04 DE=-1.62D-06 OVMax= 4.28D-04

 Cycle   9  Pass 1  IDiag  1:
 RMSU=  2.74D-06    CP:  8.59D-01  1.69D+00  6.57D-01  8.06D-01  1.20D+00
                    CP:  8.99D-01  1.02D+00  1.01D+00
 E= -633.312846410008     Delta-E=       -0.000000311629 Rises=F Damp=F
 DIIS: error= 1.07D-05 at cycle   9 NSaved=   9.
 NSaved= 9 IEnMin= 9 EnMin= -633.312846410008     IErMin= 9 ErrMin= 1.07D-05
 ErrMax= 1.07D-05  0.00D+00 EMaxC= 1.00D-01 BMatC= 4.11D-08 BMatP= 2.27D-07
 IDIUse=1 WtCom= 1.00D+00 WtEn= 0.00D+00
 Coeff-Com: -0.887D-03 0.195D-02 0.156D-02-0.865D-03-0.324D-01-0.226D-01
 Coeff-Com:  0.125D-01 0.334D+00 0.707D+00
 Coeff:     -0.887D-03 0.195D-02 0.156D-02-0.865D-03-0.324D-01-0.226D-01
 Coeff:      0.125D-01 0.334D+00 0.707D+00
 Gap=     0.225 Goal=   None    Shift=    0.000
 RMSDP=2.60D-06 MaxDP=1.48D-04 DE=-3.12D-07 OVMax= 1.76D-04

 Cycle  10  Pass 1  IDiag  1:
 RMSU=  1.04D-06    CP:  8.59D-01  1.69D+00  6.56D-01  8.08D-01  1.19D+00
                    CP:  9.21D-01  1.02D+00  1.18D+00  7.83D-01
 E= -633.312846457947     Delta-E=       -0.000000047939 Rises=F Damp=F
 DIIS: error= 4.26D-06 at cycle  10 NSaved=  10.
 NSaved=10 IEnMin=10 EnMin= -633.312846457947     IErMin=10 ErrMin= 4.26D-06
 ErrMax= 4.26D-06  0.00D+00 EMaxC= 1.00D-01 BMatC= 7.74D-09 BMatP= 4.11D-08
 IDIUse=1 WtCom= 1.00D+00 WtEn= 0.00D+00
 Coeff-Com: -0.521D-03 0.113D-02 0.106D-02 0.485D-03-0.942D-02-0.111D-01
 Coeff-Com: -0.493D-01 0.763D-01 0.373D+00 0.618D+00
 Coeff:     -0.521D-03 0.113D-02 0.106D-02 0.485D-03-0.942D-02-0.111D-01
 Coeff:     -0.493D-01 0.763D-01 0.373D+00 0.618D+00
 Gap=     0.226 Goal=   None    Shift=    0.000
 RMSDP=9.53D-07 MaxDP=6.78D-05 DE=-4.79D-08 OVMax= 5.42D-05

 Cycle  11  Pass 1  IDiag  1:
 RMSU=  3.22D-07    CP:  8.59D-01  1.69D+00  6.56D-01  8.09D-01  1.19D+00
                    CP:  9.26D-01  1.03D+00  1.20D+00  9.06D-01  1.05D+00
 E= -633.312846466946     Delta-E=       -0.000000008999 Rises=F Damp=F
 DIIS: error= 2.01D-06 at cycle  11 NSaved=  11.
 NSaved=11 IEnMin=11 EnMin= -633.312846466946     IErMin=11 ErrMin= 2.01D-06
 ErrMax= 2.01D-06  0.00D+00 EMaxC= 1.00D-01 BMatC= 5.21D-10 BMatP= 7.74D-09
 IDIUse=1 WtCom= 1.00D+00 WtEn= 0.00D+00
 Coeff-Com:  0.373D-04-0.844D-04-0.323D-04 0.178D-03 0.272D-02 0.206D-02
 Coeff-Com: -0.170D-01-0.319D-01-0.223D-01 0.172D+00 0.894D+00
 Coeff:      0.373D-04-0.844D-04-0.323D-04 0.178D-03 0.272D-02 0.206D-02
 Coeff:     -0.170D-01-0.319D-01-0.223D-01 0.172D+00 0.894D+00
 Gap=     0.226 Goal=   None    Shift=    0.000
 RMSDP=4.39D-07 MaxDP=3.48D-05 DE=-9.00D-09 OVMax= 3.33D-05

 Cycle  12  Pass 1  IDiag  1:
 RMSU=  1.60D-07    CP:  8.59D-01  1.69D+00  6.56D-01  8.09D-01  1.19D+00
                    CP:  9.28D-01  1.02D+00  1.23D+00  8.86D-01  1.16D+00
                    CP:  1.09D+00
 E= -633.312846468095     Delta-E=       -0.000000001149 Rises=F Damp=F
 DIIS: error= 9.20D-07 at cycle  12 NSaved=  12.
 NSaved=12 IEnMin=12 EnMin= -633.312846468095     IErMin=12 ErrMin= 9.20D-07
 ErrMax= 9.20D-07  0.00D+00 EMaxC= 1.00D-01 BMatC= 6.83D-11 BMatP= 5.21D-10
 IDIUse=1 WtCom= 1.00D+00 WtEn= 0.00D+00
 Coeff-Com:  0.485D-04-0.107D-03-0.815D-04 0.431D-04 0.172D-02 0.162D-02
 Coeff-Com: -0.244D-02-0.157D-01-0.438D-01 0.546D-02 0.310D+00 0.744D+00
 Coeff:      0.485D-04-0.107D-03-0.815D-04 0.431D-04 0.172D-02 0.162D-02
 Coeff:     -0.244D-02-0.157D-01-0.438D-01 0.546D-02 0.310D+00 0.744D+00
 Gap=     0.226 Goal=   None    Shift=    0.000
 RMSDP=1.14D-07 MaxDP=7.23D-06 DE=-1.15D-09 OVMax= 1.10D-05

 Cycle  13  Pass 1  IDiag  1:
 RMSU=  4.25D-08    CP:  8.59D-01  1.69D+00  6.56D-01  8.09D-01  1.19D+00
                    CP:  9.29D-01  1.02D+00  1.24D+00  8.80D-01  1.21D+00
                    CP:  1.18D+00  1.13D+00
 E= -633.312846468263     Delta-E=       -0.000000000168 Rises=F Damp=F
 DIIS: error= 4.67D-07 at cycle  13 NSaved=  13.
 NSaved=13 IEnMin=13 EnMin= -633.312846468263     IErMin=13 ErrMin= 4.67D-07
 ErrMax= 4.67D-07  0.00D+00 EMaxC= 1.00D-01 BMatC= 1.11D-11 BMatP= 6.83D-11
 IDIUse=1 WtCom= 1.00D+00 WtEn= 0.00D+00
 Coeff-Com:  0.524D-05-0.107D-04-0.178D-04-0.340D-04-0.222D-03-0.790D-04
 Coeff-Com:  0.335D-02 0.525D-02-0.793D-02-0.369D-01-0.139D+00 0.161D+00
 Coeff-Com:  0.101D+01
 Coeff:      0.524D-05-0.107D-04-0.178D-04-0.340D-04-0.222D-03-0.790D-04
 Coeff:      0.335D-02 0.525D-02-0.793D-02-0.369D-01-0.139D+00 0.161D+00
 Coeff:      0.101D+01
 Gap=     0.226 Goal=   None    Shift=    0.000
 RMSDP=8.94D-08 MaxDP=3.97D-06 DE=-1.68D-10 OVMax= 8.22D-06

 Cycle  14  Pass 1  IDiag  1:
 RMSU=  2.17D-08    CP:  8.59D-01  1.69D+00  6.56D-01  8.09D-01  1.19D+00
                    CP:  9.29D-01  1.02D+00  1.24D+00  8.66D-01  1.23D+00
                    CP:  1.24D+00  1.37D+00  1.29D+00
 E= -633.312846468313     Delta-E=       -0.000000000049 Rises=F Damp=F
 DIIS: error= 1.51D-07 at cycle  14 NSaved=  14.
 NSaved=14 IEnMin=14 EnMin= -633.312846468313     IErMin=14 ErrMin= 1.51D-07
 ErrMax= 1.51D-07  0.00D+00 EMaxC= 1.00D-01 BMatC= 9.57D-13 BMatP= 1.11D-11
 IDIUse=1 WtCom= 1.00D+00 WtEn= 0.00D+00
 Coeff-Com: -0.414D-05 0.923D-05 0.586D-05-0.828D-05-0.209D-03-0.172D-03
 Coeff-Com:  0.637D-03 0.242D-02 0.360D-02-0.225D-02-0.527D-01-0.731D-01
 Coeff-Com:  0.638D-01 0.106D+01
 Coeff:     -0.414D-05 0.923D-05 0.586D-05-0.828D-05-0.209D-03-0.172D-03
 Coeff:      0.637D-03 0.242D-02 0.360D-02-0.225D-02-0.527D-01-0.731D-01
 Coeff:      0.638D-01 0.106D+01
 Gap=     0.226 Goal=   None    Shift=    0.000
 RMSDP=2.96D-08 MaxDP=1.41D-06 DE=-4.95D-11 OVMax= 3.00D-06

 Cycle  15  Pass 1  IDiag  1:
 RMSU=  6.63D-09    CP:  8.59D-01  1.69D+00  6.56D-01  8.09D-01  1.19D+00
                    CP:  9.29D-01  1.02D+00  1.24D+00  8.61D-01  1.24D+00
                    CP:  1.25D+00  1.44D+00  1.50D+00  1.29D+00
 E= -633.312846468317     Delta-E=       -0.000000000004 Rises=F Damp=F
 DIIS: error= 3.10D-08 at cycle  15 NSaved=  15.
 NSaved=15 IEnMin=15 EnMin= -633.312846468317     IErMin=15 ErrMin= 3.10D-08
 ErrMax= 3.10D-08  0.00D+00 EMaxC= 1.00D-01 BMatC= 1.91D-13 BMatP= 9.57D-13
 IDIUse=1 WtCom= 1.00D+00 WtEn= 0.00D+00
 Coeff-Com: -0.205D-05 0.443D-05 0.398D-05 0.718D-06-0.513D-04-0.599D-04
 Coeff-Com: -0.148D-03 0.220D-03 0.199D-02 0.389D-02-0.369D-02-0.384D-01
 Coeff-Com: -0.879D-01 0.388D+00 0.736D+00
 Coeff:     -0.205D-05 0.443D-05 0.398D-05 0.718D-06-0.513D-04-0.599D-04
 Coeff:     -0.148D-03 0.220D-03 0.199D-02 0.389D-02-0.369D-02-0.384D-01
 Coeff:     -0.879D-01 0.388D+00 0.736D+00
 Gap=     0.226 Goal=   None    Shift=    0.000
 RMSDP=4.86D-09 MaxDP=2.76D-07 DE=-4.43D-12 OVMax= 5.97D-07

 Error on total polarization charges =  0.01433
 SCF Done:  E(RCAM-B3LYP) =  -633.312846468     A.U. after   15 cycles
            NFock= 15  Conv=0.49D-08     -V/T= 2.0043
 KE= 6.305789240227D+02 PE=-3.271738793115D+03 EE= 1.109928160326D+03
 Leave Link  502 at Fri Jan 23 15:14:34 2026, MaxMem=  2147483648 cpu:             930.1 elap:              58.6
 (Enter /data/home/wyx/g16/l801.exe)
 DoSCS=F DFT=T ScalE2(SS,OS)=  1.000000  1.000000
 ExpMin= 9.52D-02 ExpMax= 2.70D+04 ExpMxC= 9.22D+02 IAcc=3 IRadAn=         5 AccDes= 0.00D+00
 HarFok:  IExCor=  205 AccDes= 0.00D+00 IRadAn=         5 IDoV=-2 UseB2=F ITyADJ=14
 ICtDFT= 12500011 ScaDFX=  1.000000  1.000000  1.000000  1.000000
 Largest valence mixing into a core orbital is  5.63D-05
 Largest core mixing into a valence orbital is  1.27D-05
 Range of M.O.s used for correlation:    15   356
 NBasis=   356 NAE=    52 NBE=    52 NFC=    14 NFV=     0
 NROrb=    342 NOA=    38 NOB=    38 NVA=   304 NVB=   304

 **** Warning!!: The largest alpha MO coefficient is  0.46543077D+02

 Leave Link  801 at Fri Jan 23 15:14:34 2026, MaxMem=  2147483648 cpu:               1.0 elap:               0.1
 (Enter /data/home/wyx/g16/l914.exe)
 RHF ground state
 Two-electron integrals replicated using symmetry.
 MDV=  2147483648 DFT=T DoStab=F Mixed=T DoRPA=T DoScal=F NonHer=T
 NEqPCM:  Using non-equilibrium solvation (IEInf=1, Eps=   7.4257, EpsInf=   1.9740)
 Inv3:  Mode=1 IEnd=    13381632.
 Iteration    1 A*A^-1 deviation from unit magnitude is 3.33D-15 for    892.
 Iteration    1 A*A^-1 deviation from orthogonality  is 2.76D-15 for   1670    729.
 Iteration    1 A^-1*A deviation from unit magnitude is 3.11D-15 for    105.
 Iteration    1 A^-1*A deviation from orthogonality  is 1.37D-15 for   1930    313.
 Making orbital integer symmetry assigments:
 Orbital symmetries:
       Occupied  (A) (A) (A) (A) (A) (A) (A) (A) (A) (A) (A) (A)
                 (A) (A) (A) (A) (A) (A) (A) (A) (A) (A) (A) (A)
                 (A) (A) (A) (A) (A) (A) (A) (A) (A) (A) (A) (A)
                 (A) (A) (A) (A) (A) (A) (A) (A) (A) (A) (A) (A)
                 (A) (A) (A) (A)
       Virtual   (A) (A) (A) (A) (A) (A) (A) (A) (A) (A) (A) (A)
                 (A) (A) (A) (A) (A) (A) (A) (A) (A) (A) (A) (A)
                 (A) (A) (A) (A) (A) (A) (A) (A) (A) (A) (A) (A)
                 (A) (A) (A) (A) (A) (A) (A) (A) (A) (A) (A) (A)
                 (A) (A) (A) (A) (A) (A) (A) (A) (A) (A) (A) (A)
                 (A) (A) (A) (A) (A) (A) (A) (A) (A) (A) (A) (A)
                 (A) (A) (A) (A) (A) (A) (A) (A) (A) (A) (A) (A)
                 (A) (A) (A) (A) (A) (A) (A) (A) (A) (A) (A) (A)
                 (A) (A) (A) (A) (A) (A) (A) (A) (A) (A) (A) (A)
                 (A) (A) (A) (A) (A) (A) (A) (A) (A) (A) (A) (A)
                 (A) (A) (A) (A) (A) (A) (A) (A) (A) (A) (A) (A)
                 (A) (A) (A) (A) (A) (A) (A) (A) (A) (A) (A) (A)
                 (A) (A) (A) (A) (A) (A) (A) (A) (A) (A) (A) (A)
                 (A) (A) (A) (A) (A) (A) (A) (A) (A) (A) (A) (A)
                 (A) (A) (A) (A) (A) (A) (A) (A) (A) (A) (A) (A)
                 (A) (A) (A) (A) (A) (A) (A) (A) (A) (A) (A) (A)
                 (A) (A) (A) (A) (A) (A) (A) (A) (A) (A) (A) (A)
                 (A) (A) (A) (A) (A) (A) (A) (A) (A) (A) (A) (A)
                 (A) (A) (A) (A) (A) (A) (A) (A) (A) (A) (A) (A)
                 (A) (A) (A) (A) (A) (A) (A) (A) (A) (A) (A) (A)
                 (A) (A) (A) (A) (A) (A) (A) (A) (A) (A) (A) (A)
                 (A) (A) (A) (A) (A) (A) (A) (A) (A) (A) (A) (A)
                 (A) (A) (A) (A) (A) (A) (A) (A) (A) (A) (A) (A)
                 (A) (A) (A) (A) (A) (A) (A) (A) (A) (A) (A) (A)
                 (A) (A) (A) (A) (A) (A) (A) (A) (A) (A) (A) (A)
                 (A) (A) (A) (A)
    24 initial guesses have been made.
 Convergence on wavefunction:    0.001000000000000
 Davidson Disk Diagonalization:  ConvIn= 1.00D-03 SkipCon=T Conv= 1.00D-03.
 Max sub-space:  2000 roots to seek:    24 dimension of matrix:        23104
 Iteration     1 Dimension    24 NMult     0 NNew     24
 CISAX will form    24 AO SS matrices at one time.
 NMat=    24 NSing=    24 JSym2X= 0.
 FoFJK:  IHMeth= 1 ICntrl=       0 DoSepK=T KAlg= 0 I1Cent=           0 FoldK=F
 IRaf=         1 NMat=      48 IRICut=       1 DoRegI=T DoRafI=F ISym2E= 0 IDoP0=3 IntGTp=3.
 New state      1 was old state      2
 New state      2 was old state      1
 New state      3 was old state      4
 New state      4 was old state      3
 New state      5 was old state      7
 New state      6 was old state      5
 Excitation Energies [eV] at current iteration:
 Root      1 :     3.532672321794574
 Root      2 :     3.684299626454361
 Root      3 :     4.426531119082977
 Root      4 :     5.431015251063037
 Root      5 :     6.276949955091608
 Root      6 :     6.299432289813898
 Root      7 :     6.495042064675935
 Root      8 :     6.596519239171207
 Root      9 :     6.863199513545516
 Root     10 :     7.028147954845709
 Root     11 :     7.140913966003327
 Root     12 :     7.268262753357754
 Root     13 :     7.493820454280774
 Root     14 :     7.611704700150267
 Root     15 :     7.660677614764045
 Root     16 :     7.689185632295056
 Root     17 :     7.761942872046343
 Root     18 :     8.201260488541886
 Root     19 :     8.266954206462591
 Root     20 :     8.305960541269044
 Root     21 :     8.371439922272232
 Root     22 :     8.515781945947010
 Root     23 :     8.688106650770791
 Root     24 :     8.963122914341675
 Iteration     2 Dimension    36 NMult    24 NNew     12
 CISAX will form    12 AO SS matrices at one time.
 NMat=    12 NSing=    12 JSym2X= 0.
 New state      1 was old state      2
 Root      1 not converged, maximum delta is    0.056009648427894
 New state      2 was old state      1
 Root      2 not converged, maximum delta is    0.063027118087177
 Root      3 not converged, maximum delta is    0.093666312818897
 Root      4 not converged, maximum delta is    0.330779365818920
 New state      5 was old state      6
 Root      5 not converged, maximum delta is    0.313574791994473
 New state      6 was old state      5
 Root      6 not converged, maximum delta is    0.073110552239466
 Excitation Energies [eV] at current iteration:
 Root      1 :     3.237368438088780   Change is   -0.446931188365581
 Root      2 :     3.333149334495958   Change is   -0.199522987298616
 Root      3 :     4.192111312251226   Change is   -0.234419806831751
 Root      4 :     5.111857052095135   Change is   -0.319158198967902
 Root      5 :     5.399032488112263   Change is   -0.900399801701636
 Root      6 :     6.130662060805411   Change is   -0.146287894286197
 Iteration     3 Dimension    48 NMult    36 NNew     12
 CISAX will form    12 AO SS matrices at one time.
 NMat=    12 NSing=    12 JSym2X= 0.
 Root      1 not converged, maximum delta is    0.008591103106976
 Root      2 not converged, maximum delta is    0.013270414388677
 Root      3 not converged, maximum delta is    0.018592065298989
 Root      4 not converged, maximum delta is    0.038051716535743
 Root      5 not converged, maximum delta is    0.037503297485325
 Root      6 not converged, maximum delta is    0.014693181140720
 Excitation Energies [eV] at current iteration:
 Root      1 :     3.220254708391089   Change is   -0.017113729697692
 Root      2 :     3.325477660778178   Change is   -0.007671673717780
 Root      3 :     4.179234989012741   Change is   -0.012876323238485
 Root      4 :     5.087397877916260   Change is   -0.024459174178875
 Root      5 :     5.372405476029109   Change is   -0.026627012083153
 Root      6 :     6.123038933441010   Change is   -0.007623127364400
 Iteration     4 Dimension    60 NMult    48 NNew     12
 CISAX will form    12 AO SS matrices at one time.
 NMat=    12 NSing=    12 JSym2X= 0.
 Root      1 not converged, maximum delta is    0.002503999337905
 Root      2 not converged, maximum delta is    0.001688657394652
 Root      3 not converged, maximum delta is    0.001957765025168
 Root      4 not converged, maximum delta is    0.004719648079361
 Root      5 not converged, maximum delta is    0.004561821756239
 Root      6 not converged, maximum delta is    0.003528428518542
 Excitation Energies [eV] at current iteration:
 Root      1 :     3.218844577960740   Change is   -0.001410130430349
 Root      2 :     3.325183147659052   Change is   -0.000294513119127
 Root      3 :     4.178758135364038   Change is   -0.000476853648703
 Root      4 :     5.084522934118948   Change is   -0.002874943797312
 Root      5 :     5.368951365760562   Change is   -0.003454110268547
 Root      6 :     6.122492174044261   Change is   -0.000546759396749
 Iteration     5 Dimension    72 NMult    60 NNew     12
 CISAX will form    12 AO SS matrices at one time.
 NMat=    12 NSing=    12 JSym2X= 0.
 Root      1 has converged.
 Root      2 has converged.
 Root      3 has converged.
 Root      4 has converged.
 Root      5 not converged, maximum delta is    0.001258981677095
 Root      6 has converged.
 Excitation Energies [eV] at current iteration:
 Root      1 :     3.218766057282714   Change is   -0.000078520678026
 Root      2 :     3.325163912356609   Change is   -0.000019235302442
 Root      3 :     4.178730350283655   Change is   -0.000027785080382
 Root      4 :     5.084345248599075   Change is   -0.000177685519873
 Root      5 :     5.368688998764989   Change is   -0.000262366995574
 Root      6 :     6.122451386265857   Change is   -0.000040787778403
 Iteration     6 Dimension    74 NMult    72 NNew      2
 CISAX will form     2 AO SS matrices at one time.
 NMat=     2 NSing=     2 JSym2X= 0.
 Root      1 has converged.
 Root      2 has converged.
 Root      3 has converged.
 Root      4 has converged.
 Root      5 has converged.
 Root      6 has converged.
 Excitation Energies [eV] at current iteration:
 Root      1 :     3.218765424178754   Change is   -0.000000633103960
 Root      2 :     3.325163903193185   Change is   -0.000000009163424
 Root      3 :     4.178730275010017   Change is   -0.000000075273638
 Root      4 :     5.084336822661506   Change is   -0.000008425937569
 Root      5 :     5.368666038897861   Change is   -0.000022959867127
 Root      6 :     6.122451262375132   Change is   -0.000000123890726
 Convergence achieved on expansion vectors.
 ***********************************************************************
 Excited states from <AA,BB:AA,BB> singles matrix:
 ***********************************************************************
 
 1PDM for each excited state written to RWF  633
 Ground to excited state transition densities written to RWF  633
 Ground to excited state transition electric dipole moments (Au):
       state          X           Y           Z        Dip. S.      Osc.
         1        -1.5908     -0.0236     -0.0180      2.5314      0.1996
         2         0.0833      0.0162     -0.0387      0.0087      0.0007
         3        -0.0034     -0.0304      0.0349      0.0022      0.0002
         4         0.0706      1.3592     -0.0178      1.8526      0.2308
         5        -0.3107      1.3312     -0.0149      1.8688      0.2458
         6        -0.0255     -0.0039      0.0429      0.0025      0.0004
 Ground to excited state transition velocity dipole moments (Au):
       state          X           Y           Z        Dip. S.      Osc.
         1         0.1840      0.0020      0.0022      0.0339      0.1908
         2        -0.0103     -0.0020      0.0038      0.0001      0.0007
         3         0.0001      0.0043     -0.0017      0.0000      0.0001
         4        -0.0063     -0.2367      0.0024      0.0561      0.2001
         5         0.0580     -0.2575      0.0030      0.0697      0.2355
         6         0.0055      0.0010     -0.0289      0.0009      0.0026
 Ground to excited state transition magnetic dipole moments (Au):
       state          X           Y           Z
         1        -0.0109     -0.0082     -1.4088
         2        -0.7079     -0.2717      0.0795
         3         0.0014     -0.9229     -0.0227
         4         0.0050     -0.0177      0.4624
         5        -0.0278     -0.0368      0.3769
         6        -0.0667     -0.0109     -0.0146
 Ground to excited state transition velocity quadrupole moments (Au):
       state          XX          YY          ZZ          XY          XZ          YZ
         1         0.3748     -0.1374     -0.0137     -0.4643      0.0155     -0.0029
         2        -0.0226      0.0019      0.0021      0.0203      0.0376     -0.0180
         3         0.0052     -0.0027     -0.0041     -0.0118      0.0704      0.0053
         4         1.2401     -0.2402     -0.0318      0.2693      0.0193      0.0121
         5         0.9017     -0.4878     -0.0351     -0.0278      0.0373      0.0044
         6        -0.0522     -0.0407      0.0352     -0.0154     -0.0073      0.0175
 <0|del|b> * <b|rxdel|0> + <0|del|b> * <b|delr+rdel|0>
 Rotatory Strengths (R) in cgs (10**-40 erg-esu-cm/Gauss)
       state          XX          YY          ZZ    R(velocity)    E-M Angle
         1       -12.5389    -13.8722     -4.3605    -10.2572       91.14
         2         2.9161     22.2540     21.9206     15.6969       16.74
         3        -9.7151      0.0448     -8.4544     -6.0416      157.10
         4        19.9058      0.6810     -0.6173      6.6565       87.24
         5        36.0524     -0.2739     -3.5489     10.7432       84.85
         6         1.3562     -0.4624     -0.7585      0.0451       90.00
 1/2[<0|r|b>*<b|rxdel|0> + (<0|rxdel|b>*<b|r|0>)*]
 Rotatory Strengths (R) in cgs (10**-40 erg-esu-cm/Gauss)
       state          XX          YY          ZZ     R(length)
         1       -12.2984     -0.1368    -17.9596    -10.1316
         2        41.6850      3.1085      2.1752     15.6562
         3         0.0033    -19.8351      0.5613     -6.4235
         4        -0.2484     17.0112      5.8244      7.5291
         5        -6.0965     34.6570      3.9805     10.8470
         6        -1.2030     -0.0302      0.4425     -0.2635
  1/2[<0|del|b>*<b|r|0> + (<0|r|b>*<b|del|0>)*] (Au)
       state          X           Y           Z        Dip. S.   Osc.(frdel)
         1        -0.2927     -0.0000     -0.0000      0.2928      0.1952
         2        -0.0009     -0.0000     -0.0001      0.0010      0.0007
         3        -0.0000     -0.0001     -0.0001      0.0002      0.0001
         4        -0.0004     -0.3217     -0.0000      0.3222      0.2148
         5        -0.0180     -0.3428     -0.0000      0.3609      0.2406
         6        -0.0001     -0.0000     -0.0012      0.0014      0.0009

 Excitation energies and oscillator strengths:
 
 Excited State   1:      Singlet-A      3.2188 eV  385.19 nm  f=0.1996  <S**2>=0.000
      52 -> 53         0.69999
 This state for optimization and/or second-order correction.
 Total Energy, E(TD-HF/TD-DFT) =  -633.194559015    
 Copying the excited state density for this state as the 1-particle RhoCI density.
 
 Excited State   2:      Singlet-A      3.3252 eV  372.87 nm  f=0.0007  <S**2>=0.000
      51 -> 53         0.63521
      51 -> 54         0.26891
 
 Excited State   3:      Singlet-A      4.1787 eV  296.70 nm  f=0.0002  <S**2>=0.000
      50 -> 53         0.52703
      50 -> 54        -0.43108
      50 -> 58        -0.12002
 
 Excited State   4:      Singlet-A      5.0843 eV  243.86 nm  f=0.2308  <S**2>=0.000
      52 -> 54         0.69979
 
 Excited State   5:      Singlet-A      5.3687 eV  230.94 nm  f=0.2458  <S**2>=0.000
      49 -> 53         0.69522
 
 Excited State   6:      Singlet-A      6.1225 eV  202.51 nm  f=0.0004  <S**2>=0.000
      52 -> 55         0.66371
      52 -> 57         0.14728
      52 -> 61        -0.10770
 SavETr:  write IOETrn=   770 NScale= 10 NData=  16 NLR=1 NState=    6 LETran=     118.
 Leave Link  914 at Fri Jan 23 15:16:43 2026, MaxMem=  2147483648 cpu:            2038.9 elap:             128.0
 (Enter /data/home/wyx/g16/l601.exe)
 Copying SCF densities to generalized density rwf, IOpCl= 0 IROHF=0.

 **********************************************************************

            Population analysis using the SCF density.

 **********************************************************************

 Orbital symmetries:
       Occupied  (A) (A) (A) (A) (A) (A) (A) (A) (A) (A) (A) (A)
                 (A) (A) (A) (A) (A) (A) (A) (A) (A) (A) (A) (A)
                 (A) (A) (A) (A) (A) (A) (A) (A) (A) (A) (A) (A)
                 (A) (A) (A) (A) (A) (A) (A) (A) (A) (A) (A) (A)
                 (A) (A) (A) (A)
       Virtual   (A) (A) (A) (A) (A) (A) (A) (A) (A) (A) (A) (A)
                 (A) (A) (A) (A) (A) (A) (A) (A) (A) (A) (A) (A)
                 (A) (A) (A) (A) (A) (A) (A) (A) (A) (A) (A) (A)
                 (A) (A) (A) (A) (A) (A) (A) (A) (A) (A) (A) (A)
                 (A) (A) (A) (A) (A) (A) (A) (A) (A) (A) (A) (A)
                 (A) (A) (A) (A) (A) (A) (A) (A) (A) (A) (A) (A)
                 (A) (A) (A) (A) (A) (A) (A) (A) (A) (A) (A) (A)
                 (A) (A) (A) (A) (A) (A) (A) (A) (A) (A) (A) (A)
                 (A) (A) (A) (A) (A) (A) (A) (A) (A) (A) (A) (A)
                 (A) (A) (A) (A) (A) (A) (A) (A) (A) (A) (A) (A)
                 (A) (A) (A) (A) (A) (A) (A) (A) (A) (A) (A) (A)
                 (A) (A) (A) (A) (A) (A) (A) (A) (A) (A) (A) (A)
                 (A) (A) (A) (A) (A) (A) (A) (A) (A) (A) (A) (A)
                 (A) (A) (A) (A) (A) (A) (A) (A) (A) (A) (A) (A)
                 (A) (A) (A) (A) (A) (A) (A) (A) (A) (A) (A) (A)
                 (A) (A) (A) (A) (A) (A) (A) (A) (A) (A) (A) (A)
                 (A) (A) (A) (A) (A) (A) (A) (A) (A) (A) (A) (A)
                 (A) (A) (A) (A) (A) (A) (A) (A) (A) (A) (A) (A)
                 (A) (A) (A) (A) (A) (A) (A) (A) (A) (A) (A) (A)
                 (A) (A) (A) (A) (A) (A) (A) (A) (A) (A) (A) (A)
                 (A) (A) (A) (A) (A) (A) (A) (A) (A) (A) (A) (A)
                 (A) (A) (A) (A) (A) (A) (A) (A) (A) (A) (A) (A)
                 (A) (A) (A) (A) (A) (A) (A) (A) (A) (A) (A) (A)
                 (A) (A) (A) (A) (A) (A) (A) (A) (A) (A) (A) (A)
                 (A) (A) (A) (A) (A) (A) (A) (A) (A) (A) (A) (A)
                 (A) (A) (A) (A)
 The electronic state is 1-A.
 Alpha  occ. eigenvalues --  -19.17671 -19.16216 -14.44723 -10.33261 -10.33218
 Alpha  occ. eigenvalues --  -10.32776 -10.32565 -10.26166 -10.25428 -10.25259
 Alpha  occ. eigenvalues --  -10.25157 -10.24243 -10.24178 -10.23900  -1.11676
 Alpha  occ. eigenvalues --   -1.08378  -1.07450  -0.91628  -0.90667  -0.83947
 Alpha  occ. eigenvalues --   -0.82561  -0.81547  -0.78829  -0.74465  -0.71802
 Alpha  occ. eigenvalues --   -0.69310  -0.62146  -0.58525  -0.56960  -0.55233
 Alpha  occ. eigenvalues --   -0.54836  -0.54109  -0.52335  -0.51867  -0.50697
 Alpha  occ. eigenvalues --   -0.49516  -0.49361  -0.49015  -0.48513  -0.48115
 Alpha  occ. eigenvalues --   -0.46587  -0.45649  -0.44576  -0.43883  -0.43010
 Alpha  occ. eigenvalues --   -0.42432  -0.41510  -0.40356  -0.32952  -0.32114
 Alpha  occ. eigenvalues --   -0.30361  -0.26317
 Alpha virt. eigenvalues --   -0.03767   0.01842   0.06287   0.08255   0.08520
 Alpha virt. eigenvalues --    0.09949   0.10958   0.11158   0.12684   0.13038
 Alpha virt. eigenvalues --    0.14768   0.15098   0.15267   0.16491   0.17146
 Alpha virt. eigenvalues --    0.17374   0.17582   0.17708   0.18699   0.19551
 Alpha virt. eigenvalues --    0.19864   0.20162   0.22361   0.23048   0.24219
 Alpha virt. eigenvalues --    0.24581   0.24967   0.25460   0.25898   0.26398
 Alpha virt. eigenvalues --    0.27327   0.27674   0.28527   0.29211   0.29709
 Alpha virt. eigenvalues --    0.30795   0.31155   0.33556   0.34044   0.34720
 Alpha virt. eigenvalues --    0.35479   0.35923   0.36790   0.36877   0.37523
 Alpha virt. eigenvalues --    0.40050   0.40826   0.41267   0.42389   0.42818
 Alpha virt. eigenvalues --    0.44240   0.45117   0.45431   0.46251   0.46513
 Alpha virt. eigenvalues --    0.47527   0.47851   0.48138   0.48623   0.49013
 Alpha virt. eigenvalues --    0.49566   0.49967   0.50762   0.51427   0.51821
 Alpha virt. eigenvalues --    0.51996   0.52991   0.53140   0.53705   0.53995
 Alpha virt. eigenvalues --    0.54797   0.55603   0.55947   0.57619   0.57835
 Alpha virt. eigenvalues --    0.58292   0.59081   0.61394   0.62557   0.62990
 Alpha virt. eigenvalues --    0.63431   0.65174   0.65480   0.66776   0.67526
 Alpha virt. eigenvalues --    0.68254   0.69048   0.71114   0.71655   0.71691
 Alpha virt. eigenvalues --    0.73492   0.75850   0.77554   0.77789   0.79082
 Alpha virt. eigenvalues --    0.80913   0.82371   0.84870   0.88511   0.91684
 Alpha virt. eigenvalues --    0.94768   0.96165   1.00829   1.03607   1.19601
 Alpha virt. eigenvalues --    1.21416   1.22858   1.26411   1.29917   1.31285
 Alpha virt. eigenvalues --    1.31602   1.33390   1.34154   1.35182   1.36692
 Alpha virt. eigenvalues --    1.37637   1.38292   1.39290   1.39539   1.39777
 Alpha virt. eigenvalues --    1.40367   1.40644   1.41056   1.41211   1.41975
 Alpha virt. eigenvalues --    1.42478   1.43171   1.44265   1.44778   1.45839
 Alpha virt. eigenvalues --    1.48434   1.49703   1.50305   1.50803   1.51289
 Alpha virt. eigenvalues --    1.51855   1.52924   1.54973   1.57580   1.57939
 Alpha virt. eigenvalues --    1.59373   1.59577   1.59843   1.61105   1.61710
 Alpha virt. eigenvalues --    1.62184   1.62745   1.63237   1.63941   1.64786
 Alpha virt. eigenvalues --    1.65104   1.65794   1.66045   1.66739   1.67716
 Alpha virt. eigenvalues --    1.68236   1.68896   1.69598   1.71382   1.72330
 Alpha virt. eigenvalues --    1.72600   1.74393   1.75605   1.76149   1.80447
 Alpha virt. eigenvalues --    1.81868   1.82874   1.84122   1.84357   1.85620
 Alpha virt. eigenvalues --    1.85912   1.86348   1.89797   1.90185   1.91039
 Alpha virt. eigenvalues --    1.91471   1.92807   1.97078   1.98287   2.01450
 Alpha virt. eigenvalues --    2.02433   2.04780   2.06443   2.08035   2.09940
 Alpha virt. eigenvalues --    2.10087   2.13519   2.14990   2.18711   2.19953
 Alpha virt. eigenvalues --    2.20219   2.23479   2.24565   2.25076   2.26319
 Alpha virt. eigenvalues --    2.27551   2.29230   2.30125   2.31707   2.32883
 Alpha virt. eigenvalues --    2.34348   2.34704   2.35823   2.38481   2.38690
 Alpha virt. eigenvalues --    2.40067   2.41943   2.42729   2.44025   2.45909
 Alpha virt. eigenvalues --    2.46959   2.47912   2.49267   2.50145   2.50708
 Alpha virt. eigenvalues --    2.52761   2.54358   2.55515   2.55950   2.57216
 Alpha virt. eigenvalues --    2.57632   2.58469   2.61648   2.62676   2.63275
 Alpha virt. eigenvalues --    2.64020   2.64706   2.65321   2.65916   2.68049
 Alpha virt. eigenvalues --    2.68832   2.71247   2.73111   2.74498   2.75535
 Alpha virt. eigenvalues --    2.76391   2.76921   2.77256   2.78287   2.79182
 Alpha virt. eigenvalues --    2.80653   2.81340   2.83239   2.84211   2.84597
 Alpha virt. eigenvalues --    2.85715   2.88529   2.89271   2.91087   2.93222
 Alpha virt. eigenvalues --    2.97806   2.98990   2.99506   3.03982   3.08521
 Alpha virt. eigenvalues --    3.11371   3.12694   3.14883   3.18204   3.20671
 Alpha virt. eigenvalues --    3.21489   3.22097   3.25577   3.25988   3.26630
 Alpha virt. eigenvalues --    3.30400   3.31137   3.32155   3.35930   3.37882
 Alpha virt. eigenvalues --    3.38683   3.39480   3.40089   3.40382   3.41255
 Alpha virt. eigenvalues --    3.42272   3.44210   3.45114   3.46813   3.49501
 Alpha virt. eigenvalues --    3.51300   3.53609   3.55027   3.57543   3.60123
 Alpha virt. eigenvalues --    3.63510   3.92480   4.00270   4.28654   4.36482
 Alpha virt. eigenvalues --   21.64733  21.76308  22.05062  22.10228  22.12234
 Alpha virt. eigenvalues --   22.13038  22.16258  22.19616  22.20802  22.27090
 Alpha virt. eigenvalues --   22.31342  31.92765  43.64868  43.68173
          Condensed to atoms (all electrons):
               1          2          3          4          5          6
     1  O    7.927648   0.000000  -0.000219   0.000018   0.017713   0.017333
     2  O    0.000000   8.114875   0.000782   0.000012  -0.184417   0.001828
     3  N   -0.000219   0.000782   6.343374   0.369722  -0.090601   0.387085
     4  H    0.000018   0.000012   0.369722   0.400141   0.011080  -0.040373
     5  C    0.017713  -0.184417  -0.090601   0.011080   7.195652  -0.041259
     6  C    0.017333   0.001828   0.387085  -0.040373  -0.041259   5.576452
     7  C    0.000157   0.001599   0.344197  -0.044102   0.328526  -0.160639
     8  C   -0.000264   0.593498   0.004391  -0.001364  -0.487353   0.049191
     9  C    0.002691   0.025931   0.021629   0.001117  -0.692600  -0.086865
    10  H    0.006432  -0.000149   0.001075   0.000008  -0.062989  -0.001778
    11  H    0.007701  -0.000151  -0.000340   0.000009  -0.103787   0.021309
    12  C   -0.253756  -0.004292  -0.106336   0.018652   0.221933  -0.150102
    13  C    0.741098   0.000005  -0.000787   0.000566   0.063629   0.112351
    14  C   -0.000015  -0.089895  -0.049137   0.002247   0.037636  -0.003477
    15  H    0.000000   0.003868   0.001270  -0.000359  -0.006540   0.003211
    16  H    0.000000   0.044825   0.003474   0.000688   0.013311  -0.000144
    17  H    0.000000   0.002944  -0.000900   0.000221  -0.014284   0.000948
    18  C   -0.000339  -0.083665  -0.000296   0.000011  -0.128306  -0.002419
    19  H    0.000006  -0.000918   0.000011  -0.000001  -0.002893   0.000066
    20  H    0.000946   0.007578   0.000058   0.000000   0.082365  -0.001366
    21  H    0.000003  -0.001336   0.000010  -0.000001  -0.005883   0.000054
    22  C   -0.122112   0.000000   0.000206   0.000113   0.000032  -0.004970
    23  H    0.003675   0.000000   0.000087  -0.000048  -0.000306  -0.021116
    24  H    0.002480   0.000000   0.000128  -0.000017  -0.000100   0.006733
    25  H    0.010597  -0.000000   0.000017  -0.000003  -0.000050  -0.001868
    26  C    0.000807   0.000011  -0.027038  -0.011428   0.002482   0.212769
    27  H   -0.000098  -0.000000  -0.000514   0.000864   0.000418  -0.037183
    28  H   -0.000025  -0.000000  -0.002790   0.000612   0.000468  -0.040873
    29  H    0.000016   0.000000   0.004102   0.002511  -0.000542  -0.053836
               7          8          9         10         11         12
     1  O    0.000157  -0.000264   0.002691   0.006432   0.007701  -0.253756
     2  O    0.001599   0.593498   0.025931  -0.000149  -0.000151  -0.004292
     3  N    0.344197   0.004391   0.021629   0.001075  -0.000340  -0.106336
     4  H   -0.044102  -0.001364   0.001117   0.000008   0.000009   0.018652
     5  C    0.328526  -0.487353  -0.692600  -0.062989  -0.103787   0.221933
     6  C   -0.160639   0.049191  -0.086865  -0.001778   0.021309  -0.150102
     7  C    5.548167  -0.241382  -0.279746   0.002760   0.009580   0.061641
     8  C   -0.241382   5.770236   0.231392  -0.006271   0.002075  -0.099941
     9  C   -0.279746   0.231392   6.485307   0.454769   0.505579  -0.170781
    10  H    0.002760  -0.006271   0.454769   0.537296  -0.041676  -0.037874
    11  H    0.009580   0.002075   0.505579  -0.041676   0.526381  -0.073904
    12  C    0.061641  -0.099941  -0.170781  -0.037874  -0.073904   7.562073
    13  C    0.027690  -0.010402  -0.203010  -0.007571  -0.005158  -0.513390
    14  C    0.184278  -0.098823   0.020485  -0.000279  -0.000228   0.005757
    15  H   -0.045450   0.007195  -0.000002  -0.000027   0.000065  -0.001272
    16  H   -0.060703  -0.028570   0.002559  -0.000029   0.000004  -0.000389
    17  H   -0.026630   0.006911  -0.001113   0.000100  -0.000014  -0.000274
    18  C    0.028597   0.272930  -0.024965  -0.005355  -0.011696   0.012501
    19  H   -0.001264  -0.021208  -0.001242   0.000290   0.000351  -0.000321
    20  H    0.005793  -0.146484  -0.016775  -0.005036  -0.002846   0.005727
    21  H   -0.000915  -0.021349  -0.001726   0.000466   0.000493  -0.000358
    22  C    0.001315  -0.000052   0.019767   0.001377   0.000033  -0.321477
    23  H   -0.000048   0.000003   0.000758  -0.000154   0.000072   0.046810
    24  H   -0.000031   0.000002  -0.002042   0.000150  -0.000122   0.006936
    25  H    0.000012  -0.000001  -0.000042  -0.000076  -0.000032   0.025970
    26  C    0.004698   0.000907   0.017715  -0.000259   0.000024  -0.094446
    27  H   -0.001222  -0.000001  -0.000356  -0.000018   0.000011  -0.001390
    28  H   -0.001260  -0.000006  -0.000477  -0.000007   0.000043  -0.015232
    29  H    0.003650   0.000022  -0.000605   0.000032  -0.000008   0.023882
              13         14         15         16         17         18
     1  O    0.741098  -0.000015   0.000000   0.000000   0.000000  -0.000339
     2  O    0.000005  -0.089895   0.003868   0.044825   0.002944  -0.083665
     3  N   -0.000787  -0.049137   0.001270   0.003474  -0.000900  -0.000296
     4  H    0.000566   0.002247  -0.000359   0.000688   0.000221   0.000011
     5  C    0.063629   0.037636  -0.006540   0.013311  -0.014284  -0.128306
     6  C    0.112351  -0.003477   0.003211  -0.000144   0.000948  -0.002419
     7  C    0.027690   0.184278  -0.045450  -0.060703  -0.026630   0.028597
     8  C   -0.010402  -0.098823   0.007195  -0.028570   0.006911   0.272930
     9  C   -0.203010   0.020485  -0.000002   0.002559  -0.001113  -0.024965
    10  H   -0.007571  -0.000279  -0.000027  -0.000029   0.000100  -0.005355
    11  H   -0.005158  -0.000228   0.000065   0.000004  -0.000014  -0.011696
    12  C   -0.513390   0.005757  -0.001272  -0.000389  -0.000274   0.012501
    13  C    5.523314  -0.000053  -0.000029   0.000005  -0.000022   0.000831
    14  C   -0.000053   5.325892   0.390525   0.411536   0.391587  -0.004772
    15  H   -0.000029   0.390525   0.546404  -0.015325  -0.032478   0.000138
    16  H    0.000005   0.411536  -0.015325   0.434420  -0.013242   0.001737
    17  H   -0.000022   0.391587  -0.032478  -0.013242   0.525231   0.000111
    18  C    0.000831  -0.004772   0.000138   0.001737   0.000111   5.165762
    19  H   -0.000019   0.000006   0.000008  -0.000003  -0.000009   0.404699
    20  H    0.002251   0.000581  -0.000015  -0.000216  -0.000015   0.413351
    21  H   -0.000025  -0.000085  -0.000008   0.000009   0.000014   0.409025
    22  C    0.329232   0.000021  -0.000002   0.000000   0.000000   0.000013
    23  H   -0.070350   0.000001   0.000000  -0.000000  -0.000000   0.000000
    24  H   -0.041626   0.000000  -0.000000  -0.000000   0.000000  -0.000000
    25  H   -0.046235   0.000000  -0.000000  -0.000000   0.000000   0.000000
    26  C   -0.047193  -0.000825   0.000091   0.000015  -0.000149  -0.000022
    27  H   -0.006068  -0.000015   0.000009  -0.000000  -0.000004  -0.000000
    28  H    0.005164  -0.000047  -0.000016  -0.000000   0.000010  -0.000000
    29  H   -0.000397   0.000635   0.000027  -0.000001  -0.000009   0.000001
              19         20         21         22         23         24
     1  O    0.000006   0.000946   0.000003  -0.122112   0.003675   0.002480
     2  O   -0.000918   0.007578  -0.001336   0.000000   0.000000   0.000000
     3  N    0.000011   0.000058   0.000010   0.000206   0.000087   0.000128
     4  H   -0.000001   0.000000  -0.000001   0.000113  -0.000048  -0.000017
     5  C   -0.002893   0.082365  -0.005883   0.000032  -0.000306  -0.000100
     6  C    0.000066  -0.001366   0.000054  -0.004970  -0.021116   0.006733
     7  C   -0.001264   0.005793  -0.000915   0.001315  -0.000048  -0.000031
     8  C   -0.021208  -0.146484  -0.021349  -0.000052   0.000003   0.000002
     9  C   -0.001242  -0.016775  -0.001726   0.019767   0.000758  -0.002042
    10  H    0.000290  -0.005036   0.000466   0.001377  -0.000154   0.000150
    11  H    0.000351  -0.002846   0.000493   0.000033   0.000072  -0.000122
    12  C   -0.000321   0.005727  -0.000358  -0.321477   0.046810   0.006936
    13  C   -0.000019   0.002251  -0.000025   0.329232  -0.070350  -0.041626
    14  C    0.000006   0.000581  -0.000085   0.000021   0.000001   0.000000
    15  H    0.000008  -0.000015  -0.000008  -0.000002   0.000000  -0.000000
    16  H   -0.000003  -0.000216   0.000009   0.000000  -0.000000  -0.000000
    17  H   -0.000009  -0.000015   0.000014   0.000000  -0.000000   0.000000
    18  C    0.404699   0.413351   0.409025   0.000013   0.000000  -0.000000
    19  H    0.500373  -0.022634  -0.018375  -0.000001   0.000000  -0.000000
    20  H   -0.022634   0.548655  -0.022558   0.000061  -0.000001  -0.000001
    21  H   -0.018375  -0.022558   0.498132  -0.000000   0.000000   0.000000
    22  C   -0.000001   0.000061  -0.000000   5.445753   0.382823   0.403743
    23  H    0.000000  -0.000001   0.000000   0.382823   0.553515  -0.032295
    24  H   -0.000000  -0.000001   0.000000   0.403743  -0.032295   0.508760
    25  H    0.000000  -0.000000  -0.000000   0.382437  -0.019372  -0.008306
    26  C    0.000000  -0.000016   0.000000  -0.042369   0.018831  -0.014638
    27  H    0.000000   0.000000  -0.000000   0.008729  -0.006866  -0.000560
    28  H   -0.000000   0.000000   0.000000  -0.012141  -0.002377   0.001443
    29  H   -0.000000  -0.000000   0.000000   0.001908   0.000649   0.000162
              25         26         27         28         29
     1  O    0.010597   0.000807  -0.000098  -0.000025   0.000016
     2  O   -0.000000   0.000011  -0.000000  -0.000000   0.000000
     3  N    0.000017  -0.027038  -0.000514  -0.002790   0.004102
     4  H   -0.000003  -0.011428   0.000864   0.000612   0.002511
     5  C   -0.000050   0.002482   0.000418   0.000468  -0.000542
     6  C   -0.001868   0.212769  -0.037183  -0.040873  -0.053836
     7  C    0.000012   0.004698  -0.001222  -0.001260   0.003650
     8  C   -0.000001   0.000907  -0.000001  -0.000006   0.000022
     9  C   -0.000042   0.017715  -0.000356  -0.000477  -0.000605
    10  H   -0.000076  -0.000259  -0.000018  -0.000007   0.000032
    11  H   -0.000032   0.000024   0.000011   0.000043  -0.000008
    12  C    0.025970  -0.094446  -0.001390  -0.015232   0.023882
    13  C   -0.046235  -0.047193  -0.006068   0.005164  -0.000397
    14  C    0.000000  -0.000825  -0.000015  -0.000047   0.000635
    15  H   -0.000000   0.000091   0.000009  -0.000016   0.000027
    16  H   -0.000000   0.000015  -0.000000  -0.000000  -0.000001
    17  H    0.000000  -0.000149  -0.000004   0.000010  -0.000009
    18  C    0.000000  -0.000022  -0.000000  -0.000000   0.000001
    19  H    0.000000   0.000000   0.000000  -0.000000  -0.000000
    20  H   -0.000000  -0.000016   0.000000   0.000000  -0.000000
    21  H   -0.000000   0.000000  -0.000000   0.000000   0.000000
    22  C    0.382437  -0.042369   0.008729  -0.012141   0.001908
    23  H   -0.019372   0.018831  -0.006866  -0.002377   0.000649
    24  H   -0.008306  -0.014638  -0.000560   0.001443   0.000162
    25  H    0.494042   0.001886   0.000527   0.000094  -0.000040
    26  C    0.001886   5.228357   0.414735   0.439107   0.386091
    27  H    0.000527   0.414735   0.512608  -0.030506  -0.022854
    28  H    0.000094   0.439107  -0.030506   0.480977  -0.016024
    29  H   -0.000040   0.386091  -0.022854  -0.016024   0.523107
 Mulliken charges:
               1
     1  O   -0.362494
     2  O   -0.432934
     3  N   -0.202659
     4  H    0.289102
     5  C   -0.153336
     6  C    0.258940
     7  C    0.310733
     8  C    0.224721
     9  C   -0.307352
    10  H    0.164797
    11  H    0.166232
    12  C   -0.146347
    13  C    0.146200
    14  C   -0.523537
    15  H    0.148712
    16  H    0.206037
    17  H    0.161066
    18  C   -0.447872
    19  H    0.163076
    20  H    0.150597
    21  H    0.164414
    22  C   -0.474440
    23  H    0.145710
    24  H    0.169200
    25  H    0.160442
    26  C   -0.490144
    27  H    0.169753
    28  H    0.193861
    29  H    0.147521
 Sum of Mulliken charges =  -0.00000
 Mulliken charges with hydrogens summed into heavy atoms:
               1
     1  O   -0.362494
     2  O   -0.432934
     3  N    0.086443
     5  C   -0.153336
     6  C    0.258940
     7  C    0.310733
     8  C    0.224721
     9  C    0.023677
    12  C   -0.146347
    13  C    0.146200
    14  C   -0.007722
    18  C    0.030216
    22  C    0.000912
    26  C    0.020992
 Electronic spatial extent (au):  <R**2>=           3237.7391
 Charge=             -0.0000 electrons
 Dipole moment (field-independent basis, Debye):
    X=             -4.5354    Y=              7.2674    Z=             -0.0231  Tot=              8.5666
 Quadrupole moment (field-independent basis, Debye-Ang):
   XX=            -99.7863   YY=            -78.9208   ZZ=            -84.2827
   XY=            -13.4323   XZ=             -1.0319   YZ=             -0.5540
 Traceless Quadrupole moment (field-independent basis, Debye-Ang):
   XX=            -12.1230   YY=              8.7424   ZZ=              3.3806
   XY=            -13.4323   XZ=             -1.0319   YZ=             -0.5540
 Octapole moment (field-independent basis, Debye-Ang**2):
  XXX=           -121.8431  YYY=             64.3511  ZZZ=             -0.1002  XYY=             36.4020
  XXY=             25.3977  XXZ=             -1.6709  XZZ=             -0.3007  YZZ=             -1.3037
  YYZ=              0.9914  XYZ=              0.9653
 Hexadecapole moment (field-independent basis, Debye-Ang**3):
 XXXX=          -3192.9666 YYYY=          -1291.2327 ZZZZ=           -124.4208 XXXY=            -49.2594
 XXXZ=             -8.2699 YYYX=            -90.4383 YYYZ=             -5.9095 ZZZX=             -0.2931
 ZZZY=              1.0607 XXYY=           -692.7016 XXZZ=           -484.2209 YYZZ=           -235.1099
 XXYZ=             -3.2225 YYXZ=             -3.6244 ZZXY=             -3.9834
 N-N= 8.979188622984D+02 E-N=-3.271738795084D+03  KE= 6.305789240227D+02
 Leave Link  601 at Fri Jan 23 15:16:43 2026, MaxMem=  2147483648 cpu:               0.7 elap:               0.1
 (Enter /data/home/wyx/g16/l9999.exe)
 Electronic transition elements 
                 1             2             3             4             5 
      1  -0.633195D+03 -0.633191D+03 -0.633159D+03 -0.633126D+03 -0.633116D+03
      2   0.147759D+01 -0.884736D-01  0.189714D-01 -0.541433D+00 -0.178409D+00
      3   0.537589D+00 -0.142665D-01 -0.271469D-01  0.124734D+01  0.135533D+01
      4   0.243235D+00  0.257071D-01 -0.325193D-01 -0.602793D-01 -0.798020D-02
      5  -0.170620D+00  0.107947D-01 -0.188700D-02  0.886121D-01  0.364736D-01
      6  -0.628719D-01  0.171947D-02  0.397541D-02 -0.219347D+00 -0.261461D+00
      7  -0.282231D-01 -0.217496D-02  0.143439D-02  0.103242D-01  0.175820D-02
      8  -0.197678D+00  0.761625D+00  0.316759D+00  0.707014D-01  0.948617D-01
      9  -0.783536D-02 -0.504562D-02 -0.864396D+00 -0.170022D-01 -0.236252D-01
     10   0.139487D+01  0.347567D-01  0.684100D-01 -0.456991D+00 -0.366917D+00
     11   0.634028D-03 -0.145706D-01 -0.236383D-01  0.119906D+01  0.683467D+00
     12   0.231821D+00 -0.146721D-01  0.596185D-02 -0.234349D+00 -0.297494D+00
     13  -0.883156D-02  0.105892D-01  0.160376D-01  0.328371D-02 -0.715817D-02
     14   0.510846D+00 -0.276666D-01  0.816314D-02  0.282397D+00  0.471853D+00
     15   0.171617D-01  0.262858D-01  0.648292D-01  0.209245D+00  0.146443D+00
     16   0.862620D-01  0.261829D-01  0.213111D-01  0.375446D-01  0.797256D-01
                 6 
      1  -0.633088D+03
      2   0.313696D-01
      3   0.542511D-02
      4  -0.386035D-01
      5  -0.977686D-02
      6  -0.110221D-02
      7   0.277698D-01
      8   0.633525D-01
      9   0.132473D-01
     10   0.243808D-01
     11  -0.585680D-01
     12  -0.318556D-01
     13   0.327863D-01
     14   0.105169D-01
     15  -0.148426D-01
     16  -0.177239D-01
 1\1\GINC-CN013\SP\RCAM-B3LYP TD-FC\TZVP\C11H15N1O2\WYX\23-Jan-2026\0\\
 #p CAM-B3LYP TZVP em=gd3bj td(nstates=6,root=1) scrf=(Solvent=TetraHyd
 roFuran)\\Title Card Required\\0,1\O,0,2.794208,-1.560981,0.486295\O,0
 ,-3.416764,-1.65366,-0.583623\N,0,-0.662164,1.524635,-0.051154\H,0,-0.
 981904,2.477944,-0.090747\C,0,-1.239328,-0.776881,-0.172451\C,0,0.6682
 58,1.315706,0.141399\C,0,-1.620706,0.535895,-0.231529\C,0,-2.152267,-1
 .832011,-0.349031\C,0,0.201528,-1.138845,0.105261\H,0,0.268899,-1.7173
 27,1.031365\H,0,0.574171,-1.806034,-0.675043\C,0,1.14296,0.041038,0.20
 1451\C,0,2.527034,-0.363204,0.382312\C,0,-2.987109,1.07313,-0.464771\H
 ,0,-2.996424,1.781455,-1.298371\H,0,-3.700603,0.284517,-0.703038\H,0,-
 3.367346,1.592097,0.420343\C,0,-1.819755,-3.297814,-0.283465\H,0,-2.07
 5122,-3.810822,-1.213579\H,0,-0.760164,-3.441365,-0.092866\H,0,-2.3782
 67,-3.783842,0.520388\C,0,3.679388,0.611787,0.434016\H,0,3.674822,1.31
 424,-0.396368\H,0,3.671978,1.187594,1.359704\H,0,4.5961,0.028244,0.400
 928\C,0,1.442999,2.594731,0.258978\H,0,2.089234,2.605268,1.131161\H,0,
 2.060649,2.771979,-0.620554\H,0,0.765692,3.442525,0.352994\\Version=ES
 64L-G16RevA.03\State=1-A\HF=-633.3128465\RMSD=4.858e-09\PG=C01 [X(C11H
 15N1O2)]\\@


                                                                                    A
                                                                                  AA
                                                                                 AAA
                                                                                AAAA
                                                                               AAAAA
                                                                              AAAAAA   KKKKKKKK
                                                                             AAAAAAA   KKKKKKKK
                                                                            AAAAAAAA   KKKKKKKK
                                       ZZZZZZZZZZZZZZZZZZZZ                AAAA  AAA   KKKKKKKK
                                       ZZZZZZZZZZZZZZZZZZZ                AAAA   AAA   KKKKKKKK          K
                                       ZZZZZZZZZZZZZZZZZZ                AAAA    AAA   KKKKKKKK         KKK
                                       ZZZZZZZZZZZZZZZZZ                AAAA     AAA   KKKKKKKK        KKKKK
                                       ZZZZZZZZZZZZZZZZ                AAAA      AAA   KKKKKKKK       KKKKKKK
                                                ZZZZZZ                AAAA       AAA   KKKKKKKK      KKKKKKK
                                               ZZZZZZ                AAAA        AAA   KKKKKKKK     KKKKKKK
                                              ZZZZZZ                AAAA         AAA   KKKKKKKK    KKKKKKK
                                             ZZZZZZ                AAAA          AAA   KKKKKKKK   KKKKKKK
                                            ZZZZZZ                AAAAAAAAAAAAAAAAAA   KKKKKKKK  KKKKKKK
                                           ZZZZZZ                AAAAAAAAAAAAAAAAAAA   KKKKKKKK KKKKKKK
                                          ZZZZZZ                AAAAAAAAAAAAAAAAAAAA   KKKKKKKKKKKKKKK
                                         ZZZZZZ                AAAAAAAAAAAAAAAAAAAAA   KKKKKKKKKKKKKK
                                        ZZZZZZ                AAAAAA        AAAAAAAA   KKKKKKKKKKKKK
                                       ZZZZZZ                AAAAAA         AAAAAAAA   KKKKKKKKKKKK
                                      ZZZZZZ                AAAAAA          AAAAAAAA   KKKKKKKKKKK
                                     ZZZZZZ                AAAAAA           AAAAAAAA   KKKKKKKKKKKK
                                    ZZZZZZ                AAAAAA            AAAAAAAA   KKKKKKKKKKKKK
                                   ZZZZZZ                AAAAAA             AAAAAAAA   KKKKKKKKKKKKKK
                                  ZZZZZZ                AAAAAA              AAAAAAAA   KKKKKKKKKKKKKKK
                                 ZZZZZZ                AAAAAA               AAAAAAAA   KKKKK KKKKKKKKKK
                                ZZZZZZ                AAAAAA                AAAAAAAA   KKKKK  KKKKKKKKKK
                               ZZZZZZ                AAAAAA                            KKKKK   KKKKKKKKKK
                              ZZZZZZ                AAAAAA                             KKKKK    KKKKKKKKKK
                             ZZZZZZ                                                    KKKKK     KKKKKKKKKK
                            ZZZZZZ                                                     KKKKK      KKKKKKKKKK
                           ZZZZZZ                                                      KKKKK       KKKKKKKKKK
                          ZZZZZZ                                                       KKKKK        KKKKKKKKKK
                         ZZZZZZZZZZZZZZZZZZZZZZZZZZZZZZZZZZZZZZZZ                      KKKKK         KKKKKKKKKK
                        ZZZZZZZZZZZZZZZZZZZZZZZZZZZZZZZZZZZZZZZZZ                      KKKKK          KKKKKKKKKK
                       ZZZZZZZZZZZZZZZZZZZZZZZZZZZZZZZZZZZZZZZZZZ                      KKKKK           KKKKKKKKKK
                       ZZZZZZZZZZZZZZZZZZZZZZZZZZZZZZZZZZZZZZZZZZ                      KKKKK            KKKKKKKKKK
                       ZZZZZZZZZZZZZZZZZZZZZZZZZZZZZZZZZZZZZZZZZZ                      KKKKK             KKKKKKKKKK
                       ZZZZZZZZZZZZZZZZZZZZZZZZZZZZZZZZZZZZZZZZZZ                      KKKKK              KKKKKKKKKK
                       ZZZZZZZZZZZZZZZZZZZZZZZZZZZZZZZZZZZZZZZZZZ                      KKKKK               KKKKKKKKKK
                       ZZZZZZZZZZZZZZZZZZZZZZZZZZZZZZZZZZZZZZZZZZ                      KKKKK                KKKKKKKKKK
                       ZZZZZZZZZZZZZZZZZZZZZZZZZZZZZZZZZZZZZZZZZZ                      KKKKK
                                                                                       KKKKK
                                                                                          (J.P.)
 Job cpu time:       0 days  0 hours 49 minutes 49.2 seconds.
 Elapsed time:       0 days  0 hours  3 minutes  8.0 seconds.
 File lengths (MBytes):  RWF=    833 Int=      0 D2E=      0 Chk=     34 Scr=      1
 Normal termination of Gaussian 16 at Fri Jan 23 15:16:45 2026.
