 Entering Gaussian System, Link 0=g16
 Input=DDL-LR-5.gjf
 Output=DDL-LR-5.log
 Initial command:
 /data/home/wyx/g16/l1.exe "/scr/tmp/wyx/13109/Gau-1684451.inp" -scrdir="/scr/tmp/wyx/13109/"
 Entering Link 1 = /data/home/wyx/g16/l1.exe PID=   1684452.
  
 Copyright (c) 1988,1990,1992,1993,1995,1998,2003,2009,2016,
            Gaussian, Inc.  All Rights Reserved.
  
 This is part of the Gaussian(R) 16 program.  It is based on
 the Gaussian(R) 09 system (copyright 2009, Gaussian, Inc.),
 the Gaussian(R) 03 system (copyright 2003, Gaussian, Inc.),
 the Gaussian(R) 98 system (copyright 1998, Gaussian, Inc.),
 the Gaussian(R) 94 system (copyright 1995, Gaussian, Inc.),
 the Gaussian 92(TM) system (copyright 1992, Gaussian, Inc.),
 the Gaussian 90(TM) system (copyright 1990, Gaussian, Inc.),
 the Gaussian 88(TM) system (copyright 1988, Gaussian, Inc.),
 the Gaussian 86(TM) system (copyright 1986, Carnegie Mellon
 University), and the Gaussian 82(TM) system (copyright 1983,
 Carnegie Mellon University). Gaussian is a federally registered
 trademark of Gaussian, Inc.
  
 This software contains proprietary and confidential information,
 including trade secrets, belonging to Gaussian, Inc.
  
 This software is provided under written license and may be
 used, copied, transmitted, or stored only in accord with that
 written license.
  
 The following legend is applicable only to US Government
 contracts under FAR:
  
                    RESTRICTED RIGHTS LEGEND
  
 Use, reproduction and disclosure by the US Government is
 subject to restrictions as set forth in subparagraphs (a)
 and (c) of the Commercial Computer Software - Restricted
 Rights clause in FAR 52.227-19.
  
 Gaussian, Inc.
 340 Quinnipiac St., Bldg. 40, Wallingford CT 06492
  
  
 ---------------------------------------------------------------
 Warning -- This program may not be used in any manner that
 competes with the business of Gaussian, Inc. or will provide
 assistance to any competitor of Gaussian, Inc.  The licensee
 of this program is prohibited from giving any competitor of
 Gaussian, Inc. access to this program.  By using this program,
 the user acknowledges that Gaussian, Inc. is engaged in the
 business of creating and licensing software in the field of
 computational chemistry and represents and warrants to the
 licensee that it is not a competitor of Gaussian, Inc. and that
 it will not use this program in any manner prohibited above.
 ---------------------------------------------------------------
  

 Cite this work as:
 Gaussian 16, Revision A.03,
 M. J. Frisch, G. W. Trucks, H. B. Schlegel, G. E. Scuseria, 
 M. A. Robb, J. R. Cheeseman, G. Scalmani, V. Barone, 
 G. A. Petersson, H. Nakatsuji, X. Li, M. Caricato, A. V. Marenich, 
 J. Bloino, B. G. Janesko, R. Gomperts, B. Mennucci, H. P. Hratchian, 
 J. V. Ortiz, A. F. Izmaylov, J. L. Sonnenberg, D. Williams-Young, 
 F. Ding, F. Lipparini, F. Egidi, J. Goings, B. Peng, A. Petrone, 
 T. Henderson, D. Ranasinghe, V. G. Zakrzewski, J. Gao, N. Rega, 
 G. Zheng, W. Liang, M. Hada, M. Ehara, K. Toyota, R. Fukuda, 
 J. Hasegawa, M. Ishida, T. Nakajima, Y. Honda, O. Kitao, H. Nakai, 
 T. Vreven, K. Throssell, J. A. Montgomery, Jr., J. E. Peralta, 
 F. Ogliaro, M. J. Bearpark, J. J. Heyd, E. N. Brothers, K. N. Kudin, 
 V. N. Staroverov, T. A. Keith, R. Kobayashi, J. Normand, 
 K. Raghavachari, A. P. Rendell, J. C. Burant, S. S. Iyengar, 
 J. Tomasi, M. Cossi, J. M. Millam, M. Klene, C. Adamo, R. Cammi, 
 J. W. Ochterski, R. L. Martin, K. Morokuma, O. Farkas, 
 J. B. Foresman, and D. J. Fox, Gaussian, Inc., Wallingford CT, 2016.
 
 ******************************************
 Gaussian 16:  ES64L-G16RevA.03 25-Dec-2016
                23-Jan-2026 
 ******************************************
 %nprocshared=16
 Will use up to   16 processors via shared memory.
 %mem=16GB
 %chk=DDL-LR-5.chk
 ----------------------------------------------------------------------
 #p CAM-B3LYP TZVP em=gd3bj td(nstates=6,root=1) scrf=(Solvent=TetraHyd
 roFuran)
 ----------------------------------------------------------------------
 1/38=1,172=1/1;
 2/12=2,17=6,18=5,40=1/2;
 3/5=19,7=101,11=9,25=1,30=1,70=2201,72=20,74=-40,124=41/1,2,3,8;
 4//1;
 5/5=2,38=5,53=20/2;
 8/6=1,10=1,107=1,108=6/1;
 9/8=1,41=6,42=1,70=2/14;
 6/7=2,8=2,9=2,10=2/1;
 99/5=1,9=1/99;
 Leave Link    1 at Fri Jan 23 15:35:56 2026, MaxMem=  2147483648 cpu:               0.4 elap:               0.1
 (Enter /data/home/wyx/g16/l101.exe)
 -------------------
 Title Card Required
 -------------------
 Symbolic Z-matrix:
 Charge =  0 Multiplicity = 1
 O                     2.79972  -1.57444   0.39586 
 O                    -3.44158  -1.65199  -0.39166 
 N                    -0.65212   1.52398  -0.14308 
 H                    -0.97054   2.4775   -0.18405 
 C                    -1.24191  -0.76657  -0.18719 
 C                     0.67678   1.31157   0.07033 
 C                    -1.6183    0.53907  -0.24945 
 C                    -2.18123  -1.82499  -0.28108 
 C                     0.21142  -1.13185  -0.02706 
 H                     0.3325   -1.7913    0.83533 
 H                     0.54776  -1.70804  -0.89383 
 C                     1.14501   0.04103   0.14021 
 C                     2.51884  -0.37651   0.36623 
 C                    -2.99326   1.07547  -0.41458 
 H                    -3.00925   1.90125  -1.13123 
 H                    -3.703     0.33558  -0.77931 
 H                    -3.39156   1.4436    0.53445 
 C                    -1.80671  -3.27635  -0.26613 
 H                    -2.29401  -3.87369  -1.03939 
 H                    -0.73848  -3.44217  -0.38991 
 H                    -2.06978  -3.73458   0.69217 
 C                     3.64863   0.59823   0.57233 
 H                     3.78756   1.26698  -0.275 
 H                     3.51572   1.21245   1.46161 
 H                     4.5493    0.00107   0.69374 
 C                     1.44514   2.58858   0.19757 
 H                     1.93669   2.68165   1.16298 
 H                     2.20253   2.69664  -0.57574 
 H                     0.79413   3.45783   0.10589 
 
 ITRead=  0  0  0  0  0  0  0  0  0  0  0  0  0  0  0  0  0  0  0  0
 ITRead=  0  0  0  0  0  0  0  0  0
 MicOpt= -1 -1 -1 -1 -1 -1 -1 -1 -1 -1 -1 -1 -1 -1 -1 -1 -1 -1 -1 -1
 MicOpt= -1 -1 -1 -1 -1 -1 -1 -1 -1
 NAtoms=     29 NQM=       29 NQMF=       0 NMMI=      0 NMMIF=      0
                NMic=       0 NMicF=      0.
                    Isotopes and Nuclear Properties:
 (Nuclear quadrupole moments (NQMom) in fm**2, nuclear magnetic moments (NMagM)
  in nuclear magnetons)

  Atom         1           2           3           4           5           6           7           8           9          10
 IAtWgt=          16          16          14           1          12          12          12          12          12           1
 AtmWgt=  15.9949146  15.9949146  14.0030740   1.0078250  12.0000000  12.0000000  12.0000000  12.0000000  12.0000000   1.0078250
 NucSpn=           0           0           2           1           0           0           0           0           0           1
 AtZEff=  -0.0000000  -0.0000000  -0.0000000  -0.0000000  -0.0000000  -0.0000000  -0.0000000  -0.0000000  -0.0000000  -0.0000000
 NQMom=    0.0000000   0.0000000   2.0440000   0.0000000   0.0000000   0.0000000   0.0000000   0.0000000   0.0000000   0.0000000
 NMagM=    0.0000000   0.0000000   0.4037610   2.7928460   0.0000000   0.0000000   0.0000000   0.0000000   0.0000000   2.7928460
 AtZNuc=   8.0000000   8.0000000   7.0000000   1.0000000   6.0000000   6.0000000   6.0000000   6.0000000   6.0000000   1.0000000

  Atom        11          12          13          14          15          16          17          18          19          20
 IAtWgt=           1          12          12          12           1           1           1          12           1           1
 AtmWgt=   1.0078250  12.0000000  12.0000000  12.0000000   1.0078250   1.0078250   1.0078250  12.0000000   1.0078250   1.0078250
 NucSpn=           1           0           0           0           1           1           1           0           1           1
 AtZEff=  -0.0000000  -0.0000000  -0.0000000  -0.0000000  -0.0000000  -0.0000000  -0.0000000  -0.0000000  -0.0000000  -0.0000000
 NQMom=    0.0000000   0.0000000   0.0000000   0.0000000   0.0000000   0.0000000   0.0000000   0.0000000   0.0000000   0.0000000
 NMagM=    2.7928460   0.0000000   0.0000000   0.0000000   2.7928460   2.7928460   2.7928460   0.0000000   2.7928460   2.7928460
 AtZNuc=   1.0000000   6.0000000   6.0000000   6.0000000   1.0000000   1.0000000   1.0000000   6.0000000   1.0000000   1.0000000

  Atom        21          22          23          24          25          26          27          28          29
 IAtWgt=           1          12           1           1           1          12           1           1           1
 AtmWgt=   1.0078250  12.0000000   1.0078250   1.0078250   1.0078250  12.0000000   1.0078250   1.0078250   1.0078250
 NucSpn=           1           0           1           1           1           0           1           1           1
 AtZEff=  -0.0000000  -0.0000000  -0.0000000  -0.0000000  -0.0000000  -0.0000000  -0.0000000  -0.0000000  -0.0000000
 NQMom=    0.0000000   0.0000000   0.0000000   0.0000000   0.0000000   0.0000000   0.0000000   0.0000000   0.0000000
 NMagM=    2.7928460   0.0000000   2.7928460   2.7928460   2.7928460   0.0000000   2.7928460   2.7928460   2.7928460
 AtZNuc=   1.0000000   6.0000000   1.0000000   1.0000000   1.0000000   6.0000000   1.0000000   1.0000000   1.0000000
 Leave Link  101 at Fri Jan 23 15:35:56 2026, MaxMem=  2147483648 cpu:               0.8 elap:               0.1
 (Enter /data/home/wyx/g16/l202.exe)
                          Input orientation:                          
 ---------------------------------------------------------------------
 Center     Atomic      Atomic             Coordinates (Angstroms)
 Number     Number       Type             X           Y           Z
 ---------------------------------------------------------------------
      1          8           0        2.799722   -1.574442    0.395856
      2          8           0       -3.441582   -1.651989   -0.391661
      3          7           0       -0.652119    1.523979   -0.143079
      4          1           0       -0.970539    2.477498   -0.184051
      5          6           0       -1.241910   -0.766569   -0.187194
      6          6           0        0.676781    1.311570    0.070334
      7          6           0       -1.618300    0.539073   -0.249454
      8          6           0       -2.181227   -1.824987   -0.281082
      9          6           0        0.211423   -1.131848   -0.027056
     10          1           0        0.332502   -1.791295    0.835328
     11          1           0        0.547755   -1.708041   -0.893832
     12          6           0        1.145011    0.041026    0.140207
     13          6           0        2.518837   -0.376509    0.366234
     14          6           0       -2.993259    1.075469   -0.414582
     15          1           0       -3.009250    1.901245   -1.131229
     16          1           0       -3.702998    0.335582   -0.779312
     17          1           0       -3.391560    1.443602    0.534452
     18          6           0       -1.806712   -3.276347   -0.266132
     19          1           0       -2.294009   -3.873685   -1.039386
     20          1           0       -0.738483   -3.442173   -0.389909
     21          1           0       -2.069779   -3.734584    0.692168
     22          6           0        3.648630    0.598225    0.572334
     23          1           0        3.787557    1.266983   -0.274996
     24          1           0        3.515720    1.212453    1.461607
     25          1           0        4.549299    0.001066    0.693741
     26          6           0        1.445142    2.588580    0.197565
     27          1           0        1.936685    2.681649    1.162984
     28          1           0        2.202532    2.696637   -0.575741
     29          1           0        0.794131    3.457829    0.105885
 ---------------------------------------------------------------------
                    Distance matrix (angstroms):
                    1          2          3          4          5
     1  O    0.000000
     2  O    6.291270   0.000000
     3  N    4.669676   4.234344   0.000000
     4  H    5.565014   4.816827   1.006116   0.000000
     5  C    4.162619   2.379986   2.365673   3.255399   0.000000
     6  C    3.597486   5.094805   1.362585   2.034149   2.840133
     7  C    4.939867   2.854003   1.383785   2.044838   1.360238
     8  C    5.032978   1.276969   3.684127   4.470633   1.418231
     9  C    2.659706   3.707820   2.795100   3.801192   1.507067
    10  H    2.515420   3.970972   3.594134   4.578170   2.138782
    11  H    2.598557   4.021210   3.528354   4.508630   2.142104
    12  C    2.326620   4.917928   2.347142   3.243006   2.541022
    13  C    1.230779   6.142300   3.731785   4.541356   3.821210
    14  C    6.421641   2.764154   2.399127   2.471887   2.551868
    15  H    6.939492   3.655044   2.583571   2.320680   3.336454
    16  H    6.878559   2.041825   3.335407   3.522566   2.760850
    17  H    6.889105   3.231543   2.823127   2.728833   3.166484
    18  C    4.955194   2.308050   4.938761   5.814865   2.573756
    19  H    5.769968   2.583100   5.712613   6.543752   3.389294
    20  H    4.077345   3.242145   4.973032   5.927793   2.730090
    21  H    5.335359   2.719142   5.509980   6.369148   3.204334
    22  C    2.339289   7.500924   4.457048   5.043858   5.133900
    23  H    3.082135   7.797080   4.449064   4.910509   5.425733
    24  H    3.068430   7.748786   4.476935   4.943182   5.410186
    25  H    2.373179   8.231942   5.484002   6.113252   5.907911
    26  C    4.382346   6.496898   2.376535   2.448159   4.315705
    27  H    4.409947   7.079767   3.122164   3.210628   4.880231
    28  H    4.420719   7.127444   3.116305   3.204656   4.899892
    29  H    5.424964   6.655754   2.427632   2.039405   4.698606
                    6          7          8          9         10
     6  C    0.000000
     7  C    2.442624   0.000000
     8  C    4.257898   2.430364   0.000000
     9  C    2.489244   2.487835   2.503946   0.000000
    10  H    3.214267   3.226917   2.750698   1.092354   0.000000
    11  H    3.172430   3.186932   2.799372   1.093809   1.744494
    12  C    1.355877   2.834744   3.837102   1.508376   2.121500
    13  C    2.516016   4.281736   4.960616   2.459547   2.646078
    14  C    3.709458   1.485093   3.014940   3.910551   4.565227
    15  H    3.921517   2.137237   3.910649   4.559779   5.354391
    16  H    4.566937   2.160584   2.689252   4.247580   4.839001
    17  H    4.096857   2.139423   3.579619   4.464272   4.942036
    18  C    5.227803   3.820106   1.498977   2.954472   2.827513
    19  H    6.078153   4.533543   2.187443   3.849633   3.840503
    20  H    4.981252   4.079721   2.169941   2.524200   2.318105
    21  H    5.778749   4.399390   2.146205   3.534883   3.093189
    22  C    3.097217   5.330984   6.370833   3.894459   4.095812
    23  H    3.130203   5.454704   6.722105   4.313305   4.745871
    24  H    3.163074   5.453378   6.687168   4.316277   4.421267
    25  H    4.135511   6.262455   7.041643   4.540948   4.584101
    26  C    1.495768   3.712813   5.732297   3.926080   4.563772
    27  H    2.158323   4.384465   6.273141   4.351492   4.763191
    28  H    2.159569   4.400034   6.304701   4.350042   5.062575
    29  H    2.149759   3.803318   6.075413   4.628429   5.319633
                   11         12         13         14         15
    11  H    0.000000
    12  C    2.117826   0.000000
    13  C    2.691822   1.453555   0.000000
    14  C    4.529502   4.301528   5.753357   0.000000
    15  H    5.073025   4.725976   6.163628   1.093501   0.000000
    16  H    4.717882   4.943225   6.366363   1.088205   1.748266
    17  H    5.243191   4.764780   6.186590   1.093083   1.769206
    18  C    2.897776   4.459007   5.245886   4.513118   5.385346
    19  H    3.575867   5.342589   6.113059   5.037207   5.819778
    20  H    2.217106   3.995153   4.536539   5.049130   5.853038
    21  H    3.670662   4.989466   5.695463   5.021386   5.997495
    22  C    4.133271   2.601021   1.506325   6.731750   6.994809
    23  H    4.441851   2.942518   2.172992   6.784956   6.879826
    24  H    4.783952   2.956112   2.172192   6.775371   7.054960
    25  H    4.631824   3.449228   2.091076   7.698890   8.004552
    26  C    4.522986   2.565814   3.158009   4.729020   4.698907
    27  H    5.042717   2.940359   3.213416   5.419675   5.507696
    28  H    4.716000   2.946727   3.229798   5.445218   5.301310
    29  H    5.267480   3.434944   4.212427   4.504536   4.291749
                   16         17         18         19         20
    16  H    0.000000
    17  H    1.746619   0.000000
    18  C    4.111604   5.042876   0.000000
    19  H    4.446439   5.652886   1.091876   0.000000
    20  H    4.817823   5.635961   1.088086   1.740024   0.000000
    21  H    4.625895   5.346549   1.094315   1.751544   1.740329
    22  C    7.479463   7.090865   6.743596   7.609900   6.041315
    23  H    7.565068   7.226764   7.206787   7.999763   6.532564
    24  H    7.609238   6.973060   7.173750   8.116447   6.572054
    25  H    8.389410   8.072393   7.215377   8.052844   6.402408
    26  C    5.703826   4.981782   6.722123   7.567838   6.440755
    27  H    6.409569   5.506179   7.180049   8.106887   6.860699
    28  H    6.363278   5.839220   7.200447   7.975148   6.809485
    29  H    5.545824   4.664846   7.228548   8.037372   7.085531
                   21         22         23         24         25
    21  H    0.000000
    22  C    7.175500   0.000000
    23  H    7.762697   1.088350   0.000000
    24  H    7.500867   1.088920   1.758596   0.000000
    25  H    7.600479   1.087448   1.766705   1.767869   0.000000
    26  C    7.251324   2.992879   2.730722   2.789054   4.071512
    27  H    7.579015   2.760485   2.737662   2.177398   3.772462
    28  H    7.824375   2.795104   2.155612   2.842191   3.792757
    29  H    7.763795   4.067318   3.729005   3.779781   5.137711
                   26         27         28         29
    26  C    0.000000
    27  H    1.087341   0.000000
    28  H    1.087804   1.758995   0.000000
    29  H    1.089869   1.739351   1.740006   0.000000
 Stoichiometry    C11H15NO2
 Framework group  C1[X(C11H15NO2)]
 Deg. of freedom    81
 Full point group                 C1      NOp   1
 Largest Abelian subgroup         C1      NOp   1
 Largest concise Abelian subgroup C1      NOp   1
                         Standard orientation:                         
 ---------------------------------------------------------------------
 Center     Atomic      Atomic             Coordinates (Angstroms)
 Number     Number       Type             X           Y           Z
 ---------------------------------------------------------------------
      1          8           0        2.253925   -2.315161   -0.003898
      2          8           0       -3.670424   -0.199903    0.084677
      3          7           0        0.056844    1.805154   -0.045288
      4          1           0        0.087584    2.810772   -0.037897
      5          6           0       -1.293382   -0.137118   -0.015633
      6          6           0        1.244527    1.137776   -0.019733
      7          6           0       -1.196723    1.219674   -0.019909
      8          6           0       -2.545964   -0.801407    0.018091
      9          6           0       -0.050214   -0.987852   -0.060738
     10          1           0       -0.055792   -1.692573    0.773873
     11          1           0       -0.050317   -1.598703   -0.968085
     12          6           0        1.246344   -0.218100   -0.020567
     13          6           0        2.406015   -1.093899    0.010442
     14          6           0       -2.308229    2.204134    0.010000
     15          1           0       -2.128377    3.021068   -0.694285
     16          1           0       -3.271801    1.773577   -0.255217
     17          1           0       -2.427426    2.636965    1.006634
     18          6           0       -2.701169   -2.291711   -0.024778
     19          1           0       -3.461364   -2.643915   -0.724956
     20          1           0       -1.782895   -2.808220   -0.296668
     21          1           0       -2.981074   -2.680628    0.959052
     22          6           0        3.820855   -0.579422    0.061005
     23          1           0        4.073057    0.043802   -0.794853
     24          1           0        4.025992   -0.004059    0.962462
     25          1           0        4.465151   -1.455419    0.053585
     26          6           0        2.418713    2.064079    0.004192
     27          1           0        3.032246    1.932068    0.892145
     28          1           0        3.059719    1.945029   -0.866588
     29          1           0        2.104745    3.107740    0.007339
 ---------------------------------------------------------------------
 Rotational constants (GHZ):           1.1023595           0.4833058           0.3396368
 Leave Link  202 at Fri Jan 23 15:35:56 2026, MaxMem=  2147483648 cpu:               0.0 elap:               0.0
 (Enter /data/home/wyx/g16/l301.exe)
 Standard basis: TZVP (5D, 7F)
 Ernie: Thresh=  0.10000D-02 Tol=  0.10000D-05 Strict=F.
 There are   370 symmetry adapted cartesian basis functions of A   symmetry.
 There are   356 symmetry adapted basis functions of A   symmetry.
   356 basis functions,   610 primitive gaussians,   370 cartesian basis functions
    52 alpha electrons       52 beta electrons
       nuclear repulsion energy       899.4354591056 Hartrees.
 IExCor=20419 DFT=T Ex+Corr=CAM-B3LYP ExCW=0 ScaHFX=  1.000000
 ScaDFX=  1.000000  1.000000  1.000000  0.810000 ScalE2=  1.000000  1.000000
 IRadAn=      5 IRanWt=     -1 IRanGd=            0 ICorTp=0 IEmpDi=141
 HFx  wShort=  0.000000 wLong=  0.330000 cFull=  0.190000 cShort=  0.000000 cLong=  0.460000
 DFx  wShort=  0.000000 wLong=  0.330000 cFull=  0.190000 cShort=  0.000000 cLong=  0.460000
 NAtoms=   29 NActive=   29 NUniq=   29 SFac= 1.00D+00 NAtFMM=   60 NAOKFM=F Big=F
 Integral buffers will be    131072 words long.
 Raffenetti 1 integral format.
 Two-electron integral symmetry is turned on.
 R6Disp:  Grimme-D3(BJ) Dispersion energy=       -0.0261006416 Hartrees.
 Nuclear repulsion after empirical dispersion term =      899.4093584639 Hartrees.
 ------------------------------------------------------------------------------
 Polarizable Continuum Model (PCM)
 =================================
 Model                : PCM.
 Atomic radii         : UFF (Universal Force Field).
 Polarization charges : Total charges.
 Charge compensation  : None.
 Solution method      : On-the-fly selection.
 Cavity type          : Scaled VdW (van der Waals Surface) (Alpha=1.100).
 Cavity algorithm     : GePol (No added spheres)
                        Default sphere list used, NSphG=   29.
                        Lebedev-Laikov grids with approx.  5.0 points / Ang**2.
                        Smoothing algorithm: York/Karplus (Gamma=1.0000).
                        Polarization charges: spherical gaussians, with
                                              point-specific exponents (IZeta= 3).
                        Self-potential: point-specific (ISelfS= 7).
                        Self-field    : sphere-specific E.n sum rule (ISelfD= 2).
 Solvent              : TetraHydroFuran, Eps=   7.425700 Eps(inf)=   1.974025
 ------------------------------------------------------------------------------
 GePol: Number of generator spheres                  =      29
 GePol: Total number of spheres                      =      29
 GePol: Number of exposed spheres                    =      29 (100.00%)
 GePol: Number of points                             =    2115
 GePol: Average weight of points                     =       0.13
 GePol: Minimum weight of points                     =   0.14D-08
 GePol: Maximum weight of points                     =    0.20577
 GePol: Number of points with low weight             =     136
 GePol: Fraction of low-weight points (<1% of avg)   =       6.43%
 GePol: Cavity surface area                          =    268.582 Ang**2
 GePol: Cavity volume                                =    286.187 Ang**3
 Leave Link  301 at Fri Jan 23 15:35:57 2026, MaxMem=  2147483648 cpu:               0.6 elap:               0.0
 (Enter /data/home/wyx/g16/l302.exe)
 NPDir=0 NMtPBC=     1 NCelOv=     1 NCel=       1 NClECP=     1 NCelD=      1
         NCelK=      1 NCelE2=     1 NClLst=     1 CellRange=     0.0.
 One-electron integrals computed using PRISM.
 One-electron integral symmetry used in STVInt
 NBasis=   356 RedAO= T EigKep=  3.40D-05  NBF=   356
 NBsUse=   356 1.00D-06 EigRej= -1.00D+00 NBFU=   356
 Precomputing XC quadrature grid using
 IXCGrd= 4 IRadAn=           5 IRanWt=          -1 IRanGd=           0 AccXCQ= 0.00D+00.
 Generated NRdTot=       0 NPtTot=           0 NUsed=           0 NTot=          32
 NSgBfM=   366   366   366   366   366 MxSgAt=    29 MxSgA2=    29.
 Leave Link  302 at Fri Jan 23 15:35:57 2026, MaxMem=  2147483648 cpu:               3.1 elap:               0.2
 (Enter /data/home/wyx/g16/l303.exe)
 DipDrv:  MaxL=1.
 Leave Link  303 at Fri Jan 23 15:35:57 2026, MaxMem=  2147483648 cpu:               0.6 elap:               0.0
 (Enter /data/home/wyx/g16/l308.exe)
 Leave Link  308 at Fri Jan 23 15:35:57 2026, MaxMem=  2147483648 cpu:               0.7 elap:               0.1
 (Enter /data/home/wyx/g16/l401.exe)
 ExpMin= 9.52D-02 ExpMax= 2.70D+04 ExpMxC= 9.22D+02 IAcc=3 IRadAn=         5 AccDes= 0.00D+00
 Harris functional with IExCor=20419 and IRadAn=       5 diagonalized for initial guess.
 HarFok:  IExCor=20419 AccDes= 0.00D+00 IRadAn=         5 IDoV= 1 UseB2=F ITyADJ=14
 ICtDFT=  3500011 ScaDFX=  1.000000  1.000000  1.000000  1.000000
 FoFCou: FMM=F IPFlag=           0 FMFlag=      100000 FMFlg1=           0
         NFxFlg=           0 DoJE=T BraDBF=F KetDBF=T FulRan=T
         wScrn=  0.000000 ICntrl=       500 IOpCl=  0 I1Cent=   200000004 NGrid=           0
         NMat0=    1 NMatS0=      1 NMatT0=    0 NMatD0=    1 NMtDS0=    0 NMtDT0=    0
 Petite list used in FoFCou.
 Harris En= -608.707430780189    
 JPrj=0 DoOrth=F DoCkMO=F.
 Leave Link  401 at Fri Jan 23 15:35:58 2026, MaxMem=  2147483648 cpu:              11.7 elap:               0.7
 (Enter /data/home/wyx/g16/l502.exe)
 Integral symmetry usage will be decided dynamically.
 Closed shell SCF:
 Using DIIS extrapolation, IDIIS=  1040.
 NGot=  2147483648 LenX=  2147200095 LenY=  2147062754
 Requested convergence on RMS density matrix=1.00D-08 within 128 cycles.
 Requested convergence on MAX density matrix=1.00D-06.
 Requested convergence on             energy=1.00D-06.
 No special actions if energy rises.
 Fock matrices will be formed incrementally for  20 cycles.

 Cycle   1  Pass 1  IDiag  1:
 FoFJK:  IHMeth= 1 ICntrl=       0 DoSepK=T KAlg= 0 I1Cent=           0 FoldK=F
 IRaf=         1 NMat=       1 IRICut=       1 DoRegI=T DoRafI=F ISym2E= 0 IDoP0=0 IntGTp=1.
 FoFCou: FMM=F IPFlag=           0 FMFlag=      100000 FMFlg1=           0
         NFxFlg=           0 DoJE=T BraDBF=F KetDBF=F FulRan=T
         wScrn=  0.000000 ICntrl=       500 IOpCl=  0 I1Cent=           0 NGrid=           0
         NMat0=    1 NMatS0=      1 NMatT0=    0 NMatD0=    1 NMtDS0=    0 NMtDT0=    0
 Symmetry not used in FoFCou.
 Inv3:  Mode=1 IEnd=    13419675.
 Iteration    1 A*A^-1 deviation from unit magnitude is 3.77D-15 for    687.
 Iteration    1 A*A^-1 deviation from orthogonality  is 1.77D-15 for   1908   1464.
 Iteration    1 A^-1*A deviation from unit magnitude is 3.89D-15 for    687.
 Iteration    1 A^-1*A deviation from orthogonality  is 8.77D-15 for   1375   1352.
 E= -633.115591689102    
 DIIS: error= 4.20D-02 at cycle   1 NSaved=   1.
 NSaved= 1 IEnMin= 1 EnMin= -633.115591689102     IErMin= 1 ErrMin= 4.20D-02
 ErrMax= 4.20D-02  0.00D+00 EMaxC= 1.00D-01 BMatC= 1.10D+00 BMatP= 1.10D+00
 IDIUse=3 WtCom= 5.80D-01 WtEn= 4.20D-01
 Coeff-Com:  0.100D+01
 Coeff-En:   0.100D+01
 Coeff:      0.100D+01
 Gap=     0.222 Goal=   None    Shift=    0.000
 GapD=    0.222 DampG=1.000 DampE=0.500 DampFc=0.5000 IDamp=-1.
 Damping current iteration by 5.00D-01
 RMSDP=3.94D-03 MaxDP=1.61D-01              OVMax= 1.53D-01

 Cycle   2  Pass 1  IDiag  1:
 RMSU=  1.71D-03    CP:  9.31D-01
 E= -633.212773925662     Delta-E=       -0.097182236560 Rises=F Damp=T
 DIIS: error= 1.91D-02 at cycle   2 NSaved=   2.
 NSaved= 2 IEnMin= 2 EnMin= -633.212773925662     IErMin= 2 ErrMin= 1.91D-02
 ErrMax= 1.91D-02  0.00D+00 EMaxC= 1.00D-01 BMatC= 2.24D-01 BMatP= 1.10D+00
 IDIUse=3 WtCom= 8.09D-01 WtEn= 1.91D-01
 Coeff-Com: -0.590D+00 0.159D+01
 Coeff-En:   0.000D+00 0.100D+01
 Coeff:     -0.477D+00 0.148D+01
 Gap=     0.234 Goal=   None    Shift=    0.000
 RMSDP=1.62D-03 MaxDP=5.21D-02 DE=-9.72D-02 OVMax= 1.42D-01

 Cycle   3  Pass 1  IDiag  1:
 RMSU=  1.53D-03    CP:  9.07D-01  1.23D+00
 E= -633.262281340692     Delta-E=       -0.049507415030 Rises=F Damp=F
 DIIS: error= 1.62D-02 at cycle   3 NSaved=   3.
 NSaved= 3 IEnMin= 3 EnMin= -633.262281340692     IErMin= 3 ErrMin= 1.62D-02
 ErrMax= 1.62D-02  0.00D+00 EMaxC= 1.00D-01 BMatC= 6.47D-02 BMatP= 2.24D-01
 IDIUse=3 WtCom= 8.38D-01 WtEn= 1.62D-01
 Coeff-Com: -0.363D+00 0.796D+00 0.567D+00
 Coeff-En:   0.000D+00 0.000D+00 0.100D+01
 Coeff:     -0.304D+00 0.667D+00 0.637D+00
 Gap=     0.233 Goal=   None    Shift=    0.000
 RMSDP=1.51D-03 MaxDP=8.19D-02 DE=-4.95D-02 OVMax= 8.35D-02

 Cycle   4  Pass 1  IDiag  1:
 RMSU=  5.70D-04    CP:  8.53D-01  1.74D+00  4.90D-01
 E= -633.309715853650     Delta-E=       -0.047434512958 Rises=F Damp=F
 DIIS: error= 5.37D-03 at cycle   4 NSaved=   4.
 NSaved= 4 IEnMin= 4 EnMin= -633.309715853650     IErMin= 4 ErrMin= 5.37D-03
 ErrMax= 5.37D-03  0.00D+00 EMaxC= 1.00D-01 BMatC= 9.01D-03 BMatP= 6.47D-02
 IDIUse=3 WtCom= 9.46D-01 WtEn= 5.37D-02
 Coeff-Com: -0.163D+00 0.355D+00 0.375D+00 0.434D+00
 Coeff-En:   0.000D+00 0.000D+00 0.707D-01 0.929D+00
 Coeff:     -0.155D+00 0.336D+00 0.359D+00 0.460D+00
 Gap=     0.228 Goal=   None    Shift=    0.000
 RMSDP=4.25D-04 MaxDP=2.29D-02 DE=-4.74D-02 OVMax= 1.99D-02

 Cycle   5  Pass 1  IDiag  1:
 RMSU=  1.01D-04    CP:  8.67D-01  1.65D+00  6.53D-01  6.45D-01
 E= -633.316730696265     Delta-E=       -0.007014842615 Rises=F Damp=F
 DIIS: error= 5.36D-04 at cycle   5 NSaved=   5.
 NSaved= 5 IEnMin= 5 EnMin= -633.316730696265     IErMin= 5 ErrMin= 5.36D-04
 ErrMax= 5.36D-04  0.00D+00 EMaxC= 1.00D-01 BMatC= 9.39D-05 BMatP= 9.01D-03
 IDIUse=3 WtCom= 9.95D-01 WtEn= 5.36D-03
 Coeff-Com: -0.312D-01 0.668D-01 0.869D-01 0.162D+00 0.715D+00
 Coeff-En:   0.000D+00 0.000D+00 0.000D+00 0.000D+00 0.100D+01
 Coeff:     -0.310D-01 0.665D-01 0.864D-01 0.161D+00 0.717D+00
 Gap=     0.228 Goal=   None    Shift=    0.000
 RMSDP=1.54D-04 MaxDP=1.05D-02 DE=-7.01D-03 OVMax= 2.58D-03

 Cycle   6  Pass 1  IDiag  1:
 RMSU=  5.60D-05    CP:  8.60D-01  1.68D+00  6.46D-01  7.96D-01  1.05D+00
 E= -633.316786845635     Delta-E=       -0.000056149369 Rises=F Damp=F
 DIIS: error= 5.03D-04 at cycle   6 NSaved=   6.
 NSaved= 6 IEnMin= 6 EnMin= -633.316786845635     IErMin= 6 ErrMin= 5.03D-04
 ErrMax= 5.03D-04  0.00D+00 EMaxC= 1.00D-01 BMatC= 3.04D-05 BMatP= 9.39D-05
 IDIUse=3 WtCom= 9.95D-01 WtEn= 5.03D-03
 Coeff-Com:  0.176D-01-0.385D-01-0.305D-01-0.351D-02 0.434D+00 0.621D+00
 Coeff-En:   0.000D+00 0.000D+00 0.000D+00 0.000D+00 0.149D+00 0.851D+00
 Coeff:      0.175D-01-0.383D-01-0.303D-01-0.349D-02 0.432D+00 0.622D+00
 Gap=     0.229 Goal=   None    Shift=    0.000
 RMSDP=2.86D-05 MaxDP=1.96D-03 DE=-5.61D-05 OVMax= 3.10D-03

 Cycle   7  Pass 1  IDiag  1:
 RMSU=  1.88D-05    CP:  8.61D-01  1.68D+00  6.52D-01  7.86D-01  1.15D+00
                    CP:  7.65D-01
 E= -633.316814432513     Delta-E=       -0.000027586879 Rises=F Damp=F
 DIIS: error= 5.16D-05 at cycle   7 NSaved=   7.
 NSaved= 7 IEnMin= 7 EnMin= -633.316814432513     IErMin= 7 ErrMin= 5.16D-05
 ErrMax= 5.16D-05  0.00D+00 EMaxC= 1.00D-01 BMatC= 1.08D-06 BMatP= 3.04D-05
 IDIUse=1 WtCom= 1.00D+00 WtEn= 0.00D+00
 Coeff-Com:  0.460D-02-0.995D-02-0.918D-02-0.106D-01 0.198D-01 0.167D+00
 Coeff-Com:  0.839D+00
 Coeff:      0.460D-02-0.995D-02-0.918D-02-0.106D-01 0.198D-01 0.167D+00
 Coeff:      0.839D+00
 Gap=     0.229 Goal=   None    Shift=    0.000
 RMSDP=1.81D-05 MaxDP=1.01D-03 DE=-2.76D-05 OVMax= 6.23D-04

 Cycle   8  Pass 1  IDiag  1:
 RMSU=  6.24D-06    CP:  8.60D-01  1.69D+00  6.52D-01  8.04D-01  1.19D+00
                    CP:  8.92D-01  9.67D-01
 E= -633.316815917202     Delta-E=       -0.000001484688 Rises=F Damp=F
 DIIS: error= 2.40D-05 at cycle   8 NSaved=   8.
 NSaved= 8 IEnMin= 8 EnMin= -633.316815917202     IErMin= 8 ErrMin= 2.40D-05
 ErrMax= 2.40D-05  0.00D+00 EMaxC= 1.00D-01 BMatC= 1.87D-07 BMatP= 1.08D-06
 IDIUse=1 WtCom= 1.00D+00 WtEn= 0.00D+00
 Coeff-Com: -0.239D-03 0.583D-03-0.212D-03-0.559D-02-0.617D-01-0.551D-02
 Coeff-Com:  0.344D+00 0.728D+00
 Coeff:     -0.239D-03 0.583D-03-0.212D-03-0.559D-02-0.617D-01-0.551D-02
 Coeff:      0.344D+00 0.728D+00
 Gap=     0.229 Goal=   None    Shift=    0.000
 RMSDP=6.28D-06 MaxDP=3.59D-04 DE=-1.48D-06 OVMax= 4.00D-04

 Cycle   9  Pass 1  IDiag  1:
 RMSU=  2.45D-06    CP:  8.60D-01  1.69D+00  6.52D-01  8.09D-01  1.21D+00
                    CP:  9.18D-01  1.08D+00  1.06D+00
 E= -633.316816180539     Delta-E=       -0.000000263337 Rises=F Damp=F
 DIIS: error= 9.24D-06 at cycle   9 NSaved=   9.
 NSaved= 9 IEnMin= 9 EnMin= -633.316816180539     IErMin= 9 ErrMin= 9.24D-06
 ErrMax= 9.24D-06  0.00D+00 EMaxC= 1.00D-01 BMatC= 3.35D-08 BMatP= 1.87D-07
 IDIUse=1 WtCom= 1.00D+00 WtEn= 0.00D+00
 Coeff-Com: -0.867D-03 0.190D-02 0.153D-02-0.677D-03-0.302D-01-0.221D-01
 Coeff-Com:  0.766D-02 0.329D+00 0.713D+00
 Coeff:     -0.867D-03 0.190D-02 0.153D-02-0.677D-03-0.302D-01-0.221D-01
 Coeff:      0.766D-02 0.329D+00 0.713D+00
 Gap=     0.229 Goal=   None    Shift=    0.000
 RMSDP=2.38D-06 MaxDP=1.30D-04 DE=-2.63D-07 OVMax= 1.50D-04

 Cycle  10  Pass 1  IDiag  1:
 RMSU=  1.00D-06    CP:  8.60D-01  1.69D+00  6.52D-01  8.11D-01  1.21D+00
                    CP:  9.40D-01  1.09D+00  1.22D+00  7.81D-01
 E= -633.316816218863     Delta-E=       -0.000000038325 Rises=F Damp=F
 DIIS: error= 4.05D-06 at cycle  10 NSaved=  10.
 NSaved=10 IEnMin=10 EnMin= -633.316816218863     IErMin=10 ErrMin= 4.05D-06
 ErrMax= 4.05D-06  0.00D+00 EMaxC= 1.00D-01 BMatC= 6.38D-09 BMatP= 3.35D-08
 IDIUse=1 WtCom= 1.00D+00 WtEn= 0.00D+00
 Coeff-Com: -0.492D-03 0.107D-02 0.981D-03 0.424D-03-0.907D-02-0.108D-01
 Coeff-Com: -0.465D-01 0.833D-01 0.382D+00 0.599D+00
 Coeff:     -0.492D-03 0.107D-02 0.981D-03 0.424D-03-0.907D-02-0.108D-01
 Coeff:     -0.465D-01 0.833D-01 0.382D+00 0.599D+00
 Gap=     0.229 Goal=   None    Shift=    0.000
 RMSDP=8.13D-07 MaxDP=5.28D-05 DE=-3.83D-08 OVMax= 4.13D-05

 Cycle  11  Pass 1  IDiag  1:
 RMSU=  2.77D-07    CP:  8.60D-01  1.69D+00  6.52D-01  8.11D-01  1.21D+00
                    CP:  9.44D-01  1.10D+00  1.23D+00  9.25D-01  1.01D+00
 E= -633.316816225643     Delta-E=       -0.000000006780 Rises=F Damp=F
 DIIS: error= 1.33D-06 at cycle  11 NSaved=  11.
 NSaved=11 IEnMin=11 EnMin= -633.316816225643     IErMin=11 ErrMin= 1.33D-06
 ErrMax= 1.33D-06  0.00D+00 EMaxC= 1.00D-01 BMatC= 4.34D-10 BMatP= 6.38D-09
 IDIUse=1 WtCom= 1.00D+00 WtEn= 0.00D+00
 Coeff-Com:  0.251D-04-0.576D-04-0.120D-04 0.162D-03 0.235D-02 0.166D-02
 Coeff-Com: -0.167D-01-0.290D-01-0.114D-01 0.188D+00 0.865D+00
 Coeff:      0.251D-04-0.576D-04-0.120D-04 0.162D-03 0.235D-02 0.166D-02
 Coeff:     -0.167D-01-0.290D-01-0.114D-01 0.188D+00 0.865D+00
 Gap=     0.229 Goal=   None    Shift=    0.000
 RMSDP=3.44D-07 MaxDP=2.34D-05 DE=-6.78D-09 OVMax= 2.46D-05

 Cycle  12  Pass 1  IDiag  1:
 RMSU=  1.39D-07    CP:  8.60D-01  1.69D+00  6.52D-01  8.12D-01  1.21D+00
                    CP:  9.46D-01  1.10D+00  1.26D+00  9.05D-01  1.12D+00
                    CP:  1.04D+00
 E= -633.316816226473     Delta-E=       -0.000000000830 Rises=F Damp=F
 DIIS: error= 6.53D-07 at cycle  12 NSaved=  12.
 NSaved=12 IEnMin=12 EnMin= -633.316816226473     IErMin=12 ErrMin= 6.53D-07
 ErrMax= 6.53D-07  0.00D+00 EMaxC= 1.00D-01 BMatC= 4.80D-11 BMatP= 4.34D-10
 IDIUse=1 WtCom= 1.00D+00 WtEn= 0.00D+00
 Coeff-Com:  0.379D-04-0.836D-04-0.611D-04 0.417D-04 0.147D-02 0.134D-02
 Coeff-Com: -0.289D-02-0.150D-01-0.363D-01 0.183D-01 0.305D+00 0.728D+00
 Coeff:      0.379D-04-0.836D-04-0.611D-04 0.417D-04 0.147D-02 0.134D-02
 Coeff:     -0.289D-02-0.150D-01-0.363D-01 0.183D-01 0.305D+00 0.728D+00
 Gap=     0.229 Goal=   None    Shift=    0.000
 RMSDP=8.08D-08 MaxDP=5.21D-06 DE=-8.30D-10 OVMax= 7.33D-06

 Cycle  13  Pass 1  IDiag  1:
 RMSU=  3.51D-08    CP:  8.60D-01  1.69D+00  6.52D-01  8.12D-01  1.21D+00
                    CP:  9.46D-01  1.10D+00  1.26D+00  9.04D-01  1.16D+00
                    CP:  1.12D+00  1.11D+00
 E= -633.316816226578     Delta-E=       -0.000000000105 Rises=F Damp=F
 DIIS: error= 3.42D-07 at cycle  13 NSaved=  13.
 NSaved=13 IEnMin=13 EnMin= -633.316816226578     IErMin=13 ErrMin= 3.42D-07
 ErrMax= 3.42D-07  0.00D+00 EMaxC= 1.00D-01 BMatC= 7.21D-12 BMatP= 4.80D-11
 IDIUse=1 WtCom= 1.00D+00 WtEn= 0.00D+00
 Coeff-Com:  0.500D-05-0.103D-04-0.156D-04-0.273D-04-0.157D-03-0.394D-04
 Coeff-Com:  0.291D-02 0.384D-02-0.820D-02-0.346D-01-0.117D+00 0.153D+00
 Coeff-Com:  0.100D+01
 Coeff:      0.500D-05-0.103D-04-0.156D-04-0.273D-04-0.157D-03-0.394D-04
 Coeff:      0.291D-02 0.384D-02-0.820D-02-0.346D-01-0.117D+00 0.153D+00
 Coeff:      0.100D+01
 Gap=     0.229 Goal=   None    Shift=    0.000
 RMSDP=6.29D-08 MaxDP=2.04D-06 DE=-1.05D-10 OVMax= 5.50D-06

 Cycle  14  Pass 1  IDiag  1:
 RMSU=  1.90D-08    CP:  8.60D-01  1.69D+00  6.52D-01  8.12D-01  1.21D+00
                    CP:  9.46D-01  1.10D+00  1.27D+00  8.93D-01  1.18D+00
                    CP:  1.16D+00  1.33D+00  1.30D+00
 E= -633.316816226611     Delta-E=       -0.000000000033 Rises=F Damp=F
 DIIS: error= 1.27D-07 at cycle  14 NSaved=  14.
 NSaved=14 IEnMin=14 EnMin= -633.316816226611     IErMin=14 ErrMin= 1.27D-07
 ErrMax= 1.27D-07  0.00D+00 EMaxC= 1.00D-01 BMatC= 6.96D-13 BMatP= 7.21D-12
 IDIUse=1 WtCom= 1.00D+00 WtEn= 0.00D+00
 Coeff-Com: -0.356D-05 0.795D-05 0.502D-05-0.725D-05-0.183D-03-0.147D-03
 Coeff-Com:  0.595D-03 0.221D-02 0.338D-02-0.283D-02-0.484D-01-0.813D-01
 Coeff-Com:  0.339D-01 0.109D+01
 Coeff:     -0.356D-05 0.795D-05 0.502D-05-0.725D-05-0.183D-03-0.147D-03
 Coeff:      0.595D-03 0.221D-02 0.338D-02-0.283D-02-0.484D-01-0.813D-01
 Coeff:      0.339D-01 0.109D+01
 Gap=     0.229 Goal=   None    Shift=    0.000
 RMSDP=2.38D-08 MaxDP=9.62D-07 DE=-3.27D-11 OVMax= 2.36D-06

 Cycle  15  Pass 1  IDiag  1:
 RMSU=  6.11D-09    CP:  8.60D-01  1.69D+00  6.52D-01  8.12D-01  1.21D+00
                    CP:  9.46D-01  1.10D+00  1.27D+00  8.88D-01  1.19D+00
                    CP:  1.17D+00  1.41D+00  1.54D+00  1.33D+00
 E= -633.316816226623     Delta-E=       -0.000000000012 Rises=F Damp=F
 DIIS: error= 2.58D-08 at cycle  15 NSaved=  15.
 NSaved=15 IEnMin=15 EnMin= -633.316816226623     IErMin=15 ErrMin= 2.58D-08
 ErrMax= 2.58D-08  0.00D+00 EMaxC= 1.00D-01 BMatC= 1.49D-13 BMatP= 6.96D-13
 IDIUse=1 WtCom= 1.00D+00 WtEn= 0.00D+00
 Coeff-Com: -0.188D-05 0.405D-05 0.366D-05 0.742D-06-0.454D-04-0.558D-04
 Coeff-Com: -0.161D-03 0.192D-03 0.205D-02 0.378D-02-0.288D-02-0.431D-01
 Coeff-Com: -0.116D+00 0.373D+00 0.783D+00
 Coeff:     -0.188D-05 0.405D-05 0.366D-05 0.742D-06-0.454D-04-0.558D-04
 Coeff:     -0.161D-03 0.192D-03 0.205D-02 0.378D-02-0.288D-02-0.431D-01
 Coeff:     -0.116D+00 0.373D+00 0.783D+00
 Gap=     0.229 Goal=   None    Shift=    0.000
 RMSDP=5.86D-09 MaxDP=2.41D-07 DE=-1.23D-11 OVMax= 5.73D-07

 Error on total polarization charges =  0.01469
 SCF Done:  E(RCAM-B3LYP) =  -633.316816227     A.U. after   15 cycles
            NFock= 15  Conv=0.59D-08     -V/T= 2.0042
 KE= 6.306859076570D+02 PE=-3.274815320511D+03 EE= 1.111403238164D+03
 Leave Link  502 at Fri Jan 23 15:36:57 2026, MaxMem=  2147483648 cpu:             933.8 elap:              58.8
 (Enter /data/home/wyx/g16/l801.exe)
 DoSCS=F DFT=T ScalE2(SS,OS)=  1.000000  1.000000
 ExpMin= 9.52D-02 ExpMax= 2.70D+04 ExpMxC= 9.22D+02 IAcc=3 IRadAn=         5 AccDes= 0.00D+00
 HarFok:  IExCor=  205 AccDes= 0.00D+00 IRadAn=         5 IDoV=-2 UseB2=F ITyADJ=14
 ICtDFT= 12500011 ScaDFX=  1.000000  1.000000  1.000000  1.000000
 Largest valence mixing into a core orbital is  5.63D-05
 Largest core mixing into a valence orbital is  1.01D-05
 Range of M.O.s used for correlation:    15   356
 NBasis=   356 NAE=    52 NBE=    52 NFC=    14 NFV=     0
 NROrb=    342 NOA=    38 NOB=    38 NVA=   304 NVB=   304

 **** Warning!!: The largest alpha MO coefficient is  0.36992090D+02

 Leave Link  801 at Fri Jan 23 15:36:58 2026, MaxMem=  2147483648 cpu:               1.0 elap:               0.1
 (Enter /data/home/wyx/g16/l914.exe)
 RHF ground state
 Two-electron integrals replicated using symmetry.
 MDV=  2147483648 DFT=T DoStab=F Mixed=T DoRPA=T DoScal=F NonHer=T
 NEqPCM:  Using non-equilibrium solvation (IEInf=1, Eps=   7.4257, EpsInf=   1.9740)
 Inv3:  Mode=1 IEnd=    13419675.
 Iteration    1 A*A^-1 deviation from unit magnitude is 3.33D-15 for    895.
 Iteration    1 A*A^-1 deviation from orthogonality  is 1.86D-15 for   1781    174.
 Iteration    1 A^-1*A deviation from unit magnitude is 3.11D-15 for    895.
 Iteration    1 A^-1*A deviation from orthogonality  is 3.85D-15 for   1382   1352.
 Making orbital integer symmetry assigments:
 Orbital symmetries:
       Occupied  (A) (A) (A) (A) (A) (A) (A) (A) (A) (A) (A) (A)
                 (A) (A) (A) (A) (A) (A) (A) (A) (A) (A) (A) (A)
                 (A) (A) (A) (A) (A) (A) (A) (A) (A) (A) (A) (A)
                 (A) (A) (A) (A) (A) (A) (A) (A) (A) (A) (A) (A)
                 (A) (A) (A) (A)
       Virtual   (A) (A) (A) (A) (A) (A) (A) (A) (A) (A) (A) (A)
                 (A) (A) (A) (A) (A) (A) (A) (A) (A) (A) (A) (A)
                 (A) (A) (A) (A) (A) (A) (A) (A) (A) (A) (A) (A)
                 (A) (A) (A) (A) (A) (A) (A) (A) (A) (A) (A) (A)
                 (A) (A) (A) (A) (A) (A) (A) (A) (A) (A) (A) (A)
                 (A) (A) (A) (A) (A) (A) (A) (A) (A) (A) (A) (A)
                 (A) (A) (A) (A) (A) (A) (A) (A) (A) (A) (A) (A)
                 (A) (A) (A) (A) (A) (A) (A) (A) (A) (A) (A) (A)
                 (A) (A) (A) (A) (A) (A) (A) (A) (A) (A) (A) (A)
                 (A) (A) (A) (A) (A) (A) (A) (A) (A) (A) (A) (A)
                 (A) (A) (A) (A) (A) (A) (A) (A) (A) (A) (A) (A)
                 (A) (A) (A) (A) (A) (A) (A) (A) (A) (A) (A) (A)
                 (A) (A) (A) (A) (A) (A) (A) (A) (A) (A) (A) (A)
                 (A) (A) (A) (A) (A) (A) (A) (A) (A) (A) (A) (A)
                 (A) (A) (A) (A) (A) (A) (A) (A) (A) (A) (A) (A)
                 (A) (A) (A) (A) (A) (A) (A) (A) (A) (A) (A) (A)
                 (A) (A) (A) (A) (A) (A) (A) (A) (A) (A) (A) (A)
                 (A) (A) (A) (A) (A) (A) (A) (A) (A) (A) (A) (A)
                 (A) (A) (A) (A) (A) (A) (A) (A) (A) (A) (A) (A)
                 (A) (A) (A) (A) (A) (A) (A) (A) (A) (A) (A) (A)
                 (A) (A) (A) (A) (A) (A) (A) (A) (A) (A) (A) (A)
                 (A) (A) (A) (A) (A) (A) (A) (A) (A) (A) (A) (A)
                 (A) (A) (A) (A) (A) (A) (A) (A) (A) (A) (A) (A)
                 (A) (A) (A) (A) (A) (A) (A) (A) (A) (A) (A) (A)
                 (A) (A) (A) (A) (A) (A) (A) (A) (A) (A) (A) (A)
                 (A) (A) (A) (A)
    24 initial guesses have been made.
 Convergence on wavefunction:    0.001000000000000
 Davidson Disk Diagonalization:  ConvIn= 1.00D-03 SkipCon=T Conv= 1.00D-03.
 Max sub-space:  2000 roots to seek:    24 dimension of matrix:        23104
 Iteration     1 Dimension    24 NMult     0 NNew     24
 CISAX will form    24 AO SS matrices at one time.
 NMat=    24 NSing=    24 JSym2X= 0.
 FoFJK:  IHMeth= 1 ICntrl=       0 DoSepK=T KAlg= 0 I1Cent=           0 FoldK=F
 IRaf=         1 NMat=      48 IRICut=       1 DoRegI=T DoRafI=F ISym2E= 0 IDoP0=3 IntGTp=3.
 New state      1 was old state      2
 New state      2 was old state      1
 New state      3 was old state      4
 New state      4 was old state      3
 New state      5 was old state      6
 New state      6 was old state      5
 Excitation Energies [eV] at current iteration:
 Root      1 :     3.699618792618049
 Root      2 :     3.777506351584911
 Root      3 :     4.457887784453712
 Root      4 :     5.492285591410167
 Root      5 :     6.213507917656220
 Root      6 :     6.383816216916812
 Root      7 :     6.616164826040567
 Root      8 :     6.698481737619160
 Root      9 :     6.810346722661095
 Root     10 :     7.109829164102766
 Root     11 :     7.235309704227198
 Root     12 :     7.333625135162447
 Root     13 :     7.487663680198121
 Root     14 :     7.687926357715325
 Root     15 :     7.708083705244637
 Root     16 :     7.831714321542404
 Root     17 :     8.205691421161724
 Root     18 :     8.254133587950575
 Root     19 :     8.340666946395725
 Root     20 :     8.408776887973149
 Root     21 :     8.586982879152995
 Root     22 :     8.634009103522642
 Root     23 :     8.782598189894060
 Root     24 :     9.031654680799367
 Iteration     2 Dimension    36 NMult    24 NNew     12
 CISAX will form    12 AO SS matrices at one time.
 NMat=    12 NSing=    12 JSym2X= 0.
 Root      1 not converged, maximum delta is    0.410891515828327
 Root      2 not converged, maximum delta is    0.399380179020162
 Root      3 not converged, maximum delta is    0.096433111810251
 Root      4 not converged, maximum delta is    0.318011855661690
 New state      5 was old state      6
 Root      5 not converged, maximum delta is    0.293639269450476
 New state      6 was old state      5
 Root      6 not converged, maximum delta is    0.066061661529385
 Excitation Energies [eV] at current iteration:
 Root      1 :     3.299871999381863   Change is   -0.399746793236185
 Root      2 :     3.522953660367298   Change is   -0.254552691217613
 Root      3 :     4.217204978210016   Change is   -0.240682806243696
 Root      4 :     5.148409512062076   Change is   -0.343876079348091
 Root      5 :     5.540818779070763   Change is   -0.842997437846049
 Root      6 :     6.098817802429194   Change is   -0.114690115227026
 Iteration     3 Dimension    48 NMult    36 NNew     12
 CISAX will form    12 AO SS matrices at one time.
 NMat=    12 NSing=    12 JSym2X= 0.
 Root      1 not converged, maximum delta is    0.009210753475022
 Root      2 not converged, maximum delta is    0.010800864732405
 Root      3 not converged, maximum delta is    0.018580830281351
 Root      4 not converged, maximum delta is    0.028938766402005
 Root      5 not converged, maximum delta is    0.028215745496963
 Root      6 not converged, maximum delta is    0.008624183389841
 Excitation Energies [eV] at current iteration:
 Root      1 :     3.282973669662543   Change is   -0.016898329719321
 Root      2 :     3.513585436449579   Change is   -0.009368223917719
 Root      3 :     4.204434990813806   Change is   -0.012769987396210
 Root      4 :     5.124479701461325   Change is   -0.023929810600750
 Root      5 :     5.513491232326596   Change is   -0.027327546744167
 Root      6 :     6.094017793880565   Change is   -0.004800008548629
 Iteration     4 Dimension    60 NMult    48 NNew     12
 CISAX will form    12 AO SS matrices at one time.
 NMat=    12 NSing=    12 JSym2X= 0.
 Root      1 not converged, maximum delta is    0.002502563437880
 Root      2 not converged, maximum delta is    0.001897613670894
 Root      3 not converged, maximum delta is    0.001922363717921
 Root      4 not converged, maximum delta is    0.003822655790038
 Root      5 not converged, maximum delta is    0.005252274138334
 Root      6 not converged, maximum delta is    0.002070134748584
 Excitation Energies [eV] at current iteration:
 Root      1 :     3.281542912015238   Change is   -0.001430757647304
 Root      2 :     3.512963740554240   Change is   -0.000621695895339
 Root      3 :     4.203995778035261   Change is   -0.000439212778545
 Root      4 :     5.121702935827459   Change is   -0.002776765633867
 Root      5 :     5.509499825363600   Change is   -0.003991406962997
 Root      6 :     6.093759238935879   Change is   -0.000258554944686
 Iteration     5 Dimension    72 NMult    60 NNew     12
 CISAX will form    12 AO SS matrices at one time.
 NMat=    12 NSing=    12 JSym2X= 0.
 Root      1 has converged.
 Root      2 has converged.
 Root      3 has converged.
 Root      4 has converged.
 Root      5 not converged, maximum delta is    0.001092910618647
 Root      6 has converged.
 Excitation Energies [eV] at current iteration:
 Root      1 :     3.281461500654228   Change is   -0.000081411361011
 Root      2 :     3.512933431742725   Change is   -0.000030308811515
 Root      3 :     4.203976629233066   Change is   -0.000019148802195
 Root      4 :     5.121520040833769   Change is   -0.000182894993690
 Root      5 :     5.509218177407602   Change is   -0.000281647955997
 Root      6 :     6.093741670861403   Change is   -0.000017568074476
 Iteration     6 Dimension    74 NMult    72 NNew      2
 CISAX will form     2 AO SS matrices at one time.
 NMat=     2 NSing=     2 JSym2X= 0.
 Root      1 has converged.
 Root      2 has converged.
 Root      3 has converged.
 Root      4 has converged.
 Root      5 has converged.
 Root      6 has converged.
 Excitation Energies [eV] at current iteration:
 Root      1 :     3.281461322161963   Change is   -0.000000178492265
 Root      2 :     3.512933366509695   Change is   -0.000000065233029
 Root      3 :     4.203976569678963   Change is   -0.000000059554104
 Root      4 :     5.121512373184315   Change is   -0.000007667649454
 Root      5 :     5.509197699141263   Change is   -0.000020478266338
 Root      6 :     6.093741506916032   Change is   -0.000000163945371
 Convergence achieved on expansion vectors.
 ***********************************************************************
 Excited states from <AA,BB:AA,BB> singles matrix:
 ***********************************************************************
 
 1PDM for each excited state written to RWF  633
 Ground to excited state transition densities written to RWF  633
 Ground to excited state transition electric dipole moments (Au):
       state          X           Y           Z        Dip. S.      Osc.
         1         1.5456     -0.0486     -0.0048      2.3911      0.1922
         2         0.2466     -0.0317     -0.0391      0.0633      0.0055
         3        -0.0067     -0.0158      0.0355      0.0016      0.0002
         4        -0.0394      1.3577     -0.0278      1.8458      0.2316
         5         0.2828      1.3824     -0.0040      1.9909      0.2687
         6        -0.0030      0.0587      0.0412      0.0052      0.0008
 Ground to excited state transition velocity dipole moments (Au):
       state          X           Y           Z        Dip. S.      Osc.
         1        -0.1813      0.0047      0.0005      0.0329      0.1818
         2        -0.0317      0.0039      0.0035      0.0010      0.0053
         3         0.0007      0.0025     -0.0021      0.0000      0.0000
         4         0.0012     -0.2386      0.0041      0.0570      0.2017
         5        -0.0550     -0.2738      0.0007      0.0780      0.2568
         6        -0.0003     -0.0117     -0.0287      0.0010      0.0029
 Ground to excited state transition magnetic dipole moments (Au):
       state          X           Y           Z
         1         0.0849     -0.0306      1.4339
         2        -0.7361      0.2706      0.3155
         3        -0.0123      0.9371      0.0158
         4        -0.0210      0.0108     -0.3929
         5        -0.0786      0.0282     -0.3248
         6        -0.0516      0.0096     -0.0203
 Ground to excited state transition velocity quadrupole moments (Au):
       state          XX          YY          ZZ          XY          XZ          YZ
         1         0.3261     -0.1284     -0.0114      0.4756     -0.0111     -0.0011
         2         0.0606     -0.0024     -0.0011      0.0829     -0.0360     -0.0309
         3        -0.0111      0.0063     -0.0046      0.0021     -0.0749      0.0044
         4         1.2555     -0.2423     -0.0310     -0.2253     -0.0125      0.0024
         5         0.8583     -0.4504     -0.0366     -0.0053     -0.0035     -0.0352
         6        -0.0245     -0.0212      0.0223     -0.0116      0.0037      0.0297
 <0|del|b> * <b|rxdel|0> + <0|del|b> * <b|delr+rdel|0>
 Rotatory Strengths (R) in cgs (10**-40 erg-esu-cm/Gauss)
       state          XX          YY          ZZ    R(velocity)    E-M Angle
         1         2.3920    -43.1879    -46.2786    -29.0248       93.27
         2         7.0336     68.8814     63.8188     46.5780       20.27
         3         5.7061     -0.0795      4.9105      3.5124       43.06
         4       -15.1895     -1.3299      0.7286     -5.2636       92.56
         5       -15.5369     10.5439     -7.6466     -4.2132       92.21
         6         1.3387      0.4052     -0.2029      0.5137       73.75
 1/2[<0|r|b>*<b|rxdel|0> + (<0|rxdel|b>*<b|r|0>)*]
 Rotatory Strengths (R) in cgs (10**-40 erg-esu-cm/Gauss)
       state          XX          YY          ZZ     R(length)
         1       -92.7743     -1.0525      4.8721    -29.6516
         2       128.3441      6.0730      8.7334     47.7168
         3        -0.0585     10.4586     -0.3967      3.3345
         4        -0.5853    -10.3452     -7.7177     -6.2161
         5        15.7176    -27.5553     -0.9240     -4.2539
         6        -0.1090     -0.3970      0.5915      0.0285
  1/2[<0|del|b>*<b|r|0> + (<0|r|b>*<b|del|0>)*] (Au)
       state          X           Y           Z        Dip. S.   Osc.(frdel)
         1        -0.2802     -0.0002     -0.0000      0.2804      0.1869
         2        -0.0078     -0.0001     -0.0001      0.0081      0.0054
         3        -0.0000     -0.0000     -0.0001      0.0001      0.0001
         4        -0.0000     -0.3240     -0.0001      0.3241      0.2161
         5        -0.0156     -0.3785     -0.0000      0.3940      0.2627
         6         0.0000     -0.0007     -0.0012      0.0019      0.0012

 Excitation energies and oscillator strengths:
 
 Excited State   1:      Singlet-A      3.2815 eV  377.83 nm  f=0.1922  <S**2>=0.000
      52 -> 53         0.69538
 This state for optimization and/or second-order correction.
 Total Energy, E(TD-HF/TD-DFT) =  -633.196224742    
 Copying the excited state density for this state as the 1-particle RhoCI density.
 
 Excited State   2:      Singlet-A      3.5129 eV  352.94 nm  f=0.0055  <S**2>=0.000
      51 -> 53         0.61768
      51 -> 54         0.28772
 
 Excited State   3:      Singlet-A      4.2040 eV  294.92 nm  f=0.0002  <S**2>=0.000
      50 -> 53         0.53447
      50 -> 54        -0.41591
      50 -> 58         0.12272
      51 -> 54         0.10427
 
 Excited State   4:      Singlet-A      5.1215 eV  242.09 nm  f=0.2316  <S**2>=0.000
      52 -> 54         0.70003
 
 Excited State   5:      Singlet-A      5.5092 eV  225.05 nm  f=0.2687  <S**2>=0.000
      49 -> 53         0.69500
 
 Excited State   6:      Singlet-A      6.0937 eV  203.46 nm  f=0.0008  <S**2>=0.000
      52 -> 55         0.66293
      52 -> 57        -0.14296
      52 -> 61        -0.10099
      52 -> 62        -0.10034
 SavETr:  write IOETrn=   770 NScale= 10 NData=  16 NLR=1 NState=    6 LETran=     118.
 Leave Link  914 at Fri Jan 23 15:39:05 2026, MaxMem=  2147483648 cpu:            2031.4 elap:             127.5
 (Enter /data/home/wyx/g16/l601.exe)
 Copying SCF densities to generalized density rwf, IOpCl= 0 IROHF=0.

 **********************************************************************

            Population analysis using the SCF density.

 **********************************************************************

 Orbital symmetries:
       Occupied  (A) (A) (A) (A) (A) (A) (A) (A) (A) (A) (A) (A)
                 (A) (A) (A) (A) (A) (A) (A) (A) (A) (A) (A) (A)
                 (A) (A) (A) (A) (A) (A) (A) (A) (A) (A) (A) (A)
                 (A) (A) (A) (A) (A) (A) (A) (A) (A) (A) (A) (A)
                 (A) (A) (A) (A)
       Virtual   (A) (A) (A) (A) (A) (A) (A) (A) (A) (A) (A) (A)
                 (A) (A) (A) (A) (A) (A) (A) (A) (A) (A) (A) (A)
                 (A) (A) (A) (A) (A) (A) (A) (A) (A) (A) (A) (A)
                 (A) (A) (A) (A) (A) (A) (A) (A) (A) (A) (A) (A)
                 (A) (A) (A) (A) (A) (A) (A) (A) (A) (A) (A) (A)
                 (A) (A) (A) (A) (A) (A) (A) (A) (A) (A) (A) (A)
                 (A) (A) (A) (A) (A) (A) (A) (A) (A) (A) (A) (A)
                 (A) (A) (A) (A) (A) (A) (A) (A) (A) (A) (A) (A)
                 (A) (A) (A) (A) (A) (A) (A) (A) (A) (A) (A) (A)
                 (A) (A) (A) (A) (A) (A) (A) (A) (A) (A) (A) (A)
                 (A) (A) (A) (A) (A) (A) (A) (A) (A) (A) (A) (A)
                 (A) (A) (A) (A) (A) (A) (A) (A) (A) (A) (A) (A)
                 (A) (A) (A) (A) (A) (A) (A) (A) (A) (A) (A) (A)
                 (A) (A) (A) (A) (A) (A) (A) (A) (A) (A) (A) (A)
                 (A) (A) (A) (A) (A) (A) (A) (A) (A) (A) (A) (A)
                 (A) (A) (A) (A) (A) (A) (A) (A) (A) (A) (A) (A)
                 (A) (A) (A) (A) (A) (A) (A) (A) (A) (A) (A) (A)
                 (A) (A) (A) (A) (A) (A) (A) (A) (A) (A) (A) (A)
                 (A) (A) (A) (A) (A) (A) (A) (A) (A) (A) (A) (A)
                 (A) (A) (A) (A) (A) (A) (A) (A) (A) (A) (A) (A)
                 (A) (A) (A) (A) (A) (A) (A) (A) (A) (A) (A) (A)
                 (A) (A) (A) (A) (A) (A) (A) (A) (A) (A) (A) (A)
                 (A) (A) (A) (A) (A) (A) (A) (A) (A) (A) (A) (A)
                 (A) (A) (A) (A) (A) (A) (A) (A) (A) (A) (A) (A)
                 (A) (A) (A) (A) (A) (A) (A) (A) (A) (A) (A) (A)
                 (A) (A) (A) (A)
 The electronic state is 1-A.
 Alpha  occ. eigenvalues --  -19.17702 -19.16475 -14.44535 -10.33217 -10.33162
 Alpha  occ. eigenvalues --  -10.32457 -10.32367 -10.26078 -10.25149 -10.25122
 Alpha  occ. eigenvalues --  -10.24986 -10.24395 -10.24045 -10.23744  -1.11728
 Alpha  occ. eigenvalues --   -1.08983  -1.07876  -0.91663  -0.90707  -0.83925
 Alpha  occ. eigenvalues --   -0.82573  -0.81547  -0.78810  -0.74446  -0.71743
 Alpha  occ. eigenvalues --   -0.69189  -0.62201  -0.58594  -0.57012  -0.55251
 Alpha  occ. eigenvalues --   -0.54868  -0.54162  -0.52460  -0.51908  -0.50679
 Alpha  occ. eigenvalues --   -0.49531  -0.49279  -0.49031  -0.48516  -0.48201
 Alpha  occ. eigenvalues --   -0.46675  -0.45220  -0.44619  -0.43873  -0.42937
 Alpha  occ. eigenvalues --   -0.42419  -0.41578  -0.40675  -0.33093  -0.32140
 Alpha  occ. eigenvalues --   -0.30633  -0.26241
 Alpha virt. eigenvalues --   -0.03375   0.02050   0.06294   0.08234   0.08465
 Alpha virt. eigenvalues --    0.09905   0.10750   0.11592   0.12706   0.13092
 Alpha virt. eigenvalues --    0.14336   0.15161   0.15643   0.16432   0.17028
 Alpha virt. eigenvalues --    0.17474   0.17550   0.17728   0.18804   0.19377
 Alpha virt. eigenvalues --    0.20028   0.20780   0.22803   0.23299   0.24288
 Alpha virt. eigenvalues --    0.24552   0.25052   0.25652   0.26324   0.26744
 Alpha virt. eigenvalues --    0.27018   0.27397   0.28828   0.29291   0.29863
 Alpha virt. eigenvalues --    0.30944   0.31093   0.33616   0.34391   0.34712
 Alpha virt. eigenvalues --    0.35356   0.35663   0.36629   0.37365   0.37404
 Alpha virt. eigenvalues --    0.40133   0.40944   0.41519   0.42761   0.43056
 Alpha virt. eigenvalues --    0.44505   0.45429   0.45701   0.46270   0.46415
 Alpha virt. eigenvalues --    0.47255   0.47818   0.48056   0.48648   0.48770
 Alpha virt. eigenvalues --    0.50147   0.51031   0.51196   0.51324   0.51835
 Alpha virt. eigenvalues --    0.52176   0.52816   0.53000   0.53672   0.53833
 Alpha virt. eigenvalues --    0.55050   0.55785   0.56261   0.57079   0.57623
 Alpha virt. eigenvalues --    0.58079   0.59099   0.61559   0.62660   0.63032
 Alpha virt. eigenvalues --    0.63656   0.64718   0.65864   0.67362   0.67876
 Alpha virt. eigenvalues --    0.68803   0.70549   0.71004   0.71794   0.72297
 Alpha virt. eigenvalues --    0.73551   0.75735   0.77670   0.78728   0.79803
 Alpha virt. eigenvalues --    0.82225   0.82715   0.84702   0.88316   0.90558
 Alpha virt. eigenvalues --    0.93541   0.96296   0.99148   1.03737   1.19183
 Alpha virt. eigenvalues --    1.22305   1.22669   1.24716   1.29806   1.30679
 Alpha virt. eigenvalues --    1.32361   1.33752   1.33909   1.35502   1.36513
 Alpha virt. eigenvalues --    1.37426   1.37716   1.39168   1.39488   1.39902
 Alpha virt. eigenvalues --    1.40217   1.40679   1.41016   1.41444   1.42117
 Alpha virt. eigenvalues --    1.42790   1.43633   1.44522   1.45086   1.45795
 Alpha virt. eigenvalues --    1.48454   1.49720   1.50642   1.50869   1.51477
 Alpha virt. eigenvalues --    1.52160   1.53078   1.56227   1.57040   1.57449
 Alpha virt. eigenvalues --    1.58339   1.59678   1.60327   1.60913   1.61972
 Alpha virt. eigenvalues --    1.62420   1.62590   1.63923   1.64422   1.64631
 Alpha virt. eigenvalues --    1.65360   1.65725   1.65789   1.66934   1.67608
 Alpha virt. eigenvalues --    1.69171   1.69398   1.70753   1.71668   1.72320
 Alpha virt. eigenvalues --    1.73374   1.75063   1.75331   1.76076   1.80598
 Alpha virt. eigenvalues --    1.81452   1.82843   1.83424   1.83863   1.86000
 Alpha virt. eigenvalues --    1.86314   1.86480   1.89328   1.90371   1.90910
 Alpha virt. eigenvalues --    1.91713   1.93307   1.96788   1.98071   2.01527
 Alpha virt. eigenvalues --    2.02316   2.05090   2.05851   2.07762   2.09457
 Alpha virt. eigenvalues --    2.10574   2.13622   2.15159   2.18180   2.19870
 Alpha virt. eigenvalues --    2.20197   2.23437   2.24860   2.25766   2.26046
 Alpha virt. eigenvalues --    2.26710   2.29228   2.30446   2.31741   2.33280
 Alpha virt. eigenvalues --    2.35435   2.35811   2.36788   2.37912   2.40218
 Alpha virt. eigenvalues --    2.40535   2.41958   2.43713   2.44711   2.46635
 Alpha virt. eigenvalues --    2.46946   2.47838   2.49359   2.50354   2.50889
 Alpha virt. eigenvalues --    2.53207   2.53525   2.54935   2.55964   2.56423
 Alpha virt. eigenvalues --    2.56563   2.59469   2.61212   2.62947   2.63642
 Alpha virt. eigenvalues --    2.64341   2.65063   2.65929   2.67002   2.67721
 Alpha virt. eigenvalues --    2.69409   2.71480   2.73690   2.74240   2.75140
 Alpha virt. eigenvalues --    2.76132   2.76597   2.77801   2.78351   2.79798
 Alpha virt. eigenvalues --    2.80691   2.82037   2.83604   2.84438   2.85419
 Alpha virt. eigenvalues --    2.85923   2.88356   2.89569   2.89887   2.93889
 Alpha virt. eigenvalues --    2.97007   2.98847   2.99177   3.04739   3.08960
 Alpha virt. eigenvalues --    3.10243   3.11891   3.14295   3.20549   3.21033
 Alpha virt. eigenvalues --    3.21643   3.22675   3.24916   3.25883   3.26350
 Alpha virt. eigenvalues --    3.30957   3.31763   3.34269   3.36426   3.38571
 Alpha virt. eigenvalues --    3.38946   3.39774   3.40192   3.40936   3.41513
 Alpha virt. eigenvalues --    3.41575   3.43982   3.45800   3.47451   3.49832
 Alpha virt. eigenvalues --    3.50593   3.54483   3.56810   3.59245   3.60945
 Alpha virt. eigenvalues --    3.64688   3.92831   4.01054   4.30974   4.37077
 Alpha virt. eigenvalues --   21.64997  21.77236  22.06141  22.10240  22.12675
 Alpha virt. eigenvalues --   22.13554  22.17353  22.20316  22.21628  22.28169
 Alpha virt. eigenvalues --   22.32053  31.92863  43.64819  43.67117
          Condensed to atoms (all electrons):
               1          2          3          4          5          6
     1  O    7.921768   0.000000  -0.000202   0.000017   0.016621   0.016065
     2  O    0.000000   8.082232   0.000619   0.000018  -0.177349   0.001831
     3  N   -0.000202   0.000619   6.345035   0.369605  -0.103944   0.381899
     4  H    0.000017   0.000018   0.369605   0.401812   0.011945  -0.039021
     5  C    0.016621  -0.177349  -0.103944   0.011945   7.166560  -0.039242
     6  C    0.016065   0.001831   0.381899  -0.039021  -0.039242   5.508832
     7  C    0.000177  -0.013762   0.360639  -0.045281   0.375902  -0.166360
     8  C   -0.000376   0.615099   0.003989  -0.001191  -0.466945   0.048060
     9  C    0.005856   0.025782   0.022719   0.001133  -0.695568  -0.069113
    10  H    0.007975  -0.000232  -0.000337  -0.000002  -0.101452   0.009735
    11  H    0.005420  -0.000077   0.001040   0.000019  -0.072396   0.011647
    12  C   -0.252607  -0.004235  -0.102470   0.019576   0.213450  -0.083672
    13  C    0.752112   0.000002  -0.000751   0.000534   0.065371   0.073042
    14  C   -0.000012  -0.067162  -0.048776   0.000697  -0.008900  -0.002742
    15  H    0.000000   0.004696   0.003890  -0.000193   0.006098   0.004587
    16  H    0.000000   0.029508   0.003410   0.000735   0.009472  -0.000296
    17  H    0.000000   0.001627  -0.002950   0.000471  -0.017210  -0.000084
    18  C   -0.000313  -0.089345  -0.000301   0.000015  -0.136419  -0.002294
    19  H    0.000003   0.001017   0.000009  -0.000001   0.005429   0.000045
    20  H    0.000868   0.007173   0.000077   0.000001   0.077898  -0.001432
    21  H    0.000008  -0.001653   0.000011  -0.000001  -0.011354   0.000095
    22  C   -0.131000   0.000000  -0.000098   0.000119   0.000297  -0.004540
    23  H    0.003184   0.000000   0.000153  -0.000034  -0.000238  -0.004766
    24  H    0.003279   0.000000   0.000164  -0.000023  -0.000178  -0.003528
    25  H    0.011303  -0.000000   0.000010  -0.000003  -0.000025  -0.002542
    26  C    0.000774   0.000011  -0.026546  -0.012481   0.002157   0.248822
    27  H   -0.000055  -0.000000  -0.002435   0.000745   0.000486  -0.039858
    28  H   -0.000035  -0.000000  -0.001982   0.000725   0.000401  -0.043056
    29  H    0.000013   0.000000   0.005077   0.002707  -0.000417  -0.051731
               7          8          9         10         11         12
     1  O    0.000177  -0.000376   0.005856   0.007975   0.005420  -0.252607
     2  O   -0.013762   0.615099   0.025782  -0.000232  -0.000077  -0.004235
     3  N    0.360639   0.003989   0.022719  -0.000337   0.001040  -0.102470
     4  H   -0.045281  -0.001191   0.001133  -0.000002   0.000019   0.019576
     5  C    0.375902  -0.466945  -0.695568  -0.101452  -0.072396   0.213450
     6  C   -0.166360   0.048060  -0.069113   0.009735   0.011647  -0.083672
     7  C    5.530585  -0.277923  -0.263576   0.010435   0.001846   0.058655
     8  C   -0.277923   5.719119   0.243721  -0.006397   0.002535  -0.095789
     9  C   -0.263576   0.243721   6.421196   0.519299   0.450259  -0.179395
    10  H    0.010435  -0.006397   0.519299   0.521707  -0.039917  -0.074208
    11  H    0.001846   0.002535   0.450259  -0.039917   0.541548  -0.041730
    12  C    0.058655  -0.095789  -0.179395  -0.074208  -0.041730   7.507259
    13  C    0.027566  -0.010510  -0.194849  -0.006309  -0.008153  -0.479290
    14  C    0.218110  -0.080042   0.016773   0.000259  -0.000754   0.005936
    15  H   -0.065071   0.006740  -0.000348  -0.000021   0.000096  -0.001299
    16  H   -0.051638  -0.023362   0.002411  -0.000057   0.000049  -0.000438
    17  H   -0.017079   0.005873  -0.000726   0.000077  -0.000025  -0.000107
    18  C    0.020582   0.293246  -0.016770  -0.004145  -0.012399   0.011829
    19  H   -0.000525  -0.029910  -0.001996   0.000390   0.000464  -0.000150
    20  H    0.005997  -0.132482  -0.017236  -0.006288  -0.000831   0.005911
    21  H   -0.000921  -0.011754  -0.001838   0.000351   0.000425  -0.000941
    22  C    0.001263  -0.000046   0.019588   0.001030   0.000769  -0.348833
    23  H   -0.000061   0.000004  -0.001145  -0.000151   0.000127   0.026653
    24  H   -0.000025   0.000002  -0.000646   0.000115  -0.000140   0.023902
    25  H    0.000011  -0.000002  -0.000008  -0.000086  -0.000032   0.028414
    26  C    0.006205   0.000904   0.015795   0.000009  -0.000229  -0.105163
    27  H   -0.001425  -0.000006   0.000180   0.000015   0.000002  -0.002581
    28  H   -0.001150  -0.000006  -0.000555   0.000000   0.000019  -0.007225
    29  H    0.003823   0.000025  -0.000682   0.000011   0.000007   0.020958
              13         14         15         16         17         18
     1  O    0.752112  -0.000012   0.000000   0.000000   0.000000  -0.000313
     2  O    0.000002  -0.067162   0.004696   0.029508   0.001627  -0.089345
     3  N   -0.000751  -0.048776   0.003890   0.003410  -0.002950  -0.000301
     4  H    0.000534   0.000697  -0.000193   0.000735   0.000471   0.000015
     5  C    0.065371  -0.008900   0.006098   0.009472  -0.017210  -0.136419
     6  C    0.073042  -0.002742   0.004587  -0.000296  -0.000084  -0.002294
     7  C    0.027566   0.218110  -0.065071  -0.051638  -0.017079   0.020582
     8  C   -0.010510  -0.080042   0.006740  -0.023362   0.005873   0.293246
     9  C   -0.194849   0.016773  -0.000348   0.002411  -0.000726  -0.016770
    10  H   -0.006309   0.000259  -0.000021  -0.000057   0.000077  -0.004145
    11  H   -0.008153  -0.000754   0.000096   0.000049  -0.000025  -0.012399
    12  C   -0.479290   0.005936  -0.001299  -0.000438  -0.000107   0.011829
    13  C    5.493877  -0.000029  -0.000030   0.000005  -0.000022   0.000905
    14  C   -0.000029   5.262382   0.387422   0.417704   0.397637  -0.002319
    15  H   -0.000030   0.387422   0.569292  -0.022077  -0.030912   0.000143
    16  H    0.000005   0.417704  -0.022077   0.453379  -0.015453   0.001052
    17  H   -0.000022   0.397637  -0.030912  -0.015453   0.509037   0.000061
    18  C    0.000905  -0.002319   0.000143   0.001052   0.000061   5.179278
    19  H   -0.000016  -0.000006   0.000002   0.000053  -0.000010   0.406354
    20  H    0.002165   0.000425  -0.000019  -0.000147  -0.000007   0.407056
    21  H   -0.000043  -0.000198  -0.000006   0.000015   0.000019   0.399972
    22  C    0.348686   0.000020   0.000001   0.000000  -0.000001   0.000013
    23  H   -0.052924  -0.000000   0.000000  -0.000000  -0.000000  -0.000001
    24  H   -0.051605   0.000001  -0.000000   0.000000   0.000000   0.000001
    25  H   -0.050449   0.000000   0.000000  -0.000000  -0.000000   0.000001
    26  C   -0.043399  -0.000651  -0.000036   0.000027  -0.000099  -0.000021
    27  H   -0.001377  -0.000057   0.000014   0.000001  -0.000007  -0.000000
    28  H    0.001164   0.000011  -0.000017  -0.000001   0.000007   0.000000
    29  H   -0.000302   0.000510   0.000043  -0.000002  -0.000005   0.000000
              19         20         21         22         23         24
     1  O    0.000003   0.000868   0.000008  -0.131000   0.003184   0.003279
     2  O    0.001017   0.007173  -0.001653   0.000000   0.000000   0.000000
     3  N    0.000009   0.000077   0.000011  -0.000098   0.000153   0.000164
     4  H   -0.000001   0.000001  -0.000001   0.000119  -0.000034  -0.000023
     5  C    0.005429   0.077898  -0.011354   0.000297  -0.000238  -0.000178
     6  C    0.000045  -0.001432   0.000095  -0.004540  -0.004766  -0.003528
     7  C   -0.000525   0.005997  -0.000921   0.001263  -0.000061  -0.000025
     8  C   -0.029910  -0.132482  -0.011754  -0.000046   0.000004   0.000002
     9  C   -0.001996  -0.017236  -0.001838   0.019588  -0.001145  -0.000646
    10  H    0.000390  -0.006288   0.000351   0.001030  -0.000151   0.000115
    11  H    0.000464  -0.000831   0.000425   0.000769   0.000127  -0.000140
    12  C   -0.000150   0.005911  -0.000941  -0.348833   0.026653   0.023902
    13  C   -0.000016   0.002165  -0.000043   0.348686  -0.052924  -0.051605
    14  C   -0.000006   0.000425  -0.000198   0.000020  -0.000000   0.000001
    15  H    0.000002  -0.000019  -0.000006   0.000001   0.000000  -0.000000
    16  H    0.000053  -0.000147   0.000015   0.000000  -0.000000   0.000000
    17  H   -0.000010  -0.000007   0.000019  -0.000001  -0.000000   0.000000
    18  C    0.406354   0.407056   0.399972   0.000013  -0.000001   0.000001
    19  H    0.503479  -0.028231  -0.016421  -0.000000   0.000000   0.000000
    20  H   -0.028231   0.547817  -0.021080   0.000062  -0.000001  -0.000001
    21  H   -0.016421  -0.021080   0.496359  -0.000001   0.000000   0.000000
    22  C   -0.000000   0.000062  -0.000001   5.460713   0.384323   0.393818
    23  H    0.000000  -0.000001   0.000000   0.384323   0.543157  -0.034237
    24  H    0.000000  -0.000001   0.000000   0.393818  -0.034237   0.530047
    25  H    0.000000  -0.000000  -0.000000   0.381798  -0.014457  -0.011676
    26  C    0.000000  -0.000018   0.000001  -0.046111   0.006038  -0.004526
    27  H    0.000000   0.000000  -0.000000  -0.001030  -0.002352  -0.000350
    28  H   -0.000000   0.000000   0.000000  -0.006403  -0.001477  -0.000333
    29  H   -0.000000  -0.000000   0.000000   0.002212   0.000360   0.000199
              25         26         27         28         29
     1  O    0.011303   0.000774  -0.000055  -0.000035   0.000013
     2  O   -0.000000   0.000011  -0.000000  -0.000000   0.000000
     3  N    0.000010  -0.026546  -0.002435  -0.001982   0.005077
     4  H   -0.000003  -0.012481   0.000745   0.000725   0.002707
     5  C   -0.000025   0.002157   0.000486   0.000401  -0.000417
     6  C   -0.002542   0.248822  -0.039858  -0.043056  -0.051731
     7  C    0.000011   0.006205  -0.001425  -0.001150   0.003823
     8  C   -0.000002   0.000904  -0.000006  -0.000006   0.000025
     9  C   -0.000008   0.015795   0.000180  -0.000555  -0.000682
    10  H   -0.000086   0.000009   0.000015   0.000000   0.000011
    11  H   -0.000032  -0.000229   0.000002   0.000019   0.000007
    12  C    0.028414  -0.105163  -0.002581  -0.007225   0.020958
    13  C   -0.050449  -0.043399  -0.001377   0.001164  -0.000302
    14  C    0.000000  -0.000651  -0.000057   0.000011   0.000510
    15  H    0.000000  -0.000036   0.000014  -0.000017   0.000043
    16  H   -0.000000   0.000027   0.000001  -0.000001  -0.000002
    17  H   -0.000000  -0.000099  -0.000007   0.000007  -0.000005
    18  C    0.000001  -0.000021  -0.000000   0.000000   0.000000
    19  H    0.000000   0.000000   0.000000  -0.000000  -0.000000
    20  H   -0.000000  -0.000018   0.000000   0.000000  -0.000000
    21  H   -0.000000   0.000001  -0.000000   0.000000   0.000000
    22  C    0.381798  -0.046111  -0.001030  -0.006403   0.002212
    23  H   -0.014457   0.006038  -0.002352  -0.001477   0.000360
    24  H   -0.011676  -0.004526  -0.000350  -0.000333   0.000199
    25  H    0.495099   0.002386   0.000181   0.000099  -0.000028
    26  C    0.002386   5.188142   0.423738   0.434059   0.385591
    27  H    0.000181   0.423738   0.503824  -0.033032  -0.019066
    28  H    0.000099   0.434059  -0.033032   0.496526  -0.018052
    29  H   -0.000028   0.385591  -0.019066  -0.018052   0.519798
 Mulliken charges:
               1
     1  O   -0.360842
     2  O   -0.415797
     3  N   -0.207556
     4  H    0.287354
     5  C   -0.120447
     6  C    0.249615
     7  C    0.283000
     8  C    0.197422
     9  C   -0.300263
    10  H    0.168193
    11  H    0.160412
    12  C   -0.142408
    13  C    0.134628
    14  C   -0.496240
    15  H    0.137004
    16  H    0.195649
    17  H    0.169888
    18  C   -0.456180
    19  H    0.160020
    20  H    0.152323
    21  H    0.168956
    22  C   -0.456648
    23  H    0.147845
    24  H    0.155740
    25  H    0.160007
    26  C   -0.475380
    27  H    0.174443
    28  H    0.180313
    29  H    0.148949
 Sum of Mulliken charges =  -0.00000
 Mulliken charges with hydrogens summed into heavy atoms:
               1
     1  O   -0.360842
     2  O   -0.415797
     3  N    0.079798
     5  C   -0.120447
     6  C    0.249615
     7  C    0.283000
     8  C    0.197422
     9  C    0.028342
    12  C   -0.142408
    13  C    0.134628
    14  C    0.006301
    18  C    0.025119
    22  C    0.006943
    26  C    0.028326
 Electronic spatial extent (au):  <R**2>=           3225.8084
 Charge=             -0.0000 electrons
 Dipole moment (field-independent basis, Debye):
    X=              4.3442    Y=              7.2492    Z=             -0.0953  Tot=              8.4518
 Quadrupole moment (field-independent basis, Debye-Ang):
   XX=            -99.4383   YY=            -78.7882   ZZ=            -84.2397
   XY=             13.3060   XZ=              0.8592   YZ=             -0.0415
 Traceless Quadrupole moment (field-independent basis, Debye-Ang):
   XX=            -11.9495   YY=              8.7005   ZZ=              3.2490
   XY=             13.3060   XZ=              0.8592   YZ=             -0.0415
 Octapole moment (field-independent basis, Debye-Ang**2):
  XXX=            117.5851  YYY=             62.9497  ZZZ=              1.3854  XYY=            -36.6858
  XXY=             27.3268  XXZ=             -3.2242  XZZ=              0.4574  YZZ=             -1.5115
  YYZ=              0.3071  XYZ=             -0.5073
 Hexadecapole moment (field-independent basis, Debye-Ang**3):
 XXXX=          -3173.0522 YYYY=          -1286.3560 ZZZZ=           -123.3483 XXXY=             46.1309
 XXXZ=             18.7692 YYYX=             94.0444 YYYZ=             -2.9272 ZZZX=             -2.8728
 ZZZY=              0.4314 XXYY=           -688.6661 XXZZ=           -481.9353 YYZZ=           -236.2642
 XXYZ=              2.0499 YYXZ=             -1.6094 ZZXY=              3.3553
 N-N= 8.994093584639D+02 E-N=-3.274815322313D+03  KE= 6.306859076570D+02
 Leave Link  601 at Fri Jan 23 15:39:06 2026, MaxMem=  2147483648 cpu:               0.7 elap:               0.1
 (Enter /data/home/wyx/g16/l9999.exe)
 Electronic transition elements 
                 1             2             3             4             5 
      1  -0.633196D+03 -0.633188D+03 -0.633162D+03 -0.633129D+03 -0.633114D+03
      2   0.145259D+01  0.245316D+00 -0.576377D-02 -0.499762D+00 -0.212356D+00
      3   0.492059D+00  0.558649D-01 -0.170029D-01  0.125911D+01  0.139437D+01
      4   0.197422D+00 -0.526357D-02  0.350899D-01 -0.103154D+00 -0.392908D-01
      5  -0.169996D+00 -0.312972D-01  0.594905D-04  0.826425D-01  0.430059D-01
      6  -0.586795D-01 -0.738023D-02  0.256983D-02 -0.223265D+00 -0.275818D+00
      7  -0.231883D-01 -0.885796D-03 -0.216626D-02  0.166059D-01  0.780657D-02
      8  -0.110227D+00 -0.820535D+00 -0.335990D+00  0.314610D-01 -0.374647D-01
      9   0.631938D-02 -0.122363D-02  0.874377D+00  0.128730D-02 -0.215409D-02
     10   0.143245D+01  0.203274D+00 -0.346351D-01 -0.392352D+00 -0.333260D+00
     11  -0.353251D-01  0.534507D-02  0.956582D-02  0.120076D+01  0.687019D+00
     12   0.236841D+00  0.589463D-01  0.536151D-02 -0.207985D+00 -0.295704D+00
     13  -0.152102D-01 -0.725656D-02 -0.243639D-01 -0.104987D-01 -0.199871D-01
     14   0.504511D+00  0.882745D-01 -0.124716D-02  0.314845D+00  0.423328D+00
     15  -0.153729D-01 -0.224385D-01 -0.697780D-01  0.159336D+00  0.109040D+00
     16   0.649842D-01 -0.296727D-01 -0.223880D-01  0.428228D-01  0.259807D-01
                 6 
      1  -0.633093D+03
      2  -0.287075D-01
      3   0.541561D-01
      4   0.373656D-01
      5   0.771538D-02
      6  -0.112279D-01
      7  -0.278579D-01
      8  -0.483399D-01
      9  -0.904811D-02
     10  -0.272587D-01
     11  -0.138753D-01
     12  -0.289829D-01
     13   0.194567D-01
     14  -0.138694D-01
     15  -0.118362D-01
     16   0.276802D-01
 1\1\GINC-CN013\SP\RCAM-B3LYP TD-FC\TZVP\C11H15N1O2\WYX\23-Jan-2026\0\\
 #p CAM-B3LYP TZVP em=gd3bj td(nstates=6,root=1) scrf=(Solvent=TetraHyd
 roFuran)\\Title Card Required\\0,1\O,0,2.799722,-1.574442,0.395856\O,0
 ,-3.441582,-1.651989,-0.391661\N,0,-0.652119,1.523979,-0.143079\H,0,-0
 .970539,2.477498,-0.184051\C,0,-1.24191,-0.766569,-0.187194\C,0,0.6767
 81,1.31157,0.070334\C,0,-1.6183,0.539073,-0.249454\C,0,-2.181227,-1.82
 4987,-0.281082\C,0,0.211423,-1.131848,-0.027056\H,0,0.332502,-1.791295
 ,0.835328\H,0,0.547755,-1.708041,-0.893832\C,0,1.145011,0.041026,0.140
 207\C,0,2.518837,-0.376509,0.366234\C,0,-2.993259,1.075469,-0.414582\H
 ,0,-3.00925,1.901245,-1.131229\H,0,-3.702998,0.335582,-0.779312\H,0,-3
 .39156,1.443602,0.534452\C,0,-1.806712,-3.276347,-0.266132\H,0,-2.2940
 09,-3.873685,-1.039386\H,0,-0.738483,-3.442173,-0.389909\H,0,-2.069779
 ,-3.734584,0.692168\C,0,3.64863,0.598225,0.572334\H,0,3.787557,1.26698
 3,-0.274996\H,0,3.51572,1.212453,1.461607\H,0,4.549299,0.001066,0.6937
 41\C,0,1.445142,2.58858,0.197565\H,0,1.936685,2.681649,1.162984\H,0,2.
 202532,2.696637,-0.575741\H,0,0.794131,3.457829,0.105885\\Version=ES64
 L-G16RevA.03\State=1-A\HF=-633.3168162\RMSD=5.856e-09\PG=C01 [X(C11H15
 N1O2)]\\@


 PENOTUS DIED A HUNDRED YEARS OLD WANTING BUT TWO...
 AND HE USED TO SAY BEFORE HE DIED, HAVING SPENT HIS
 WHOLE LIFE IN VAINLY SEARCHING AFTER THE PHILOSOPHER'S
 STONE, THAT IF HE HAD A MORTAL ENEMY HE DID NOT DARE
 TO ENCOUNTER OPENLY, HE WOULD ADVISE HIM ABOVE ALL
 THINGS TO GIVE HIMSELF UP TO THE STUDY AND PRACTICE
 OF ALCHEMY.  --  NICOLAS LEMERY, M.D.
 "A COURSE OF CHYMISTRY", WALTER KETTILBY, LONDON, 1686
 Job cpu time:       0 days  0 hours 49 minutes 45.3 seconds.
 Elapsed time:       0 days  0 hours  3 minutes  7.8 seconds.
 File lengths (MBytes):  RWF=    834 Int=      0 D2E=      0 Chk=     34 Scr=      1
 Normal termination of Gaussian 16 at Fri Jan 23 15:39:09 2026.
