 Entering Gaussian System, Link 0=g16
 Input=DDL-S2-cLR-gs-1.gjf
 Output=DDL-S2-cLR-gs-1.log
 Initial command:
 /data/home/wyx/g16/l1.exe "/scr/tmp/wyx/13109/Gau-1701146.inp" -scrdir="/scr/tmp/wyx/13109/"
 Entering Link 1 = /data/home/wyx/g16/l1.exe PID=   1701147.
  
 Copyright (c) 1988,1990,1992,1993,1995,1998,2003,2009,2016,
            Gaussian, Inc.  All Rights Reserved.
  
 This is part of the Gaussian(R) 16 program.  It is based on
 the Gaussian(R) 09 system (copyright 2009, Gaussian, Inc.),
 the Gaussian(R) 03 system (copyright 2003, Gaussian, Inc.),
 the Gaussian(R) 98 system (copyright 1998, Gaussian, Inc.),
 the Gaussian(R) 94 system (copyright 1995, Gaussian, Inc.),
 the Gaussian 92(TM) system (copyright 1992, Gaussian, Inc.),
 the Gaussian 90(TM) system (copyright 1990, Gaussian, Inc.),
 the Gaussian 88(TM) system (copyright 1988, Gaussian, Inc.),
 the Gaussian 86(TM) system (copyright 1986, Carnegie Mellon
 University), and the Gaussian 82(TM) system (copyright 1983,
 Carnegie Mellon University). Gaussian is a federally registered
 trademark of Gaussian, Inc.
  
 This software contains proprietary and confidential information,
 including trade secrets, belonging to Gaussian, Inc.
  
 This software is provided under written license and may be
 used, copied, transmitted, or stored only in accord with that
 written license.
  
 The following legend is applicable only to US Government
 contracts under FAR:
  
                    RESTRICTED RIGHTS LEGEND
  
 Use, reproduction and disclosure by the US Government is
 subject to restrictions as set forth in subparagraphs (a)
 and (c) of the Commercial Computer Software - Restricted
 Rights clause in FAR 52.227-19.
  
 Gaussian, Inc.
 340 Quinnipiac St., Bldg. 40, Wallingford CT 06492
  
  
 ---------------------------------------------------------------
 Warning -- This program may not be used in any manner that
 competes with the business of Gaussian, Inc. or will provide
 assistance to any competitor of Gaussian, Inc.  The licensee
 of this program is prohibited from giving any competitor of
 Gaussian, Inc. access to this program.  By using this program,
 the user acknowledges that Gaussian, Inc. is engaged in the
 business of creating and licensing software in the field of
 computational chemistry and represents and warrants to the
 licensee that it is not a competitor of Gaussian, Inc. and that
 it will not use this program in any manner prohibited above.
 ---------------------------------------------------------------
  

 Cite this work as:
 Gaussian 16, Revision A.03,
 M. J. Frisch, G. W. Trucks, H. B. Schlegel, G. E. Scuseria, 
 M. A. Robb, J. R. Cheeseman, G. Scalmani, V. Barone, 
 G. A. Petersson, H. Nakatsuji, X. Li, M. Caricato, A. V. Marenich, 
 J. Bloino, B. G. Janesko, R. Gomperts, B. Mennucci, H. P. Hratchian, 
 J. V. Ortiz, A. F. Izmaylov, J. L. Sonnenberg, D. Williams-Young, 
 F. Ding, F. Lipparini, F. Egidi, J. Goings, B. Peng, A. Petrone, 
 T. Henderson, D. Ranasinghe, V. G. Zakrzewski, J. Gao, N. Rega, 
 G. Zheng, W. Liang, M. Hada, M. Ehara, K. Toyota, R. Fukuda, 
 J. Hasegawa, M. Ishida, T. Nakajima, Y. Honda, O. Kitao, H. Nakai, 
 T. Vreven, K. Throssell, J. A. Montgomery, Jr., J. E. Peralta, 
 F. Ogliaro, M. J. Bearpark, J. J. Heyd, E. N. Brothers, K. N. Kudin, 
 V. N. Staroverov, T. A. Keith, R. Kobayashi, J. Normand, 
 K. Raghavachari, A. P. Rendell, J. C. Burant, S. S. Iyengar, 
 J. Tomasi, M. Cossi, J. M. Millam, M. Klene, C. Adamo, R. Cammi, 
 J. W. Ochterski, R. L. Martin, K. Morokuma, O. Farkas, 
 J. B. Foresman, and D. J. Fox, Gaussian, Inc., Wallingford CT, 2016.
 
 ******************************************
 Gaussian 16:  ES64L-G16RevA.03 25-Dec-2016
                23-Jan-2026 
 ******************************************
 %nprocshared=16
 Will use up to   16 processors via shared memory.
 %mem=16GB
 %oldchk=DDL-S2-cLR-1.chk
 %chk=DDL-S2-cLR-gs-1.chk
 Copying data from "DDL-S2-cLR-1.chk" to current chk file "DDL-S2-cLR-gs-1.chk"
 IOpt=  2 FromEx=T IUOpen= 4 IOptOp= 5 NList=   0 IFRang= 0 IUIn= 4 IUOut= 2.
 ----------------------------------------------------------------------
 #p CAM-B3LYP TZVP em=gd3bj scrf=(Solvent=TetraHydroFuran,NonEquilibriu
 m=Read) Geom=Check Guess=Read
 ----------------------------------------------------------------------
 1/29=2,38=1,172=1/1;
 2/12=2,40=1/2;
 3/5=19,7=101,11=2,14=-4,25=1,30=1,70=6002201,72=20,74=-40,116=-2,124=41/1,2,3;
 4/5=1/1;
 5/5=2,38=6,53=20/2;
 6/7=2,8=2,9=2,10=2,28=1/1;
 99/5=1,9=1/99;
 Leave Link    1 at Fri Jan 23 22:37:51 2026, MaxMem=  2147483648 cpu:               0.8 elap:               0.1
 (Enter /data/home/wyx/g16/l101.exe)
 -------------------
 Title Card Required
 -------------------
 Structure from the checkpoint file:  "DDL-S2-cLR-gs-1.chk"
 Charge =  0 Multiplicity = 1
 Z-Matrix found in chk file.
 O,0,2.794208,-1.560981,0.486295
 O,0,-3.416764,-1.65366,-0.583623
 N,0,-0.662164,1.524635,-0.051154
 H,0,-0.981904,2.477944,-0.090747
 C,0,-1.239328,-0.776881,-0.172451
 C,0,0.668258,1.315706,0.141399
 C,0,-1.620706,0.535895,-0.231529
 C,0,-2.152267,-1.832011,-0.349031
 C,0,0.201528,-1.138845,0.105261
 H,0,0.268899,-1.717327,1.031365
 H,0,0.574171,-1.806034,-0.675043
 C,0,1.14296,0.041038,0.201451
 C,0,2.527034,-0.363204,0.382312
 C,0,-2.987109,1.07313,-0.464771
 H,0,-2.996424,1.781455,-1.298371
 H,0,-3.700603,0.284517,-0.703038
 H,0,-3.367346,1.592097,0.420343
 C,0,-1.819755,-3.297814,-0.283465
 H,0,-2.075122,-3.810822,-1.213579
 H,0,-0.760164,-3.441365,-0.092866
 H,0,-2.378267,-3.783842,0.520388
 C,0,3.679388,0.611787,0.434016
 H,0,3.674822,1.31424,-0.396368
 H,0,3.671978,1.187594,1.359704
 H,0,4.5961,0.028244,0.400928
 C,0,1.442999,2.594731,0.258978
 H,0,2.089234,2.605268,1.131161
 H,0,2.060649,2.771979,-0.620554
 H,0,0.765692,3.442525,0.352994
 Recover connectivity data from disk.
 ITRead=  0  0  0  0  0  0  0  0  0  0  0  0  0  0  0  0  0  0  0  0
 ITRead=  0  0  0  0  0  0  0  0  0
 MicOpt= -1 -1 -1 -1 -1 -1 -1 -1 -1 -1 -1 -1 -1 -1 -1 -1 -1 -1 -1 -1
 MicOpt= -1 -1 -1 -1 -1 -1 -1 -1 -1
 NAtoms=     29 NQM=       29 NQMF=       0 NMMI=      0 NMMIF=      0
                NMic=       0 NMicF=      0.
                    Isotopes and Nuclear Properties:
 (Nuclear quadrupole moments (NQMom) in fm**2, nuclear magnetic moments (NMagM)
  in nuclear magnetons)

  Atom         1           2           3           4           5           6           7           8           9          10
 IAtWgt=          16          16          14           1          12          12          12          12          12           1
 AtmWgt=  15.9949146  15.9949146  14.0030740   1.0078250  12.0000000  12.0000000  12.0000000  12.0000000  12.0000000   1.0078250
 NucSpn=           0           0           2           1           0           0           0           0           0           1
 AtZEff=   5.6000000   5.6000000   4.5500000   1.0000000   3.6000000   3.6000000   3.6000000   3.6000000   3.6000000   1.0000000
 NQMom=    0.0000000   0.0000000   2.0440000   0.0000000   0.0000000   0.0000000   0.0000000   0.0000000   0.0000000   0.0000000
 NMagM=    0.0000000   0.0000000   0.4037610   2.7928460   0.0000000   0.0000000   0.0000000   0.0000000   0.0000000   2.7928460
 AtZNuc=   8.0000000   8.0000000   7.0000000   1.0000000   6.0000000   6.0000000   6.0000000   6.0000000   6.0000000   1.0000000

  Atom        11          12          13          14          15          16          17          18          19          20
 IAtWgt=           1          12          12          12           1           1           1          12           1           1
 AtmWgt=   1.0078250  12.0000000  12.0000000  12.0000000   1.0078250   1.0078250   1.0078250  12.0000000   1.0078250   1.0078250
 NucSpn=           1           0           0           0           1           1           1           0           1           1
 AtZEff=   1.0000000   3.6000000   3.6000000   3.6000000   1.0000000   1.0000000   1.0000000   3.6000000   1.0000000   1.0000000
 NQMom=    0.0000000   0.0000000   0.0000000   0.0000000   0.0000000   0.0000000   0.0000000   0.0000000   0.0000000   0.0000000
 NMagM=    2.7928460   0.0000000   0.0000000   0.0000000   2.7928460   2.7928460   2.7928460   0.0000000   2.7928460   2.7928460
 AtZNuc=   1.0000000   6.0000000   6.0000000   6.0000000   1.0000000   1.0000000   1.0000000   6.0000000   1.0000000   1.0000000

  Atom        21          22          23          24          25          26          27          28          29
 IAtWgt=           1          12           1           1           1          12           1           1           1
 AtmWgt=   1.0078250  12.0000000   1.0078250   1.0078250   1.0078250  12.0000000   1.0078250   1.0078250   1.0078250
 NucSpn=           1           0           1           1           1           0           1           1           1
 AtZEff=   1.0000000   3.6000000   1.0000000   1.0000000   1.0000000   3.6000000   1.0000000   1.0000000   1.0000000
 NQMom=    0.0000000   0.0000000   0.0000000   0.0000000   0.0000000   0.0000000   0.0000000   0.0000000   0.0000000
 NMagM=    2.7928460   0.0000000   2.7928460   2.7928460   2.7928460   0.0000000   2.7928460   2.7928460   2.7928460
 AtZNuc=   1.0000000   6.0000000   1.0000000   1.0000000   1.0000000   6.0000000   1.0000000   1.0000000   1.0000000
 Leave Link  101 at Fri Jan 23 22:37:53 2026, MaxMem=  2147483648 cpu:               0.8 elap:               0.1
 (Enter /data/home/wyx/g16/l202.exe)
                          Input orientation:                          
 ---------------------------------------------------------------------
 Center     Atomic      Atomic             Coordinates (Angstroms)
 Number     Number       Type             X           Y           Z
 ---------------------------------------------------------------------
      1          8           0        2.794208   -1.560981    0.486295
      2          8           0       -3.416764   -1.653660   -0.583623
      3          7           0       -0.662164    1.524635   -0.051154
      4          1           0       -0.981904    2.477944   -0.090747
      5          6           0       -1.239328   -0.776881   -0.172451
      6          6           0        0.668258    1.315706    0.141399
      7          6           0       -1.620706    0.535895   -0.231529
      8          6           0       -2.152267   -1.832011   -0.349031
      9          6           0        0.201528   -1.138845    0.105261
     10          1           0        0.268899   -1.717327    1.031365
     11          1           0        0.574171   -1.806034   -0.675043
     12          6           0        1.142960    0.041038    0.201451
     13          6           0        2.527034   -0.363204    0.382312
     14          6           0       -2.987109    1.073130   -0.464771
     15          1           0       -2.996424    1.781455   -1.298371
     16          1           0       -3.700603    0.284517   -0.703038
     17          1           0       -3.367346    1.592097    0.420343
     18          6           0       -1.819755   -3.297814   -0.283465
     19          1           0       -2.075122   -3.810822   -1.213579
     20          1           0       -0.760164   -3.441365   -0.092866
     21          1           0       -2.378267   -3.783842    0.520388
     22          6           0        3.679388    0.611787    0.434016
     23          1           0        3.674822    1.314240   -0.396368
     24          1           0        3.671978    1.187594    1.359704
     25          1           0        4.596100    0.028244    0.400928
     26          6           0        1.442999    2.594731    0.258978
     27          1           0        2.089234    2.605268    1.131161
     28          1           0        2.060649    2.771979   -0.620554
     29          1           0        0.765692    3.442525    0.352994
 ---------------------------------------------------------------------
                    Distance matrix (angstroms):
                    1          2          3          4          5
     1  O    0.000000
     2  O    6.303133   0.000000
     3  N    4.664374   4.239446   0.000000
     4  H    5.559219   4.820957   1.006280   0.000000
     5  C    4.161511   2.383072   2.375880   3.266011   0.000000
     6  C    3.593598   5.101980   1.360423   2.031680   2.848913
     7  C    4.940003   2.853760   1.388865   2.049254   1.368328
     8  C    5.023827   1.298382   3.684591   4.473497   1.406392
     9  C    2.654313   3.719090   2.804381   3.810524   1.511360
    10  H    2.588191   4.024469   3.542463   4.519286   2.146709
    11  H    2.517404   3.994889   3.607093   4.595132   2.144885
    12  C    2.318237   4.927416   2.350179   3.246373   2.546388
    13  C    1.231610   6.158493   3.731329   4.539664   3.829409
    14  C    6.423916   2.762990   2.404226   2.476740   2.561783
    15  H    6.920139   3.533775   2.658999   2.449846   3.301540
    16  H    6.855869   1.962487   3.345887   3.546455   2.732391
    17  H    6.921777   3.397842   2.746793   2.595433   3.239124
    18  C    4.989767   2.311661   4.964877   5.839393   2.589271
    19  H    5.626876   2.617288   5.640460   6.481084   3.314709
    20  H    4.062614   3.239484   4.967142   5.923461   2.708396
    21  H    5.629989   2.614382   5.608172   6.444632   3.289228
    22  C    2.346742   7.518192   4.462931   5.048323   5.146841
    23  H    3.133923   7.689869   4.355788   4.809647   5.345259
    24  H    3.014629   7.880324   4.570438   5.042562   5.507049
    25  H    2.404109   8.246462   5.485700   6.112029   5.918548
    26  C    4.375772   6.509693   2.381806   2.452774   4.329986
    27  H    4.274397   7.169028   3.183681   3.307742   4.921144
    28  H    4.531861   7.041995   3.048572   3.102302   4.866729
    29  H    5.400715   6.658926   2.424956   2.044851   4.701020
                    6          7          8          9         10
     6  C    0.000000
     7  C    2.446740   0.000000
     8  C    4.254880   2.429680   0.000000
     9  C    2.498792   2.497743   2.495438   0.000000
    10  H    3.186035   3.200393   2.789389   1.094006   0.000000
    11  H    3.228109   3.240188   2.745983   1.092190   1.735767
    12  C    1.361516   2.840811   3.830126   1.512505   2.131804
    13  C    2.516312   4.288231   4.958640   2.467054   2.711843
    14  C    3.713219   1.486634   3.024930   3.922394   4.541658
    15  H    3.964814   2.140601   3.830272   4.552497   5.322732
    16  H    4.567644   2.147436   2.646197   4.231540   4.772052
    17  H    4.054664   2.142720   3.713875   4.504906   4.954585
    18  C    5.258829   3.839224   1.504474   2.982925   2.930732
    19  H    5.970208   4.479382   2.160807   3.749925   3.862244
    20  H    4.972423   4.071653   2.143267   2.503139   2.301124
    21  H    5.952339   4.449652   2.148630   3.718021   3.396921
    22  C    3.106128   5.342257   6.371304   3.907468   4.172893
    23  H    3.054279   5.354961   6.622394   4.281709   4.777984
    24  H    3.243919   5.565001   6.779352   4.362335   4.486348
    25  H    4.141601   6.269481   7.040131   4.556509   4.708411
    26  C    1.499984   3.723666   5.735125   3.937571   4.535299
    27  H    2.159114   4.461265   6.314328   4.316745   4.691312
    28  H    2.154079   4.324787   6.246528   4.390636   5.108138
    29  H    2.139538   3.805924   6.068612   4.622619   5.227912
                   11         12         13         14         15
    11  H    0.000000
    12  C    2.122130   0.000000
    13  C    2.648288   1.453198   0.000000
    14  C    4.584377   4.308890   5.760762   0.000000
    15  H    5.099781   4.734239   6.158965   1.093938   0.000000
    16  H    4.758664   4.933304   6.354604   1.089842   1.758156
    17  H    5.318150   4.774574   6.210343   1.094227   1.768451
    18  C    2.847740   4.490073   5.286754   4.527774   5.311644
    19  H    3.365702   5.214900   5.967644   5.024482   5.668293
    20  H    2.189449   3.979401   4.528415   5.047600   5.807921
    21  H    3.749356   5.208692   5.981790   4.993136   5.887490
    22  C    4.088795   2.610231   1.510364   6.742614   6.995409
    23  H    4.407699   2.896335   2.176598   6.666644   6.748142
    24  H    4.764285   3.008666   2.161288   6.905451   7.203167
    25  H    4.549528   3.458920   2.105852   7.703654   7.975449
    26  C    4.581920   2.571902   3.152733   4.739719   4.774435
    27  H    5.001737   2.887052   3.092615   5.537482   5.696070
    28  H    4.813605   2.995978   3.324549   5.328247   5.197553
    29  H    5.351720   3.425699   4.193657   4.512902   4.431667
                   16         17         18         19         20
    16  H    0.000000
    17  H    1.755793   0.000000
    18  C    4.067767   5.177027   0.000000
    19  H    4.435611   5.790603   1.092475   0.000000
    20  H    4.785466   5.691794   1.086125   1.766808   0.000000
    21  H    4.449369   5.467084   1.092858   1.760473   1.763981
    22  C    7.474240   7.114609   6.785303   7.442340   6.034506
    23  H    7.453272   7.094812   7.174550   7.745705   6.509761
    24  H    7.708787   7.113234   7.278600   8.039596   6.571233
    25  H    8.373751   8.115571   7.259081   7.864494   6.400905
    26  C    5.720070   4.916374   6.757359   7.454979   6.435229
    27  H    6.501722   5.595180   7.219954   8.000367   6.795519
    28  H    6.275850   5.651435   7.212042   7.796765   6.844055
    29  H    5.570997   4.528866   7.247192   7.945780   7.065053
                   21         22         23         24         25
    21  H    0.000000
    22  C    7.484931   0.000000
    23  H    7.966854   1.087657   0.000000
    24  H    7.875601   1.090187   1.760635   0.000000
    25  H    7.949092   1.087188   1.771502   1.765601   0.000000
    26  C    7.440202   2.994018   2.655216   2.856568   4.068053
    27  H    7.819996   2.643590   2.552291   2.137080   3.668606
    28  H    7.999032   2.898079   2.186508   3.004676   3.872986
    29  H    7.882441   4.063160   3.681600   3.813748   5.131436
                   26         27         28         29
    26  C    0.000000
    27  H    1.085557   0.000000
    28  H    1.089259   1.759862   0.000000
    29  H    1.089192   1.748801   1.753380   0.000000
 Stoichiometry    C11H15NO2
 Framework group  C1[X(C11H15NO2)]
 Deg. of freedom    81
 Full point group                 C1      NOp   1
 RotChk:  IX=0 Diff= 1.64D-15
 Largest Abelian subgroup         C1      NOp   1
 Largest concise Abelian subgroup C1      NOp   1
                         Standard orientation:                         
 ---------------------------------------------------------------------
 Center     Atomic      Atomic             Coordinates (Angstroms)
 Number     Number       Type             X           Y           Z
 ---------------------------------------------------------------------
      1          8           0       -2.253407   -2.313794   -0.062147
      2          8           0        3.677523   -0.183784    0.066751
      3          7           0       -0.064890    1.805214   -0.038801
      4          1           0       -0.098856    2.810903   -0.044754
      5          6           0        1.296109   -0.142029   -0.011714
      6          6           0       -1.249664    1.136635   -0.030845
      7          6           0        1.195446    1.222581   -0.006596
      8          6           0        2.537069   -0.802880    0.023370
      9          6           0        0.050984   -0.996577   -0.071881
     10          1           0        0.061642   -1.607819   -0.979140
     11          1           0        0.050892   -1.711889    0.753472
     12          6           0       -1.248907   -0.224858   -0.022863
     13          6           0       -2.412959   -1.094362    0.004121
     14          6           0        2.303735    2.213036    0.021233
     15          1           0        2.180627    2.920973    0.846078
     16          1           0        3.275052    1.735275    0.147890
     17          1           0        2.348233    2.787012   -0.909308
     18          6           0        2.735881   -2.294035    0.004095
     19          1           0        3.283804   -2.638802    0.884105
     20          1           0        1.779000   -2.806989   -0.026329
     21          1           0        3.310420   -2.594630   -0.875613
     22          6           0       -3.829670   -0.585672    0.128081
     23          1           0       -3.955559    0.114954    0.950440
     24          1           0       -4.155897   -0.090375   -0.786667
     25          1           0       -4.467989   -1.449535    0.296213
     26          6           0       -2.433201    2.058146   -0.027619
     27          1           0       -3.157862    1.799331   -0.793332
     28          1           0       -2.943151    2.052892    0.934882
     29          1           0       -2.117989    3.082930   -0.219445
 ---------------------------------------------------------------------
 Rotational constants (GHZ):           1.1016845           0.4805977           0.3383488
 Leave Link  202 at Fri Jan 23 22:37:53 2026, MaxMem=  2147483648 cpu:               0.0 elap:               0.0
 (Enter /data/home/wyx/g16/l301.exe)
 Standard basis: TZVP (5D, 7F)
 Ernie: Thresh=  0.10000D-02 Tol=  0.10000D-05 Strict=F.
 There are   370 symmetry adapted cartesian basis functions of A   symmetry.
 There are   356 symmetry adapted basis functions of A   symmetry.
   356 basis functions,   610 primitive gaussians,   370 cartesian basis functions
    52 alpha electrons       52 beta electrons
       nuclear repulsion energy       897.9449182816 Hartrees.
 IExCor=20419 DFT=T Ex+Corr=CAM-B3LYP ExCW=0 ScaHFX=  1.000000
 ScaDFX=  1.000000  1.000000  1.000000  0.810000 ScalE2=  1.000000  1.000000
 IRadAn=      5 IRanWt=     -1 IRanGd=            0 ICorTp=0 IEmpDi=141
 HFx  wShort=  0.000000 wLong=  0.330000 cFull=  0.190000 cShort=  0.000000 cLong=  0.460000
 DFx  wShort=  0.000000 wLong=  0.330000 cFull=  0.190000 cShort=  0.000000 cLong=  0.460000
 NAtoms=   29 NActive=   29 NUniq=   29 SFac= 1.00D+00 NAtFMM=   60 NAOKFM=F Big=F
 Integral buffers will be    131072 words long.
 Raffenetti 2 integral format.
 Two-electron integral symmetry is turned on.
 R6Disp:  Grimme-D3(BJ) Dispersion energy=       -0.0260559832 Hartrees.
 Nuclear repulsion after empirical dispersion term =      897.9188622984 Hartrees.
 ------------------------------------------------------------------------------
 Polarizable Continuum Model (PCM)
 =================================
 Model                : PCM.
 Atomic radii         : UFF (Universal Force Field).
 Polarization charges : Total charges.
 Charge compensation  : None.
 Solution method      : On-the-fly selection.
 Cavity type          : Scaled VdW (van der Waals Surface) (Alpha=1.100).
 Cavity algorithm     : GePol (No added spheres)
                        Default sphere list used, NSphG=   29.
                        Lebedev-Laikov grids with approx.  5.0 points / Ang**2.
                        Smoothing algorithm: York/Karplus (Gamma=1.0000).
                        Polarization charges: spherical gaussians, with
                                              point-specific exponents (IZeta= 3).
                        Self-potential: point-specific (ISelfS= 7).
                        Self-field    : sphere-specific E.n sum rule (ISelfD= 2).
 Solvent              : TetraHydroFuran, Eps=   7.425700 Eps(inf)=   1.974025
 ------------------------------------------------------------------------------
 GePol: Number of generator spheres                  =      29
 GePol: Total number of spheres                      =      29
 GePol: Number of exposed spheres                    =      29 (100.00%)
 GePol: Number of points                             =    2112
 GePol: Average weight of points                     =       0.13
 GePol: Minimum weight of points                     =   0.14D-07
 GePol: Maximum weight of points                     =    0.20577
 GePol: Number of points with low weight             =     141
 GePol: Fraction of low-weight points (<1% of avg)   =       6.68%
 GePol: Cavity surface area                          =    269.111 Ang**2
 GePol: Cavity volume                                =    286.429 Ang**3
 Leave Link  301 at Fri Jan 23 22:37:53 2026, MaxMem=  2147483648 cpu:               0.6 elap:               0.0
 (Enter /data/home/wyx/g16/l302.exe)
 NPDir=0 NMtPBC=     1 NCelOv=     1 NCel=       1 NClECP=     1 NCelD=      1
         NCelK=      1 NCelE2=     1 NClLst=     1 CellRange=     0.0.
 One-electron integrals computed using PRISM.
 One-electron integral symmetry used in STVInt
 NBasis=   356 RedAO= T EigKep=  3.51D-05  NBF=   356
 NBsUse=   356 1.00D-06 EigRej= -1.00D+00 NBFU=   356
 Precomputing XC quadrature grid using
 IXCGrd= 4 IRadAn=           5 IRanWt=          -1 IRanGd=           0 AccXCQ= 0.00D+00.
 Generated NRdTot=       0 NPtTot=           0 NUsed=           0 NTot=          32
 NSgBfM=   366   366   366   366   366 MxSgAt=    29 MxSgA2=    29.
 Leave Link  302 at Fri Jan 23 22:37:54 2026, MaxMem=  2147483648 cpu:               3.1 elap:               0.2
 (Enter /data/home/wyx/g16/l303.exe)
 DipDrv:  MaxL=1.
 Leave Link  303 at Fri Jan 23 22:37:54 2026, MaxMem=  2147483648 cpu:               0.6 elap:               0.0
 (Enter /data/home/wyx/g16/l401.exe)
 Initial guess from the checkpoint file:  "DDL-S2-cLR-gs-1.chk"
 B after Tr=     0.000000    0.000000    0.000000
         Rot=    1.000000   -0.000000    0.000000    0.000000 Ang=   0.00 deg.
 Guess basis will be translated and rotated to current coordinates.
 JPrj=2 DoOrth=T DoCkMO=T.
 Leave Link  401 at Fri Jan 23 22:37:54 2026, MaxMem=  2147483648 cpu:               2.2 elap:               0.1
 (Enter /data/home/wyx/g16/l502.exe)
 Integral symmetry usage will be decided dynamically.
 Closed shell SCF:
 Using DIIS extrapolation, IDIIS=  1040.
 NGot=  2147483648 LenX=  2147200095 LenY=  2147062754
 Requested convergence on RMS density matrix=1.00D-08 within 128 cycles.
 Requested convergence on MAX density matrix=1.00D-06.
 Requested convergence on             energy=1.00D-06.
 No special actions if energy rises.
 Fock matrices will be formed incrementally for  20 cycles.

 Cycle   1  Pass 1  IDiag  1:
 FoFJK:  IHMeth= 1 ICntrl=       0 DoSepK=T KAlg= 0 I1Cent=           0 FoldK=F
 IRaf=         1 NMat=       1 IRICut=       1 DoRegI=T DoRafI=F ISym2E= 0 IDoP0=0 IntGTp=1.
 FoFCou: FMM=F IPFlag=           0 FMFlag=      100000 FMFlg1=           0
         NFxFlg=           0 DoJE=T BraDBF=F KetDBF=F FulRan=T
         wScrn=  0.000000 ICntrl=       500 IOpCl=  0 I1Cent=           0 NGrid=           0
         NMat0=    1 NMatS0=      1 NMatT0=    0 NMatD0=    1 NMtDS0=    0 NMtDT0=    0
 Symmetry not used in FoFCou.
 Inv3:  Mode=1 IEnd=    13381632.
 Iteration    1 A*A^-1 deviation from unit magnitude is 2.89D-15 for   1404.
 Iteration    1 A*A^-1 deviation from orthogonality  is 2.92D-15 for   1802    636.
 Iteration    1 A^-1*A deviation from unit magnitude is 3.11D-15 for   1079.
 Iteration    1 A^-1*A deviation from orthogonality  is 3.35D-15 for   1767    233.
 NEqPCM:  Using non-equilibrium solvation (IEInf=1, Eps=   7.4257, EpsInf=   1.9740)
 Inv3:  Mode=1 IEnd=    13381632.
 Iteration    1 A*A^-1 deviation from unit magnitude is 3.22D-15 for   1243.
 Iteration    1 A*A^-1 deviation from orthogonality  is 2.74D-15 for   1670    729.
 Iteration    1 A^-1*A deviation from unit magnitude is 3.22D-15 for   1243.
 Iteration    1 A^-1*A deviation from orthogonality  is 1.44D-15 for   1951    124.
 E= -633.311289399512    
 DIIS: error= 6.74D-04 at cycle   1 NSaved=   1.
 NSaved= 1 IEnMin= 1 EnMin= -633.311289399512     IErMin= 1 ErrMin= 6.74D-04
 ErrMax= 6.74D-04  0.00D+00 EMaxC= 1.00D-01 BMatC= 5.41D-05 BMatP= 5.41D-05
 IDIUse=3 WtCom= 9.93D-01 WtEn= 6.74D-03
 Coeff-Com:  0.100D+01
 Coeff-En:   0.100D+01
 Coeff:      0.100D+01
 Gap=     0.227 Goal=   None    Shift=    0.000
 RMSDP=3.07D-04 MaxDP=3.34D-02              OVMax= 9.14D-03

 Cycle   2  Pass 1  IDiag  1:
 RMSU=  2.96D-04    CP:  1.01D+00
 E= -633.311378429763     Delta-E=       -0.000089030251 Rises=F Damp=F
 DIIS: error= 4.24D-04 at cycle   2 NSaved=   2.
 NSaved= 2 IEnMin= 2 EnMin= -633.311378429763     IErMin= 2 ErrMin= 4.24D-04
 ErrMax= 4.24D-04  0.00D+00 EMaxC= 1.00D-01 BMatC= 7.04D-05 BMatP= 5.41D-05
 IDIUse=3 WtCom= 3.27D-01 WtEn= 6.73D-01
 Coeff-Com:  0.547D+00 0.453D+00
 Coeff-En:   0.000D+00 0.100D+01
 Coeff:      0.179D+00 0.821D+00
 Gap=     0.226 Goal=   None    Shift=    0.000
 RMSDP=2.13D-04 MaxDP=1.51D-02 DE=-8.90D-05 OVMax= 3.62D-03

 Cycle   3  Pass 1  IDiag  1:
 RMSU=  1.73D-04    CP:  9.99D-01  7.25D-01
 E= -633.311360650936     Delta-E=        0.000017778827 Rises=F Damp=F
 DIIS: error= 5.22D-04 at cycle   3 NSaved=   3.
 NSaved= 3 IEnMin= 2 EnMin= -633.311378429763     IErMin= 2 ErrMin= 4.24D-04
 ErrMax= 5.22D-04  0.00D+00 EMaxC= 1.00D-01 BMatC= 1.07D-04 BMatP= 5.41D-05
 IDIUse=3 WtCom= 3.05D-01 WtEn= 6.95D-01
 Coeff-Com:  0.779D-01 0.522D+00 0.400D+00
 Coeff-En:   0.000D+00 0.555D+00 0.445D+00
 Coeff:      0.237D-01 0.545D+00 0.431D+00
 Gap=     0.227 Goal=   None    Shift=    0.000
 RMSDP=6.73D-05 MaxDP=5.81D-03 DE= 1.78D-05 OVMax= 2.55D-03

 Cycle   4  Pass 1  IDiag  1:
 RMSU=  1.89D-05    CP:  1.00D+00  8.31D-01  7.32D-01
 E= -633.311438788698     Delta-E=       -0.000078137762 Rises=F Damp=F
 DIIS: error= 8.19D-05 at cycle   4 NSaved=   4.
 NSaved= 4 IEnMin= 4 EnMin= -633.311438788698     IErMin= 4 ErrMin= 8.19D-05
 ErrMax= 8.19D-05  0.00D+00 EMaxC= 1.00D-01 BMatC= 6.21D-07 BMatP= 5.41D-05
 IDIUse=1 WtCom= 1.00D+00 WtEn= 0.00D+00
 Coeff-Com: -0.122D-01 0.138D+00 0.132D+00 0.742D+00
 Coeff:     -0.122D-01 0.138D+00 0.132D+00 0.742D+00
 Gap=     0.227 Goal=   None    Shift=    0.000
 RMSDP=1.67D-05 MaxDP=1.04D-03 DE=-7.81D-05 OVMax= 8.10D-04

 Cycle   5  Pass 1  IDiag  1:
 RMSU=  7.71D-06    CP:  1.00D+00  8.21D-01  8.08D-01  1.00D+00
 E= -633.311439713326     Delta-E=       -0.000000924628 Rises=F Damp=F
 DIIS: error= 2.64D-05 at cycle   5 NSaved=   5.
 NSaved= 5 IEnMin= 5 EnMin= -633.311439713326     IErMin= 5 ErrMin= 2.64D-05
 ErrMax= 2.64D-05  0.00D+00 EMaxC= 1.00D-01 BMatC= 1.95D-07 BMatP= 6.21D-07
 IDIUse=1 WtCom= 1.00D+00 WtEn= 0.00D+00
 Coeff-Com: -0.145D-01-0.229D-01 0.435D-04 0.347D+00 0.690D+00
 Coeff:     -0.145D-01-0.229D-01 0.435D-04 0.347D+00 0.690D+00
 Gap=     0.227 Goal=   None    Shift=    0.000
 RMSDP=8.22D-06 MaxDP=4.47D-04 DE=-9.25D-07 OVMax= 3.54D-04

 Cycle   6  Pass 1  IDiag  1:
 RMSU=  2.40D-06    CP:  1.00D+00  8.12D-01  8.45D-01  1.14D+00  1.12D+00
 E= -633.311440038778     Delta-E=       -0.000000325452 Rises=F Damp=F
 DIIS: error= 2.03D-05 at cycle   6 NSaved=   6.
 NSaved= 6 IEnMin= 6 EnMin= -633.311440038778     IErMin= 6 ErrMin= 2.03D-05
 ErrMax= 2.03D-05  0.00D+00 EMaxC= 1.00D-01 BMatC= 2.55D-08 BMatP= 1.95D-07
 IDIUse=1 WtCom= 1.00D+00 WtEn= 0.00D+00
 Coeff-Com: -0.128D-02-0.317D-01-0.168D-01 0.441D-02 0.196D+00 0.850D+00
 Coeff:     -0.128D-02-0.317D-01-0.168D-01 0.441D-02 0.196D+00 0.850D+00
 Gap=     0.227 Goal=   None    Shift=    0.000
 RMSDP=4.10D-06 MaxDP=2.40D-04 DE=-3.25D-07 OVMax= 2.71D-04

 Cycle   7  Pass 1  IDiag  1:
 RMSU=  1.51D-06    CP:  1.00D+00  8.06D-01  8.60D-01  1.21D+00  1.20D+00
                    CP:  1.21D+00
 E= -633.311440108668     Delta-E=       -0.000000069891 Rises=F Damp=F
 DIIS: error= 7.64D-06 at cycle   7 NSaved=   7.
 NSaved= 7 IEnMin= 7 EnMin= -633.311440108668     IErMin= 7 ErrMin= 7.64D-06
 ErrMax= 7.64D-06  0.00D+00 EMaxC= 1.00D-01 BMatC= 1.10D-08 BMatP= 2.55D-08
 IDIUse=1 WtCom= 1.00D+00 WtEn= 0.00D+00
 Coeff-Com:  0.284D-02-0.111D-01-0.572D-02-0.738D-01-0.967D-01 0.431D+00
 Coeff-Com:  0.754D+00
 Coeff:      0.284D-02-0.111D-01-0.572D-02-0.738D-01-0.967D-01 0.431D+00
 Coeff:      0.754D+00
 Gap=     0.227 Goal=   None    Shift=    0.000
 RMSDP=1.69D-06 MaxDP=1.08D-04 DE=-6.99D-08 OVMax= 1.44D-04

 Cycle   8  Pass 1  IDiag  1:
 RMSU=  4.90D-07    CP:  1.00D+00  8.03D-01  8.66D-01  1.22D+00  1.26D+00
                    CP:  1.41D+00  1.10D+00
 E= -633.311440129904     Delta-E=       -0.000000021236 Rises=F Damp=F
 DIIS: error= 2.11D-06 at cycle   8 NSaved=   8.
 NSaved= 8 IEnMin= 8 EnMin= -633.311440129904     IErMin= 8 ErrMin= 2.11D-06
 ErrMax= 2.11D-06  0.00D+00 EMaxC= 1.00D-01 BMatC= 1.19D-09 BMatP= 1.10D-08
 IDIUse=1 WtCom= 1.00D+00 WtEn= 0.00D+00
 Coeff-Com:  0.125D-02-0.547D-04 0.813D-03-0.269D-01-0.805D-01 0.286D-01
 Coeff-Com:  0.285D+00 0.792D+00
 Coeff:      0.125D-02-0.547D-04 0.813D-03-0.269D-01-0.805D-01 0.286D-01
 Coeff:      0.285D+00 0.792D+00
 Gap=     0.227 Goal=   None    Shift=    0.000
 RMSDP=6.07D-07 MaxDP=3.10D-05 DE=-2.12D-08 OVMax= 4.95D-05

 Cycle   9  Pass 1  IDiag  1:
 RMSU=  1.89D-07    CP:  1.00D+00  8.02D-01  8.67D-01  1.23D+00  1.26D+00
                    CP:  1.50D+00  1.32D+00  1.15D+00
 E= -633.311440132173     Delta-E=       -0.000000002269 Rises=F Damp=F
 DIIS: error= 8.72D-07 at cycle   9 NSaved=   9.
 NSaved= 9 IEnMin= 9 EnMin= -633.311440132173     IErMin= 9 ErrMin= 8.72D-07
 ErrMax= 8.72D-07  0.00D+00 EMaxC= 1.00D-01 BMatC= 1.54D-10 BMatP= 1.19D-09
 IDIUse=1 WtCom= 1.00D+00 WtEn= 0.00D+00
 Coeff-Com:  0.162D-03 0.152D-02 0.120D-02 0.105D-02-0.203D-01-0.498D-01
 Coeff-Com:  0.192D-01 0.347D+00 0.700D+00
 Coeff:      0.162D-03 0.152D-02 0.120D-02 0.105D-02-0.203D-01-0.498D-01
 Coeff:      0.192D-01 0.347D+00 0.700D+00
 Gap=     0.227 Goal=   None    Shift=    0.000
 RMSDP=1.75D-07 MaxDP=9.69D-06 DE=-2.27D-09 OVMax= 1.36D-05

 Cycle  10  Pass 1  IDiag  1:
 RMSU=  7.59D-08    CP:  1.00D+00  8.02D-01  8.67D-01  1.23D+00  1.26D+00
                    CP:  1.52D+00  1.36D+00  1.25D+00  9.25D-01
 E= -633.311440132395     Delta-E=       -0.000000000223 Rises=F Damp=F
 DIIS: error= 3.48D-07 at cycle  10 NSaved=  10.
 NSaved=10 IEnMin=10 EnMin= -633.311440132395     IErMin=10 ErrMin= 3.48D-07
 ErrMax= 3.48D-07  0.00D+00 EMaxC= 1.00D-01 BMatC= 3.80D-11 BMatP= 1.54D-10
 IDIUse=1 WtCom= 1.00D+00 WtEn= 0.00D+00
 Coeff-Com: -0.741D-04 0.745D-03 0.370D-03 0.384D-02-0.959D-03-0.296D-01
 Coeff-Com: -0.213D-01 0.635D-01 0.359D+00 0.625D+00
 Coeff:     -0.741D-04 0.745D-03 0.370D-03 0.384D-02-0.959D-03-0.296D-01
 Coeff:     -0.213D-01 0.635D-01 0.359D+00 0.625D+00
 Gap=     0.227 Goal=   None    Shift=    0.000
 RMSDP=9.52D-08 MaxDP=7.91D-06 DE=-2.23D-10 OVMax= 3.94D-06

 Cycle  11  Pass 1  IDiag  1:
 RMSU=  3.14D-08    CP:  1.00D+00  8.02D-01  8.67D-01  1.23D+00  1.26D+00
                    CP:  1.52D+00  1.40D+00  1.27D+00  1.08D+00  9.52D-01
 E= -633.311440132427     Delta-E=       -0.000000000031 Rises=F Damp=F
 DIIS: error= 1.18D-07 at cycle  11 NSaved=  11.
 NSaved=11 IEnMin=11 EnMin= -633.311440132427     IErMin=11 ErrMin= 1.18D-07
 ErrMax= 1.18D-07  0.00D+00 EMaxC= 1.00D-01 BMatC= 5.67D-12 BMatP= 3.80D-11
 IDIUse=1 WtCom= 1.00D+00 WtEn= 0.00D+00
 Coeff-Com: -0.647D-04 0.887D-04-0.124D-03 0.172D-02 0.404D-02-0.393D-02
 Coeff-Com: -0.131D-01-0.502D-01 0.351D-01 0.273D+00 0.754D+00
 Coeff:     -0.647D-04 0.887D-04-0.124D-03 0.172D-02 0.404D-02-0.393D-02
 Coeff:     -0.131D-01-0.502D-01 0.351D-01 0.273D+00 0.754D+00
 Gap=     0.227 Goal=   None    Shift=    0.000
 RMSDP=4.21D-08 MaxDP=3.89D-06 DE=-3.15D-11 OVMax= 1.64D-06

 Cycle  12  Pass 1  IDiag  1:
 RMSU=  9.90D-09    CP:  1.00D+00  8.02D-01  8.67D-01  1.23D+00  1.25D+00
                    CP:  1.52D+00  1.40D+00  1.28D+00  1.13D+00  1.07D+00
                    CP:  1.01D+00
 E= -633.311440132436     Delta-E=       -0.000000000009 Rises=F Damp=F
 DIIS: error= 3.97D-08 at cycle  12 NSaved=  12.
 NSaved=12 IEnMin=12 EnMin= -633.311440132436     IErMin=12 ErrMin= 3.97D-08
 ErrMax= 3.97D-08  0.00D+00 EMaxC= 1.00D-01 BMatC= 5.50D-13 BMatP= 5.67D-12
 IDIUse=1 WtCom= 1.00D+00 WtEn= 0.00D+00
 Coeff-Com: -0.172D-04-0.299D-04-0.877D-04 0.221D-03 0.152D-02 0.192D-02
 Coeff-Com: -0.893D-03-0.255D-01-0.229D-01 0.224D-01 0.267D+00 0.757D+00
 Coeff:     -0.172D-04-0.299D-04-0.877D-04 0.221D-03 0.152D-02 0.192D-02
 Coeff:     -0.893D-03-0.255D-01-0.229D-01 0.224D-01 0.267D+00 0.757D+00
 Gap=     0.227 Goal=   None    Shift=    0.000
 RMSDP=1.16D-08 MaxDP=1.12D-06 DE=-9.44D-12 OVMax= 4.85D-07

 Cycle  13  Pass 1  IDiag  1:
 RMSU=  3.43D-09    CP:  1.00D+00  8.02D-01  8.67D-01  1.23D+00  1.25D+00
                    CP:  1.52D+00  1.41D+00  1.28D+00  1.15D+00  1.08D+00
                    CP:  1.12D+00  1.11D+00
 E= -633.311440132447     Delta-E=       -0.000000000011 Rises=F Damp=F
 DIIS: error= 1.45D-08 at cycle  13 NSaved=  13.
 NSaved=13 IEnMin=13 EnMin= -633.311440132447     IErMin=13 ErrMin= 1.45D-08
 ErrMax= 1.45D-08  0.00D+00 EMaxC= 1.00D-01 BMatC= 9.59D-14 BMatP= 5.50D-13
 IDIUse=1 WtCom= 1.00D+00 WtEn= 0.00D+00
 Coeff-Com: -0.188D-06-0.212D-04-0.224D-04-0.165D-03 0.102D-03 0.112D-02
 Coeff-Com:  0.136D-02-0.524D-02-0.156D-01-0.345D-01-0.503D-02 0.333D+00
 Coeff-Com:  0.725D+00
 Coeff:     -0.188D-06-0.212D-04-0.224D-04-0.165D-03 0.102D-03 0.112D-02
 Coeff:      0.136D-02-0.524D-02-0.156D-01-0.345D-01-0.503D-02 0.333D+00
 Coeff:      0.725D+00
 Gap=     0.227 Goal=   None    Shift=    0.000
 RMSDP=4.38D-09 MaxDP=2.11D-07 DE=-1.07D-11 OVMax= 2.42D-07

 Error on total polarization charges =  0.00910
 SCF Done:  E(RCAM-B3LYP) =  -633.311440132     A.U. after   13 cycles
            NFock= 13  Conv=0.44D-08     -V/T= 2.0043
 KE= 6.305830976112D+02 PE=-3.271815505011D+03 EE= 1.110002104969D+03
 Leave Link  502 at Fri Jan 23 22:38:46 2026, MaxMem=  2147483648 cpu:             824.1 elap:              52.2
 (Enter /data/home/wyx/g16/l601.exe)
 Copying SCF densities to generalized density rwf, IOpCl= 0 IROHF=0.

 **********************************************************************

            Population analysis using the SCF density.

 **********************************************************************

 Orbital symmetries:
       Occupied  (A) (A) (A) (A) (A) (A) (A) (A) (A) (A) (A) (A)
                 (A) (A) (A) (A) (A) (A) (A) (A) (A) (A) (A) (A)
                 (A) (A) (A) (A) (A) (A) (A) (A) (A) (A) (A) (A)
                 (A) (A) (A) (A) (A) (A) (A) (A) (A) (A) (A) (A)
                 (A) (A) (A) (A)
       Virtual   (A) (A) (A) (A) (A) (A) (A) (A) (A) (A) (A) (A)
                 (A) (A) (A) (A) (A) (A) (A) (A) (A) (A) (A) (A)
                 (A) (A) (A) (A) (A) (A) (A) (A) (A) (A) (A) (A)
                 (A) (A) (A) (A) (A) (A) (A) (A) (A) (A) (A) (A)
                 (A) (A) (A) (A) (A) (A) (A) (A) (A) (A) (A) (A)
                 (A) (A) (A) (A) (A) (A) (A) (A) (A) (A) (A) (A)
                 (A) (A) (A) (A) (A) (A) (A) (A) (A) (A) (A) (A)
                 (A) (A) (A) (A) (A) (A) (A) (A) (A) (A) (A) (A)
                 (A) (A) (A) (A) (A) (A) (A) (A) (A) (A) (A) (A)
                 (A) (A) (A) (A) (A) (A) (A) (A) (A) (A) (A) (A)
                 (A) (A) (A) (A) (A) (A) (A) (A) (A) (A) (A) (A)
                 (A) (A) (A) (A) (A) (A) (A) (A) (A) (A) (A) (A)
                 (A) (A) (A) (A) (A) (A) (A) (A) (A) (A) (A) (A)
                 (A) (A) (A) (A) (A) (A) (A) (A) (A) (A) (A) (A)
                 (A) (A) (A) (A) (A) (A) (A) (A) (A) (A) (A) (A)
                 (A) (A) (A) (A) (A) (A) (A) (A) (A) (A) (A) (A)
                 (A) (A) (A) (A) (A) (A) (A) (A) (A) (A) (A) (A)
                 (A) (A) (A) (A) (A) (A) (A) (A) (A) (A) (A) (A)
                 (A) (A) (A) (A) (A) (A) (A) (A) (A) (A) (A) (A)
                 (A) (A) (A) (A) (A) (A) (A) (A) (A) (A) (A) (A)
                 (A) (A) (A) (A) (A) (A) (A) (A) (A) (A) (A) (A)
                 (A) (A) (A) (A) (A) (A) (A) (A) (A) (A) (A) (A)
                 (A) (A) (A) (A) (A) (A) (A) (A) (A) (A) (A) (A)
                 (A) (A) (A) (A) (A) (A) (A) (A) (A) (A) (A) (A)
                 (A) (A) (A) (A) (A) (A) (A) (A) (A) (A) (A) (A)
                 (A) (A) (A) (A)
 The electronic state is 1-A.
 Alpha  occ. eigenvalues --  -19.17942 -19.15963 -14.44885 -10.33534 -10.32974
 Alpha  occ. eigenvalues --  -10.32833 -10.32748 -10.26486 -10.25490 -10.25487
 Alpha  occ. eigenvalues --  -10.25323 -10.24485 -10.24165 -10.23601  -1.11954
 Alpha  occ. eigenvalues --   -1.08449  -1.07255  -0.91764  -0.90814  -0.84026
 Alpha  occ. eigenvalues --   -0.82683  -0.81678  -0.78788  -0.74640  -0.71889
 Alpha  occ. eigenvalues --   -0.69432  -0.62220  -0.58663  -0.57114  -0.55442
 Alpha  occ. eigenvalues --   -0.54994  -0.54074  -0.52396  -0.51988  -0.50850
 Alpha  occ. eigenvalues --   -0.49761  -0.49369  -0.49162  -0.48567  -0.48001
 Alpha  occ. eigenvalues --   -0.46591  -0.45431  -0.44693  -0.44059  -0.43180
 Alpha  occ. eigenvalues --   -0.42664  -0.41514  -0.40127  -0.33051  -0.32379
 Alpha  occ. eigenvalues --   -0.30034  -0.26454
 Alpha virt. eigenvalues --   -0.03797   0.01696   0.06020   0.08047   0.08483
 Alpha virt. eigenvalues --    0.09685   0.10912   0.11132   0.12600   0.12867
 Alpha virt. eigenvalues --    0.14611   0.14889   0.15183   0.16368   0.16984
 Alpha virt. eigenvalues --    0.17242   0.17760   0.17939   0.18844   0.19636
 Alpha virt. eigenvalues --    0.19700   0.20118   0.22284   0.22927   0.23972
 Alpha virt. eigenvalues --    0.24420   0.24719   0.25459   0.25741   0.26372
 Alpha virt. eigenvalues --    0.27210   0.27598   0.28335   0.29214   0.29686
 Alpha virt. eigenvalues --    0.30637   0.31017   0.33399   0.33891   0.34647
 Alpha virt. eigenvalues --    0.35398   0.35846   0.36697   0.36890   0.37528
 Alpha virt. eigenvalues --    0.39973   0.40617   0.41056   0.42180   0.42695
 Alpha virt. eigenvalues --    0.44156   0.45142   0.45357   0.46087   0.46365
 Alpha virt. eigenvalues --    0.47634   0.47793   0.48209   0.48510   0.49020
 Alpha virt. eigenvalues --    0.49379   0.49954   0.50640   0.51265   0.51761
 Alpha virt. eigenvalues --    0.52006   0.52926   0.53054   0.53700   0.53851
 Alpha virt. eigenvalues --    0.54749   0.55423   0.55708   0.57475   0.57741
 Alpha virt. eigenvalues --    0.58205   0.58998   0.61492   0.62505   0.62828
 Alpha virt. eigenvalues --    0.63351   0.65098   0.65484   0.66874   0.67453
 Alpha virt. eigenvalues --    0.68295   0.69068   0.70882   0.71422   0.71535
 Alpha virt. eigenvalues --    0.73423   0.75751   0.77341   0.77581   0.79034
 Alpha virt. eigenvalues --    0.80678   0.82353   0.84777   0.88298   0.91612
 Alpha virt. eigenvalues --    0.94575   0.96342   1.01169   1.03438   1.19542
 Alpha virt. eigenvalues --    1.21251   1.22840   1.26167   1.29844   1.31272
 Alpha virt. eigenvalues --    1.31445   1.33174   1.33920   1.35332   1.36404
 Alpha virt. eigenvalues --    1.37745   1.38246   1.39040   1.39496   1.39576
 Alpha virt. eigenvalues --    1.40335   1.40514   1.41011   1.41128   1.41957
 Alpha virt. eigenvalues --    1.42362   1.43060   1.44287   1.44686   1.45790
 Alpha virt. eigenvalues --    1.48364   1.49578   1.50102   1.50619   1.51109
 Alpha virt. eigenvalues --    1.51709   1.52716   1.54847   1.57603   1.58069
 Alpha virt. eigenvalues --    1.59164   1.59446   1.59799   1.61097   1.61697
 Alpha virt. eigenvalues --    1.62101   1.62649   1.63319   1.63828   1.64752
 Alpha virt. eigenvalues --    1.64844   1.65603   1.65998   1.66825   1.67553
 Alpha virt. eigenvalues --    1.67999   1.68693   1.69426   1.71217   1.72194
 Alpha virt. eigenvalues --    1.72433   1.74167   1.75470   1.76136   1.80397
 Alpha virt. eigenvalues --    1.81880   1.82668   1.83904   1.84116   1.85624
 Alpha virt. eigenvalues --    1.85999   1.86568   1.89600   1.89970   1.91040
 Alpha virt. eigenvalues --    1.91229   1.92735   1.96986   1.98061   2.01325
 Alpha virt. eigenvalues --    2.02505   2.04592   2.06343   2.07994   2.09721
 Alpha virt. eigenvalues --    2.09914   2.13444   2.14941   2.18535   2.19791
 Alpha virt. eigenvalues --    2.20083   2.23420   2.24406   2.24998   2.26409
 Alpha virt. eigenvalues --    2.27443   2.29156   2.29952   2.31600   2.32759
 Alpha virt. eigenvalues --    2.34319   2.34597   2.35833   2.38328   2.38543
 Alpha virt. eigenvalues --    2.40039   2.41902   2.42688   2.43841   2.45813
 Alpha virt. eigenvalues --    2.46822   2.47851   2.49341   2.49937   2.50643
 Alpha virt. eigenvalues --    2.52611   2.54222   2.55361   2.55726   2.57062
 Alpha virt. eigenvalues --    2.57536   2.58390   2.61616   2.62689   2.63271
 Alpha virt. eigenvalues --    2.63965   2.64721   2.65319   2.65904   2.67921
 Alpha virt. eigenvalues --    2.68758   2.71167   2.73040   2.74531   2.75339
 Alpha virt. eigenvalues --    2.76320   2.76884   2.77120   2.78044   2.79188
 Alpha virt. eigenvalues --    2.80766   2.81245   2.83477   2.84073   2.84419
 Alpha virt. eigenvalues --    2.85522   2.88377   2.89247   2.91255   2.93168
 Alpha virt. eigenvalues --    2.97613   2.98803   2.99721   3.03919   3.08549
 Alpha virt. eigenvalues --    3.11463   3.12578   3.14838   3.18504   3.20408
 Alpha virt. eigenvalues --    3.21212   3.22079   3.25307   3.25719   3.26755
 Alpha virt. eigenvalues --    3.30382   3.31238   3.31920   3.35849   3.37622
 Alpha virt. eigenvalues --    3.38636   3.39282   3.40127   3.40465   3.41385
 Alpha virt. eigenvalues --    3.42019   3.44207   3.44999   3.46743   3.49556
 Alpha virt. eigenvalues --    3.51305   3.53362   3.54911   3.57629   3.59921
 Alpha virt. eigenvalues --    3.63286   3.92334   4.00076   4.28940   4.36207
 Alpha virt. eigenvalues --   21.64653  21.76169  22.05244  22.10077  22.12196
 Alpha virt. eigenvalues --   22.13074  22.16044  22.19443  22.20602  22.26891
 Alpha virt. eigenvalues --   22.31316  31.92598  43.64615  43.68425
          Condensed to atoms (all electrons):
               1          2          3          4          5          6
     1  O    7.927938   0.000000  -0.000220   0.000018   0.017403   0.017377
     2  O    0.000000   8.091451   0.000849   0.000018  -0.179995   0.001785
     3  N   -0.000220   0.000849   6.353619   0.370067  -0.092743   0.388475
     4  H    0.000018   0.000018   0.370067   0.400645   0.010840  -0.040963
     5  C    0.017403  -0.179995  -0.092743   0.010840   7.197320  -0.043157
     6  C    0.017377   0.001785   0.388475  -0.040963  -0.043157   5.590354
     7  C    0.000176   0.002647   0.338214  -0.043893   0.329574  -0.160804
     8  C   -0.000278   0.591741   0.004475  -0.001300  -0.452856   0.047760
     9  C    0.002310   0.026051   0.022766   0.001164  -0.715567  -0.083329
    10  H    0.006422  -0.000149   0.001055   0.000007  -0.061909  -0.001885
    11  H    0.007658  -0.000153  -0.000333   0.000010  -0.103226   0.021905
    12  C   -0.255010  -0.004252  -0.109309   0.018620   0.233753  -0.162839
    13  C    0.742864   0.000009  -0.000832   0.000560   0.062975   0.114506
    14  C   -0.000015  -0.087016  -0.048788   0.002224   0.035102  -0.003152
    15  H    0.000000   0.003804   0.001123  -0.000296  -0.006411   0.003243
    16  H    0.000000   0.044844   0.003381   0.000671   0.012238  -0.000113
    17  H    0.000000   0.002856  -0.000909   0.000270  -0.014742   0.000911
    18  C   -0.000336  -0.085196  -0.000304   0.000012  -0.142549  -0.002401
    19  H    0.000006  -0.000838   0.000010  -0.000001  -0.003367   0.000071
    20  H    0.000935   0.007529   0.000057   0.000000   0.082905  -0.001392
    21  H    0.000003  -0.001256   0.000010  -0.000001  -0.005851   0.000056
    22  C   -0.122327   0.000000   0.000193   0.000114  -0.000068  -0.004350
    23  H    0.003686   0.000000   0.000087  -0.000048  -0.000301  -0.021280
    24  H    0.002497   0.000000   0.000128  -0.000017  -0.000097   0.006623
    25  H    0.010620  -0.000000   0.000018  -0.000003  -0.000047  -0.001878
    26  C    0.000806   0.000011  -0.027009  -0.011388   0.002364   0.210793
    27  H   -0.000101  -0.000000  -0.000504   0.000871   0.000428  -0.036858
    28  H   -0.000025  -0.000000  -0.002880   0.000609   0.000478  -0.040874
    29  H    0.000017   0.000000   0.003907   0.002510  -0.000560  -0.054214
               7          8          9         10         11         12
     1  O    0.000176  -0.000278   0.002310   0.006422   0.007658  -0.255010
     2  O    0.002647   0.591741   0.026051  -0.000149  -0.000153  -0.004252
     3  N    0.338214   0.004475   0.022766   0.001055  -0.000333  -0.109309
     4  H   -0.043893  -0.001300   0.001164   0.000007   0.000010   0.018620
     5  C    0.329574  -0.452856  -0.715567  -0.061909  -0.103226   0.233753
     6  C   -0.160804   0.047760  -0.083329  -0.001885   0.021905  -0.162839
     7  C    5.561514  -0.239902  -0.285676   0.003214   0.009454   0.065009
     8  C   -0.239902   5.730005   0.232370  -0.006351   0.002183  -0.100315
     9  C   -0.285676   0.232370   6.537560   0.454480   0.505732  -0.204799
    10  H    0.003214  -0.006351   0.454480   0.537396  -0.040854  -0.039101
    11  H    0.009454   0.002183   0.505732  -0.040854   0.525797  -0.074799
    12  C    0.065009  -0.100315  -0.204799  -0.039101  -0.074799   7.612460
    13  C    0.027315  -0.009995  -0.204975  -0.007722  -0.005580  -0.519977
    14  C    0.184544  -0.094962   0.020861  -0.000271  -0.000232   0.005439
    15  H   -0.046416   0.007143   0.000062  -0.000028   0.000065  -0.001298
    16  H   -0.058342  -0.028342   0.002396  -0.000027   0.000005  -0.000376
    17  H   -0.026215   0.006858  -0.001141   0.000102  -0.000014  -0.000245
    18  C    0.028790   0.277242  -0.019818  -0.005670  -0.011941   0.012388
    19  H   -0.001391  -0.018283  -0.001280   0.000288   0.000378  -0.000347
    20  H    0.005919  -0.148586  -0.017309  -0.005070  -0.002924   0.006396
    21  H   -0.001041  -0.018845  -0.001857   0.000497   0.000484  -0.000373
    22  C    0.001374  -0.000053   0.019567   0.001374   0.000007  -0.324999
    23  H   -0.000054   0.000003   0.000785  -0.000156   0.000076   0.047059
    24  H   -0.000032   0.000002  -0.002015   0.000153  -0.000123   0.007085
    25  H    0.000011  -0.000001  -0.000046  -0.000076  -0.000032   0.026203
    26  C    0.004148   0.000922   0.018377  -0.000271   0.000026  -0.093949
    27  H   -0.001211  -0.000000  -0.000397  -0.000024   0.000014  -0.001870
    28  H   -0.001237  -0.000006  -0.000494  -0.000004   0.000038  -0.015109
    29  H    0.003632   0.000020  -0.000574   0.000032  -0.000008   0.024115
              13         14         15         16         17         18
     1  O    0.742864  -0.000015   0.000000   0.000000   0.000000  -0.000336
     2  O    0.000009  -0.087016   0.003804   0.044844   0.002856  -0.085196
     3  N   -0.000832  -0.048788   0.001123   0.003381  -0.000909  -0.000304
     4  H    0.000560   0.002224  -0.000296   0.000671   0.000270   0.000012
     5  C    0.062975   0.035102  -0.006411   0.012238  -0.014742  -0.142549
     6  C    0.114506  -0.003152   0.003243  -0.000113   0.000911  -0.002401
     7  C    0.027315   0.184544  -0.046416  -0.058342  -0.026215   0.028790
     8  C   -0.009995  -0.094962   0.007143  -0.028342   0.006858   0.277242
     9  C   -0.204975   0.020861   0.000062   0.002396  -0.001141  -0.019818
    10  H   -0.007722  -0.000271  -0.000028  -0.000027   0.000102  -0.005670
    11  H   -0.005580  -0.000232   0.000065   0.000005  -0.000014  -0.011941
    12  C   -0.519977   0.005439  -0.001298  -0.000376  -0.000245   0.012388
    13  C    5.531991  -0.000061  -0.000029   0.000005  -0.000021   0.000860
    14  C   -0.000061   5.317343   0.390674   0.410903   0.391086  -0.004791
    15  H   -0.000029   0.390674   0.550671  -0.014893  -0.033578   0.000150
    16  H    0.000005   0.410903  -0.014893   0.423708  -0.012279   0.001784
    17  H   -0.000021   0.391086  -0.033578  -0.012279   0.528906   0.000118
    18  C    0.000860  -0.004791   0.000150   0.001784   0.000118   5.170409
    19  H   -0.000022  -0.000004   0.000007  -0.000002  -0.000008   0.402315
    20  H    0.002249   0.000573  -0.000015  -0.000212  -0.000015   0.414152
    21  H   -0.000027  -0.000089  -0.000007   0.000010   0.000014   0.406612
    22  C    0.329035   0.000022  -0.000002   0.000000   0.000000   0.000014
    23  H   -0.070496   0.000001   0.000001  -0.000000  -0.000000   0.000000
    24  H   -0.041639   0.000000  -0.000000  -0.000000   0.000000  -0.000000
    25  H   -0.046426   0.000000  -0.000000  -0.000000   0.000000   0.000000
    26  C   -0.047249  -0.000804   0.000100   0.000013  -0.000152  -0.000022
    27  H   -0.005963  -0.000016   0.000009  -0.000000  -0.000004  -0.000000
    28  H    0.005189  -0.000047  -0.000018  -0.000000   0.000010  -0.000000
    29  H   -0.000423   0.000639   0.000027  -0.000000  -0.000009   0.000001
              19         20         21         22         23         24
     1  O    0.000006   0.000935   0.000003  -0.122327   0.003686   0.002497
     2  O   -0.000838   0.007529  -0.001256   0.000000   0.000000   0.000000
     3  N    0.000010   0.000057   0.000010   0.000193   0.000087   0.000128
     4  H   -0.000001   0.000000  -0.000001   0.000114  -0.000048  -0.000017
     5  C   -0.003367   0.082905  -0.005851  -0.000068  -0.000301  -0.000097
     6  C    0.000071  -0.001392   0.000056  -0.004350  -0.021280   0.006623
     7  C   -0.001391   0.005919  -0.001041   0.001374  -0.000054  -0.000032
     8  C   -0.018283  -0.148586  -0.018845  -0.000053   0.000003   0.000002
     9  C   -0.001280  -0.017309  -0.001857   0.019567   0.000785  -0.002015
    10  H    0.000288  -0.005070   0.000497   0.001374  -0.000156   0.000153
    11  H    0.000378  -0.002924   0.000484   0.000007   0.000076  -0.000123
    12  C   -0.000347   0.006396  -0.000373  -0.324999   0.047059   0.007085
    13  C   -0.000022   0.002249  -0.000027   0.329035  -0.070496  -0.041639
    14  C   -0.000004   0.000573  -0.000089   0.000022   0.000001   0.000000
    15  H    0.000007  -0.000015  -0.000007  -0.000002   0.000001  -0.000000
    16  H   -0.000002  -0.000212   0.000010   0.000000  -0.000000  -0.000000
    17  H   -0.000008  -0.000015   0.000014   0.000000  -0.000000   0.000000
    18  C    0.402315   0.414152   0.406612   0.000014   0.000000  -0.000000
    19  H    0.497581  -0.023447  -0.016066  -0.000001   0.000000   0.000000
    20  H   -0.023447   0.552237  -0.023357   0.000061  -0.000001  -0.000001
    21  H   -0.016066  -0.023357   0.495562  -0.000000   0.000000   0.000000
    22  C   -0.000001   0.000061  -0.000000   5.450091   0.382525   0.403560
    23  H    0.000000  -0.000001   0.000000   0.382525   0.554101  -0.032362
    24  H    0.000000  -0.000001   0.000000   0.403560  -0.032362   0.508947
    25  H    0.000000  -0.000000  -0.000000   0.382608  -0.019339  -0.008218
    26  C    0.000000  -0.000016   0.000000  -0.043121   0.018973  -0.014664
    27  H    0.000000   0.000000  -0.000000   0.008667  -0.006867  -0.000548
    28  H   -0.000000   0.000000   0.000000  -0.012163  -0.002384   0.001464
    29  H   -0.000000  -0.000000   0.000000   0.001917   0.000647   0.000165
              25         26         27         28         29
     1  O    0.010620   0.000806  -0.000101  -0.000025   0.000017
     2  O   -0.000000   0.000011  -0.000000  -0.000000   0.000000
     3  N    0.000018  -0.027009  -0.000504  -0.002880   0.003907
     4  H   -0.000003  -0.011388   0.000871   0.000609   0.002510
     5  C   -0.000047   0.002364   0.000428   0.000478  -0.000560
     6  C   -0.001878   0.210793  -0.036858  -0.040874  -0.054214
     7  C    0.000011   0.004148  -0.001211  -0.001237   0.003632
     8  C   -0.000001   0.000922  -0.000000  -0.000006   0.000020
     9  C   -0.000046   0.018377  -0.000397  -0.000494  -0.000574
    10  H   -0.000076  -0.000271  -0.000024  -0.000004   0.000032
    11  H   -0.000032   0.000026   0.000014   0.000038  -0.000008
    12  C    0.026203  -0.093949  -0.001870  -0.015109   0.024115
    13  C   -0.046426  -0.047249  -0.005963   0.005189  -0.000423
    14  C    0.000000  -0.000804  -0.000016  -0.000047   0.000639
    15  H   -0.000000   0.000100   0.000009  -0.000018   0.000027
    16  H   -0.000000   0.000013  -0.000000  -0.000000  -0.000000
    17  H    0.000000  -0.000152  -0.000004   0.000010  -0.000009
    18  C    0.000000  -0.000022  -0.000000  -0.000000   0.000001
    19  H    0.000000   0.000000   0.000000  -0.000000  -0.000000
    20  H   -0.000000  -0.000016   0.000000   0.000000  -0.000000
    21  H   -0.000000   0.000000  -0.000000   0.000000   0.000000
    22  C    0.382608  -0.043121   0.008667  -0.012163   0.001917
    23  H   -0.019339   0.018973  -0.006867  -0.002384   0.000647
    24  H   -0.008218  -0.014664  -0.000548   0.001464   0.000165
    25  H    0.493160   0.001879   0.000530   0.000090  -0.000040
    26  C    0.001879   5.230069   0.414773   0.438895   0.386741
    27  H    0.000530   0.414773   0.513235  -0.030584  -0.023026
    28  H    0.000090   0.438895  -0.030584   0.481283  -0.015932
    29  H   -0.000040   0.386741  -0.023026  -0.015932   0.522401
 Mulliken charges:
               1
     1  O   -0.362424
     2  O   -0.414743
     3  N   -0.204602
     4  H    0.288678
     5  C   -0.161933
     6  C    0.255629
     7  C    0.300683
     8  C    0.219350
     9  C   -0.305204
    10  H    0.164549
    11  H    0.166386
    12  C   -0.149560
    13  C    0.143878
    14  C   -0.519162
    15  H    0.145912
    16  H    0.214630
    17  H    0.158201
    18  C   -0.441820
    19  H    0.164401
    20  H    0.149333
    21  H    0.165522
    22  C   -0.474047
    23  H    0.145345
    24  H    0.169094
    25  H    0.160986
    26  C   -0.490247
    27  H    0.169447
    28  H    0.193701
    29  H    0.148018
 Sum of Mulliken charges =  -0.00000
 Mulliken charges with hydrogens summed into heavy atoms:
               1
     1  O   -0.362424
     2  O   -0.414743
     3  N    0.084076
     5  C   -0.161933
     6  C    0.255629
     7  C    0.300683
     8  C    0.219350
     9  C    0.025731
    12  C   -0.149560
    13  C    0.143878
    14  C   -0.000420
    18  C    0.037437
    22  C    0.001378
    26  C    0.020918
 Electronic spatial extent (au):  <R**2>=           3236.7830
 Charge=              0.0000 electrons
 Dipole moment (field-independent basis, Debye):
    X=             -4.0934    Y=              7.1627    Z=             -0.0123  Tot=              8.2498
 Quadrupole moment (field-independent basis, Debye-Ang):
   XX=            -98.2790   YY=            -79.0781   ZZ=            -84.3469
   XY=            -13.6112   XZ=             -0.9991   YZ=             -0.5535
 Traceless Quadrupole moment (field-independent basis, Debye-Ang):
   XX=            -11.0444   YY=              8.1566   ZZ=              2.8878
   XY=            -13.6112   XZ=             -0.9991   YZ=             -0.5535
 Octapole moment (field-independent basis, Debye-Ang**2):
  XXX=           -113.9802  YYY=             63.5664  ZZZ=             -0.0784  XYY=             37.1173
  XXY=             24.6401  XXZ=             -1.5198  XZZ=             -0.0231  YZZ=             -1.4254
  YYZ=              1.0203  XYZ=              0.9694
 Hexadecapole moment (field-independent basis, Debye-Ang**3):
 XXXX=          -3162.5130 YYYY=          -1292.8441 ZZZZ=           -124.6515 XXXY=            -52.1464
 XXXZ=             -7.7396 YYYX=            -91.8224 YYYZ=             -5.9184 ZZZX=             -0.2323
 ZZZY=              1.0576 XXYY=           -690.2115 XXZZ=           -483.4978 YYZZ=           -235.3836
 XXYZ=             -3.2373 YYXZ=             -3.5563 ZZXY=             -4.1985
 N-N= 8.979188622984D+02 E-N=-3.271815503794D+03  KE= 6.305830976112D+02
 No NMR shielding tensors so no spin-rotation constants.
 Leave Link  601 at Fri Jan 23 22:38:47 2026, MaxMem=  2147483648 cpu:               1.8 elap:               0.1
 (Enter /data/home/wyx/g16/l9999.exe)
 1\1\GINC-CN013\SP\RCAM-B3LYP\TZVP\C11H15N1O2\WYX\23-Jan-2026\0\\#p CAM
 -B3LYP TZVP em=gd3bj scrf=(Solvent=TetraHydroFuran,NonEquilibrium=Read
 ) Geom=Check Guess=Read\\Title Card Required\\0,1\O,0,2.794208,-1.5609
 81,0.486295\O,0,-3.416764,-1.65366,-0.583623\N,0,-0.662164,1.524635,-0
 .051154\H,0,-0.981904,2.477944,-0.090747\C,0,-1.239328,-0.776881,-0.17
 2451\C,0,0.668258,1.315706,0.141399\C,0,-1.620706,0.535895,-0.231529\C
 ,0,-2.152267,-1.832011,-0.349031\C,0,0.201528,-1.138845,0.105261\H,0,0
 .268899,-1.717327,1.031365\H,0,0.574171,-1.806034,-0.675043\C,0,1.1429
 6,0.041038,0.201451\C,0,2.527034,-0.363204,0.382312\C,0,-2.987109,1.07
 313,-0.464771\H,0,-2.996424,1.781455,-1.298371\H,0,-3.700603,0.284517,
 -0.703038\H,0,-3.367346,1.592097,0.420343\C,0,-1.819755,-3.297814,-0.2
 83465\H,0,-2.075122,-3.810822,-1.213579\H,0,-0.760164,-3.441365,-0.092
 866\H,0,-2.378267,-3.783842,0.520388\C,0,3.679388,0.611787,0.434016\H,
 0,3.674822,1.31424,-0.396368\H,0,3.671978,1.187594,1.359704\H,0,4.5961
 ,0.028244,0.400928\C,0,1.442999,2.594731,0.258978\H,0,2.089234,2.60526
 8,1.131161\H,0,2.060649,2.771979,-0.620554\H,0,0.765692,3.442525,0.352
 994\\Version=ES64L-G16RevA.03\State=1-A\HF=-633.3114401\RMSD=4.381e-09
 \Dipole=0.5080541,3.2044361,0.0909215\Quadrupole=-12.5227001,10.962055
 ,1.5606451,2.8595137,-3.0504082,0.5830265\PG=C01 [X(C11H15N1O2)]\\@


 THERE IS MUCH PLEASURE TO BE GAINED FROM USELESS KNOWLEDGE

                                       -- BERTRAND RUSSELL
 Job cpu time:       0 days  0 hours 13 minutes 54.3 seconds.
 Elapsed time:       0 days  0 hours  0 minutes 53.0 seconds.
 File lengths (MBytes):  RWF=    342 Int=      0 D2E=      0 Chk=     67 Scr=      1
 Normal termination of Gaussian 16 at Fri Jan 23 22:38:48 2026.
