 Entering Gaussian System, Link 0=g16
 Input=DDL-LR-6.gjf
 Output=DDL-LR-6.log
 Initial command:
 /data/home/wyx/g16/l1.exe "/scr/tmp/wyx/13109/Gau-1684898.inp" -scrdir="/scr/tmp/wyx/13109/"
 Entering Link 1 = /data/home/wyx/g16/l1.exe PID=   1684899.
  
 Copyright (c) 1988,1990,1992,1993,1995,1998,2003,2009,2016,
            Gaussian, Inc.  All Rights Reserved.
  
 This is part of the Gaussian(R) 16 program.  It is based on
 the Gaussian(R) 09 system (copyright 2009, Gaussian, Inc.),
 the Gaussian(R) 03 system (copyright 2003, Gaussian, Inc.),
 the Gaussian(R) 98 system (copyright 1998, Gaussian, Inc.),
 the Gaussian(R) 94 system (copyright 1995, Gaussian, Inc.),
 the Gaussian 92(TM) system (copyright 1992, Gaussian, Inc.),
 the Gaussian 90(TM) system (copyright 1990, Gaussian, Inc.),
 the Gaussian 88(TM) system (copyright 1988, Gaussian, Inc.),
 the Gaussian 86(TM) system (copyright 1986, Carnegie Mellon
 University), and the Gaussian 82(TM) system (copyright 1983,
 Carnegie Mellon University). Gaussian is a federally registered
 trademark of Gaussian, Inc.
  
 This software contains proprietary and confidential information,
 including trade secrets, belonging to Gaussian, Inc.
  
 This software is provided under written license and may be
 used, copied, transmitted, or stored only in accord with that
 written license.
  
 The following legend is applicable only to US Government
 contracts under FAR:
  
                    RESTRICTED RIGHTS LEGEND
  
 Use, reproduction and disclosure by the US Government is
 subject to restrictions as set forth in subparagraphs (a)
 and (c) of the Commercial Computer Software - Restricted
 Rights clause in FAR 52.227-19.
  
 Gaussian, Inc.
 340 Quinnipiac St., Bldg. 40, Wallingford CT 06492
  
  
 ---------------------------------------------------------------
 Warning -- This program may not be used in any manner that
 competes with the business of Gaussian, Inc. or will provide
 assistance to any competitor of Gaussian, Inc.  The licensee
 of this program is prohibited from giving any competitor of
 Gaussian, Inc. access to this program.  By using this program,
 the user acknowledges that Gaussian, Inc. is engaged in the
 business of creating and licensing software in the field of
 computational chemistry and represents and warrants to the
 licensee that it is not a competitor of Gaussian, Inc. and that
 it will not use this program in any manner prohibited above.
 ---------------------------------------------------------------
  

 Cite this work as:
 Gaussian 16, Revision A.03,
 M. J. Frisch, G. W. Trucks, H. B. Schlegel, G. E. Scuseria, 
 M. A. Robb, J. R. Cheeseman, G. Scalmani, V. Barone, 
 G. A. Petersson, H. Nakatsuji, X. Li, M. Caricato, A. V. Marenich, 
 J. Bloino, B. G. Janesko, R. Gomperts, B. Mennucci, H. P. Hratchian, 
 J. V. Ortiz, A. F. Izmaylov, J. L. Sonnenberg, D. Williams-Young, 
 F. Ding, F. Lipparini, F. Egidi, J. Goings, B. Peng, A. Petrone, 
 T. Henderson, D. Ranasinghe, V. G. Zakrzewski, J. Gao, N. Rega, 
 G. Zheng, W. Liang, M. Hada, M. Ehara, K. Toyota, R. Fukuda, 
 J. Hasegawa, M. Ishida, T. Nakajima, Y. Honda, O. Kitao, H. Nakai, 
 T. Vreven, K. Throssell, J. A. Montgomery, Jr., J. E. Peralta, 
 F. Ogliaro, M. J. Bearpark, J. J. Heyd, E. N. Brothers, K. N. Kudin, 
 V. N. Staroverov, T. A. Keith, R. Kobayashi, J. Normand, 
 K. Raghavachari, A. P. Rendell, J. C. Burant, S. S. Iyengar, 
 J. Tomasi, M. Cossi, J. M. Millam, M. Klene, C. Adamo, R. Cammi, 
 J. W. Ochterski, R. L. Martin, K. Morokuma, O. Farkas, 
 J. B. Foresman, and D. J. Fox, Gaussian, Inc., Wallingford CT, 2016.
 
 ******************************************
 Gaussian 16:  ES64L-G16RevA.03 25-Dec-2016
                23-Jan-2026 
 ******************************************
 %nprocshared=16
 Will use up to   16 processors via shared memory.
 %mem=16GB
 %chk=DDL-LR-6.chk
 ----------------------------------------------------------------------
 #p CAM-B3LYP TZVP em=gd3bj td(nstates=6,root=1) scrf=(Solvent=TetraHyd
 roFuran)
 ----------------------------------------------------------------------
 1/38=1,172=1/1;
 2/12=2,17=6,18=5,40=1/2;
 3/5=19,7=101,11=9,25=1,30=1,70=2201,72=20,74=-40,124=41/1,2,3,8;
 4//1;
 5/5=2,38=5,53=20/2;
 8/6=1,10=1,107=1,108=6/1;
 9/8=1,41=6,42=1,70=2/14;
 6/7=2,8=2,9=2,10=2/1;
 99/5=1,9=1/99;
 Leave Link    1 at Fri Jan 23 15:41:18 2026, MaxMem=  2147483648 cpu:               0.4 elap:               0.1
 (Enter /data/home/wyx/g16/l101.exe)
 -------------------
 Title Card Required
 -------------------
 Symbolic Z-matrix:
 Charge =  0 Multiplicity = 1
 O                     2.80165  -1.57625   0.37424 
 O                    -3.44492  -1.65014  -0.34533 
 N                    -0.64982   1.52335  -0.16534 
 H                    -0.9675    2.47709  -0.20654 
 C                    -1.2422   -0.76468  -0.19062 
 C                     0.67903   1.31034   0.05346 
 C                    -1.61757   0.53965  -0.25403 
 C                    -2.18755  -1.82399  -0.26422 
 C                     0.21332  -1.13038  -0.05881 
 H                     0.34696  -1.80936   0.78582 
 H                     0.54009  -1.68408  -0.94421 
 C                     1.14547   0.04039   0.12584 
 C                     2.51742  -0.3791    0.3623 
 C                    -2.99457   1.07585  -0.4031 
 H                    -3.01184   1.92806  -1.08778 
 H                    -3.70133   0.34888  -0.79762 
 H                    -3.39656   1.40575   0.55801 
 C                    -1.80273  -3.27243  -0.26086 
 H                    -2.34614  -3.88744  -0.98071 
 H                    -0.7476   -3.4392   -0.47027 
 H                    -1.98117  -3.71779   0.72289 
 C                     3.64005   0.59454   0.60571 
 H                     3.81416   1.25436  -0.24242 
 H                     3.47708   1.2181    1.48307 
 H                     4.53325  -0.00502   0.76495 
 C                     1.44616   2.58722   0.18322 
 H                     1.89709   2.70067   1.16659 
 H                     2.23518   2.6781   -0.5595 
 H                     0.80456   3.4575    0.04525 
 
 ITRead=  0  0  0  0  0  0  0  0  0  0  0  0  0  0  0  0  0  0  0  0
 ITRead=  0  0  0  0  0  0  0  0  0
 MicOpt= -1 -1 -1 -1 -1 -1 -1 -1 -1 -1 -1 -1 -1 -1 -1 -1 -1 -1 -1 -1
 MicOpt= -1 -1 -1 -1 -1 -1 -1 -1 -1
 NAtoms=     29 NQM=       29 NQMF=       0 NMMI=      0 NMMIF=      0
                NMic=       0 NMicF=      0.
                    Isotopes and Nuclear Properties:
 (Nuclear quadrupole moments (NQMom) in fm**2, nuclear magnetic moments (NMagM)
  in nuclear magnetons)

  Atom         1           2           3           4           5           6           7           8           9          10
 IAtWgt=          16          16          14           1          12          12          12          12          12           1
 AtmWgt=  15.9949146  15.9949146  14.0030740   1.0078250  12.0000000  12.0000000  12.0000000  12.0000000  12.0000000   1.0078250
 NucSpn=           0           0           2           1           0           0           0           0           0           1
 AtZEff=  -0.0000000  -0.0000000  -0.0000000  -0.0000000  -0.0000000  -0.0000000  -0.0000000  -0.0000000  -0.0000000  -0.0000000
 NQMom=    0.0000000   0.0000000   2.0440000   0.0000000   0.0000000   0.0000000   0.0000000   0.0000000   0.0000000   0.0000000
 NMagM=    0.0000000   0.0000000   0.4037610   2.7928460   0.0000000   0.0000000   0.0000000   0.0000000   0.0000000   2.7928460
 AtZNuc=   8.0000000   8.0000000   7.0000000   1.0000000   6.0000000   6.0000000   6.0000000   6.0000000   6.0000000   1.0000000

  Atom        11          12          13          14          15          16          17          18          19          20
 IAtWgt=           1          12          12          12           1           1           1          12           1           1
 AtmWgt=   1.0078250  12.0000000  12.0000000  12.0000000   1.0078250   1.0078250   1.0078250  12.0000000   1.0078250   1.0078250
 NucSpn=           1           0           0           0           1           1           1           0           1           1
 AtZEff=  -0.0000000  -0.0000000  -0.0000000  -0.0000000  -0.0000000  -0.0000000  -0.0000000  -0.0000000  -0.0000000  -0.0000000
 NQMom=    0.0000000   0.0000000   0.0000000   0.0000000   0.0000000   0.0000000   0.0000000   0.0000000   0.0000000   0.0000000
 NMagM=    2.7928460   0.0000000   0.0000000   0.0000000   2.7928460   2.7928460   2.7928460   0.0000000   2.7928460   2.7928460
 AtZNuc=   1.0000000   6.0000000   6.0000000   6.0000000   1.0000000   1.0000000   1.0000000   6.0000000   1.0000000   1.0000000

  Atom        21          22          23          24          25          26          27          28          29
 IAtWgt=           1          12           1           1           1          12           1           1           1
 AtmWgt=   1.0078250  12.0000000   1.0078250   1.0078250   1.0078250  12.0000000   1.0078250   1.0078250   1.0078250
 NucSpn=           1           0           1           1           1           0           1           1           1
 AtZEff=  -0.0000000  -0.0000000  -0.0000000  -0.0000000  -0.0000000  -0.0000000  -0.0000000  -0.0000000  -0.0000000
 NQMom=    0.0000000   0.0000000   0.0000000   0.0000000   0.0000000   0.0000000   0.0000000   0.0000000   0.0000000
 NMagM=    2.7928460   0.0000000   2.7928460   2.7928460   2.7928460   0.0000000   2.7928460   2.7928460   2.7928460
 AtZNuc=   1.0000000   6.0000000   1.0000000   1.0000000   1.0000000   6.0000000   1.0000000   1.0000000   1.0000000
 Leave Link  101 at Fri Jan 23 15:41:18 2026, MaxMem=  2147483648 cpu:               0.8 elap:               0.1
 (Enter /data/home/wyx/g16/l202.exe)
                          Input orientation:                          
 ---------------------------------------------------------------------
 Center     Atomic      Atomic             Coordinates (Angstroms)
 Number     Number       Type             X           Y           Z
 ---------------------------------------------------------------------
      1          8           0        2.801652   -1.576247    0.374240
      2          8           0       -3.444919   -1.650135   -0.345325
      3          7           0       -0.649824    1.523349   -0.165338
      4          1           0       -0.967504    2.477091   -0.206537
      5          6           0       -1.242198   -0.764675   -0.190616
      6          6           0        0.679030    1.310344    0.053458
      7          6           0       -1.617567    0.539650   -0.254032
      8          6           0       -2.187546   -1.823990   -0.264223
      9          6           0        0.213322   -1.130384   -0.058809
     10          1           0        0.346963   -1.809359    0.785820
     11          1           0        0.540087   -1.684075   -0.944209
     12          6           0        1.145473    0.040392    0.125838
     13          6           0        2.517422   -0.379101    0.362302
     14          6           0       -2.994568    1.075846   -0.403102
     15          1           0       -3.011839    1.928055   -1.087779
     16          1           0       -3.701328    0.348882   -0.797621
     17          1           0       -3.396560    1.405749    0.558009
     18          6           0       -1.802730   -3.272430   -0.260862
     19          1           0       -2.346136   -3.887441   -0.980705
     20          1           0       -0.747596   -3.439197   -0.470265
     21          1           0       -1.981172   -3.717793    0.722885
     22          6           0        3.640052    0.594542    0.605705
     23          1           0        3.814164    1.254356   -0.242419
     24          1           0        3.477075    1.218102    1.483071
     25          1           0        4.533252   -0.005019    0.764951
     26          6           0        1.446157    2.587220    0.183218
     27          1           0        1.897091    2.700666    1.166588
     28          1           0        2.235181    2.678103   -0.559499
     29          1           0        0.804564    3.457499    0.045253
 ---------------------------------------------------------------------
                    Distance matrix (angstroms):
                    1          2          3          4          5
     1  O    0.000000
     2  O    6.288313   0.000000
     3  N    4.670260   4.232724   0.000000
     4  H    5.565374   4.815687   1.006102   0.000000
     5  C    4.162984   2.379066   2.363599   3.253422   0.000000
     6  C    3.597337   5.092192   1.363487   2.034692   2.838379
     7  C    4.939761   2.853543   1.382771   2.044142   1.358745
     8  C    5.035981   1.271924   3.684976   4.471144   1.421706
     9  C    2.661912   3.706071   2.792610   3.798690   1.506537
    10  H    2.499847   3.960203   3.606276   4.591977   2.137808
    11  H    2.620040   4.029899   3.508575   4.486902   2.142368
    12  C    2.327693   4.914425   2.346708   3.242321   2.539537
    13  C    1.230483   6.137245   3.732180   4.541599   3.819572
    14  C    6.421372   2.763535   2.398878   2.472067   2.550190
    15  H    6.943652   3.679978   2.567839   2.292888   3.344746
    16  H    6.882451   2.065523   3.330290   3.514605   2.766909
    17  H    6.880691   3.186970   2.842819   2.762719   3.148405
    18  C    4.947800   2.309926   4.933337   5.810124   2.570596
    19  H    5.803207   2.572269   5.728782   6.557990   3.405083
    20  H    4.096454   3.239121   4.972867   5.926245   2.734210
    21  H    5.251969   2.749334   5.480054   6.345702   3.178281
    22  C    2.338550   7.492653   4.456481   5.043144   5.130104
    23  H    3.068837   7.819267   4.472749   4.935658   5.444811
    24  H    3.081248   7.712575   4.454405   4.918751   5.385552
    25  H    2.370623   8.221334   5.483213   6.112526   5.903051
    26  C    4.382729   6.492854   2.376226   2.447406   4.313027
    27  H    4.442750   7.053540   3.105942   3.184551   4.868853
    28  H    4.392295   7.144442   3.132423   3.228340   4.907235
    29  H    5.425421   6.655718   2.429101   2.040790   4.698045
                    6          7          8          9         10
     6  C    0.000000
     7  C    2.441900   0.000000
     8  C    4.259370   2.431414   0.000000
     9  C    2.487296   2.485816   2.507479   0.000000
    10  H    3.221672   3.233963   2.743454   1.091909   0.000000
    11  H    3.159302   3.174393   2.814594   1.094204   1.745277
    12  C    1.354838   2.833364   3.838891   1.507885   2.120088
    13  C    2.515809   4.280433   4.961548   2.459804   2.633609
    14  C    3.709280   1.485214   3.013241   3.908522   4.572064
    15  H    3.912353   2.137007   3.928810   4.562290   5.362853
    16  H    4.564678   2.161930   2.701374   4.249536   4.853241
    17  H    4.107811   2.138774   3.545278   4.454625   4.939917
    18  C    5.221087   3.816580   1.498690   2.948500   2.803088
    19  H    6.102302   4.545107   2.190052   3.873252   3.832991
    20  H    4.986751   4.078582   2.173661   2.534418   2.330704
    21  H    5.727737   4.383195   2.145568   3.481599   3.011029
    22  C    3.095965   5.327731   6.369221   3.893511   4.081129
    23  H    3.149562   5.478562   6.745162   4.322819   4.739737
    24  H    3.143463   5.425237   6.662979   4.306375   4.410134
    25  H    4.134178   6.258400   7.038251   4.539474   4.558629
    26  C    1.495237   3.710813   5.732606   3.924161   4.571790
    27  H    2.157713   4.363596   6.261309   4.360461   4.784162
    28  H    2.160576   4.417008   6.317954   4.340873   5.050996
    29  H    2.150837   3.803963   6.078044   4.626993   5.338317
                   11         12         13         14         15
    11  H    0.000000
    12  C    2.117848   0.000000
    13  C    2.705510   1.454006   0.000000
    14  C    4.517051   4.300219   5.751934   0.000000
    15  H    5.067965   4.724339   6.164287   1.093317   0.000000
    16  H    4.705742   4.943624   6.367749   1.087948   1.747391
    17  H    5.225023   4.762461   6.180548   1.092780   1.769020
    18  C    2.911808   4.451542   5.236736   4.510899   5.402849
    19  H    3.631313   5.370628   6.145430   5.038681   5.854453
    20  H    2.227825   4.005819   4.551670   5.043710   5.857945
    21  H    3.643070   4.925071   5.613754   5.027305   6.018005
    22  C    4.147784   2.600054   1.505830   6.728115   6.992410
    23  H    4.454937   2.954866   2.171499   6.812967   6.911065
    24  H    4.789595   2.943714   2.174423   6.742407   7.015647
    25  H    4.656804   3.447836   2.089410   7.694199   8.006109
    26  C    4.509547   2.565158   3.158914   4.727374   4.682271
    27  H    5.052017   2.953836   3.242939   5.388162   5.456802
    28  H    4.695737   2.935076   3.205600   5.471925   5.326619
    29  H    5.242592   3.435016   4.213538   4.506295   4.264727
                   16         17         18         19         20
    16  H    0.000000
    17  H    1.745733   0.000000
    18  C    4.123916   5.009611   0.000000
    19  H    4.451572   5.611496   1.091651   0.000000
    20  H    4.814690   5.616748   1.088563   1.736894   0.000000
    21  H    4.669981   5.318006   1.094508   1.750485   1.738658
    22  C    7.478338   7.083378   6.732629   7.644561   6.056419
    23  H    7.590175   7.256593   7.213988   8.058067   6.549123
    24  H    7.581990   6.938142   7.147204   8.126903   6.584360
    25  H    8.388992   8.056985   7.202287   8.089901   6.419244
    26  C    5.698140   4.998825   6.714758   7.593250   6.446495
    27  H    6.382108   5.483605   7.169670   8.125207   6.882701
    28  H    6.381545   5.880835   7.197413   8.016997   6.806341
    29  H    5.538682   4.703407   7.223824   8.057769   7.087974
                   21         22         23         24         25
    21  H    0.000000
    22  C    7.085769   0.000000
    23  H    7.696752   1.088570   0.000000
    24  H    7.398203   1.088650   1.758482   0.000000
    25  H    7.498278   1.087492   1.765760   1.768398   0.000000
    26  C    7.196597   2.993733   2.750482   2.772856   4.072870
    27  H    7.512284   2.790746   2.784292   2.189636   3.798867
    28  H    7.767215   2.769944   2.149601   2.801070   3.772856
    29  H    7.726857   4.068245   3.740894   3.771543   5.139077
                   26         27         28         29
    26  C    0.000000
    27  H    1.087763   0.000000
    28  H    1.087404   1.759031   0.000000
    29  H    1.089982   1.738909   1.737771   0.000000
 Stoichiometry    C11H15NO2
 Framework group  C1[X(C11H15NO2)]
 Deg. of freedom    81
 Full point group                 C1      NOp   1
 Largest Abelian subgroup         C1      NOp   1
 Largest concise Abelian subgroup C1      NOp   1
                         Standard orientation:                         
 ---------------------------------------------------------------------
 Center     Atomic      Atomic             Coordinates (Angstroms)
 Number     Number       Type             X           Y           Z
 ---------------------------------------------------------------------
      1          8           0        2.255085   -2.314228   -0.020190
      2          8           0       -3.666647   -0.203292    0.120938
      3          7           0        0.054675    1.804931   -0.065481
      4          1           0        0.085124    2.810541   -0.057565
      5          6           0       -1.292830   -0.136448   -0.022169
      6          6           0        1.243378    1.137895   -0.031668
      7          6           0       -1.197172    1.218919   -0.026430
      8          6           0       -2.548192   -0.801853    0.028346
      9          6           0       -0.050383   -0.985569   -0.092695
     10          1           0       -0.055009   -1.712618    0.721948
     11          1           0       -0.050694   -1.570365   -1.017517
     12          6           0        1.245416   -0.216942   -0.030794
     13          6           0        2.404764   -1.093347    0.013484
     14          6           0       -2.309682    2.201913    0.017201
     15          1           0       -2.116595    3.043110   -0.653952
     16          1           0       -3.268565    1.783260   -0.280967
     17          1           0       -2.447355    2.598643    1.026071
     18          6           0       -2.692659   -2.292463   -0.028972
     19          1           0       -3.502003   -2.645033   -0.671124
     20          1           0       -1.796405   -2.799735   -0.381636
     21          1           0       -2.888685   -2.700695    0.967455
     22          6           0        3.816615   -0.578024    0.106446
     23          1           0        4.100157    0.025688   -0.753856
     24          1           0        3.992365    0.016548    1.001296
     25          1           0        4.458814   -1.455053    0.138714
     26          6           0        2.415689    2.065515   -0.000980
     27          1           0        2.998387    1.965537    0.912089
     28          1           0        3.086629    1.919203   -0.844116
     29          1           0        2.103929    3.109030   -0.045080
 ---------------------------------------------------------------------
 Rotational constants (GHZ):           1.1017234           0.4839296           0.3400608
 Leave Link  202 at Fri Jan 23 15:41:18 2026, MaxMem=  2147483648 cpu:               0.0 elap:               0.0
 (Enter /data/home/wyx/g16/l301.exe)
 Standard basis: TZVP (5D, 7F)
 Ernie: Thresh=  0.10000D-02 Tol=  0.10000D-05 Strict=F.
 There are   370 symmetry adapted cartesian basis functions of A   symmetry.
 There are   356 symmetry adapted basis functions of A   symmetry.
   356 basis functions,   610 primitive gaussians,   370 cartesian basis functions
    52 alpha electrons       52 beta electrons
       nuclear repulsion energy       899.6910010133 Hartrees.
 IExCor=20419 DFT=T Ex+Corr=CAM-B3LYP ExCW=0 ScaHFX=  1.000000
 ScaDFX=  1.000000  1.000000  1.000000  0.810000 ScalE2=  1.000000  1.000000
 IRadAn=      5 IRanWt=     -1 IRanGd=            0 ICorTp=0 IEmpDi=141
 HFx  wShort=  0.000000 wLong=  0.330000 cFull=  0.190000 cShort=  0.000000 cLong=  0.460000
 DFx  wShort=  0.000000 wLong=  0.330000 cFull=  0.190000 cShort=  0.000000 cLong=  0.460000
 NAtoms=   29 NActive=   29 NUniq=   29 SFac= 1.00D+00 NAtFMM=   60 NAOKFM=F Big=F
 Integral buffers will be    131072 words long.
 Raffenetti 1 integral format.
 Two-electron integral symmetry is turned on.
 R6Disp:  Grimme-D3(BJ) Dispersion energy=       -0.0261106777 Hartrees.
 Nuclear repulsion after empirical dispersion term =      899.6648903356 Hartrees.
 ------------------------------------------------------------------------------
 Polarizable Continuum Model (PCM)
 =================================
 Model                : PCM.
 Atomic radii         : UFF (Universal Force Field).
 Polarization charges : Total charges.
 Charge compensation  : None.
 Solution method      : On-the-fly selection.
 Cavity type          : Scaled VdW (van der Waals Surface) (Alpha=1.100).
 Cavity algorithm     : GePol (No added spheres)
                        Default sphere list used, NSphG=   29.
                        Lebedev-Laikov grids with approx.  5.0 points / Ang**2.
                        Smoothing algorithm: York/Karplus (Gamma=1.0000).
                        Polarization charges: spherical gaussians, with
                                              point-specific exponents (IZeta= 3).
                        Self-potential: point-specific (ISelfS= 7).
                        Self-field    : sphere-specific E.n sum rule (ISelfD= 2).
 Solvent              : TetraHydroFuran, Eps=   7.425700 Eps(inf)=   1.974025
 ------------------------------------------------------------------------------
 GePol: Number of generator spheres                  =      29
 GePol: Total number of spheres                      =      29
 GePol: Number of exposed spheres                    =      29 (100.00%)
 GePol: Number of points                             =    2101
 GePol: Average weight of points                     =       0.13
 GePol: Minimum weight of points                     =   0.29D-09
 GePol: Maximum weight of points                     =    0.20577
 GePol: Number of points with low weight             =     134
 GePol: Fraction of low-weight points (<1% of avg)   =       6.38%
 GePol: Cavity surface area                          =    268.297 Ang**2
 GePol: Cavity volume                                =    285.959 Ang**3
 Leave Link  301 at Fri Jan 23 15:41:18 2026, MaxMem=  2147483648 cpu:               0.6 elap:               0.0
 (Enter /data/home/wyx/g16/l302.exe)
 NPDir=0 NMtPBC=     1 NCelOv=     1 NCel=       1 NClECP=     1 NCelD=      1
         NCelK=      1 NCelE2=     1 NClLst=     1 CellRange=     0.0.
 One-electron integrals computed using PRISM.
 One-electron integral symmetry used in STVInt
 NBasis=   356 RedAO= T EigKep=  3.49D-05  NBF=   356
 NBsUse=   356 1.00D-06 EigRej= -1.00D+00 NBFU=   356
 Precomputing XC quadrature grid using
 IXCGrd= 4 IRadAn=           5 IRanWt=          -1 IRanGd=           0 AccXCQ= 0.00D+00.
 Generated NRdTot=       0 NPtTot=           0 NUsed=           0 NTot=          32
 NSgBfM=   366   366   366   366   366 MxSgAt=    29 MxSgA2=    29.
 Leave Link  302 at Fri Jan 23 15:41:19 2026, MaxMem=  2147483648 cpu:               3.1 elap:               0.2
 (Enter /data/home/wyx/g16/l303.exe)
 DipDrv:  MaxL=1.
 Leave Link  303 at Fri Jan 23 15:41:19 2026, MaxMem=  2147483648 cpu:               0.6 elap:               0.0
 (Enter /data/home/wyx/g16/l308.exe)
 Leave Link  308 at Fri Jan 23 15:41:19 2026, MaxMem=  2147483648 cpu:               0.7 elap:               0.1
 (Enter /data/home/wyx/g16/l401.exe)
 ExpMin= 9.52D-02 ExpMax= 2.70D+04 ExpMxC= 9.22D+02 IAcc=3 IRadAn=         5 AccDes= 0.00D+00
 Harris functional with IExCor=20419 and IRadAn=       5 diagonalized for initial guess.
 HarFok:  IExCor=20419 AccDes= 0.00D+00 IRadAn=         5 IDoV= 1 UseB2=F ITyADJ=14
 ICtDFT=  3500011 ScaDFX=  1.000000  1.000000  1.000000  1.000000
 FoFCou: FMM=F IPFlag=           0 FMFlag=      100000 FMFlg1=           0
         NFxFlg=           0 DoJE=T BraDBF=F KetDBF=T FulRan=T
         wScrn=  0.000000 ICntrl=       500 IOpCl=  0 I1Cent=   200000004 NGrid=           0
         NMat0=    1 NMatS0=      1 NMatT0=    0 NMatD0=    1 NMtDS0=    0 NMtDT0=    0
 Petite list used in FoFCou.
 Harris En= -608.707485648778    
 JPrj=0 DoOrth=F DoCkMO=F.
 Leave Link  401 at Fri Jan 23 15:41:20 2026, MaxMem=  2147483648 cpu:              11.8 elap:               0.8
 (Enter /data/home/wyx/g16/l502.exe)
 Integral symmetry usage will be decided dynamically.
 Closed shell SCF:
 Using DIIS extrapolation, IDIIS=  1040.
 NGot=  2147483648 LenX=  2147200095 LenY=  2147062754
 Requested convergence on RMS density matrix=1.00D-08 within 128 cycles.
 Requested convergence on MAX density matrix=1.00D-06.
 Requested convergence on             energy=1.00D-06.
 No special actions if energy rises.
 Fock matrices will be formed incrementally for  20 cycles.

 Cycle   1  Pass 1  IDiag  1:
 FoFJK:  IHMeth= 1 ICntrl=       0 DoSepK=T KAlg= 0 I1Cent=           0 FoldK=F
 IRaf=         1 NMat=       1 IRICut=       1 DoRegI=T DoRafI=F ISym2E= 0 IDoP0=0 IntGTp=1.
 FoFCou: FMM=F IPFlag=           0 FMFlag=      100000 FMFlg1=           0
         NFxFlg=           0 DoJE=T BraDBF=F KetDBF=F FulRan=T
         wScrn=  0.000000 ICntrl=       500 IOpCl=  0 I1Cent=           0 NGrid=           0
         NMat0=    1 NMatS0=      1 NMatT0=    0 NMatD0=    1 NMtDS0=    0 NMtDT0=    0
 Symmetry not used in FoFCou.
 Inv3:  Mode=1 IEnd=    13242603.
 Iteration    1 A*A^-1 deviation from unit magnitude is 3.33D-15 for   1625.
 Iteration    1 A*A^-1 deviation from orthogonality  is 1.70D-15 for   1509   1270.
 Iteration    1 A^-1*A deviation from unit magnitude is 2.89D-15 for   1625.
 Iteration    1 A^-1*A deviation from orthogonality  is 9.68D-14 for   1392   1348.
 E= -633.117111305578    
 DIIS: error= 4.16D-02 at cycle   1 NSaved=   1.
 NSaved= 1 IEnMin= 1 EnMin= -633.117111305578     IErMin= 1 ErrMin= 4.16D-02
 ErrMax= 4.16D-02  0.00D+00 EMaxC= 1.00D-01 BMatC= 1.10D+00 BMatP= 1.10D+00
 IDIUse=3 WtCom= 5.84D-01 WtEn= 4.16D-01
 Coeff-Com:  0.100D+01
 Coeff-En:   0.100D+01
 Coeff:      0.100D+01
 Gap=     0.223 Goal=   None    Shift=    0.000
 GapD=    0.223 DampG=1.000 DampE=0.500 DampFc=0.5000 IDamp=-1.
 Damping current iteration by 5.00D-01
 RMSDP=3.97D-03 MaxDP=1.47D-01              OVMax= 1.52D-01

 Cycle   2  Pass 1  IDiag  1:
 RMSU=  1.72D-03    CP:  9.30D-01
 E= -633.214128474812     Delta-E=       -0.097017169234 Rises=F Damp=T
 DIIS: error= 1.89D-02 at cycle   2 NSaved=   2.
 NSaved= 2 IEnMin= 2 EnMin= -633.214128474812     IErMin= 2 ErrMin= 1.89D-02
 ErrMax= 1.89D-02  0.00D+00 EMaxC= 1.00D-01 BMatC= 2.24D-01 BMatP= 1.10D+00
 IDIUse=3 WtCom= 8.11D-01 WtEn= 1.89D-01
 Coeff-Com: -0.590D+00 0.159D+01
 Coeff-En:   0.000D+00 0.100D+01
 Coeff:     -0.478D+00 0.148D+01
 Gap=     0.235 Goal=   None    Shift=    0.000
 RMSDP=1.62D-03 MaxDP=5.23D-02 DE=-9.70D-02 OVMax= 1.42D-01

 Cycle   3  Pass 1  IDiag  1:
 RMSU=  1.53D-03    CP:  9.05D-01  1.23D+00
 E= -633.263338678462     Delta-E=       -0.049210203650 Rises=F Damp=F
 DIIS: error= 1.59D-02 at cycle   3 NSaved=   3.
 NSaved= 3 IEnMin= 3 EnMin= -633.263338678462     IErMin= 3 ErrMin= 1.59D-02
 ErrMax= 1.59D-02  0.00D+00 EMaxC= 1.00D-01 BMatC= 6.49D-02 BMatP= 2.24D-01
 IDIUse=3 WtCom= 8.41D-01 WtEn= 1.59D-01
 Coeff-Com: -0.364D+00 0.797D+00 0.566D+00
 Coeff-En:   0.000D+00 0.000D+00 0.100D+01
 Coeff:     -0.306D+00 0.671D+00 0.635D+00
 Gap=     0.234 Goal=   None    Shift=    0.000
 RMSDP=1.51D-03 MaxDP=8.15D-02 DE=-4.92D-02 OVMax= 8.31D-02

 Cycle   4  Pass 1  IDiag  1:
 RMSU=  5.69D-04    CP:  8.52D-01  1.75D+00  4.95D-01
 E= -633.310956349119     Delta-E=       -0.047617670657 Rises=F Damp=F
 DIIS: error= 5.20D-03 at cycle   4 NSaved=   4.
 NSaved= 4 IEnMin= 4 EnMin= -633.310956349119     IErMin= 4 ErrMin= 5.20D-03
 ErrMax= 5.20D-03  0.00D+00 EMaxC= 1.00D-01 BMatC= 8.88D-03 BMatP= 6.49D-02
 IDIUse=3 WtCom= 9.48D-01 WtEn= 5.20D-02
 Coeff-Com: -0.164D+00 0.356D+00 0.374D+00 0.434D+00
 Coeff-En:   0.000D+00 0.000D+00 0.672D-01 0.933D+00
 Coeff:     -0.155D+00 0.337D+00 0.358D+00 0.460D+00
 Gap=     0.229 Goal=   None    Shift=    0.000
 RMSDP=4.19D-04 MaxDP=2.29D-02 DE=-4.76D-02 OVMax= 1.96D-02

 Cycle   5  Pass 1  IDiag  1:
 RMSU=  1.02D-04    CP:  8.66D-01  1.65D+00  6.55D-01  6.48D-01
 E= -633.317855566026     Delta-E=       -0.006899216907 Rises=F Damp=F
 DIIS: error= 4.91D-04 at cycle   5 NSaved=   5.
 NSaved= 5 IEnMin= 5 EnMin= -633.317855566026     IErMin= 5 ErrMin= 4.91D-04
 ErrMax= 4.91D-04  0.00D+00 EMaxC= 1.00D-01 BMatC= 9.07D-05 BMatP= 8.88D-03
 IDIUse=3 WtCom= 9.95D-01 WtEn= 4.91D-03
 Coeff-Com: -0.309D-01 0.661D-01 0.854D-01 0.160D+00 0.719D+00
 Coeff-En:   0.000D+00 0.000D+00 0.000D+00 0.000D+00 0.100D+01
 Coeff:     -0.307D-01 0.658D-01 0.850D-01 0.159D+00 0.721D+00
 Gap=     0.229 Goal=   None    Shift=    0.000
 RMSDP=1.50D-04 MaxDP=9.85D-03 DE=-6.90D-03 OVMax= 2.51D-03

 Cycle   6  Pass 1  IDiag  1:
 RMSU=  5.43D-05    CP:  8.59D-01  1.68D+00  6.50D-01  7.95D-01  1.06D+00
 E= -633.317909741148     Delta-E=       -0.000054175122 Rises=F Damp=F
 DIIS: error= 4.95D-04 at cycle   6 NSaved=   6.
 NSaved= 6 IEnMin= 6 EnMin= -633.317909741148     IErMin= 5 ErrMin= 4.91D-04
 ErrMax= 4.95D-04  0.00D+00 EMaxC= 1.00D-01 BMatC= 2.97D-05 BMatP= 9.07D-05
 IDIUse=3 WtCom= 9.95D-01 WtEn= 4.91D-03
 Coeff-Com:  0.176D-01-0.384D-01-0.303D-01-0.403D-02 0.435D+00 0.621D+00
 Coeff-En:   0.000D+00 0.000D+00 0.000D+00 0.000D+00 0.149D+00 0.851D+00
 Coeff:      0.175D-01-0.382D-01-0.302D-01-0.401D-02 0.433D+00 0.622D+00
 Gap=     0.230 Goal=   None    Shift=    0.000
 RMSDP=2.82D-05 MaxDP=1.85D-03 DE=-5.42D-05 OVMax= 3.06D-03

 Cycle   7  Pass 1  IDiag  1:
 RMSU=  1.90D-05    CP:  8.60D-01  1.69D+00  6.55D-01  7.86D-01  1.17D+00
                    CP:  7.66D-01
 E= -633.317936757044     Delta-E=       -0.000027015896 Rises=F Damp=F
 DIIS: error= 4.56D-05 at cycle   7 NSaved=   7.
 NSaved= 7 IEnMin= 7 EnMin= -633.317936757044     IErMin= 7 ErrMin= 4.56D-05
 ErrMax= 4.56D-05  0.00D+00 EMaxC= 1.00D-01 BMatC= 1.05D-06 BMatP= 2.97D-05
 IDIUse=1 WtCom= 1.00D+00 WtEn= 0.00D+00
 Coeff-Com:  0.452D-02-0.976D-02-0.898D-02-0.106D-01 0.175D-01 0.164D+00
 Coeff-Com:  0.843D+00
 Coeff:      0.452D-02-0.976D-02-0.898D-02-0.106D-01 0.175D-01 0.164D+00
 Coeff:      0.843D+00
 Gap=     0.230 Goal=   None    Shift=    0.000
 RMSDP=1.80D-05 MaxDP=9.77D-04 DE=-2.70D-05 OVMax= 6.16D-04

 Cycle   8  Pass 1  IDiag  1:
 RMSU=  6.20D-06    CP:  8.59D-01  1.69D+00  6.55D-01  8.04D-01  1.21D+00
                    CP:  8.92D-01  9.88D-01
 E= -633.317938210697     Delta-E=       -0.000001453653 Rises=F Damp=F
 DIIS: error= 2.45D-05 at cycle   8 NSaved=   8.
 NSaved= 8 IEnMin= 8 EnMin= -633.317938210697     IErMin= 8 ErrMin= 2.45D-05
 ErrMax= 2.45D-05  0.00D+00 EMaxC= 1.00D-01 BMatC= 1.76D-07 BMatP= 1.05D-06
 IDIUse=1 WtCom= 1.00D+00 WtEn= 0.00D+00
 Coeff-Com: -0.260D-03 0.628D-03-0.152D-03-0.540D-02-0.616D-01-0.634D-02
 Coeff-Com:  0.341D+00 0.733D+00
 Coeff:     -0.260D-03 0.628D-03-0.152D-03-0.540D-02-0.616D-01-0.634D-02
 Coeff:      0.341D+00 0.733D+00
 Gap=     0.230 Goal=   None    Shift=    0.000
 RMSDP=6.09D-06 MaxDP=3.28D-04 DE=-1.45D-06 OVMax= 3.95D-04

 Cycle   9  Pass 1  IDiag  1:
 RMSU=  2.34D-06    CP:  8.59D-01  1.69D+00  6.55D-01  8.09D-01  1.23D+00
                    CP:  9.19D-01  1.10D+00  1.07D+00
 E= -633.317938462369     Delta-E=       -0.000000251672 Rises=F Damp=F
 DIIS: error= 8.48D-06 at cycle   9 NSaved=   9.
 NSaved= 9 IEnMin= 9 EnMin= -633.317938462369     IErMin= 9 ErrMin= 8.48D-06
 ErrMax= 8.48D-06  0.00D+00 EMaxC= 1.00D-01 BMatC= 3.12D-08 BMatP= 1.76D-07
 IDIUse=1 WtCom= 1.00D+00 WtEn= 0.00D+00
 Coeff-Com: -0.863D-03 0.189D-02 0.152D-02-0.572D-03-0.294D-01-0.219D-01
 Coeff-Com:  0.481D-02 0.326D+00 0.718D+00
 Coeff:     -0.863D-03 0.189D-02 0.152D-02-0.572D-03-0.294D-01-0.219D-01
 Coeff:      0.481D-02 0.326D+00 0.718D+00
 Gap=     0.230 Goal=   None    Shift=    0.000
 RMSDP=2.28D-06 MaxDP=1.11D-04 DE=-2.52D-07 OVMax= 1.43D-04

 Cycle  10  Pass 1  IDiag  1:
 RMSU=  9.92D-07    CP:  8.59D-01  1.69D+00  6.55D-01  8.11D-01  1.23D+00
                    CP:  9.39D-01  1.12D+00  1.23D+00  7.90D-01
 E= -633.317938498294     Delta-E=       -0.000000035925 Rises=F Damp=F
 DIIS: error= 3.58D-06 at cycle  10 NSaved=  10.
 NSaved=10 IEnMin=10 EnMin= -633.317938498294     IErMin=10 ErrMin= 3.58D-06
 ErrMax= 3.58D-06  0.00D+00 EMaxC= 1.00D-01 BMatC= 5.96D-09 BMatP= 3.12D-08
 IDIUse=1 WtCom= 1.00D+00 WtEn= 0.00D+00
 Coeff-Com: -0.483D-03 0.105D-02 0.958D-03 0.422D-03-0.891D-02-0.106D-01
 Coeff-Com: -0.458D-01 0.845D-01 0.384D+00 0.594D+00
 Coeff:     -0.483D-03 0.105D-02 0.958D-03 0.422D-03-0.891D-02-0.106D-01
 Coeff:     -0.458D-01 0.845D-01 0.384D+00 0.594D+00
 Gap=     0.230 Goal=   None    Shift=    0.000
 RMSDP=7.79D-07 MaxDP=5.01D-05 DE=-3.59D-08 OVMax= 3.83D-05

 Cycle  11  Pass 1  IDiag  1:
 RMSU=  2.72D-07    CP:  8.59D-01  1.69D+00  6.55D-01  8.11D-01  1.23D+00
                    CP:  9.43D-01  1.13D+00  1.24D+00  9.41D-01  9.96D-01
 E= -633.317938504485     Delta-E=       -0.000000006191 Rises=F Damp=F
 DIIS: error= 1.12D-06 at cycle  11 NSaved=  11.
 NSaved=11 IEnMin=11 EnMin= -633.317938504485     IErMin=11 ErrMin= 1.12D-06
 ErrMax= 1.12D-06  0.00D+00 EMaxC= 1.00D-01 BMatC= 4.24D-10 BMatP= 5.96D-09
 IDIUse=1 WtCom= 1.00D+00 WtEn= 0.00D+00
 Coeff-Com:  0.222D-04-0.514D-04-0.786D-05 0.156D-03 0.228D-02 0.157D-02
 Coeff-Com: -0.167D-01-0.285D-01-0.852D-02 0.196D+00 0.854D+00
 Coeff:      0.222D-04-0.514D-04-0.786D-05 0.156D-03 0.228D-02 0.157D-02
 Coeff:     -0.167D-01-0.285D-01-0.852D-02 0.196D+00 0.854D+00
 Gap=     0.230 Goal=   None    Shift=    0.000
 RMSDP=3.26D-07 MaxDP=2.19D-05 DE=-6.19D-09 OVMax= 2.27D-05

 Cycle  12  Pass 1  IDiag  1:
 RMSU=  1.37D-07    CP:  8.59D-01  1.69D+00  6.55D-01  8.12D-01  1.23D+00
                    CP:  9.44D-01  1.12D+00  1.27D+00  9.22D-01  1.10D+00
                    CP:  1.03D+00
 E= -633.317938505250     Delta-E=       -0.000000000765 Rises=F Damp=F
 DIIS: error= 5.68D-07 at cycle  12 NSaved=  12.
 NSaved=12 IEnMin=12 EnMin= -633.317938505250     IErMin=12 ErrMin= 5.68D-07
 ErrMax= 5.68D-07  0.00D+00 EMaxC= 1.00D-01 BMatC= 4.45D-11 BMatP= 4.24D-10
 IDIUse=1 WtCom= 1.00D+00 WtEn= 0.00D+00
 Coeff-Com:  0.356D-04-0.786D-04-0.567D-04 0.401D-04 0.143D-02 0.128D-02
 Coeff-Com: -0.302D-02-0.150D-01-0.347D-01 0.233D-01 0.305D+00 0.722D+00
 Coeff:      0.356D-04-0.786D-04-0.567D-04 0.401D-04 0.143D-02 0.128D-02
 Coeff:     -0.302D-02-0.150D-01-0.347D-01 0.233D-01 0.305D+00 0.722D+00
 Gap=     0.230 Goal=   None    Shift=    0.000
 RMSDP=7.30D-08 MaxDP=4.10D-06 DE=-7.65D-10 OVMax= 6.43D-06

 Cycle  13  Pass 1  IDiag  1:
 RMSU=  3.35D-08    CP:  8.59D-01  1.69D+00  6.55D-01  8.12D-01  1.23D+00
                    CP:  9.45D-01  1.12D+00  1.28D+00  9.22D-01  1.14D+00
                    CP:  1.11D+00  1.11D+00
 E= -633.317938505347     Delta-E=       -0.000000000097 Rises=F Damp=F
 DIIS: error= 3.00D-07 at cycle  13 NSaved=  13.
 NSaved=13 IEnMin=13 EnMin= -633.317938505347     IErMin=13 ErrMin= 3.00D-07
 ErrMax= 3.00D-07  0.00D+00 EMaxC= 1.00D-01 BMatC= 6.40D-12 BMatP= 4.45D-11
 IDIUse=1 WtCom= 1.00D+00 WtEn= 0.00D+00
 Coeff-Com:  0.508D-05-0.105D-04-0.152D-04-0.254D-04-0.137D-03-0.263D-04
 Coeff-Com:  0.277D-02 0.343D-02-0.838D-02-0.342D-01-0.109D+00 0.153D+00
 Coeff-Com:  0.993D+00
 Coeff:      0.508D-05-0.105D-04-0.152D-04-0.254D-04-0.137D-03-0.263D-04
 Coeff:      0.277D-02 0.343D-02-0.838D-02-0.342D-01-0.109D+00 0.153D+00
 Coeff:      0.993D+00
 Gap=     0.230 Goal=   None    Shift=    0.000
 RMSDP=5.70D-08 MaxDP=1.79D-06 DE=-9.67D-11 OVMax= 4.78D-06

 Cycle  14  Pass 1  IDiag  1:
 RMSU=  1.86D-08    CP:  8.59D-01  1.69D+00  6.55D-01  8.12D-01  1.23D+00
                    CP:  9.45D-01  1.12D+00  1.28D+00  9.12D-01  1.16D+00
                    CP:  1.15D+00  1.33D+00  1.31D+00
 E= -633.317938505371     Delta-E=       -0.000000000025 Rises=F Damp=F
 DIIS: error= 1.15D-07 at cycle  14 NSaved=  14.
 NSaved=14 IEnMin=14 EnMin= -633.317938505371     IErMin=14 ErrMin= 1.15D-07
 ErrMax= 1.15D-07  0.00D+00 EMaxC= 1.00D-01 BMatC= 6.37D-13 BMatP= 6.40D-12
 IDIUse=1 WtCom= 1.00D+00 WtEn= 0.00D+00
 Coeff-Com: -0.339D-05 0.758D-05 0.478D-05-0.682D-05-0.176D-03-0.141D-03
 Coeff-Com:  0.589D-03 0.217D-02 0.330D-02-0.334D-02-0.472D-01-0.820D-01
 Coeff-Com:  0.277D-01 0.110D+01
 Coeff:     -0.339D-05 0.758D-05 0.478D-05-0.682D-05-0.176D-03-0.141D-03
 Coeff:      0.589D-03 0.217D-02 0.330D-02-0.334D-02-0.472D-01-0.820D-01
 Coeff:      0.277D-01 0.110D+01
 Gap=     0.230 Goal=   None    Shift=    0.000
 RMSDP=2.22D-08 MaxDP=8.18D-07 DE=-2.48D-11 OVMax= 2.15D-06

 Cycle  15  Pass 1  IDiag  1:
 RMSU=  5.99D-09    CP:  8.59D-01  1.69D+00  6.55D-01  8.12D-01  1.23D+00
                    CP:  9.45D-01  1.12D+00  1.28D+00  9.08D-01  1.17D+00
                    CP:  1.15D+00  1.40D+00  1.56D+00  1.34D+00
 E= -633.317938505371     Delta-E=        0.000000000000 Rises=F Damp=F
 DIIS: error= 2.39D-08 at cycle  15 NSaved=  15.
 NSaved=15 IEnMin=14 EnMin= -633.317938505371     IErMin=15 ErrMin= 2.39D-08
 ErrMax= 2.39D-08  0.00D+00 EMaxC= 1.00D-01 BMatC= 1.42D-13 BMatP= 6.37D-13
 IDIUse=1 WtCom= 1.00D+00 WtEn= 0.00D+00
 Coeff-Com: -0.185D-05 0.398D-05 0.359D-05 0.777D-06-0.448D-04-0.550D-04
 Coeff-Com: -0.161D-03 0.200D-03 0.210D-02 0.368D-02-0.297D-02-0.444D-01
 Coeff-Com: -0.124D+00 0.371D+00 0.794D+00
 Coeff:     -0.185D-05 0.398D-05 0.359D-05 0.777D-06-0.448D-04-0.550D-04
 Coeff:     -0.161D-03 0.200D-03 0.210D-02 0.368D-02-0.297D-02-0.444D-01
 Coeff:     -0.124D+00 0.371D+00 0.794D+00
 Gap=     0.230 Goal=   None    Shift=    0.000
 RMSDP=6.09D-09 MaxDP=2.29D-07 DE= 0.00D+00 OVMax= 5.50D-07

 Error on total polarization charges =  0.01469
 SCF Done:  E(RCAM-B3LYP) =  -633.317938505     A.U. after   15 cycles
            NFock= 15  Conv=0.61D-08     -V/T= 2.0041
 KE= 6.307015514215D+02 PE=-3.275342735352D+03 EE= 1.111658355090D+03
 Leave Link  502 at Fri Jan 23 15:42:19 2026, MaxMem=  2147483648 cpu:             930.3 elap:              58.6
 (Enter /data/home/wyx/g16/l801.exe)
 DoSCS=F DFT=T ScalE2(SS,OS)=  1.000000  1.000000
 ExpMin= 9.52D-02 ExpMax= 2.70D+04 ExpMxC= 9.22D+02 IAcc=3 IRadAn=         5 AccDes= 0.00D+00
 HarFok:  IExCor=  205 AccDes= 0.00D+00 IRadAn=         5 IDoV=-2 UseB2=F ITyADJ=14
 ICtDFT= 12500011 ScaDFX=  1.000000  1.000000  1.000000  1.000000
 Largest valence mixing into a core orbital is  5.63D-05
 Largest core mixing into a valence orbital is  1.06D-05
 Range of M.O.s used for correlation:    15   356
 NBasis=   356 NAE=    52 NBE=    52 NFC=    14 NFV=     0
 NROrb=    342 NOA=    38 NOB=    38 NVA=   304 NVB=   304

 **** Warning!!: The largest alpha MO coefficient is  0.44947222D+02

 Leave Link  801 at Fri Jan 23 15:42:20 2026, MaxMem=  2147483648 cpu:               1.0 elap:               0.1
 (Enter /data/home/wyx/g16/l914.exe)
 RHF ground state
 Two-electron integrals replicated using symmetry.
 MDV=  2147483648 DFT=T DoStab=F Mixed=T DoRPA=T DoScal=F NonHer=T
 NEqPCM:  Using non-equilibrium solvation (IEInf=1, Eps=   7.4257, EpsInf=   1.9740)
 Inv3:  Mode=1 IEnd=    13242603.
 Iteration    1 A*A^-1 deviation from unit magnitude is 3.22D-15 for    214.
 Iteration    1 A*A^-1 deviation from orthogonality  is 1.48D-15 for    756    235.
 Iteration    1 A^-1*A deviation from unit magnitude is 3.00D-15 for    214.
 Iteration    1 A^-1*A deviation from orthogonality  is 2.00D-15 for   1922    359.
 Making orbital integer symmetry assigments:
 Orbital symmetries:
       Occupied  (A) (A) (A) (A) (A) (A) (A) (A) (A) (A) (A) (A)
                 (A) (A) (A) (A) (A) (A) (A) (A) (A) (A) (A) (A)
                 (A) (A) (A) (A) (A) (A) (A) (A) (A) (A) (A) (A)
                 (A) (A) (A) (A) (A) (A) (A) (A) (A) (A) (A) (A)
                 (A) (A) (A) (A)
       Virtual   (A) (A) (A) (A) (A) (A) (A) (A) (A) (A) (A) (A)
                 (A) (A) (A) (A) (A) (A) (A) (A) (A) (A) (A) (A)
                 (A) (A) (A) (A) (A) (A) (A) (A) (A) (A) (A) (A)
                 (A) (A) (A) (A) (A) (A) (A) (A) (A) (A) (A) (A)
                 (A) (A) (A) (A) (A) (A) (A) (A) (A) (A) (A) (A)
                 (A) (A) (A) (A) (A) (A) (A) (A) (A) (A) (A) (A)
                 (A) (A) (A) (A) (A) (A) (A) (A) (A) (A) (A) (A)
                 (A) (A) (A) (A) (A) (A) (A) (A) (A) (A) (A) (A)
                 (A) (A) (A) (A) (A) (A) (A) (A) (A) (A) (A) (A)
                 (A) (A) (A) (A) (A) (A) (A) (A) (A) (A) (A) (A)
                 (A) (A) (A) (A) (A) (A) (A) (A) (A) (A) (A) (A)
                 (A) (A) (A) (A) (A) (A) (A) (A) (A) (A) (A) (A)
                 (A) (A) (A) (A) (A) (A) (A) (A) (A) (A) (A) (A)
                 (A) (A) (A) (A) (A) (A) (A) (A) (A) (A) (A) (A)
                 (A) (A) (A) (A) (A) (A) (A) (A) (A) (A) (A) (A)
                 (A) (A) (A) (A) (A) (A) (A) (A) (A) (A) (A) (A)
                 (A) (A) (A) (A) (A) (A) (A) (A) (A) (A) (A) (A)
                 (A) (A) (A) (A) (A) (A) (A) (A) (A) (A) (A) (A)
                 (A) (A) (A) (A) (A) (A) (A) (A) (A) (A) (A) (A)
                 (A) (A) (A) (A) (A) (A) (A) (A) (A) (A) (A) (A)
                 (A) (A) (A) (A) (A) (A) (A) (A) (A) (A) (A) (A)
                 (A) (A) (A) (A) (A) (A) (A) (A) (A) (A) (A) (A)
                 (A) (A) (A) (A) (A) (A) (A) (A) (A) (A) (A) (A)
                 (A) (A) (A) (A) (A) (A) (A) (A) (A) (A) (A) (A)
                 (A) (A) (A) (A) (A) (A) (A) (A) (A) (A) (A) (A)
                 (A) (A) (A) (A)
    24 initial guesses have been made.
 Convergence on wavefunction:    0.001000000000000
 Davidson Disk Diagonalization:  ConvIn= 1.00D-03 SkipCon=T Conv= 1.00D-03.
 Max sub-space:  2000 roots to seek:    24 dimension of matrix:        23104
 Iteration     1 Dimension    24 NMult     0 NNew     24
 CISAX will form    24 AO SS matrices at one time.
 NMat=    24 NSing=    24 JSym2X= 0.
 FoFJK:  IHMeth= 1 ICntrl=       0 DoSepK=T KAlg= 0 I1Cent=           0 FoldK=F
 IRaf=         1 NMat=      48 IRICut=       1 DoRegI=T DoRafI=F ISym2E= 0 IDoP0=3 IntGTp=3.
 New state      3 was old state      4
 New state      4 was old state      3
 New state      5 was old state      6
 New state      6 was old state      5
 Excitation Energies [eV] at current iteration:
 Root      1 :     3.732668657445550
 Root      2 :     3.822590151640841
 Root      3 :     4.465957743856033
 Root      4 :     5.505430568537105
 Root      5 :     6.208735114194993
 Root      6 :     6.402492272683607
 Root      7 :     6.646522821090904
 Root      8 :     6.719674837063711
 Root      9 :     6.801652462260223
 Root     10 :     7.103891186032556
 Root     11 :     7.284131810312806
 Root     12 :     7.341140572099251
 Root     13 :     7.487495375903442
 Root     14 :     7.675371894322197
 Root     15 :     7.714679976281357
 Root     16 :     7.876835950357438
 Root     17 :     8.204792015927772
 Root     18 :     8.247231234148407
 Root     19 :     8.339560736617553
 Root     20 :     8.438617037272364
 Root     21 :     8.594072734365755
 Root     22 :     8.663625051121331
 Root     23 :     8.812477416291895
 Root     24 :     9.048520085169010
 Iteration     2 Dimension    36 NMult    24 NNew     12
 CISAX will form    12 AO SS matrices at one time.
 NMat=    12 NSing=    12 JSym2X= 0.
 Root      1 not converged, maximum delta is    0.316661801232708
 Root      2 not converged, maximum delta is    0.307249694826209
 Root      3 not converged, maximum delta is    0.096941513437477
 Root      4 not converged, maximum delta is    0.313644657906690
 New state      5 was old state      6
 Root      5 not converged, maximum delta is    0.287799005011968
 New state      6 was old state      5
 Root      6 not converged, maximum delta is    0.073188376764957
 Excitation Energies [eV] at current iteration:
 Root      1 :     3.321214445440547   Change is   -0.411454212005004
 Root      2 :     3.577013956447461   Change is   -0.245576195193380
 Root      3 :     4.222542864432935   Change is   -0.243414879423098
 Root      4 :     5.157307793509796   Change is   -0.348122775027309
 Root      5 :     5.572115396878186   Change is   -0.830376875805420
 Root      6 :     6.093281958925552   Change is   -0.115453155269441
 Iteration     3 Dimension    48 NMult    36 NNew     12
 CISAX will form    12 AO SS matrices at one time.
 NMat=    12 NSing=    12 JSym2X= 0.
 Root      1 not converged, maximum delta is    0.009308174792080
 Root      2 not converged, maximum delta is    0.010606660214910
 Root      3 not converged, maximum delta is    0.018507605021963
 Root      4 not converged, maximum delta is    0.027519270733317
 Root      5 not converged, maximum delta is    0.026765067386286
 Root      6 not converged, maximum delta is    0.008384522690893
 Excitation Energies [eV] at current iteration:
 Root      1 :     3.304305132614987   Change is   -0.016909312825560
 Root      2 :     3.567186368665536   Change is   -0.009827587781925
 Root      3 :     4.209669743522179   Change is   -0.012873120910756
 Root      4 :     5.133552966328740   Change is   -0.023754827181055
 Root      5 :     5.544625579266591   Change is   -0.027489817611596
 Root      6 :     6.088289496838192   Change is   -0.004992462087359
 Iteration     4 Dimension    60 NMult    48 NNew     12
 CISAX will form    12 AO SS matrices at one time.
 NMat=    12 NSing=    12 JSym2X= 0.
 Root      1 not converged, maximum delta is    0.002511097413011
 Root      2 not converged, maximum delta is    0.001881004460841
 Root      3 not converged, maximum delta is    0.001920246936860
 Root      4 not converged, maximum delta is    0.003565312292045
 Root      5 not converged, maximum delta is    0.005176500632784
 Root      6 not converged, maximum delta is    0.002269977918251
 Excitation Energies [eV] at current iteration:
 Root      1 :     3.302868290525332   Change is   -0.001436842089654
 Root      2 :     3.566501594571768   Change is   -0.000684774093768
 Root      3 :     4.209227087022907   Change is   -0.000442656499272
 Root      4 :     5.130849041861242   Change is   -0.002703924467499
 Root      5 :     5.540726971161100   Change is   -0.003898608105491
 Root      6 :     6.088011081743470   Change is   -0.000278415094723
 Iteration     5 Dimension    72 NMult    60 NNew     12
 CISAX will form    12 AO SS matrices at one time.
 NMat=    12 NSing=    12 JSym2X= 0.
 Root      1 has converged.
 Root      2 has converged.
 Root      3 has converged.
 Root      4 has converged.
 Root      5 not converged, maximum delta is    0.001022638290313
 Root      6 has converged.
 Excitation Energies [eV] at current iteration:
 Root      1 :     3.302786096578093   Change is   -0.000082193947239
 Root      2 :     3.566469551888027   Change is   -0.000032042683741
 Root      3 :     4.209205718095625   Change is   -0.000021368927283
 Root      4 :     5.130666094127681   Change is   -0.000182947733560
 Root      5 :     5.540449878932447   Change is   -0.000277092228652
 Root      6 :     6.087989920963177   Change is   -0.000021160780293
 Iteration     6 Dimension    74 NMult    72 NNew      2
 CISAX will form     2 AO SS matrices at one time.
 NMat=     2 NSing=     2 JSym2X= 0.
 Root      1 has converged.
 Root      2 has converged.
 Root      3 has converged.
 Root      4 has converged.
 Root      5 has converged.
 Root      6 has converged.
 Excitation Energies [eV] at current iteration:
 Root      1 :     3.302786009985421   Change is   -0.000000086592672
 Root      2 :     3.566469449057243   Change is   -0.000000102830784
 Root      3 :     4.209205698168590   Change is   -0.000000019927034
 Root      4 :     5.130658562045531   Change is   -0.000007532082151
 Root      5 :     5.540429856180720   Change is   -0.000020022751728
 Root      6 :     6.087989752483818   Change is   -0.000000168479359
 Convergence achieved on expansion vectors.
 ***********************************************************************
 Excited states from <AA,BB:AA,BB> singles matrix:
 ***********************************************************************
 
 1PDM for each excited state written to RWF  633
 Ground to excited state transition densities written to RWF  633
 Ground to excited state transition electric dipole moments (Au):
       state          X           Y           Z        Dip. S.      Osc.
         1         1.5373     -0.0572     -0.0100      2.3666      0.1915
         2        -0.2523      0.0336      0.0402      0.0664      0.0058
         3        -0.0066     -0.0257      0.0359      0.0020      0.0002
         4         0.0265     -1.3567      0.0382      1.8429      0.2316
         5         0.2698      1.3961     -0.0081      2.0220      0.2745
         6         0.0023      0.0758      0.0427      0.0076      0.0011
 Ground to excited state transition velocity dipole moments (Au):
       state          X           Y           Z        Dip. S.      Osc.
         1        -0.1811      0.0055      0.0011      0.0328      0.1803
         2         0.0329     -0.0040     -0.0035      0.0011      0.0057
         3         0.0007      0.0040     -0.0022      0.0000      0.0001
         4         0.0008      0.2392     -0.0056      0.0572      0.2024
         5        -0.0530     -0.2781      0.0015      0.0801      0.2624
         6        -0.0017     -0.0152     -0.0291      0.0011      0.0032
 Ground to excited state transition magnetic dipole moments (Au):
       state          X           Y           Z
         1         0.0891     -0.0310      1.4405
         2         0.7448     -0.2707     -0.3411
         3        -0.0156      0.9410      0.0246
         4         0.0252     -0.0176      0.3672
         5        -0.1039      0.0422     -0.3109
         6        -0.0487      0.0092     -0.0202
 Ground to excited state transition velocity quadrupole moments (Au):
       state          XX          YY          ZZ          XY          XZ          YZ
         1         0.3116     -0.1252     -0.0104      0.4797     -0.0175     -0.0020
         2        -0.0600      0.0002      0.0008     -0.0892      0.0362      0.0360
         3        -0.0106      0.0068     -0.0067      0.0057     -0.0751      0.0042
         4        -1.2533      0.2421      0.0293      0.2116      0.0199     -0.0057
         5         0.8443     -0.4355     -0.0375     -0.0172     -0.0127     -0.0424
         6        -0.0416     -0.0380      0.0368     -0.0098      0.0041      0.0321
 <0|del|b> * <b|rxdel|0> + <0|del|b> * <b|delr+rdel|0>
 Rotatory Strengths (R) in cgs (10**-40 erg-esu-cm/Gauss)
       state          XX          YY          ZZ    R(velocity)    E-M Angle
         1         5.9586    -42.8807    -48.8287    -28.5836       93.23
         2         7.4507     71.8058     65.5487     48.2684       21.27
         3         9.0456     -0.1140      7.8090      5.5802       32.19
         4       -22.9216     -1.6027      1.0732     -7.8170       94.07
         5       -27.3511     12.6801     -8.5778     -7.7496       94.10
         6         1.2585      0.5201     -0.1070      0.5572       72.52
 1/2[<0|r|b>*<b|rxdel|0> + (<0|rxdel|b>*<b|r|0>)*]
 Rotatory Strengths (R) in cgs (10**-40 erg-esu-cm/Gauss)
       state          XX          YY          ZZ     R(length)
         1       -96.8693     -1.2546     10.2263    -29.2992
         2       132.8890      6.4374      9.6921     49.6728
         3        -0.0729     17.0729     -0.6245      5.4585
         4        -0.4715    -16.9250     -9.9205     -9.1057
         5        19.8207    -41.6197     -1.7770     -7.8587
         6         0.0784     -0.4944      0.6098      0.0646
  1/2[<0|del|b>*<b|r|0> + (<0|r|b>*<b|del|0>)*] (Au)
       state          X           Y           Z        Dip. S.   Osc.(frdel)
         1        -0.2784     -0.0003     -0.0000      0.2787      0.1858
         2        -0.0083     -0.0001     -0.0001      0.0086      0.0057
         3        -0.0000     -0.0001     -0.0001      0.0002      0.0001
         4         0.0000     -0.3245     -0.0002      0.3247      0.2165
         5        -0.0143     -0.3882     -0.0000      0.4025      0.2683
         6        -0.0000     -0.0012     -0.0012      0.0024      0.0016

 Excitation energies and oscillator strengths:
 
 Excited State   1:      Singlet-A      3.3028 eV  375.39 nm  f=0.1915  <S**2>=0.000
      52 -> 53         0.69540
 This state for optimization and/or second-order correction.
 Total Energy, E(TD-HF/TD-DFT) =  -633.196563353    
 Copying the excited state density for this state as the 1-particle RhoCI density.
 
 Excited State   2:      Singlet-A      3.5665 eV  347.64 nm  f=0.0058  <S**2>=0.000
      51 -> 53         0.61328
      51 -> 54        -0.29440
 
 Excited State   3:      Singlet-A      4.2092 eV  294.55 nm  f=0.0002  <S**2>=0.000
      50 -> 53         0.53658
      50 -> 54         0.40987
      50 -> 58         0.12316
      51 -> 54         0.10882
 
 Excited State   4:      Singlet-A      5.1307 eV  241.65 nm  f=0.2316  <S**2>=0.000
      52 -> 54         0.69998
 
 Excited State   5:      Singlet-A      5.5404 eV  223.78 nm  f=0.2745  <S**2>=0.000
      49 -> 53         0.69376
 
 Excited State   6:      Singlet-A      6.0880 eV  203.65 nm  f=0.0011  <S**2>=0.000
      52 -> 55         0.66286
      52 -> 57        -0.13806
      52 -> 62        -0.10268
 SavETr:  write IOETrn=   770 NScale= 10 NData=  16 NLR=1 NState=    6 LETran=     118.
 Leave Link  914 at Fri Jan 23 15:44:28 2026, MaxMem=  2147483648 cpu:            2045.9 elap:             128.4
 (Enter /data/home/wyx/g16/l601.exe)
 Copying SCF densities to generalized density rwf, IOpCl= 0 IROHF=0.

 **********************************************************************

            Population analysis using the SCF density.

 **********************************************************************

 Orbital symmetries:
       Occupied  (A) (A) (A) (A) (A) (A) (A) (A) (A) (A) (A) (A)
                 (A) (A) (A) (A) (A) (A) (A) (A) (A) (A) (A) (A)
                 (A) (A) (A) (A) (A) (A) (A) (A) (A) (A) (A) (A)
                 (A) (A) (A) (A) (A) (A) (A) (A) (A) (A) (A) (A)
                 (A) (A) (A) (A)
       Virtual   (A) (A) (A) (A) (A) (A) (A) (A) (A) (A) (A) (A)
                 (A) (A) (A) (A) (A) (A) (A) (A) (A) (A) (A) (A)
                 (A) (A) (A) (A) (A) (A) (A) (A) (A) (A) (A) (A)
                 (A) (A) (A) (A) (A) (A) (A) (A) (A) (A) (A) (A)
                 (A) (A) (A) (A) (A) (A) (A) (A) (A) (A) (A) (A)
                 (A) (A) (A) (A) (A) (A) (A) (A) (A) (A) (A) (A)
                 (A) (A) (A) (A) (A) (A) (A) (A) (A) (A) (A) (A)
                 (A) (A) (A) (A) (A) (A) (A) (A) (A) (A) (A) (A)
                 (A) (A) (A) (A) (A) (A) (A) (A) (A) (A) (A) (A)
                 (A) (A) (A) (A) (A) (A) (A) (A) (A) (A) (A) (A)
                 (A) (A) (A) (A) (A) (A) (A) (A) (A) (A) (A) (A)
                 (A) (A) (A) (A) (A) (A) (A) (A) (A) (A) (A) (A)
                 (A) (A) (A) (A) (A) (A) (A) (A) (A) (A) (A) (A)
                 (A) (A) (A) (A) (A) (A) (A) (A) (A) (A) (A) (A)
                 (A) (A) (A) (A) (A) (A) (A) (A) (A) (A) (A) (A)
                 (A) (A) (A) (A) (A) (A) (A) (A) (A) (A) (A) (A)
                 (A) (A) (A) (A) (A) (A) (A) (A) (A) (A) (A) (A)
                 (A) (A) (A) (A) (A) (A) (A) (A) (A) (A) (A) (A)
                 (A) (A) (A) (A) (A) (A) (A) (A) (A) (A) (A) (A)
                 (A) (A) (A) (A) (A) (A) (A) (A) (A) (A) (A) (A)
                 (A) (A) (A) (A) (A) (A) (A) (A) (A) (A) (A) (A)
                 (A) (A) (A) (A) (A) (A) (A) (A) (A) (A) (A) (A)
                 (A) (A) (A) (A) (A) (A) (A) (A) (A) (A) (A) (A)
                 (A) (A) (A) (A) (A) (A) (A) (A) (A) (A) (A) (A)
                 (A) (A) (A) (A) (A) (A) (A) (A) (A) (A) (A) (A)
                 (A) (A) (A) (A)
 The electronic state is 1-A.
 Alpha  occ. eigenvalues --  -19.17714 -19.16545 -14.44491 -10.33219 -10.33149
 Alpha  occ. eigenvalues --  -10.32423 -10.32271 -10.26061 -10.25100 -10.25087
 Alpha  occ. eigenvalues --  -10.24956 -10.24444 -10.24033 -10.23726  -1.11748
 Alpha  occ. eigenvalues --   -1.09193  -1.07894  -0.91652  -0.90695  -0.83916
 Alpha  occ. eigenvalues --   -0.82572  -0.81548  -0.78797  -0.74429  -0.71712
 Alpha  occ. eigenvalues --   -0.69148  -0.62187  -0.58592  -0.57011  -0.55248
 Alpha  occ. eigenvalues --   -0.54860  -0.54154  -0.52477  -0.51917  -0.50678
 Alpha  occ. eigenvalues --   -0.49553  -0.49262  -0.49068  -0.48504  -0.48207
 Alpha  occ. eigenvalues --   -0.46694  -0.45164  -0.44641  -0.43859  -0.42938
 Alpha  occ. eigenvalues --   -0.42414  -0.41606  -0.40765  -0.33108  -0.32147
 Alpha  occ. eigenvalues --   -0.30699  -0.26228
 Alpha virt. eigenvalues --   -0.03262   0.02100   0.06293   0.08217   0.08454
 Alpha virt. eigenvalues --    0.09902   0.10708   0.11702   0.12707   0.13151
 Alpha virt. eigenvalues --    0.14229   0.15161   0.15683   0.16469   0.16967
 Alpha virt. eigenvalues --    0.17494   0.17576   0.17741   0.18757   0.19342
 Alpha virt. eigenvalues --    0.20024   0.20929   0.22879   0.23299   0.24308
 Alpha virt. eigenvalues --    0.24484   0.24984   0.25762   0.26384   0.26641
 Alpha virt. eigenvalues --    0.27105   0.27371   0.28724   0.29392   0.29842
 Alpha virt. eigenvalues --    0.31050   0.31144   0.33614   0.34170   0.34735
 Alpha virt. eigenvalues --    0.35229   0.35641   0.36662   0.37372   0.37605
 Alpha virt. eigenvalues --    0.40114   0.40954   0.41600   0.42704   0.43188
 Alpha virt. eigenvalues --    0.44429   0.45506   0.45755   0.46206   0.46456
 Alpha virt. eigenvalues --    0.47062   0.47877   0.48084   0.48659   0.48800
 Alpha virt. eigenvalues --    0.50192   0.51012   0.51107   0.51466   0.51812
 Alpha virt. eigenvalues --    0.52290   0.52855   0.52891   0.53727   0.53903
 Alpha virt. eigenvalues --    0.54944   0.55797   0.56231   0.57041   0.57497
 Alpha virt. eigenvalues --    0.58112   0.59207   0.61202   0.62760   0.62919
 Alpha virt. eigenvalues --    0.63591   0.64651   0.65991   0.67789   0.68067
 Alpha virt. eigenvalues --    0.68766   0.70671   0.71075   0.71817   0.72521
 Alpha virt. eigenvalues --    0.73553   0.75581   0.77543   0.78879   0.79585
 Alpha virt. eigenvalues --    0.82085   0.82366   0.84212   0.87727   0.89675
 Alpha virt. eigenvalues --    0.93174   0.95701   0.98420   1.03562   1.19512
 Alpha virt. eigenvalues --    1.23017   1.23292   1.24790   1.29778   1.30587
 Alpha virt. eigenvalues --    1.32542   1.33662   1.33910   1.35548   1.36524
 Alpha virt. eigenvalues --    1.37136   1.37615   1.39088   1.39456   1.39800
 Alpha virt. eigenvalues --    1.40129   1.40660   1.41138   1.41445   1.42147
 Alpha virt. eigenvalues --    1.42962   1.43771   1.44493   1.45052   1.45943
 Alpha virt. eigenvalues --    1.48383   1.49754   1.50501   1.50940   1.51568
 Alpha virt. eigenvalues --    1.52230   1.52879   1.56381   1.56841   1.57057
 Alpha virt. eigenvalues --    1.58279   1.59563   1.60401   1.60912   1.61882
 Alpha virt. eigenvalues --    1.62160   1.62679   1.64051   1.64686   1.64802
 Alpha virt. eigenvalues --    1.65541   1.65806   1.65977   1.67155   1.67634
 Alpha virt. eigenvalues --    1.69309   1.69649   1.70995   1.71702   1.72582
 Alpha virt. eigenvalues --    1.73822   1.75122   1.75329   1.76063   1.80438
 Alpha virt. eigenvalues --    1.81335   1.82820   1.83387   1.83800   1.86090
 Alpha virt. eigenvalues --    1.86439   1.86593   1.89065   1.90347   1.90812
 Alpha virt. eigenvalues --    1.91743   1.93340   1.96614   1.98039   2.01372
 Alpha virt. eigenvalues --    2.02190   2.05102   2.05643   2.07549   2.09480
 Alpha virt. eigenvalues --    2.10556   2.13558   2.15197   2.18204   2.19754
 Alpha virt. eigenvalues --    2.20108   2.23319   2.24726   2.25492   2.26118
 Alpha virt. eigenvalues --    2.26596   2.29214   2.30472   2.31669   2.33365
 Alpha virt. eigenvalues --    2.35328   2.35795   2.36857   2.37803   2.40103
 Alpha virt. eigenvalues --    2.40896   2.41853   2.43678   2.44828   2.46409
 Alpha virt. eigenvalues --    2.46673   2.47924   2.49443   2.50325   2.50989
 Alpha virt. eigenvalues --    2.53285   2.53461   2.54684   2.56025   2.56270
 Alpha virt. eigenvalues --    2.56406   2.59749   2.61054   2.62978   2.63497
 Alpha virt. eigenvalues --    2.64602   2.65175   2.66061   2.67285   2.67819
 Alpha virt. eigenvalues --    2.69395   2.71888   2.73861   2.74317   2.74922
 Alpha virt. eigenvalues --    2.76099   2.76388   2.77907   2.78420   2.79846
 Alpha virt. eigenvalues --    2.80553   2.82035   2.83604   2.84499   2.85614
 Alpha virt. eigenvalues --    2.85807   2.87823   2.89230   2.89935   2.93938
 Alpha virt. eigenvalues --    2.97067   2.98726   2.99100   3.04977   3.09203
 Alpha virt. eigenvalues --    3.09802   3.11688   3.14221   3.20790   3.21039
 Alpha virt. eigenvalues --    3.21713   3.22678   3.24600   3.25890   3.26341
 Alpha virt. eigenvalues --    3.30785   3.31871   3.34235   3.36368   3.38578
 Alpha virt. eigenvalues --    3.39034   3.39726   3.39990   3.41090   3.41486
 Alpha virt. eigenvalues --    3.41743   3.43726   3.45981   3.47530   3.49788
 Alpha virt. eigenvalues --    3.50238   3.54325   3.56851   3.59222   3.60923
 Alpha virt. eigenvalues --    3.64497   3.92692   4.01065   4.31449   4.37019
 Alpha virt. eigenvalues --   21.64908  21.77367  22.06326  22.10225  22.12628
 Alpha virt. eigenvalues --   22.13522  22.17402  22.20228  22.21701  22.28171
 Alpha virt. eigenvalues --   22.32011  31.92876  43.64604  43.66805
          Condensed to atoms (all electrons):
               1          2          3          4          5          6
     1  O    7.921508   0.000000  -0.000200   0.000017   0.016371   0.015924
     2  O    0.000000   8.073455   0.000587   0.000022  -0.176412   0.001791
     3  N   -0.000200   0.000587   6.348837   0.370116  -0.106834   0.377787
     4  H    0.000017   0.000022   0.370116   0.402550   0.012326  -0.039254
     5  C    0.016371  -0.176412  -0.106834   0.012326   7.158664  -0.040875
     6  C    0.015924   0.001791   0.377787  -0.039254  -0.040875   5.507582
     7  C    0.000125  -0.017978   0.364559  -0.045441   0.383451  -0.163657
     8  C   -0.000404   0.623142   0.003882  -0.001123  -0.457014   0.047079
     9  C    0.004290   0.025272   0.021981   0.001010  -0.690861  -0.067624
    10  H    0.008522  -0.000240  -0.000600  -0.000001  -0.108005   0.012428
    11  H    0.004998  -0.000053   0.001390   0.000020  -0.064538   0.008454
    12  C   -0.250209  -0.004087  -0.100748   0.019461   0.209104  -0.081388
    13  C    0.752093  -0.000000  -0.000560   0.000522   0.066262   0.072271
    14  C   -0.000011  -0.061459  -0.048247   0.000090  -0.019762  -0.002654
    15  H    0.000000   0.004791   0.004320  -0.000097   0.008919   0.004898
    16  H    0.000000   0.025606   0.003409   0.000738   0.007380  -0.000331
    17  H   -0.000000   0.001414  -0.003285   0.000537  -0.017010  -0.000290
    18  C   -0.000285  -0.091479  -0.000298   0.000016  -0.144577  -0.002135
    19  H    0.000002   0.001797   0.000009  -0.000001   0.007628   0.000040
    20  H    0.000776   0.006980   0.000083   0.000001   0.076220  -0.001447
    21  H    0.000009  -0.001458   0.000012  -0.000001  -0.011670   0.000109
    22  C   -0.131377   0.000000  -0.000131   0.000120   0.000653  -0.004374
    23  H    0.003068   0.000000   0.000152  -0.000031  -0.000227  -0.001127
    24  H    0.003412   0.000000   0.000156  -0.000025  -0.000199  -0.007121
    25  H    0.011288  -0.000000   0.000010  -0.000003  -0.000031  -0.002549
    26  C    0.000776   0.000010  -0.026701  -0.012317   0.001752   0.250749
    27  H   -0.000049  -0.000000  -0.002751   0.000704   0.000489  -0.040842
    28  H   -0.000042  -0.000000  -0.001615   0.000756   0.000367  -0.042421
    29  H    0.000013   0.000000   0.005002   0.002648  -0.000404  -0.051368
               7          8          9         10         11         12
     1  O    0.000125  -0.000404   0.004290   0.008522   0.004998  -0.250209
     2  O   -0.017978   0.623142   0.025272  -0.000240  -0.000053  -0.004087
     3  N    0.364559   0.003882   0.021981  -0.000600   0.001390  -0.100748
     4  H   -0.045441  -0.001123   0.001010  -0.000001   0.000020   0.019461
     5  C    0.383451  -0.457014  -0.690861  -0.108005  -0.064538   0.209104
     6  C   -0.163657   0.047079  -0.067624   0.012428   0.008454  -0.081388
     7  C    5.527177  -0.282947  -0.254937   0.012069   0.000060   0.054902
     8  C   -0.282947   5.699486   0.238856  -0.006819   0.002419  -0.091173
     9  C   -0.254937   0.238856   6.413194   0.530691   0.437582  -0.176110
    10  H    0.012069  -0.006819   0.530691   0.517455  -0.039088  -0.082086
    11  H    0.000060   0.002419   0.437582  -0.039088   0.543622  -0.034470
    12  C    0.054902  -0.091173  -0.176110  -0.082086  -0.034470   7.491240
    13  C    0.026480  -0.010412  -0.197851  -0.005661  -0.008308  -0.468016
    14  C    0.223984  -0.075645   0.016092   0.000342  -0.000871   0.005357
    15  H   -0.068470   0.006619  -0.000432  -0.000019   0.000102  -0.001270
    16  H   -0.048249  -0.021806   0.002207  -0.000060   0.000061  -0.000431
    17  H   -0.015866   0.005537  -0.000633   0.000073  -0.000029  -0.000055
    18  C    0.018016   0.300667  -0.013749  -0.003330  -0.012383   0.010896
    19  H   -0.000321  -0.032439  -0.002108   0.000415   0.000440  -0.000145
    20  H    0.005907  -0.128005  -0.017322  -0.006461  -0.000246   0.006104
    21  H   -0.000906  -0.010606  -0.002004   0.000267   0.000416  -0.001153
    22  C    0.001129  -0.000041   0.017966   0.000953   0.000979  -0.348696
    23  H   -0.000054   0.000005  -0.001497  -0.000149   0.000137   0.021731
    24  H   -0.000024   0.000002  -0.000123   0.000101  -0.000144   0.028639
    25  H    0.000011  -0.000001  -0.000016  -0.000088  -0.000034   0.028610
    26  C    0.006445   0.000884   0.016156   0.000055  -0.000304  -0.105584
    27  H   -0.001425  -0.000008   0.000251   0.000020  -0.000000  -0.003927
    28  H   -0.001095  -0.000005  -0.000609   0.000001   0.000011  -0.005865
    29  H    0.003832   0.000024  -0.000686   0.000007   0.000012   0.020720
              13         14         15         16         17         18
     1  O    0.752093  -0.000011   0.000000   0.000000  -0.000000  -0.000285
     2  O   -0.000000  -0.061459   0.004791   0.025606   0.001414  -0.091479
     3  N   -0.000560  -0.048247   0.004320   0.003409  -0.003285  -0.000298
     4  H    0.000522   0.000090  -0.000097   0.000738   0.000537   0.000016
     5  C    0.066262  -0.019762   0.008919   0.007380  -0.017010  -0.144577
     6  C    0.072271  -0.002654   0.004898  -0.000331  -0.000290  -0.002135
     7  C    0.026480   0.223984  -0.068470  -0.048249  -0.015866   0.018016
     8  C   -0.010412  -0.075645   0.006619  -0.021806   0.005537   0.300667
     9  C   -0.197851   0.016092  -0.000432   0.002207  -0.000633  -0.013749
    10  H   -0.005661   0.000342  -0.000019  -0.000060   0.000073  -0.003330
    11  H   -0.008308  -0.000871   0.000102   0.000061  -0.000029  -0.012383
    12  C   -0.468016   0.005357  -0.001270  -0.000431  -0.000055   0.010896
    13  C    5.485544  -0.000026  -0.000030   0.000004  -0.000022   0.000918
    14  C   -0.000026   5.248297   0.386251   0.418686   0.398548  -0.001678
    15  H   -0.000030   0.386251   0.573524  -0.023590  -0.030410   0.000144
    16  H    0.000004   0.418686  -0.023590   0.459232  -0.016354   0.000891
    17  H   -0.000022   0.398548  -0.030410  -0.016354   0.506803   0.000049
    18  C    0.000918  -0.001678   0.000144   0.000891   0.000049   5.187383
    19  H   -0.000016  -0.000011   0.000001   0.000067  -0.000011   0.405970
    20  H    0.002020   0.000389  -0.000019  -0.000133  -0.000005   0.405118
    21  H   -0.000050  -0.000220  -0.000006   0.000016   0.000019   0.397900
    22  C    0.348768   0.000018   0.000001   0.000000  -0.000001   0.000014
    23  H   -0.049341  -0.000000   0.000000  -0.000000  -0.000000  -0.000001
    24  H   -0.054164   0.000001  -0.000000   0.000000   0.000000   0.000001
    25  H   -0.050883   0.000000   0.000000  -0.000000  -0.000000   0.000000
    26  C   -0.043141  -0.000421  -0.000080   0.000031  -0.000093  -0.000018
    27  H   -0.000042  -0.000066   0.000016   0.000001  -0.000008  -0.000000
    28  H   -0.000070   0.000027  -0.000017  -0.000001   0.000006   0.000000
    29  H   -0.000292   0.000411   0.000051  -0.000002  -0.000004   0.000000
              19         20         21         22         23         24
     1  O    0.000002   0.000776   0.000009  -0.131377   0.003068   0.003412
     2  O    0.001797   0.006980  -0.001458   0.000000   0.000000   0.000000
     3  N    0.000009   0.000083   0.000012  -0.000131   0.000152   0.000156
     4  H   -0.000001   0.000001  -0.000001   0.000120  -0.000031  -0.000025
     5  C    0.007628   0.076220  -0.011670   0.000653  -0.000227  -0.000199
     6  C    0.000040  -0.001447   0.000109  -0.004374  -0.001127  -0.007121
     7  C   -0.000321   0.005907  -0.000906   0.001129  -0.000054  -0.000024
     8  C   -0.032439  -0.128005  -0.010606  -0.000041   0.000005   0.000002
     9  C   -0.002108  -0.017322  -0.002004   0.017966  -0.001497  -0.000123
    10  H    0.000415  -0.006461   0.000267   0.000953  -0.000149   0.000101
    11  H    0.000440  -0.000246   0.000416   0.000979   0.000137  -0.000144
    12  C   -0.000145   0.006104  -0.001153  -0.348696   0.021731   0.028639
    13  C   -0.000016   0.002020  -0.000050   0.348768  -0.049341  -0.054164
    14  C   -0.000011   0.000389  -0.000220   0.000018  -0.000000   0.000001
    15  H    0.000001  -0.000019  -0.000006   0.000001   0.000000  -0.000000
    16  H    0.000067  -0.000133   0.000016   0.000000  -0.000000   0.000000
    17  H   -0.000011  -0.000005   0.000019  -0.000001  -0.000000   0.000000
    18  C    0.405970   0.405118   0.397900   0.000014  -0.000001   0.000001
    19  H    0.504036  -0.029191  -0.015487  -0.000000   0.000000   0.000000
    20  H   -0.029191   0.547553  -0.020803   0.000058  -0.000001  -0.000001
    21  H   -0.015487  -0.020803   0.495278  -0.000001   0.000000   0.000000
    22  C   -0.000000   0.000058  -0.000001   5.462308   0.386829   0.390598
    23  H    0.000000  -0.000001   0.000000   0.386829   0.537873  -0.034271
    24  H    0.000000  -0.000001   0.000000   0.390598  -0.034271   0.535534
    25  H   -0.000000  -0.000000  -0.000000   0.381926  -0.013060  -0.012945
    26  C    0.000000  -0.000018   0.000001  -0.046239   0.001859  -0.000831
    27  H    0.000000   0.000000  -0.000000  -0.003657  -0.001380  -0.000444
    28  H   -0.000000   0.000000   0.000000  -0.004063  -0.001231  -0.001123
    29  H    0.000000  -0.000000   0.000000   0.002251   0.000299   0.000236
              25         26         27         28         29
     1  O    0.011288   0.000776  -0.000049  -0.000042   0.000013
     2  O   -0.000000   0.000010  -0.000000  -0.000000   0.000000
     3  N    0.000010  -0.026701  -0.002751  -0.001615   0.005002
     4  H   -0.000003  -0.012317   0.000704   0.000756   0.002648
     5  C   -0.000031   0.001752   0.000489   0.000367  -0.000404
     6  C   -0.002549   0.250749  -0.040842  -0.042421  -0.051368
     7  C    0.000011   0.006445  -0.001425  -0.001095   0.003832
     8  C   -0.000001   0.000884  -0.000008  -0.000005   0.000024
     9  C   -0.000016   0.016156   0.000251  -0.000609  -0.000686
    10  H   -0.000088   0.000055   0.000020   0.000001   0.000007
    11  H   -0.000034  -0.000304  -0.000000   0.000011   0.000012
    12  C    0.028610  -0.105584  -0.003927  -0.005865   0.020720
    13  C   -0.050883  -0.043141  -0.000042  -0.000070  -0.000292
    14  C    0.000000  -0.000421  -0.000066   0.000027   0.000411
    15  H    0.000000  -0.000080   0.000016  -0.000017   0.000051
    16  H   -0.000000   0.000031   0.000001  -0.000001  -0.000002
    17  H   -0.000000  -0.000093  -0.000008   0.000006  -0.000004
    18  C    0.000000  -0.000018  -0.000000   0.000000   0.000000
    19  H   -0.000000   0.000000   0.000000  -0.000000   0.000000
    20  H   -0.000000  -0.000018   0.000000   0.000000  -0.000000
    21  H   -0.000000   0.000001  -0.000000   0.000000   0.000000
    22  C    0.381926  -0.046239  -0.003657  -0.004063   0.002251
    23  H   -0.013060   0.001859  -0.001380  -0.001231   0.000299
    24  H   -0.012945  -0.000831  -0.000444  -0.001123   0.000236
    25  H    0.495063   0.002444   0.000127   0.000129  -0.000027
    26  C    0.002444   5.184999   0.427262   0.431181   0.385680
    27  H    0.000127   0.427262   0.499889  -0.033103  -0.018190
    28  H    0.000129   0.431181  -0.033103   0.501044  -0.019047
    29  H   -0.000027   0.385680  -0.018190  -0.019047   0.519440
 Mulliken charges:
               1
     1  O   -0.360614
     2  O   -0.411700
     3  N   -0.210324
     4  H    0.286640
     5  C   -0.111166
     6  C    0.250344
     7  C    0.273224
     8  C    0.189848
     9  C   -0.298984
    10  H    0.169205
    11  H    0.159762
    12  C   -0.141353
    13  C    0.134000
    14  C   -0.487421
    15  H    0.134802
    16  H    0.192628
    17  H    0.171090
    18  C   -0.458052
    19  H    0.159327
    20  H    0.152441
    21  H    0.170337
    22  C   -0.455994
    23  H    0.150419
    24  H    0.152735
    25  H    0.160028
    26  C   -0.474533
    27  H    0.177133
    28  H    0.176785
    29  H    0.149393
 Sum of Mulliken charges =  -0.00000
 Mulliken charges with hydrogens summed into heavy atoms:
               1
     1  O   -0.360614
     2  O   -0.411700
     3  N    0.076316
     5  C   -0.111166
     6  C    0.250344
     7  C    0.273224
     8  C    0.189848
     9  C    0.029983
    12  C   -0.141353
    13  C    0.134000
    14  C    0.011100
    18  C    0.024053
    22  C    0.007188
    26  C    0.028777
 Electronic spatial extent (au):  <R**2>=           3222.6676
 Charge=             -0.0000 electrons
 Dipole moment (field-independent basis, Debye):
    X=              4.3009    Y=              7.2307    Z=             -0.1234  Tot=              8.4140
 Quadrupole moment (field-independent basis, Debye-Ang):
   XX=            -99.3015   YY=            -78.7641   ZZ=            -84.2665
   XY=             13.2568   XZ=              1.3046   YZ=             -0.1847
 Traceless Quadrupole moment (field-independent basis, Debye-Ang):
   XX=            -11.8574   YY=              8.6799   ZZ=              3.1775
   XY=             13.2568   XZ=              1.3046   YZ=             -0.1847
 Octapole moment (field-independent basis, Debye-Ang**2):
  XXX=            116.4746  YYY=             62.6414  ZZZ=              1.6426  XYY=            -36.6268
  XXY=             27.6332  XXZ=             -4.3496  XZZ=              0.6137  YZZ=             -1.5470
  YYZ=              0.6086  XYZ=             -0.8666
 Hexadecapole moment (field-independent basis, Debye-Ang**3):
 XXXX=          -3163.9503 YYYY=          -1285.1639 ZZZZ=           -124.3807 XXXY=             45.4644
 XXXZ=             24.5400 YYYX=             94.3032 YYYZ=             -5.1128 ZZZX=             -3.3685
 ZZZY=              0.8737 XXYY=           -688.0780 XXZZ=           -482.1258 YYZZ=           -236.6457
 XXYZ=              1.6946 YYXZ=             -0.9776 ZZXY=              2.9415
 N-N= 8.996648903356D+02 E-N=-3.275342737008D+03  KE= 6.307015514215D+02
 Leave Link  601 at Fri Jan 23 15:44:29 2026, MaxMem=  2147483648 cpu:               0.7 elap:               0.1
 (Enter /data/home/wyx/g16/l9999.exe)
 Electronic transition elements 
                 1             2             3             4             5 
      1  -0.633197D+03 -0.633187D+03 -0.633163D+03 -0.633129D+03 -0.633114D+03
      2   0.144966D+01 -0.251504D+00 -0.223588D-02  0.484731D+00 -0.226975D+00
      3   0.479591D+00 -0.557687D-01 -0.261541D-01 -0.126304D+01  0.140294D+01
      4   0.187337D+00  0.614747D-02  0.360370D-01  0.112552D+00 -0.473371D-01
      5  -0.170347D+00  0.324849D-01 -0.416588D-03 -0.805051D-01  0.458781D-01
      6  -0.576183D-01  0.762910D-02  0.394081D-02  0.224567D+00 -0.279169D+00
      7  -0.220829D-01  0.865905D-03 -0.232885D-02 -0.180171D-01  0.945335D-02
      8  -0.103571D+00  0.831666D+00 -0.340616D+00 -0.207935D-01 -0.684790D-01
      9   0.982381D-02  0.265274D-02  0.877208D+00 -0.578540D-02  0.177566D-02
     10   0.143980D+01 -0.229546D+00 -0.270696D-01  0.367840D+00 -0.323311D+00
     11  -0.473156D-01 -0.757157D-03  0.738142D-02 -0.119389D+01  0.687441D+00
     12   0.239476D+00 -0.646041D-01  0.823046D-02  0.199761D+00 -0.293082D+00
     13  -0.161522D-01  0.627942D-02 -0.260072D-01  0.122006D-01 -0.230892D-01
     14   0.502818D+00 -0.927846D-01  0.134770D-02 -0.322864D+00  0.405425D+00
     15  -0.236846D-01  0.217839D-01 -0.699960D-01 -0.146429D+00  0.100624D+00
     16   0.600206D-01  0.343131D-01 -0.221867D-01 -0.439031D-01  0.128416D-01
                 6 
      1  -0.633094D+03
      2  -0.297269D-01
      3   0.721130D-01
      4   0.386486D-01
      5   0.763835D-02
      6  -0.149970D-01
      7  -0.282592D-01
      8  -0.456885D-01
      9  -0.836647D-02
     10  -0.266236D-01
     11  -0.315164D-01
     12  -0.444361D-01
     13   0.331442D-01
     14  -0.129984D-01
     15  -0.165936D-01
     16   0.305415D-01
 1\1\GINC-CN013\SP\RCAM-B3LYP TD-FC\TZVP\C11H15N1O2\WYX\23-Jan-2026\0\\
 #p CAM-B3LYP TZVP em=gd3bj td(nstates=6,root=1) scrf=(Solvent=TetraHyd
 roFuran)\\Title Card Required\\0,1\O,0,2.801652,-1.576247,0.37424\O,0,
 -3.444919,-1.650135,-0.345325\N,0,-0.649824,1.523349,-0.165338\H,0,-0.
 967504,2.477091,-0.206537\C,0,-1.242198,-0.764675,-0.190616\C,0,0.6790
 3,1.310344,0.053458\C,0,-1.617567,0.53965,-0.254032\C,0,-2.187546,-1.8
 2399,-0.264223\C,0,0.213322,-1.130384,-0.058809\H,0,0.346963,-1.809359
 ,0.78582\H,0,0.540087,-1.684075,-0.944209\C,0,1.145473,0.040392,0.1258
 38\C,0,2.517422,-0.379101,0.362302\C,0,-2.994568,1.075846,-0.403102\H,
 0,-3.011839,1.928055,-1.087779\H,0,-3.701328,0.348882,-0.797621\H,0,-3
 .39656,1.405749,0.558009\C,0,-1.80273,-3.27243,-0.260862\H,0,-2.346136
 ,-3.887441,-0.980705\H,0,-0.747596,-3.439197,-0.470265\H,0,-1.981172,-
 3.717793,0.722885\C,0,3.640052,0.594542,0.605705\H,0,3.814164,1.254356
 ,-0.242419\H,0,3.477075,1.218102,1.483071\H,0,4.533252,-0.005019,0.764
 951\C,0,1.446157,2.58722,0.183218\H,0,1.897091,2.700666,1.166588\H,0,2
 .235181,2.678103,-0.559499\H,0,0.804564,3.457499,0.045253\\Version=ES6
 4L-G16RevA.03\State=1-A\HF=-633.3179385\RMSD=6.090e-09\PG=C01 [X(C11H1
 5N1O2)]\\@


 I MET A TRAVELLER FROM AN ANTIQUE LAND
 WHO SAID... TWO VAST AND TRUNKLESS LEGS OF STONE
 STAND IN THE DESERT..... NEAR THEM,  ON THE SAND,
 HALF SUNK,  A SHATTERED VISAGE LIES,  WHOSE FROWN,
 AND WRINKLED LIP,  AND SNEER OF COLD COMMAND
 TELL THAT ITS SCULPTOR WELL THOSE PASSIONS READ
 WHICH YET SURVIVE,  STAMPED ON THESE LIFELESS THINGS
 THE HAND THAT MOCKED THEM,  AND THE HEART THAT FED-
 AND ON THE PEDESTAL THESE WORDS APPEAR 
 MY NAME IS OZYMANDIAS, KING OF KINGS--   
 LOOK ON MY WORKS YE MIGHTY AND DESPAIR. 
 NOTHING BESIDE REMAINS,  ROUND THE DECAY 
 OF THAT COLOSSAL WRECK,  BOUNDLESS AND BARE
 THE LONE AND LEVEL SANDS STRETCH FAR AWAY.
                                    SHELLEY
 Job cpu time:       0 days  0 hours 49 minutes 56.5 seconds.
 Elapsed time:       0 days  0 hours  3 minutes  8.5 seconds.
 File lengths (MBytes):  RWF=    830 Int=      0 D2E=      0 Chk=     34 Scr=      1
 Normal termination of Gaussian 16 at Fri Jan 23 15:44:31 2026.
