 Entering Gaussian System, Link 0=g16
 Input=DDL-S1-cLR-12.gjf
 Output=DDL-S1-cLR-12.log
 Initial command:
 /data/home/wyx/g16/l1.exe "/scr/tmp/wyx/13109/Gau-1697805.inp" -scrdir="/scr/tmp/wyx/13109/"
 Entering Link 1 = /data/home/wyx/g16/l1.exe PID=   1697806.
  
 Copyright (c) 1988,1990,1992,1993,1995,1998,2003,2009,2016,
            Gaussian, Inc.  All Rights Reserved.
  
 This is part of the Gaussian(R) 16 program.  It is based on
 the Gaussian(R) 09 system (copyright 2009, Gaussian, Inc.),
 the Gaussian(R) 03 system (copyright 2003, Gaussian, Inc.),
 the Gaussian(R) 98 system (copyright 1998, Gaussian, Inc.),
 the Gaussian(R) 94 system (copyright 1995, Gaussian, Inc.),
 the Gaussian 92(TM) system (copyright 1992, Gaussian, Inc.),
 the Gaussian 90(TM) system (copyright 1990, Gaussian, Inc.),
 the Gaussian 88(TM) system (copyright 1988, Gaussian, Inc.),
 the Gaussian 86(TM) system (copyright 1986, Carnegie Mellon
 University), and the Gaussian 82(TM) system (copyright 1983,
 Carnegie Mellon University). Gaussian is a federally registered
 trademark of Gaussian, Inc.
  
 This software contains proprietary and confidential information,
 including trade secrets, belonging to Gaussian, Inc.
  
 This software is provided under written license and may be
 used, copied, transmitted, or stored only in accord with that
 written license.
  
 The following legend is applicable only to US Government
 contracts under FAR:
  
                    RESTRICTED RIGHTS LEGEND
  
 Use, reproduction and disclosure by the US Government is
 subject to restrictions as set forth in subparagraphs (a)
 and (c) of the Commercial Computer Software - Restricted
 Rights clause in FAR 52.227-19.
  
 Gaussian, Inc.
 340 Quinnipiac St., Bldg. 40, Wallingford CT 06492
  
  
 ---------------------------------------------------------------
 Warning -- This program may not be used in any manner that
 competes with the business of Gaussian, Inc. or will provide
 assistance to any competitor of Gaussian, Inc.  The licensee
 of this program is prohibited from giving any competitor of
 Gaussian, Inc. access to this program.  By using this program,
 the user acknowledges that Gaussian, Inc. is engaged in the
 business of creating and licensing software in the field of
 computational chemistry and represents and warrants to the
 licensee that it is not a competitor of Gaussian, Inc. and that
 it will not use this program in any manner prohibited above.
 ---------------------------------------------------------------
  

 Cite this work as:
 Gaussian 16, Revision A.03,
 M. J. Frisch, G. W. Trucks, H. B. Schlegel, G. E. Scuseria, 
 M. A. Robb, J. R. Cheeseman, G. Scalmani, V. Barone, 
 G. A. Petersson, H. Nakatsuji, X. Li, M. Caricato, A. V. Marenich, 
 J. Bloino, B. G. Janesko, R. Gomperts, B. Mennucci, H. P. Hratchian, 
 J. V. Ortiz, A. F. Izmaylov, J. L. Sonnenberg, D. Williams-Young, 
 F. Ding, F. Lipparini, F. Egidi, J. Goings, B. Peng, A. Petrone, 
 T. Henderson, D. Ranasinghe, V. G. Zakrzewski, J. Gao, N. Rega, 
 G. Zheng, W. Liang, M. Hada, M. Ehara, K. Toyota, R. Fukuda, 
 J. Hasegawa, M. Ishida, T. Nakajima, Y. Honda, O. Kitao, H. Nakai, 
 T. Vreven, K. Throssell, J. A. Montgomery, Jr., J. E. Peralta, 
 F. Ogliaro, M. J. Bearpark, J. J. Heyd, E. N. Brothers, K. N. Kudin, 
 V. N. Staroverov, T. A. Keith, R. Kobayashi, J. Normand, 
 K. Raghavachari, A. P. Rendell, J. C. Burant, S. S. Iyengar, 
 J. Tomasi, M. Cossi, J. M. Millam, M. Klene, C. Adamo, R. Cammi, 
 J. W. Ochterski, R. L. Martin, K. Morokuma, O. Farkas, 
 J. B. Foresman, and D. J. Fox, Gaussian, Inc., Wallingford CT, 2016.
 
 ******************************************
 Gaussian 16:  ES64L-G16RevA.03 25-Dec-2016
                23-Jan-2026 
 ******************************************
 %nprocshared=16
 Will use up to   16 processors via shared memory.
 %mem=16GB
 %oldchk=DDL-LR-12.chk
 %chk=DDL-S1-cLR-12.chk
 Copying data from "DDL-LR-12.chk" to current chk file "DDL-S1-cLR-12.chk"
 IOpt=  2 FromEx=T IUOpen= 4 IOptOp= 5 NList=   0 IFRang= 0 IUIn= 4 IUOut= 2.
 ----------------------------------------------------------------------
 #p CAM-B3LYP TZVP em=gd3bj td(nstates=6,root=1) scrf=(Solvent=TetraHyd
 roFuran,CorrectedLR,NonEquilibrium=Save) Geom=Check Guess=Read
 ----------------------------------------------------------------------
 1/29=2,30=1,38=1,172=1/1;
 2/12=2,40=1/2;
 3/5=19,7=101,11=9,14=-4,25=1,30=1,70=9002201,71=1,72=20,74=-40,116=-2,124=41/1,2,3,8;
 4/5=1/1;
 5/5=2,38=6,53=20/2;
 8/6=1,10=1,107=1,108=6/1;
 9/8=1,15=1,41=6,42=1,70=2,73=22/14;
 10/5=4,13=10,28=1,74=20/2;
 6/7=2,8=2,9=2,10=2,22=-1/1;
 99/5=1,9=1/99;
 Leave Link    1 at Fri Jan 23 21:01:33 2026, MaxMem=  2147483648 cpu:               0.8 elap:               0.1
 (Enter /data/home/wyx/g16/l101.exe)
 -------------------
 Title Card Required
 -------------------
 Structure from the checkpoint file:  "DDL-S1-cLR-12.chk"
 Charge =  0 Multiplicity = 1
 Z-Matrix found in chk file.
 O,0,2.819342,-1.57439,0.247554
 O,0,-3.44158,-1.632031,-0.071868
 N,0,-0.637781,1.516419,-0.299111
 H,0,-0.949276,2.472238,-0.344617
 C,0,-1.2404,-0.75786,-0.21093
 C,0,0.693344,1.301132,-0.04722
 C,0,-1.612101,0.541111,-0.281014
 C,0,-2.216329,-1.822693,-0.159665
 C,0,0.221441,-1.122528,-0.250725
 H,0,0.429608,-1.910154,0.472051
 H,0,0.480829,-1.54602,-1.22824
 C,0,1.148525,0.031837,0.038584
 C,0,2.512634,-0.389126,0.340325
 C,0,-2.999784,1.078575,-0.333808
 H,0,-3.017206,2.064162,-0.802629
 H,0,-3.677981,0.43833,-0.891673
 H,0,-3.418927,1.171933,0.669145
 C,0,-1.766752,-3.25347,-0.2225
 H,0,-2.557463,-3.932951,-0.537597
 H,0,-0.926863,-3.40827,-0.900771
 H,0,-1.429563,-3.598137,0.759472
 C,0,3.578928,0.568929,0.802995
 H,0,3.959841,1.171474,-0.021782
 H,0,3.245195,1.246368,1.585396
 H,0,4.397099,-0.039236,1.181679
 C,0,1.455575,2.57926,0.098698
 H,0,1.651134,2.815355,1.144713
 H,0,2.40415,2.569574,-0.427339
 H,0,0.894362,3.420169,-0.309122
 Recover connectivity data from disk.
 ITRead=  0  0  0  0  0  0  0  0  0  0  0  0  0  0  0  0  0  0  0  0
 ITRead=  0  0  0  0  0  0  0  0  0
 MicOpt= -1 -1 -1 -1 -1 -1 -1 -1 -1 -1 -1 -1 -1 -1 -1 -1 -1 -1 -1 -1
 MicOpt= -1 -1 -1 -1 -1 -1 -1 -1 -1
 NAtoms=     29 NQM=       29 NQMF=       0 NMMI=      0 NMMIF=      0
                NMic=       0 NMicF=      0.
                    Isotopes and Nuclear Properties:
 (Nuclear quadrupole moments (NQMom) in fm**2, nuclear magnetic moments (NMagM)
  in nuclear magnetons)

  Atom         1           2           3           4           5           6           7           8           9          10
 IAtWgt=          16          16          14           1          12          12          12          12          12           1
 AtmWgt=  15.9949146  15.9949146  14.0030740   1.0078250  12.0000000  12.0000000  12.0000000  12.0000000  12.0000000   1.0078250
 NucSpn=           0           0           2           1           0           0           0           0           0           1
 AtZEff=   5.6000000   5.6000000   4.5500000   1.0000000   3.6000000   3.6000000   3.6000000   3.6000000   3.6000000   1.0000000
 NQMom=    0.0000000   0.0000000   2.0440000   0.0000000   0.0000000   0.0000000   0.0000000   0.0000000   0.0000000   0.0000000
 NMagM=    0.0000000   0.0000000   0.4037610   2.7928460   0.0000000   0.0000000   0.0000000   0.0000000   0.0000000   2.7928460
 AtZNuc=   8.0000000   8.0000000   7.0000000   1.0000000   6.0000000   6.0000000   6.0000000   6.0000000   6.0000000   1.0000000

  Atom        11          12          13          14          15          16          17          18          19          20
 IAtWgt=           1          12          12          12           1           1           1          12           1           1
 AtmWgt=   1.0078250  12.0000000  12.0000000  12.0000000   1.0078250   1.0078250   1.0078250  12.0000000   1.0078250   1.0078250
 NucSpn=           1           0           0           0           1           1           1           0           1           1
 AtZEff=   1.0000000   3.6000000   3.6000000   3.6000000   1.0000000   1.0000000   1.0000000   3.6000000   1.0000000   1.0000000
 NQMom=    0.0000000   0.0000000   0.0000000   0.0000000   0.0000000   0.0000000   0.0000000   0.0000000   0.0000000   0.0000000
 NMagM=    2.7928460   0.0000000   0.0000000   0.0000000   2.7928460   2.7928460   2.7928460   0.0000000   2.7928460   2.7928460
 AtZNuc=   1.0000000   6.0000000   6.0000000   6.0000000   1.0000000   1.0000000   1.0000000   6.0000000   1.0000000   1.0000000

  Atom        21          22          23          24          25          26          27          28          29
 IAtWgt=           1          12           1           1           1          12           1           1           1
 AtmWgt=   1.0078250  12.0000000   1.0078250   1.0078250   1.0078250  12.0000000   1.0078250   1.0078250   1.0078250
 NucSpn=           1           0           1           1           1           0           1           1           1
 AtZEff=   1.0000000   3.6000000   1.0000000   1.0000000   1.0000000   3.6000000   1.0000000   1.0000000   1.0000000
 NQMom=    0.0000000   0.0000000   0.0000000   0.0000000   0.0000000   0.0000000   0.0000000   0.0000000   0.0000000
 NMagM=    2.7928460   0.0000000   2.7928460   2.7928460   2.7928460   0.0000000   2.7928460   2.7928460   2.7928460
 AtZNuc=   1.0000000   6.0000000   1.0000000   1.0000000   1.0000000   6.0000000   1.0000000   1.0000000   1.0000000
 Leave Link  101 at Fri Jan 23 21:01:36 2026, MaxMem=  2147483648 cpu:               0.9 elap:               0.1
 (Enter /data/home/wyx/g16/l202.exe)
                          Input orientation:                          
 ---------------------------------------------------------------------
 Center     Atomic      Atomic             Coordinates (Angstroms)
 Number     Number       Type             X           Y           Z
 ---------------------------------------------------------------------
      1          8           0        2.819342   -1.574390    0.247554
      2          8           0       -3.441580   -1.632031   -0.071868
      3          7           0       -0.637781    1.516419   -0.299111
      4          1           0       -0.949276    2.472238   -0.344617
      5          6           0       -1.240400   -0.757860   -0.210930
      6          6           0        0.693344    1.301132   -0.047220
      7          6           0       -1.612101    0.541111   -0.281014
      8          6           0       -2.216329   -1.822693   -0.159665
      9          6           0        0.221441   -1.122528   -0.250725
     10          1           0        0.429608   -1.910154    0.472051
     11          1           0        0.480829   -1.546020   -1.228240
     12          6           0        1.148525    0.031837    0.038584
     13          6           0        2.512634   -0.389126    0.340325
     14          6           0       -2.999784    1.078575   -0.333808
     15          1           0       -3.017206    2.064162   -0.802629
     16          1           0       -3.677981    0.438330   -0.891673
     17          1           0       -3.418927    1.171933    0.669145
     18          6           0       -1.766752   -3.253470   -0.222500
     19          1           0       -2.557463   -3.932951   -0.537597
     20          1           0       -0.926863   -3.408270   -0.900771
     21          1           0       -1.429563   -3.598137    0.759472
     22          6           0        3.578928    0.568929    0.802995
     23          1           0        3.959841    1.171474   -0.021782
     24          1           0        3.245195    1.246368    1.585396
     25          1           0        4.397099   -0.039236    1.181679
     26          6           0        1.455575    2.579260    0.098698
     27          1           0        1.651134    2.815355    1.144713
     28          1           0        2.404150    2.569574   -0.427339
     29          1           0        0.894362    3.420169   -0.309122
 ---------------------------------------------------------------------
                    Distance matrix (angstroms):
                    1          2          3          4          5
     1  O    0.000000
     2  O    6.269330   0.000000
     3  N    4.669437   4.222045   0.000000
     4  H    5.561326   4.809469   1.006325   0.000000
     5  C    4.166345   2.372490   2.354415   3.245945   0.000000
     6  C    3.588229   5.069679   1.371748   2.039150   2.829420
     7  C    4.938868   2.848382   1.378714   2.042703   1.352922
     8  C    5.058208   1.243101   3.696069   4.481748   1.445315
     9  C    2.683571   3.702608   2.775724   3.781764   1.507165
    10  H    2.423626   3.919094   3.670887   4.666222   2.140834
    11  H    2.765396   4.090218   3.390148   4.355730   2.149127
    12  C    2.327072   4.883618   2.347107   3.240859   2.528407
    13  C    1.227814   6.096506   3.736990   4.543277   3.811182
    14  C    6.421716   2.758837   2.402492   2.479314   2.546178
    15  H    6.957531   3.791563   2.493034   2.156997   3.386880
    16  H    6.896672   2.239277   3.279668   3.447011   2.799300
    17  H    6.829058   2.900315   2.964956   2.969458   3.040496
    18  C    4.906375   2.335980   4.902274   5.785059   2.550539
    19  H    5.923623   2.508545   5.782533   6.606811   3.452907
    20  H    4.326178   3.188402   4.969721   5.906791   2.756603
    21  H    4.734005   2.933413   5.282632   6.188630   3.007430
    22  C    2.340791   7.409261   4.460158   5.044227   5.100425
    23  H    2.985473   7.914745   4.618877   5.088776   5.549830
    24  H    3.150849   7.466235   4.324557   4.777164   5.231088
    25  H    2.391360   8.096497   5.473830   6.100886   5.851254
    26  C    4.374337   6.461129   2.381181   2.447711   4.301223
    27  H    4.630277   6.869865   3.001832   3.016283   4.792348
    28  H    4.219040   7.207802   3.221633   3.355858   4.939777
    29  H    5.381548   6.661937   2.443732   2.073363   4.692843
                    6          7          8          9         10
     6  C    0.000000
     7  C    2.438723   0.000000
     8  C    4.270495   2.442823   0.000000
     9  C    2.477546   2.475982   2.537961   0.000000
    10  H    3.263672   3.277863   2.721708   1.089079   0.000000
    11  H    3.089700   3.103822   2.914286   1.096432   1.739600
    12  C    1.351171   2.825342   3.847184   1.508557   2.115671
    13  C    2.513360   4.273739   4.966709   2.477253   2.582610
    14  C    3.710911   1.489066   3.010230   3.902313   4.619809
    15  H    3.862776   2.136840   4.020255   4.576945   5.412996
    16  H    4.534976   2.156694   2.790069   4.248833   4.924166
    17  H    4.176200   2.136670   3.331809   4.400340   4.934504
    18  C    5.179498   3.798182   1.501063   2.914553   2.666626
    19  H    6.180926   4.580041   2.170805   3.962711   3.746157
    20  H    5.052929   4.056015   2.173940   2.639276   2.443155
    21  H    5.400030   4.271921   2.148491   3.142444   2.527531
    22  C    3.096059   5.303078   6.342836   3.904366   4.021641
    23  H    3.269168   5.613475   6.865065   4.392095   4.711990
    24  H    3.029914   5.251114   6.503277   4.257475   4.373865
    25  H    4.126085   6.211824   6.979782   4.545484   4.443522
    26  C    1.495292   3.702549   5.738190   3.917706   4.620264
    27  H    2.151961   4.225350   6.178200   4.415676   4.926970
    28  H    2.163398   4.501816   6.380634   4.292671   4.977518
    29  H    2.144602   3.817345   6.098060   4.592639   5.407270
                   11         12         13         14         15
    11  H    0.000000
    12  C    2.130796   0.000000
    13  C    2.815498   1.459127   0.000000
    14  C    4.450076   4.294509   5.744158   0.000000
    15  H    5.044879   4.710764   6.156630   1.091549   0.000000
    16  H    4.620241   4.932117   6.366020   1.086774   1.757237
    17  H    5.118148   4.749636   6.142348   1.091014   1.767363
    18  C    2.996418   4.400028   5.180191   4.505482   5.493396
    19  H    3.925003   5.457644   6.247826   5.035134   6.020546
    20  H    2.357288   4.126010   4.741908   4.974960   5.858897
    21  H    3.436827   4.510314   5.100427   5.052968   6.084604
    22  C    4.265811   2.603776   1.506292   6.695634   6.951456
    23  H    4.576444   3.034125   2.158935   6.967236   7.077132
    24  H    4.832773   2.874672   2.182129   6.535385   6.751971
    25  H    4.838934   3.444554   2.093205   7.632829   7.958246
    26  C    4.441715   2.566565   3.160233   4.721159   4.591676
    27  H    5.101187   3.037122   3.414370   5.180103   5.113690
    28  H    4.612886   2.869458   3.058592   5.606633   5.457782
    29  H    5.067427   3.415595   4.189429   4.544012   4.169253
                   16         17         18         19         20
    16  H    0.000000
    17  H    1.743971   0.000000
    18  C    4.210698   4.807172   0.000000
    19  H    4.526481   5.315843   1.089130   0.000000
    20  H    4.729172   5.445482   1.090609   1.751012   0.000000
    21  H    4.906601   5.169071   1.093966   1.751184   1.745040
    22  C    7.453300   7.025063   6.651216   7.727833   6.246846
    23  H    7.722081   7.411046   7.239771   8.294364   6.754743
    24  H    7.397240   6.727227   6.973998   8.062461   6.727016
    25  H    8.350675   7.925900   7.091973   8.153702   6.635628
    26  C    5.649585   5.105561   6.671379   7.675822   6.521155
    27  H    6.180338   5.350936   7.098018   8.129089   7.040141
    28  H    6.461434   6.088013   7.165628   8.180012   6.859621
    29  H    5.489722   4.961455   7.185158   8.126233   7.091861
                   21         22         23         24         25
    21  H    0.000000
    22  C    6.515467   0.000000
    23  H    7.239145   1.090143   0.000000
    24  H    6.782680   1.087406   1.760497   0.000000
    25  H    6.840616   1.087506   1.762195   1.772752   0.000000
    26  C    6.849882   3.007672   2.875365   2.681345   4.084352
    27  H    7.125446   2.979864   3.064830   2.279682   3.961108
    28  H    7.358433   2.626101   2.130571   2.551339   3.656046
    29  H    7.469882   4.071028   3.812657   3.720353   5.143845
                   26         27         28         29
    26  C    0.000000
    27  H    1.090014   0.000000
    28  H    1.084713   1.760338   0.000000
    29  H    1.090140   1.747038   1.736936   0.000000
 Stoichiometry    C11H15NO2
 Framework group  C1[X(C11H15NO2)]
 Deg. of freedom    81
 Full point group                 C1      NOp   1
 RotChk:  IX=0 Diff= 6.08D-16
 Largest Abelian subgroup         C1      NOp   1
 Largest concise Abelian subgroup C1      NOp   1
                         Standard orientation:                         
 ---------------------------------------------------------------------
 Center     Atomic      Atomic             Coordinates (Angstroms)
 Number     Number       Type             X           Y           Z
 ---------------------------------------------------------------------
      1          8           0        2.271672   -2.297444   -0.117220
      2          8           0       -3.628211   -0.225069    0.331272
      3          7           0        0.038685    1.802893   -0.185363
      4          1           0        0.068976    2.808724   -0.176576
      5          6           0       -1.290164   -0.136731   -0.061716
      6          6           0        1.235564    1.137906   -0.101911
      7          6           0       -1.201703    1.213294   -0.064271
      8          6           0       -2.558965   -0.811827    0.091006
      9          6           0       -0.054144   -0.969445   -0.286189
     10          1           0       -0.049374   -1.821150    0.392538
     11          1           0       -0.063475   -1.398891   -1.294977
     12          6           0        1.236886   -0.213237   -0.093485
     13          6           0        2.399848   -1.085490    0.031995
     14          6           0       -2.319674    2.188737    0.062103
     15          1           0       -2.051023    3.147738   -0.384689
     16          1           0       -3.232345    1.847285   -0.419062
     17          1           0       -2.569335    2.360243    1.110228
     18          6           0       -2.634239   -2.304351   -0.050054
     19          1           0       -3.638762   -2.658681   -0.277186
     20          1           0       -1.977181   -2.693859   -0.828505
     21          1           0       -2.329517   -2.798011    0.877418
     22          6           0        3.772852   -0.570581    0.376444
     23          1           0        4.243742   -0.085356   -0.478676
     24          1           0        3.778048    0.133736    1.204914
     25          1           0        4.370680   -1.439342    0.642011
     26          6           0        2.399210    2.074149   -0.029271
     27          1           0        2.776850    2.170352    0.988699
     28          1           0        3.223912    1.775720   -0.667558
     29          1           0        2.117493    3.076797   -0.351355
 ---------------------------------------------------------------------
 Rotational constants (GHZ):           1.0920528           0.4878553           0.3437687
 Leave Link  202 at Fri Jan 23 21:01:36 2026, MaxMem=  2147483648 cpu:               0.0 elap:               0.0
 (Enter /data/home/wyx/g16/l301.exe)
 Standard basis: TZVP (5D, 7F)
 Ernie: Thresh=  0.10000D-02 Tol=  0.10000D-05 Strict=F.
 There are   370 symmetry adapted cartesian basis functions of A   symmetry.
 There are   356 symmetry adapted basis functions of A   symmetry.
   356 basis functions,   610 primitive gaussians,   370 cartesian basis functions
    52 alpha electrons       52 beta electrons
       nuclear repulsion energy       900.7132554696 Hartrees.
 IExCor=20419 DFT=T Ex+Corr=CAM-B3LYP ExCW=0 ScaHFX=  1.000000
 ScaDFX=  1.000000  1.000000  1.000000  0.810000 ScalE2=  1.000000  1.000000
 IRadAn=      5 IRanWt=     -1 IRanGd=            0 ICorTp=0 IEmpDi=141
 HFx  wShort=  0.000000 wLong=  0.330000 cFull=  0.190000 cShort=  0.000000 cLong=  0.460000
 DFx  wShort=  0.000000 wLong=  0.330000 cFull=  0.190000 cShort=  0.000000 cLong=  0.460000
 NAtoms=   29 NActive=   29 NUniq=   29 SFac= 1.00D+00 NAtFMM=   60 NAOKFM=F Big=F
 Integral buffers will be    131072 words long.
 Raffenetti 1 integral format.
 Two-electron integral symmetry is turned on.
 R6Disp:  Grimme-D3(BJ) Dispersion energy=       -0.0261728949 Hartrees.
 Nuclear repulsion after empirical dispersion term =      900.6870825747 Hartrees.
 ------------------------------------------------------------------------------
 Polarizable Continuum Model (PCM)
 =================================
 Model                : PCM.
 Atomic radii         : UFF (Universal Force Field).
 Polarization charges : Total charges.
 Charge compensation  : None.
 Solution method      : On-the-fly selection.
 Cavity type          : Scaled VdW (van der Waals Surface) (Alpha=1.100).
 Cavity algorithm     : GePol (No added spheres)
                        Default sphere list used, NSphG=   29.
                        Lebedev-Laikov grids with approx.  5.0 points / Ang**2.
                        Smoothing algorithm: York/Karplus (Gamma=1.0000).
                        Polarization charges: spherical gaussians, with
                                              point-specific exponents (IZeta= 3).
                        Self-potential: point-specific (ISelfS= 7).
                        Self-field    : sphere-specific E.n sum rule (ISelfD= 2).
 1st derivatives      : Analytical E(r).r(x)/FMM algorithm (CHGder, D1EAlg=3).
                        Cavity 1st derivative terms included.
 Solvent              : TetraHydroFuran, Eps=   7.425700 Eps(inf)=   1.974025
 ------------------------------------------------------------------------------
 GePol: Number of generator spheres                  =      29
 GePol: Total number of spheres                      =      29
 GePol: Number of exposed spheres                    =      29 (100.00%)
 GePol: Number of points                             =    2109
 GePol: Average weight of points                     =       0.13
 GePol: Minimum weight of points                     =   0.20D-08
 GePol: Maximum weight of points                     =    0.20577
 GePol: Number of points with low weight             =     142
 GePol: Fraction of low-weight points (<1% of avg)   =       6.73%
 GePol: Cavity surface area                          =    268.487 Ang**2
 GePol: Cavity volume                                =    286.210 Ang**3
 Leave Link  301 at Fri Jan 23 21:01:36 2026, MaxMem=  2147483648 cpu:               0.6 elap:               0.0
 (Enter /data/home/wyx/g16/l302.exe)
 NPDir=0 NMtPBC=     1 NCelOv=     1 NCel=       1 NClECP=     1 NCelD=      1
         NCelK=      1 NCelE2=     1 NClLst=     1 CellRange=     0.0.
 One-electron integrals computed using PRISM.
 One-electron integral symmetry used in STVInt
 NBasis=   356 RedAO= T EigKep=  4.19D-05  NBF=   356
 NBsUse=   356 1.00D-06 EigRej= -1.00D+00 NBFU=   356
 Precomputing XC quadrature grid using
 IXCGrd= 4 IRadAn=           5 IRanWt=          -1 IRanGd=           0 AccXCQ= 0.00D+00.
 Generated NRdTot=       0 NPtTot=           0 NUsed=           0 NTot=          32
 NSgBfM=   366   366   366   366   366 MxSgAt=    29 MxSgA2=    29.
 Leave Link  302 at Fri Jan 23 21:01:37 2026, MaxMem=  2147483648 cpu:               3.2 elap:               0.2
 (Enter /data/home/wyx/g16/l303.exe)
 DipDrv:  MaxL=1.
 Leave Link  303 at Fri Jan 23 21:01:37 2026, MaxMem=  2147483648 cpu:               0.6 elap:               0.0
 (Enter /data/home/wyx/g16/l308.exe)
 Leave Link  308 at Fri Jan 23 21:01:37 2026, MaxMem=  2147483648 cpu:               0.7 elap:               0.1
 (Enter /data/home/wyx/g16/l401.exe)
 Initial guess from the checkpoint file:  "DDL-S1-cLR-12.chk"
 B after Tr=     0.000000    0.000000   -0.000000
         Rot=    1.000000   -0.000000   -0.000000   -0.000000 Ang=   0.00 deg.
 Guess basis will be translated and rotated to current coordinates.
 JPrj=2 DoOrth=T DoCkMO=T.
 Leave Link  401 at Fri Jan 23 21:01:38 2026, MaxMem=  2147483648 cpu:               2.2 elap:               0.2
 (Enter /data/home/wyx/g16/l502.exe)
 Integral symmetry usage will be decided dynamically.
 Closed shell SCF:
 Using DIIS extrapolation, IDIIS=  1040.
 NGot=  2147483648 LenX=  2147200095 LenY=  2147062754
 Requested convergence on RMS density matrix=1.00D-08 within 128 cycles.
 Requested convergence on MAX density matrix=1.00D-06.
 Requested convergence on             energy=1.00D-06.
 No special actions if energy rises.
 Fock matrices will be formed incrementally for  20 cycles.

 Cycle   1  Pass 1  IDiag  1:
 FoFJK:  IHMeth= 1 ICntrl=       0 DoSepK=T KAlg= 0 I1Cent=           0 FoldK=F
 IRaf=         1 NMat=       1 IRICut=       1 DoRegI=T DoRafI=F ISym2E= 0 IDoP0=0 IntGTp=1.
 FoFCou: FMM=F IPFlag=           0 FMFlag=      100000 FMFlg1=           0
         NFxFlg=           0 DoJE=T BraDBF=F KetDBF=F FulRan=T
         wScrn=  0.000000 ICntrl=       500 IOpCl=  0 I1Cent=           0 NGrid=           0
         NMat0=    1 NMatS0=      1 NMatT0=    0 NMatD0=    1 NMtDS0=    0 NMtDT0=    0
 Symmetry not used in FoFCou.
 Inv3:  Mode=1 IEnd=    13343643.
 Iteration    1 A*A^-1 deviation from unit magnitude is 3.33D-15 for    866.
 Iteration    1 A*A^-1 deviation from orthogonality  is 2.08D-15 for   1316    442.
 Iteration    1 A^-1*A deviation from unit magnitude is 3.33D-15 for    866.
 Iteration    1 A^-1*A deviation from orthogonality  is 1.53D-15 for   1511   1255.
 E= -633.325959349275    
 DIIS: error= 5.79D-09 at cycle   1 NSaved=   1.
 NSaved= 1 IEnMin= 1 EnMin= -633.325959349275     IErMin= 1 ErrMin= 5.79D-09
 ErrMax= 5.79D-09  0.00D+00 EMaxC= 1.00D-01 BMatC= 1.37D-14 BMatP= 1.37D-14
 IDIUse=1 WtCom= 1.00D+00 WtEn= 0.00D+00
 Coeff-Com:  0.100D+01
 Coeff:      0.100D+01
 Gap=     0.237 Goal=   None    Shift=    0.000
 RMSDP=1.56D-09 MaxDP=9.32D-08              OVMax= 1.27D-07

 Error on total polarization charges =  0.01429
 SCF Done:  E(RCAM-B3LYP) =  -633.325959349     A.U. after    1 cycles
            NFock=  1  Conv=0.16D-08     -V/T= 2.0041
 KE= 6.307390949763D+02 PE=-3.277451633119D+03 EE= 1.112699496219D+03
 Leave Link  502 at Fri Jan 23 21:01:43 2026, MaxMem=  2147483648 cpu:              85.3 elap:               5.6
 (Enter /data/home/wyx/g16/l801.exe)
 DoSCS=F DFT=T ScalE2(SS,OS)=  1.000000  1.000000
 ExpMin= 9.52D-02 ExpMax= 2.70D+04 ExpMxC= 9.22D+02 IAcc=3 IRadAn=         5 AccDes= 0.00D+00
 HarFok:  IExCor=  205 AccDes= 0.00D+00 IRadAn=         5 IDoV=-2 UseB2=F ITyADJ=14
 ICtDFT= 12500011 ScaDFX=  1.000000  1.000000  1.000000  1.000000
 Largest valence mixing into a core orbital is  5.64D-05
 Largest core mixing into a valence orbital is  1.18D-05
 Range of M.O.s used for correlation:    15   356
 NBasis=   356 NAE=    52 NBE=    52 NFC=    14 NFV=     0
 NROrb=    342 NOA=    38 NOB=    38 NVA=   304 NVB=   304

 **** Warning!!: The largest alpha MO coefficient is  0.47770906D+02

 Leave Link  801 at Fri Jan 23 21:01:44 2026, MaxMem=  2147483648 cpu:               1.0 elap:               0.1
 (Enter /data/home/wyx/g16/l914.exe)
 RHF ground state
 Two-electron integrals replicated using symmetry.
 MDV=  2147483648 DFT=T DoStab=F Mixed=T DoRPA=T DoScal=F NonHer=T
 NEqPCM:  Using equilibrium solvation (IEInf=0, Eps=   7.4257, EpsInf=   1.9740)
 Making orbital integer symmetry assigments:
 Orbital symmetries:
       Occupied  (A) (A) (A) (A) (A) (A) (A) (A) (A) (A) (A) (A)
                 (A) (A) (A) (A) (A) (A) (A) (A) (A) (A) (A) (A)
                 (A) (A) (A) (A) (A) (A) (A) (A) (A) (A) (A) (A)
                 (A) (A) (A) (A) (A) (A) (A) (A) (A) (A) (A) (A)
                 (A) (A) (A) (A)
       Virtual   (A) (A) (A) (A) (A) (A) (A) (A) (A) (A) (A) (A)
                 (A) (A) (A) (A) (A) (A) (A) (A) (A) (A) (A) (A)
                 (A) (A) (A) (A) (A) (A) (A) (A) (A) (A) (A) (A)
                 (A) (A) (A) (A) (A) (A) (A) (A) (A) (A) (A) (A)
                 (A) (A) (A) (A) (A) (A) (A) (A) (A) (A) (A) (A)
                 (A) (A) (A) (A) (A) (A) (A) (A) (A) (A) (A) (A)
                 (A) (A) (A) (A) (A) (A) (A) (A) (A) (A) (A) (A)
                 (A) (A) (A) (A) (A) (A) (A) (A) (A) (A) (A) (A)
                 (A) (A) (A) (A) (A) (A) (A) (A) (A) (A) (A) (A)
                 (A) (A) (A) (A) (A) (A) (A) (A) (A) (A) (A) (A)
                 (A) (A) (A) (A) (A) (A) (A) (A) (A) (A) (A) (A)
                 (A) (A) (A) (A) (A) (A) (A) (A) (A) (A) (A) (A)
                 (A) (A) (A) (A) (A) (A) (A) (A) (A) (A) (A) (A)
                 (A) (A) (A) (A) (A) (A) (A) (A) (A) (A) (A) (A)
                 (A) (A) (A) (A) (A) (A) (A) (A) (A) (A) (A) (A)
                 (A) (A) (A) (A) (A) (A) (A) (A) (A) (A) (A) (A)
                 (A) (A) (A) (A) (A) (A) (A) (A) (A) (A) (A) (A)
                 (A) (A) (A) (A) (A) (A) (A) (A) (A) (A) (A) (A)
                 (A) (A) (A) (A) (A) (A) (A) (A) (A) (A) (A) (A)
                 (A) (A) (A) (A) (A) (A) (A) (A) (A) (A) (A) (A)
                 (A) (A) (A) (A) (A) (A) (A) (A) (A) (A) (A) (A)
                 (A) (A) (A) (A) (A) (A) (A) (A) (A) (A) (A) (A)
                 (A) (A) (A) (A) (A) (A) (A) (A) (A) (A) (A) (A)
                 (A) (A) (A) (A) (A) (A) (A) (A) (A) (A) (A) (A)
                 (A) (A) (A) (A) (A) (A) (A) (A) (A) (A) (A) (A)
                 (A) (A) (A) (A)
 PCM Corrected Linear-Response:
 Compute the excitation energies in the ground state reaction field.
    24 initial guesses have been made.
 Convergence on wavefunction:    0.000001000000000
 Davidson Disk Diagonalization:  ConvIn= 1.00D-06 SkipCon=T Conv= 1.00D-06.
 Max sub-space:  2000 roots to seek:    24 dimension of matrix:        23104
 Iteration     1 Dimension    24 NMult     0 NNew     24
 CISAX will form    24 AO SS matrices at one time.
 NMat=    24 NSing=    24 JSym2X= 0.
 FoFJK:  IHMeth= 1 ICntrl=       0 DoSepK=T KAlg= 0 I1Cent=           0 FoldK=F
 IRaf=         1 NMat=      48 IRICut=       1 DoRegI=T DoRafI=F ISym2E= 0 IDoP0=3 IntGTp=3.
 FoFCou: FMM=F IPFlag=           0 FMFlag=      100000 FMFlg1=           0
         NFxFlg=           0 DoJE=F BraDBF=F KetDBF=F FulRan=T
         wScrn=  0.000000 ICntrl=       500 IOpCl=  0 I1Cent=           0 NGrid=           0
         NMat0=   24 NMatS0=     24 NMatT0=    0 NMatD0=   24 NMtDS0=    0 NMtDT0=    0
 Symmetry not used in FoFCou.
 New state      3 was old state      4
 New state      4 was old state      3
 New state      5 was old state      6
 New state      6 was old state      5
 Excitation Energies [eV] at current iteration:
 Root      1 :     3.978716629366868
 Root      2 :     4.174711433499711
 Root      3 :     4.515864532258557
 Root      4 :     5.586302950680029
 Root      5 :     6.240223075450169
 Root      6 :     6.606675443548681
 Root      7 :     6.760633763289037
 Root      8 :     6.817069256068470
 Root      9 :     6.920907185183546
 Root     10 :     7.101412568807860
 Root     11 :     7.360535683773390
 Root     12 :     7.488474369935527
 Root     13 :     7.565742026977890
 Root     14 :     7.646614154785158
 Root     15 :     7.764051333782580
 Root     16 :     8.104156835401627
 Root     17 :     8.190304927270155
 Root     18 :     8.281664266675872
 Root     19 :     8.312524024874723
 Root     20 :     8.591870966406841
 Root     21 :     8.747649688901781
 Root     22 :     8.962746533026969
 Root     23 :     9.053973031539364
 Root     24 :     9.144041053384102
 Iteration     2 Dimension    36 NMult    24 NNew     12
 CISAX will form    12 AO SS matrices at one time.
 NMat=    12 NSing=    12 JSym2X= 0.
 Root      1 not converged, maximum delta is    0.147014660889131
 Root      2 not converged, maximum delta is    0.142295070699529
 Root      3 not converged, maximum delta is    0.096210206935127
 Root      4 not converged, maximum delta is    0.229481839285085
 New state      5 was old state      6
 Root      5 not converged, maximum delta is    0.220294216405716
 New state      6 was old state      5
 Root      6 not converged, maximum delta is    0.121609055782786
 Excitation Energies [eV] at current iteration:
 Root      1 :     3.536395574855674   Change is   -0.442321054511194
 Root      2 :     3.923185184093375   Change is   -0.251526249406336
 Root      3 :     4.250412478502863   Change is   -0.265452053755694
 Root      4 :     5.263392928260722   Change is   -0.322910022419307
 Root      5 :     5.778355498547765   Change is   -0.828319945000916
 Root      6 :     6.106033260471105   Change is   -0.134189814979064
 Iteration     3 Dimension    48 NMult    36 NNew     12
 CISAX will form    12 AO SS matrices at one time.
 NMat=    12 NSing=    12 JSym2X= 0.
 Root      1 not converged, maximum delta is    0.011011704038161
 Root      2 not converged, maximum delta is    0.011274552929395
 Root      3 not converged, maximum delta is    0.016647838349626
 Root      4 not converged, maximum delta is    0.028474771820420
 Root      5 not converged, maximum delta is    0.027506409795580
 Root      6 not converged, maximum delta is    0.019713917556245
 Excitation Energies [eV] at current iteration:
 Root      1 :     3.516377524525339   Change is   -0.020018050330335
 Root      2 :     3.910666097238034   Change is   -0.012519086855342
 Root      3 :     4.236313011944953   Change is   -0.014099466557910
 Root      4 :     5.240367924403768   Change is   -0.023025003856954
 Root      5 :     5.733946533510845   Change is   -0.044408965036920
 Root      6 :     6.095914571940440   Change is   -0.010118688530666
 Iteration     4 Dimension    60 NMult    48 NNew     12
 CISAX will form    12 AO SS matrices at one time.
 NMat=    12 NSing=    12 JSym2X= 0.
 Root      1 not converged, maximum delta is    0.002483398293737
 Root      2 not converged, maximum delta is    0.001780882919775
 Root      3 not converged, maximum delta is    0.002251863990004
 Root      4 not converged, maximum delta is    0.003104594990222
 Root      5 not converged, maximum delta is    0.005215373645470
 Root      6 not converged, maximum delta is    0.004439771846957
 Excitation Energies [eV] at current iteration:
 Root      1 :     3.514648955782238   Change is   -0.001728568743101
 Root      2 :     3.909722109717710   Change is   -0.000943987520323
 Root      3 :     4.235641433971454   Change is   -0.000671577973499
 Root      4 :     5.238127806935859   Change is   -0.002240117467909
 Root      5 :     5.728919286646541   Change is   -0.005027246864305
 Root      6 :     6.095178567570253   Change is   -0.000736004370187
 Iteration     5 Dimension    72 NMult    60 NNew     12
 CISAX will form    12 AO SS matrices at one time.
 NMat=    12 NSing=    12 JSym2X= 0.
 Root      1 not converged, maximum delta is    0.000794819744485
 Root      2 not converged, maximum delta is    0.000302105547761
 Root      3 not converged, maximum delta is    0.000640806382442
 Root      4 not converged, maximum delta is    0.000736922030272
 Root      5 not converged, maximum delta is    0.001045600049602
 Root      6 not converged, maximum delta is    0.001110280378243
 Excitation Energies [eV] at current iteration:
 Root      1 :     3.514538715439028   Change is   -0.000110240343211
 Root      2 :     3.909675240526761   Change is   -0.000046869190949
 Root      3 :     4.235598866384827   Change is   -0.000042567586626
 Root      4 :     5.237954235487726   Change is   -0.000173571448134
 Root      5 :     5.728504675517223   Change is   -0.000414611129318
 Root      6 :     6.095118682657282   Change is   -0.000059884912970
 Iteration     6 Dimension    84 NMult    72 NNew     12
 CISAX will form    12 AO SS matrices at one time.
 NMat=    12 NSing=    12 JSym2X= 0.
 Root      1 not converged, maximum delta is    0.000220640687245
 Root      2 not converged, maximum delta is    0.000075055873573
 Root      3 not converged, maximum delta is    0.000203866179206
 Root      4 not converged, maximum delta is    0.000462537761557
 Root      5 not converged, maximum delta is    0.000298396546414
 Root      6 not converged, maximum delta is    0.000305639863885
 Excitation Energies [eV] at current iteration:
 Root      1 :     3.514533038157404   Change is   -0.000005677281623
 Root      2 :     3.909671589820199   Change is   -0.000003650706562
 Root      3 :     4.235595904605880   Change is   -0.000002961778948
 Root      4 :     5.237937281244266   Change is   -0.000016954243460
 Root      5 :     5.728468403385522   Change is   -0.000036272131701
 Root      6 :     6.095113059732843   Change is   -0.000005622924439
 Iteration     7 Dimension    96 NMult    84 NNew     12
 CISAX will form    12 AO SS matrices at one time.
 NMat=    12 NSing=    12 JSym2X= 0.
 Root      1 not converged, maximum delta is    0.000017905190199
 Root      2 not converged, maximum delta is    0.000013159557818
 Root      3 not converged, maximum delta is    0.000057242038695
 Root      4 not converged, maximum delta is    0.000178138142344
 Root      5 not converged, maximum delta is    0.000152762308520
 Root      6 not converged, maximum delta is    0.000182549081747
 Excitation Energies [eV] at current iteration:
 Root      1 :     3.514532701007968   Change is   -0.000000337149436
 Root      2 :     3.909671411936616   Change is   -0.000000177883583
 Root      3 :     4.235595674620479   Change is   -0.000000229985400
 Root      4 :     5.237935636789476   Change is   -0.000001644454790
 Root      5 :     5.728465321658589   Change is   -0.000003081726933
 Root      6 :     6.095112405033222   Change is   -0.000000654699620
 Iteration     8 Dimension   108 NMult    96 NNew     12
 CISAX will form    12 AO SS matrices at one time.
 NMat=    12 NSing=    12 JSym2X= 0.
 Root      1 not converged, maximum delta is    0.000004071115166
 Root      2 not converged, maximum delta is    0.000003110720257
 Root      3 not converged, maximum delta is    0.000006624545204
 Root      4 not converged, maximum delta is    0.000028748839578
 Root      5 not converged, maximum delta is    0.000034414436316
 Root      6 not converged, maximum delta is    0.000044973868212
 Excitation Energies [eV] at current iteration:
 Root      1 :     3.514532687656581   Change is   -0.000000013351387
 Root      2 :     3.909671403340583   Change is   -0.000000008596033
 Root      3 :     4.235595664955865   Change is   -0.000000009664614
 Root      4 :     5.237935519572154   Change is   -0.000000117217322
 Root      5 :     5.728465079918934   Change is   -0.000000241739654
 Root      6 :     6.095112345495024   Change is   -0.000000059538199
 Iteration     9 Dimension   120 NMult   108 NNew     12
 CISAX will form    12 AO SS matrices at one time.
 NMat=    12 NSing=    12 JSym2X= 0.
 Root      1 has converged.
 Root      2 has converged.
 Root      3 not converged, maximum delta is    0.000001212958556
 Root      4 not converged, maximum delta is    0.000003222526860
 Root      5 not converged, maximum delta is    0.000008119242928
 Root      6 not converged, maximum delta is    0.000005837873888
 Excitation Energies [eV] at current iteration:
 Root      1 :     3.514532687083976   Change is   -0.000000000572605
 Root      2 :     3.909671403072724   Change is   -0.000000000267859
 Root      3 :     4.235595664605809   Change is   -0.000000000350056
 Root      4 :     5.237935513979354   Change is   -0.000000005592801
 Root      5 :     5.728465065684441   Change is   -0.000000014234494
 Root      6 :     6.095112342103767   Change is   -0.000000003391257
 Iteration    10 Dimension   128 NMult   120 NNew      8
 CISAX will form     8 AO SS matrices at one time.
 NMat=     8 NSing=     8 JSym2X= 0.
 Root      1 has converged.
 Root      2 has converged.
 Root      3 has converged.
 Root      4 has converged.
 Root      5 not converged, maximum delta is    0.000001900554398
 Root      6 has converged.
 Excitation Energies [eV] at current iteration:
 Root      1 :     3.514532687081170   Change is   -0.000000000002807
 Root      2 :     3.909671403072092   Change is   -0.000000000000631
 Root      3 :     4.235595664593912   Change is   -0.000000000011898
 Root      4 :     5.237935513728004   Change is   -0.000000000251349
 Root      5 :     5.728465064903677   Change is   -0.000000000780764
 Root      6 :     6.095112341917533   Change is   -0.000000000186235
 Iteration    11 Dimension   130 NMult   128 NNew      2
 CISAX will form     2 AO SS matrices at one time.
 NMat=     2 NSing=     2 JSym2X= 0.
 Root      1 has converged.
 Root      2 has converged.
 Root      3 has converged.
 Root      4 has converged.
 Root      5 has converged.
 Root      6 has converged.
 Excitation Energies [eV] at current iteration:
 Root      1 :     3.514532687080748   Change is   -0.000000000000421
 Root      2 :     3.909671403072092   Change is    0.000000000000000
 Root      3 :     4.235595664593776   Change is   -0.000000000000136
 Root      4 :     5.237935513720658   Change is   -0.000000000007346
 Root      5 :     5.728465064856548   Change is   -0.000000000047128
 Root      6 :     6.095112341916615   Change is   -0.000000000000918
 Convergence achieved on expansion vectors.
 PCM Corrected Linear-Response:
 The state of interest is root number   1
 Excitation energy =    3.5145 eV, Total energy =  -633.196802650    
 Recompute the excitation energies using the linear response reaction field.
 Convergence on wavefunction:    0.000001000000000
 Davidson Disk Diagonalization:  ConvIn= 1.00D-06 SkipCon=T Conv= 1.00D-06.
 Max sub-space:  2000 roots to seek:     6 dimension of matrix:        23104
 Iteration     1 Dimension     6 NMult     0 NNew      6
 CISAX will form     6 AO SS matrices at one time.
 NMat=     6 NSing=     6 JSym2X= 0.
 Excitation Energies [eV] at current iteration:
 Root      1 :     3.607307897307947
 Root      2 :     3.938495561731707
 Root      3 :     4.263056970274716
 Root      4 :     5.315452367694836
 Root      5 :     5.897006891541582
 Root      6 :     6.071845772484800
 Iteration     2 Dimension    18 NMult     6 NNew     12
 CISAX will form    12 AO SS matrices at one time.
 NMat=    12 NSing=    12 JSym2X= 0.
 Root      1 not converged, maximum delta is    0.040855103151500
 Root      2 not converged, maximum delta is    0.050212816632024
 Root      3 not converged, maximum delta is    0.005961305177953
 Root      4 not converged, maximum delta is    0.221753525987860
 Root      5 not converged, maximum delta is    0.246382228429826
 Root      6 not converged, maximum delta is    0.080582864877525
 Excitation Energies [eV] at current iteration:
 Root      1 :     3.400481474190432   Change is   -0.206826423117515
 Root      2 :     3.903285861956327   Change is   -0.035209699775380
 Root      3 :     4.230944161331706   Change is   -0.032112808943010
 Root      4 :     5.108525442357507   Change is   -0.206926925337328
 Root      5 :     5.607976700209382   Change is   -0.289030191332201
 Root      6 :     6.054717752628453   Change is   -0.017128019856348
 Iteration     3 Dimension    30 NMult    18 NNew     12
 CISAX will form    12 AO SS matrices at one time.
 NMat=    12 NSing=    12 JSym2X= 0.
 Root      1 not converged, maximum delta is    0.002859602268994
 Root      2 not converged, maximum delta is    0.000973537897583
 Root      3 not converged, maximum delta is    0.000979754183961
 Root      4 not converged, maximum delta is    0.012022785278210
 Root      5 not converged, maximum delta is    0.009459270428555
 Root      6 not converged, maximum delta is    0.008158854470390
 Excitation Energies [eV] at current iteration:
 Root      1 :     3.397596378656313   Change is   -0.002885095534119
 Root      2 :     3.902979649985440   Change is   -0.000306211970887
 Root      3 :     4.230660642921356   Change is   -0.000283518410349
 Root      4 :     5.100229511748481   Change is   -0.008295930609026
 Root      5 :     5.599896229007054   Change is   -0.008080471202328
 Root      6 :     6.053578419308073   Change is   -0.001139333320379
 Iteration     4 Dimension    42 NMult    30 NNew     12
 CISAX will form    12 AO SS matrices at one time.
 NMat=    12 NSing=    12 JSym2X= 0.
 Root      1 not converged, maximum delta is    0.001748787788092
 Root      2 not converged, maximum delta is    0.000299587079684
 Root      3 not converged, maximum delta is    0.000216318777733
 Root      4 not converged, maximum delta is    0.002037107043611
 Root      5 not converged, maximum delta is    0.002930665725897
 Root      6 not converged, maximum delta is    0.009381297456906
 Excitation Energies [eV] at current iteration:
 Root      1 :     3.397193922799095   Change is   -0.000402455857218
 Root      2 :     3.902960765250302   Change is   -0.000018884735137
 Root      3 :     4.230646186750780   Change is   -0.000014456170577
 Root      4 :     5.099148917989244   Change is   -0.001080593759238
 Root      5 :     5.598790900269005   Change is   -0.001105328738049
 Root      6 :     6.053173189320836   Change is   -0.000405229987238
 Iteration     5 Dimension    54 NMult    42 NNew     12
 CISAX will form    12 AO SS matrices at one time.
 NMat=    12 NSing=    12 JSym2X= 0.
 Root      1 not converged, maximum delta is    0.000702024752735
 Root      2 not converged, maximum delta is    0.000119182348442
 Root      3 not converged, maximum delta is    0.000087749575469
 Root      4 not converged, maximum delta is    0.000901142698772
 Root      5 not converged, maximum delta is    0.000923285706630
 Root      6 not converged, maximum delta is    0.004467379927792
 Excitation Energies [eV] at current iteration:
 Root      1 :     3.397163735919666   Change is   -0.000030186879429
 Root      2 :     3.902959554001753   Change is   -0.000001211248550
 Root      3 :     4.230645192629657   Change is   -0.000000994121123
 Root      4 :     5.099036159955783   Change is   -0.000112758033461
 Root      5 :     5.598661860747311   Change is   -0.000129039521695
 Root      6 :     6.053076053004534   Change is   -0.000097136316302
 Iteration     6 Dimension    66 NMult    54 NNew     12
 CISAX will form    12 AO SS matrices at one time.
 NMat=    12 NSing=    12 JSym2X= 0.
 Root      1 not converged, maximum delta is    0.000116183510617
 Root      2 not converged, maximum delta is    0.000030267658390
 Root      3 not converged, maximum delta is    0.000021978760956
 Root      4 not converged, maximum delta is    0.000397039726563
 Root      5 not converged, maximum delta is    0.000514405056354
 Root      6 not converged, maximum delta is    0.000797124103166
 Excitation Energies [eV] at current iteration:
 Root      1 :     3.397161489709750   Change is   -0.000002246209917
 Root      2 :     3.902959425088793   Change is   -0.000000128912959
 Root      3 :     4.230645106167806   Change is   -0.000000086461851
 Root      4 :     5.099024540047996   Change is   -0.000011619907787
 Root      5 :     5.598645308227160   Change is   -0.000016552520151
 Root      6 :     6.053064475331771   Change is   -0.000011577672763
 Iteration     7 Dimension    78 NMult    66 NNew     12
 CISAX will form    12 AO SS matrices at one time.
 NMat=    12 NSing=    12 JSym2X= 0.
 Root      1 not converged, maximum delta is    0.000014200954190
 Root      2 not converged, maximum delta is    0.000003155706455
 Root      3 not converged, maximum delta is    0.000007408508967
 Root      4 not converged, maximum delta is    0.000170349753941
 Root      5 not converged, maximum delta is    0.000233383147672
 Root      6 not converged, maximum delta is    0.000114110271635
 Excitation Energies [eV] at current iteration:
 Root      1 :     3.397161388181783   Change is   -0.000000101527967
 Root      2 :     3.902959419546121   Change is   -0.000000005542672
 Root      3 :     4.230645099825579   Change is   -0.000000006342227
 Root      4 :     5.099023355247081   Change is   -0.000001184800915
 Root      5 :     5.598643302960422   Change is   -0.000002005266738
 Root      6 :     6.053063212031288   Change is   -0.000001263300482
 Iteration     8 Dimension    90 NMult    78 NNew     12
 CISAX will form    12 AO SS matrices at one time.
 NMat=    12 NSing=    12 JSym2X= 0.
 Root      1 not converged, maximum delta is    0.000003983161038
 Root      2 not converged, maximum delta is    0.000001005047930
 Root      3 not converged, maximum delta is    0.000001597564492
 Root      4 not converged, maximum delta is    0.000039185785277
 Root      5 not converged, maximum delta is    0.000067487574255
 Root      6 not converged, maximum delta is    0.000059317755542
 Excitation Energies [eV] at current iteration:
 Root      1 :     3.397161382919832   Change is   -0.000000005261951
 Root      2 :     3.902959419319526   Change is   -0.000000000226595
 Root      3 :     4.230645099502239   Change is   -0.000000000323339
 Root      4 :     5.099023266245816   Change is   -0.000000089001264
 Root      5 :     5.598643101362853   Change is   -0.000000201597569
 Root      6 :     6.053063046705441   Change is   -0.000000165325847
 Iteration     9 Dimension   102 NMult    90 NNew     12
 CISAX will form    12 AO SS matrices at one time.
 NMat=    12 NSing=    12 JSym2X= 0.
 Root      1 has converged.
 Root      2 has converged.
 Root      3 has converged.
 Root      4 not converged, maximum delta is    0.000010115226150
 Root      5 not converged, maximum delta is    0.000014483911959
 Root      6 not converged, maximum delta is    0.000021217656992
 Excitation Energies [eV] at current iteration:
 Root      1 :     3.397161382772340   Change is   -0.000000000147492
 Root      2 :     3.902959419309795   Change is   -0.000000000009731
 Root      3 :     4.230645099486598   Change is   -0.000000000015642
 Root      4 :     5.099023258572726   Change is   -0.000000007673091
 Root      5 :     5.598643082544193   Change is   -0.000000018818660
 Root      6 :     6.053063025808150   Change is   -0.000000020897292
 Iteration    10 Dimension   108 NMult   102 NNew      6
 CISAX will form     6 AO SS matrices at one time.
 NMat=     6 NSing=     6 JSym2X= 0.
 Root      1 has converged.
 Root      2 has converged.
 Root      3 has converged.
 Root      4 not converged, maximum delta is    0.000002241623027
 Root      5 not converged, maximum delta is    0.000003874664579
 Root      6 not converged, maximum delta is    0.000006847480419
 Excitation Energies [eV] at current iteration:
 Root      1 :     3.397161382772123   Change is   -0.000000000000218
 Root      2 :     3.902959419309648   Change is   -0.000000000000147
 Root      3 :     4.230645099486305   Change is   -0.000000000000292
 Root      4 :     5.099023258022781   Change is   -0.000000000549945
 Root      5 :     5.598643080975000   Change is   -0.000000001569193
 Root      6 :     6.053063023749792   Change is   -0.000000002058358
 Iteration    11 Dimension   114 NMult   108 NNew      6
 CISAX will form     6 AO SS matrices at one time.
 NMat=     6 NSing=     6 JSym2X= 0.
 Root      1 has converged.
 Root      2 has converged.
 Root      3 has converged.
 Root      4 has converged.
 Root      5 has converged.
 Root      6 not converged, maximum delta is    0.000001295293357
 Excitation Energies [eV] at current iteration:
 Root      1 :     3.397161382772001   Change is   -0.000000000000121
 Root      2 :     3.902959419309627   Change is   -0.000000000000021
 Root      3 :     4.230645099486286   Change is   -0.000000000000020
 Root      4 :     5.099023257987570   Change is   -0.000000000035211
 Root      5 :     5.598643080859016   Change is   -0.000000000115985
 Root      6 :     6.053063023577488   Change is   -0.000000000172304
 Iteration    12 Dimension   116 NMult   114 NNew      2
 CISAX will form     2 AO SS matrices at one time.
 NMat=     2 NSing=     2 JSym2X= 0.
 Root      1 has converged.
 Root      2 has converged.
 Root      3 has converged.
 Root      4 has converged.
 Root      5 has converged.
 Root      6 has converged.
 Excitation Energies [eV] at current iteration:
 Root      1 :     3.397161382772074   Change is    0.000000000000073
 Root      2 :     3.902959419309606   Change is   -0.000000000000021
 Root      3 :     4.230645099486267   Change is   -0.000000000000019
 Root      4 :     5.099023257987344   Change is   -0.000000000000226
 Root      5 :     5.598643080858883   Change is   -0.000000000000132
 Root      6 :     6.053063023562616   Change is   -0.000000000014872
 Convergence achieved on expansion vectors.
 ***********************************************************************
 Excited states from <AA,BB:AA,BB> singles matrix:
 ***********************************************************************
 
 1PDM for each excited state written to RWF  633
 Ground to excited state transition densities written to RWF  633
 Ground to excited state transition electric dipole moments (Au):
       state          X           Y           Z        Dip. S.      Osc.
         1         1.6397     -0.1546     -0.0414      2.7141      0.2259
         2         0.2167     -0.0388     -0.0471      0.0507      0.0048
         3        -0.0081     -0.1048      0.0400      0.0127      0.0013
         4        -0.1250     -1.7719      0.1056      3.1663      0.3956
         5         0.1593      1.4548     -0.0156      2.1420      0.2938
         6         0.0246      0.1905      0.0524      0.0396      0.0059
 Ground to excited state transition velocity dipole moments (Au):
       state          X           Y           Z        Dip. S.      Osc.
         1        -0.1969      0.0158      0.0054      0.0390      0.2085
         2        -0.0306      0.0047      0.0048      0.0010      0.0045
         3         0.0011      0.0156     -0.0027      0.0003      0.0011
         4         0.0266      0.3167     -0.0158      0.1013      0.3603
         5        -0.0321     -0.2943      0.0038      0.0877      0.2840
         6        -0.0065     -0.0390     -0.0312      0.0025      0.0076
 Ground to excited state transition magnetic dipole moments (Au):
       state          X           Y           Z
         1         0.0866     -0.0145      1.4560
         2        -0.8025      0.2571      0.3966
         3        -0.0530      0.9742      0.0881
         4         0.0668     -0.0786      0.2197
         5        -0.2027      0.0943     -0.2539
         6        -0.0369     -0.0050     -0.0016
 Ground to excited state transition velocity quadrupole moments (Au):
       state          XX          YY          ZZ          XY          XZ          YZ
         1         0.2460     -0.1201     -0.0041      0.5369     -0.0505     -0.0071
         2         0.0264      0.0080     -0.0024      0.0894     -0.0347     -0.0751
         3        -0.0125      0.0087     -0.0209      0.0306     -0.0755      0.0009
         4        -1.3684      0.3072      0.0137      0.1546      0.0693     -0.0330
         5         0.5807     -0.3158     -0.0475     -0.1304     -0.0528     -0.0634
         6        -0.1973     -0.1528      0.1334      0.0066      0.0224      0.0445
 <0|del|b> * <b|rxdel|0> + <0|del|b> * <b|delr+rdel|0>
 Rotatory Strengths (R) in cgs (10**-40 erg-esu-cm/Gauss)
       state          XX          YY          ZZ    R(velocity)    E-M Angle
         1        32.0953    -30.2593    -55.1280    -17.7640       91.87
         2         9.0703     69.7172     57.3736     45.3871       18.57
         3        36.4945     -0.4860     31.7458     22.5848       16.68
         4       -99.5592     -0.2495     -0.5960    -33.4682      110.15
         5       -76.9162     13.8524    -13.2974    -25.4537      102.82
         6         1.4560      0.3234     -0.2400      0.5131       75.05
 1/2[<0|r|b>*<b|rxdel|0> + (<0|rxdel|b>*<b|r|0>)*]
 Rotatory Strengths (R) in cgs (10**-40 erg-esu-cm/Gauss)
       state          XX          YY          ZZ     R(length)
         1      -100.3799     -1.5824     42.5851    -19.7924
         2       122.9585      7.0452     13.2071     47.7370
         3        -0.3045     72.2044     -2.4940     23.1353
         4         5.9070    -98.5273    -16.4053    -36.3419
         5        22.8395    -96.9795     -2.7918    -25.6440
         6         0.6430      0.6792      0.0576      0.4600
  1/2[<0|del|b>*<b|r|0> + (<0|r|b>*<b|del|0>)*] (Au)
       state          X           Y           Z        Dip. S.   Osc.(frdel)
         1        -0.3228     -0.0024     -0.0002      0.3255      0.2170
         2        -0.0066     -0.0002     -0.0002      0.0070      0.0047
         3        -0.0000     -0.0016     -0.0001      0.0018      0.0012
         4        -0.0033     -0.5612     -0.0017      0.5662      0.3774
         5        -0.0051     -0.4281     -0.0001      0.4333      0.2889
         6        -0.0002     -0.0074     -0.0016      0.0092      0.0061

 Excitation energies and oscillator strengths:
 
 Excited State   1:      Singlet-A      3.3972 eV  364.96 nm  f=0.2259  <S**2>=0.000
      52 -> 53         0.69781
 This state for optimization and/or second-order correction.
 Total Energy, E(TD-HF/TD-DFT) =  -633.201115966    
 Copying the excited state density for this state as the 1-particle RhoCI density.
 
 Excited State   2:      Singlet-A      3.9030 eV  317.67 nm  f=0.0048  <S**2>=0.000
      50 -> 54        -0.11504
      51 -> 53         0.58069
      51 -> 54        -0.33730
 
 Excited State   3:      Singlet-A      4.2306 eV  293.06 nm  f=0.0013  <S**2>=0.000
      49 -> 53         0.10355
      50 -> 53         0.54661
      50 -> 54         0.35092
      50 -> 58         0.12123
      51 -> 53        -0.10499
      51 -> 54        -0.14896
 
 Excited State   4:      Singlet-A      5.0990 eV  243.15 nm  f=0.3956  <S**2>=0.000
      52 -> 54         0.69338
 
 Excited State   5:      Singlet-A      5.5986 eV  221.45 nm  f=0.2938  <S**2>=0.000
      49 -> 53         0.67264
      50 -> 53        -0.14434
 
 Excited State   6:      Singlet-A      6.0531 eV  204.83 nm  f=0.0059  <S**2>=0.000
      52 -> 55         0.66003
      52 -> 56         0.13056
      52 -> 57         0.10351
 SavETr:  write IOETrn=   770 NScale= 10 NData=  16 NLR=1 NState=    6 LETran=     118.
 The selected state is a singlet.
 CISGrd: IGrad=1 NXY=2 DFT=T
 CISAX will form     1 AO SS matrices at one time.
 NMat=     1 NSing=     1 JSym2X= 0.
 Leave Link  914 at Fri Jan 23 21:09:47 2026, MaxMem=  2147483648 cpu:            7705.8 elap:             482.8
 (Enter /data/home/wyx/g16/l1002.exe)
 Minotr:  Closed shell wavefunction.
          Computing CIS/TDA/TD derivatives.
          Using Z-Vector for PSCF gradient.
          Skipping F1 and S1 gradient terms here.
 NEqPCM:  Using equilibrium solvation (IEInf=0, Eps=   7.4257, EpsInf=   1.9740)
          Frozen-core window.
          Direct CPHF calculation.
          Differentiating once with respect to electric field.
                with respect to dipole field.
          Electric field/nuclear overlap derivatives assumed to be zero.
          Requested convergence is 1.0D-10 RMS, and 1.0D-09 maximum.
          NewPWx=F KeepS1=T KeepF1=T KeepIn=T MapXYZ=F SortEE=F KeepMc=T.
 Two-electron integral symmetry used by symmetrizing perturbed Fock matrices.
          MDV=    2147483648 using IRadAn=       5.
          Solving linear equations separately, MaxMat=     384.
          There are     1 degrees of freedom in the 1st order CPHF.  IDoFFX=0 NUNeed=     1.
 FoFJK:  IHMeth= 1 ICntrl=       0 DoSepK=T KAlg= 0 I1Cent=           0 FoldK=F
 IRaf=         1 NMat=       1 IRICut=       1 DoRegI=T DoRafI=F ISym2E=-1 IDoP0=0 IntGTp=1.
 FoFCou: FMM=F IPFlag=           0 FMFlag=      100000 FMFlg1=           0
         NFxFlg=           0 DoJE=T BraDBF=F KetDBF=F FulRan=T
         wScrn=  0.000000 ICntrl=       500 IOpCl=  0 I1Cent=           0 NGrid=           0
         NMat0=    1 NMatS0=      1 NMatT0=    0 NMatD0=    1 NMtDS0=    0 NMtDT0=    0
 Petite list used in FoFCou.
 LinEq1:  Iter=  0 NonCon=     1 RMS=3.51D-03 Max=1.74D-01 NDo=     1
 AX will form     1 AO Fock derivatives at one time.
 LinEq1:  Iter=  1 NonCon=     1 RMS=1.43D-03 Max=9.19D-02 NDo=     1
 LinEq1:  Iter=  2 NonCon=     1 RMS=6.97D-04 Max=3.81D-02 NDo=     1
 LinEq1:  Iter=  3 NonCon=     1 RMS=3.68D-04 Max=1.96D-02 NDo=     1
 LinEq1:  Iter=  4 NonCon=     1 RMS=1.70D-04 Max=4.27D-03 NDo=     1
 LinEq1:  Iter=  5 NonCon=     1 RMS=8.86D-05 Max=3.27D-03 NDo=     1
 LinEq1:  Iter=  6 NonCon=     1 RMS=5.74D-05 Max=2.20D-03 NDo=     1
 LinEq1:  Iter=  7 NonCon=     1 RMS=2.15D-05 Max=1.23D-03 NDo=     1
 LinEq1:  Iter=  8 NonCon=     1 RMS=1.04D-05 Max=4.57D-04 NDo=     1
 LinEq1:  Iter=  9 NonCon=     1 RMS=6.42D-06 Max=3.32D-04 NDo=     1
 LinEq1:  Iter= 10 NonCon=     1 RMS=4.07D-06 Max=1.25D-04 NDo=     1
 LinEq1:  Iter= 11 NonCon=     1 RMS=2.03D-06 Max=5.09D-05 NDo=     1
 LinEq1:  Iter= 12 NonCon=     1 RMS=8.01D-07 Max=1.41D-05 NDo=     1
 LinEq1:  Iter= 13 NonCon=     1 RMS=2.71D-07 Max=7.39D-06 NDo=     1
 LinEq1:  Iter= 14 NonCon=     1 RMS=9.54D-08 Max=4.40D-06 NDo=     1
 LinEq1:  Iter= 15 NonCon=     1 RMS=5.57D-08 Max=2.58D-06 NDo=     1
 LinEq1:  Iter= 16 NonCon=     1 RMS=2.41D-08 Max=1.07D-06 NDo=     1
 LinEq1:  Iter= 17 NonCon=     1 RMS=8.80D-09 Max=2.85D-07 NDo=     1
 LinEq1:  Iter= 18 NonCon=     1 RMS=3.62D-09 Max=8.29D-08 NDo=     1
 LinEq1:  Iter= 19 NonCon=     1 RMS=1.60D-09 Max=3.66D-08 NDo=     1
 LinEq1:  Iter= 20 NonCon=     1 RMS=4.67D-10 Max=7.32D-09 NDo=     1
 LinEq1:  Iter= 21 NonCon=     1 RMS=1.98D-10 Max=3.61D-09 NDo=     1
 LinEq1:  Iter= 22 NonCon=     1 RMS=7.43D-11 Max=1.89D-09 NDo=     1
 LinEq1:  Iter= 23 NonCon=     0 RMS=1.79D-11 Max=4.24D-10 NDo=     1
 Linear equations converged to 1.000D-10 1.000D-09 after    23 iterations.
 PCM Corrected Linear-Response - Equilibrium solvation:
 Corrected transition energy               =    3.4962          eV
 Total energy after correction             = -633.197476995     a.u.
 NEqPCM:  Using non-equilibrium solvation (IEInf=1, Eps=   7.4257, EpsInf=   1.9740)
 Inv3:  Mode=1 IEnd=    13343643.
 Iteration    1 A*A^-1 deviation from unit magnitude is 3.77D-15 for   1580.
 Iteration    1 A*A^-1 deviation from orthogonality  is 1.99D-15 for   1139    534.
 Iteration    1 A^-1*A deviation from unit magnitude is 4.00D-15 for   1580.
 Iteration    1 A^-1*A deviation from orthogonality  is 1.82D-15 for   1399    879.
 NEqSol: Computing the dynamic-inertial partition of the PCM polarization charges.
 End of Minotr F.D. properties file   721 does not exist.
 End of Minotr F.D. properties file   722 does not exist.
 End of Minotr F.D. properties file   788 does not exist.
 Leave Link 1002 at Fri Jan 23 21:11:46 2026, MaxMem=  2147483648 cpu:            1891.5 elap:             118.9
 (Enter /data/home/wyx/g16/l601.exe)
 Copying SCF densities to generalized density rwf, IOpCl= 0 IROHF=0.

 **********************************************************************

            Population analysis using the CI density.

 **********************************************************************

 Orbital symmetries:
       Occupied  (A) (A) (A) (A) (A) (A) (A) (A) (A) (A) (A) (A)
                 (A) (A) (A) (A) (A) (A) (A) (A) (A) (A) (A) (A)
                 (A) (A) (A) (A) (A) (A) (A) (A) (A) (A) (A) (A)
                 (A) (A) (A) (A) (A) (A) (A) (A) (A) (A) (A) (A)
                 (A) (A) (A) (A)
       Virtual   (A) (A) (A) (A) (A) (A) (A) (A) (A) (A) (A) (A)
                 (A) (A) (A) (A) (A) (A) (A) (A) (A) (A) (A) (A)
                 (A) (A) (A) (A) (A) (A) (A) (A) (A) (A) (A) (A)
                 (A) (A) (A) (A) (A) (A) (A) (A) (A) (A) (A) (A)
                 (A) (A) (A) (A) (A) (A) (A) (A) (A) (A) (A) (A)
                 (A) (A) (A) (A) (A) (A) (A) (A) (A) (A) (A) (A)
                 (A) (A) (A) (A) (A) (A) (A) (A) (A) (A) (A) (A)
                 (A) (A) (A) (A) (A) (A) (A) (A) (A) (A) (A) (A)
                 (A) (A) (A) (A) (A) (A) (A) (A) (A) (A) (A) (A)
                 (A) (A) (A) (A) (A) (A) (A) (A) (A) (A) (A) (A)
                 (A) (A) (A) (A) (A) (A) (A) (A) (A) (A) (A) (A)
                 (A) (A) (A) (A) (A) (A) (A) (A) (A) (A) (A) (A)
                 (A) (A) (A) (A) (A) (A) (A) (A) (A) (A) (A) (A)
                 (A) (A) (A) (A) (A) (A) (A) (A) (A) (A) (A) (A)
                 (A) (A) (A) (A) (A) (A) (A) (A) (A) (A) (A) (A)
                 (A) (A) (A) (A) (A) (A) (A) (A) (A) (A) (A) (A)
                 (A) (A) (A) (A) (A) (A) (A) (A) (A) (A) (A) (A)
                 (A) (A) (A) (A) (A) (A) (A) (A) (A) (A) (A) (A)
                 (A) (A) (A) (A) (A) (A) (A) (A) (A) (A) (A) (A)
                 (A) (A) (A) (A) (A) (A) (A) (A) (A) (A) (A) (A)
                 (A) (A) (A) (A) (A) (A) (A) (A) (A) (A) (A) (A)
                 (A) (A) (A) (A) (A) (A) (A) (A) (A) (A) (A) (A)
                 (A) (A) (A) (A) (A) (A) (A) (A) (A) (A) (A) (A)
                 (A) (A) (A) (A) (A) (A) (A) (A) (A) (A) (A) (A)
                 (A) (A) (A) (A) (A) (A) (A) (A) (A) (A) (A) (A)
                 (A) (A) (A) (A)
 The electronic state is 1-A.
 Alpha  occ. eigenvalues --  -19.17810 -19.17022 -14.44242 -10.33320 -10.33070
 Alpha  occ. eigenvalues --  -10.32174 -10.31725 -10.25981 -10.25051 -10.24852
 Alpha  occ. eigenvalues --  -10.24721 -10.24715 -10.24105 -10.23709  -1.11938
 Alpha  occ. eigenvalues --   -1.10604  -1.07712  -0.91463  -0.90490  -0.83860
 Alpha  occ. eigenvalues --   -0.82552  -0.81571  -0.78650  -0.74244  -0.71393
 Alpha  occ. eigenvalues --   -0.68841  -0.61905  -0.58437  -0.56909  -0.55199
 Alpha  occ. eigenvalues --   -0.54710  -0.54054  -0.52540  -0.51938  -0.50686
 Alpha  occ. eigenvalues --   -0.49764  -0.49437  -0.49107  -0.48399  -0.48267
 Alpha  occ. eigenvalues --   -0.46791  -0.45196  -0.44867  -0.43658  -0.43048
 Alpha  occ. eigenvalues --   -0.42386  -0.41854  -0.41475  -0.33015  -0.32204
 Alpha  occ. eigenvalues --   -0.31085  -0.26213
 Alpha virt. eigenvalues --   -0.02561   0.02370   0.06292   0.08086   0.08474
 Alpha virt. eigenvalues --    0.09943   0.10651   0.12036   0.12649   0.13597
 Alpha virt. eigenvalues --    0.13991   0.14981   0.15547   0.16578   0.17031
 Alpha virt. eigenvalues --    0.17537   0.17621   0.17851   0.18197   0.19305
 Alpha virt. eigenvalues --    0.19838   0.21861   0.22800   0.23466   0.23664
 Alpha virt. eigenvalues --    0.24446   0.24630   0.25740   0.25954   0.26718
 Alpha virt. eigenvalues --    0.27186   0.27461   0.28393   0.29195   0.30054
 Alpha virt. eigenvalues --    0.31251   0.31976   0.32481   0.33507   0.34517
 Alpha virt. eigenvalues --    0.35306   0.35785   0.36758   0.38088   0.38938
 Alpha virt. eigenvalues --    0.39502   0.41183   0.41804   0.42303   0.42782
 Alpha virt. eigenvalues --    0.44119   0.44729   0.45623   0.46131   0.46448
 Alpha virt. eigenvalues --    0.46987   0.48177   0.48487   0.48681   0.49007
 Alpha virt. eigenvalues --    0.49781   0.49868   0.50779   0.51292   0.51672
 Alpha virt. eigenvalues --    0.52796   0.53017   0.53544   0.54059   0.54413
 Alpha virt. eigenvalues --    0.54685   0.55717   0.55805   0.56877   0.58028
 Alpha virt. eigenvalues --    0.58254   0.59132   0.60331   0.61968   0.62255
 Alpha virt. eigenvalues --    0.63217   0.65481   0.65771   0.67366   0.68112
 Alpha virt. eigenvalues --    0.70109   0.70672   0.71665   0.72303   0.72960
 Alpha virt. eigenvalues --    0.73811   0.74903   0.75736   0.76863   0.77342
 Alpha virt. eigenvalues --    0.79568   0.80297   0.83140   0.85240   0.86443
 Alpha virt. eigenvalues --    0.89097   0.91155   0.95178   1.00846   1.23590
 Alpha virt. eigenvalues --    1.25567   1.26629   1.28234   1.29471   1.31388
 Alpha virt. eigenvalues --    1.32471   1.32822   1.33867   1.35441   1.35786
 Alpha virt. eigenvalues --    1.37028   1.37370   1.37979   1.38900   1.39612
 Alpha virt. eigenvalues --    1.39921   1.40746   1.41240   1.41330   1.41963
 Alpha virt. eigenvalues --    1.43308   1.43974   1.44227   1.45051   1.47383
 Alpha virt. eigenvalues --    1.47572   1.49462   1.49833   1.50701   1.51603
 Alpha virt. eigenvalues --    1.52091   1.52996   1.53153   1.55115   1.57625
 Alpha virt. eigenvalues --    1.58359   1.60068   1.60524   1.61414   1.62030
 Alpha virt. eigenvalues --    1.62968   1.63488   1.64543   1.65838   1.66040
 Alpha virt. eigenvalues --    1.66552   1.66898   1.68112   1.68434   1.68950
 Alpha virt. eigenvalues --    1.69079   1.69737   1.71005   1.72124   1.73083
 Alpha virt. eigenvalues --    1.73956   1.74602   1.76161   1.76727   1.78566
 Alpha virt. eigenvalues --    1.80683   1.82621   1.83972   1.85013   1.86287
 Alpha virt. eigenvalues --    1.87015   1.87887   1.87949   1.89579   1.90266
 Alpha virt. eigenvalues --    1.91425   1.93792   1.95418   1.98047   1.99839
 Alpha virt. eigenvalues --    2.01134   2.04374   2.04718   2.06545   2.09432
 Alpha virt. eigenvalues --    2.10822   2.13207   2.14880   2.17693   2.19414
 Alpha virt. eigenvalues --    2.20355   2.21747   2.22619   2.23902   2.25518
 Alpha virt. eigenvalues --    2.26853   2.28548   2.30081   2.31075   2.32953
 Alpha virt. eigenvalues --    2.34278   2.34786   2.36008   2.38040   2.38761
 Alpha virt. eigenvalues --    2.39153   2.41325   2.41829   2.44662   2.45101
 Alpha virt. eigenvalues --    2.45671   2.48855   2.49366   2.50609   2.52099
 Alpha virt. eigenvalues --    2.52762   2.52907   2.54304   2.56376   2.57651
 Alpha virt. eigenvalues --    2.58255   2.60763   2.60868   2.61935   2.62808
 Alpha virt. eigenvalues --    2.63846   2.65771   2.66391   2.67093   2.69324
 Alpha virt. eigenvalues --    2.70815   2.71986   2.73704   2.73936   2.74955
 Alpha virt. eigenvalues --    2.75446   2.76935   2.78001   2.78192   2.79287
 Alpha virt. eigenvalues --    2.80816   2.81460   2.82718   2.83840   2.84870
 Alpha virt. eigenvalues --    2.86074   2.86147   2.88263   2.90256   2.93188
 Alpha virt. eigenvalues --    2.97398   2.99189   2.99794   3.05113   3.10361
 Alpha virt. eigenvalues --    3.11304   3.12613   3.14894   3.18826   3.19907
 Alpha virt. eigenvalues --    3.21144   3.23108   3.25083   3.25568   3.26583
 Alpha virt. eigenvalues --    3.27690   3.30654   3.33022   3.35406   3.36968
 Alpha virt. eigenvalues --    3.37747   3.39488   3.39995   3.40357   3.41931
 Alpha virt. eigenvalues --    3.42920   3.43958   3.45925   3.46613   3.47566
 Alpha virt. eigenvalues --    3.50160   3.52471   3.54345   3.57468   3.59496
 Alpha virt. eigenvalues --    3.61409   3.91031   4.00093   4.34324   4.35778
 Alpha virt. eigenvalues --   21.63714  21.77997  22.07749  22.10502  22.11728
 Alpha virt. eigenvalues --   22.13514  22.16153  22.18791  22.21484  22.26826
 Alpha virt. eigenvalues --   22.31372  31.93022  43.63047  43.65448
          Condensed to atoms (all electrons):
               1          2          3          4          5          6
     1  O    7.978928  -0.000000  -0.000255   0.000018   0.019873   0.023933
     2  O   -0.000000   8.049506   0.000219   0.000042  -0.204008   0.001226
     3  N   -0.000255   0.000219   6.195705   0.368246  -0.081592   0.378228
     4  H    0.000018   0.000042   0.368246   0.397830   0.015715  -0.041276
     5  C    0.019873  -0.204008  -0.081592   0.015715   7.302510   0.008678
     6  C    0.023933   0.001226   0.378228  -0.041276   0.008678   5.987089
     7  C   -0.000591  -0.018758   0.396292  -0.041990   0.094778  -0.223816
     8  C   -0.000221   0.665432   0.003571  -0.000459  -0.374303   0.038704
     9  C   -0.019504   0.020275   0.002785  -0.000965  -0.573578  -0.163133
    10  H    0.014580  -0.000322  -0.001474   0.000011  -0.088095   0.016530
    11  H    0.001785   0.000017   0.001017   0.000045  -0.022071  -0.002855
    12  C   -0.246492  -0.002453  -0.056749   0.016168   0.069511  -0.386651
    13  C    0.710935  -0.000012   0.000060   0.000609   0.078048   0.107957
    14  C   -0.000008  -0.034573  -0.045049  -0.006299  -0.042257   0.006011
    15  H   -0.000000   0.005013   0.004044   0.001148   0.021009   0.006267
    16  H    0.000000   0.009042   0.002764   0.000734  -0.007563  -0.000542
    17  H    0.000000  -0.001394  -0.003320   0.000712  -0.014750   0.000152
    18  C   -0.000102  -0.108002  -0.000466   0.000020  -0.258212  -0.001164
    19  H   -0.000000   0.009397   0.000006  -0.000001   0.021535   0.000017
    20  H    0.000242   0.004983   0.000100   0.000001   0.059127  -0.001330
    21  H   -0.000074   0.002228   0.000009  -0.000001  -0.002600   0.000202
    22  C   -0.122315   0.000000   0.000265   0.000126   0.004155   0.000769
    23  H    0.002579   0.000000   0.000100  -0.000018  -0.000174   0.014875
    24  H    0.004338  -0.000000  -0.000059  -0.000046  -0.000431  -0.028332
    25  H    0.011113  -0.000000   0.000007  -0.000003  -0.000135  -0.002299
    26  C    0.000803   0.000004  -0.037992  -0.009528  -0.001269   0.214043
    27  H   -0.000076   0.000000  -0.002290   0.000672   0.000773  -0.052453
    28  H   -0.000256  -0.000000   0.000689   0.000759  -0.000376  -0.057244
    29  H    0.000016   0.000000   0.003367   0.001830  -0.000529  -0.055231
               7          8          9         10         11         12
     1  O   -0.000591  -0.000221  -0.019504   0.014580   0.001785  -0.246492
     2  O   -0.018758   0.665432   0.020275  -0.000322   0.000017  -0.002453
     3  N    0.396292   0.003571   0.002785  -0.001474   0.001017  -0.056749
     4  H   -0.041990  -0.000459  -0.000965   0.000011   0.000045   0.016168
     5  C    0.094778  -0.374303  -0.573578  -0.088095  -0.022071   0.069511
     6  C   -0.223816   0.038704  -0.163133   0.016530  -0.002855  -0.386651
     7  C    5.991184  -0.307500  -0.193927   0.015225  -0.006732   0.041505
     8  C   -0.307500   5.631774   0.170201  -0.006732   0.003031  -0.052491
     9  C   -0.193927   0.170201   6.542586   0.512115   0.349757  -0.103086
    10  H    0.015225  -0.006732   0.512115   0.451883  -0.021022  -0.107709
    11  H   -0.006732   0.003031   0.349757  -0.021022   0.481267   0.013910
    12  C    0.041505  -0.052491  -0.103086  -0.107709   0.013910   7.656931
    13  C    0.016962  -0.008196  -0.233651   0.005815  -0.004987  -0.436459
    14  C    0.222251  -0.050971   0.012793   0.000218  -0.000784   0.000982
    15  H   -0.084076   0.007989  -0.000797   0.000000   0.000066  -0.001333
    16  H   -0.030464  -0.012137   0.000281  -0.000042   0.000109  -0.000376
    17  H   -0.030793   0.002079   0.000937   0.000079  -0.000039  -0.000453
    18  C    0.007843   0.328713  -0.000983   0.001596  -0.008785  -0.001656
    19  H    0.002800  -0.045195  -0.003362   0.000747  -0.000022  -0.000723
    20  H    0.004184  -0.092221  -0.010446  -0.004174  -0.001064   0.007179
    21  H   -0.001904  -0.032004  -0.004947  -0.001882   0.000732  -0.000325
    22  C   -0.000193   0.000025   0.001798   0.001501   0.001161  -0.328627
    23  H   -0.000012   0.000006  -0.003340  -0.000130   0.000083  -0.002151
    24  H   -0.000002  -0.000007   0.002911  -0.000084  -0.000120   0.060788
    25  H    0.000026   0.000002   0.000852  -0.000130  -0.000026   0.029115
    26  C    0.006894   0.000421   0.020648   0.000060  -0.000530  -0.089258
    27  H   -0.000231  -0.000021  -0.002079   0.000003  -0.000011  -0.015549
    28  H   -0.000401  -0.000007   0.001762   0.000017   0.000017   0.004417
    29  H    0.004085   0.000019  -0.000735   0.000003   0.000026   0.023694
              13         14         15         16         17         18
     1  O    0.710935  -0.000008  -0.000000   0.000000   0.000000  -0.000102
     2  O   -0.000012  -0.034573   0.005013   0.009042  -0.001394  -0.108002
     3  N    0.000060  -0.045049   0.004044   0.002764  -0.003320  -0.000466
     4  H    0.000609  -0.006299   0.001148   0.000734   0.000712   0.000020
     5  C    0.078048  -0.042257   0.021009  -0.007563  -0.014750  -0.258212
     6  C    0.107957   0.006011   0.006267  -0.000542   0.000152  -0.001164
     7  C    0.016962   0.222251  -0.084076  -0.030464  -0.030793   0.007843
     8  C   -0.008196  -0.050971   0.007989  -0.012137   0.002079   0.328713
     9  C   -0.233651   0.012793  -0.000797   0.000281   0.000937  -0.000983
    10  H    0.005815   0.000218   0.000000  -0.000042   0.000079   0.001596
    11  H   -0.004987  -0.000784   0.000066   0.000109  -0.000039  -0.008785
    12  C   -0.436459   0.000982  -0.001333  -0.000376  -0.000453  -0.001656
    13  C    5.527094  -0.000022  -0.000022   0.000000  -0.000048   0.000782
    14  C   -0.000022   5.149457   0.384255   0.424051   0.402342   0.001444
    15  H   -0.000022   0.384255   0.594416  -0.028517  -0.030544   0.000311
    16  H    0.000000   0.424051  -0.028517   0.491290  -0.022340   0.000359
    17  H   -0.000048   0.402342  -0.030544  -0.022340   0.537255  -0.000310
    18  C    0.000782   0.001444   0.000311   0.000359  -0.000310   5.341471
    19  H   -0.000026  -0.000223  -0.000010   0.000124   0.000041   0.381053
    20  H    0.000874   0.000259  -0.000026  -0.000107   0.000010   0.382451
    21  H    0.000047  -0.000253  -0.000005   0.000007  -0.000052   0.397344
    22  C    0.316035  -0.000003   0.000003  -0.000000  -0.000000   0.000006
    23  H   -0.035723   0.000000   0.000000  -0.000000  -0.000000  -0.000002
    24  H   -0.078213  -0.000001  -0.000000   0.000000   0.000000   0.000003
    25  H   -0.047320   0.000000   0.000000   0.000000   0.000000   0.000001
    26  C   -0.042758   0.000462  -0.000016   0.000062  -0.000119   0.000011
    27  H    0.006205  -0.000172   0.000024   0.000001  -0.000069  -0.000002
    28  H   -0.003925   0.000060  -0.000017  -0.000001   0.000013   0.000001
    29  H   -0.000238   0.000074   0.000044  -0.000003   0.000014   0.000000
              19         20         21         22         23         24
     1  O   -0.000000   0.000242  -0.000074  -0.122315   0.002579   0.004338
     2  O    0.009397   0.004983   0.002228   0.000000   0.000000  -0.000000
     3  N    0.000006   0.000100   0.000009   0.000265   0.000100  -0.000059
     4  H   -0.000001   0.000001  -0.000001   0.000126  -0.000018  -0.000046
     5  C    0.021535   0.059127  -0.002600   0.004155  -0.000174  -0.000431
     6  C    0.000017  -0.001330   0.000202   0.000769   0.014875  -0.028332
     7  C    0.002800   0.004184  -0.001904  -0.000193  -0.000012  -0.000002
     8  C   -0.045195  -0.092221  -0.032004   0.000025   0.000006  -0.000007
     9  C   -0.003362  -0.010446  -0.004947   0.001798  -0.003340   0.002911
    10  H    0.000747  -0.004174  -0.001882   0.001501  -0.000130  -0.000084
    11  H   -0.000022  -0.001064   0.000732   0.001161   0.000083  -0.000120
    12  C   -0.000723   0.007179  -0.000325  -0.328627  -0.002151   0.060788
    13  C   -0.000026   0.000874   0.000047   0.316035  -0.035723  -0.078213
    14  C   -0.000223   0.000259  -0.000253  -0.000003   0.000000  -0.000001
    15  H   -0.000010  -0.000026  -0.000005   0.000003   0.000000  -0.000000
    16  H    0.000124  -0.000107   0.000007  -0.000000  -0.000000   0.000000
    17  H    0.000041   0.000010  -0.000052  -0.000000  -0.000000   0.000000
    18  C    0.381053   0.382451   0.397344   0.000006  -0.000002   0.000003
    19  H    0.525152  -0.023973  -0.018181  -0.000001  -0.000000   0.000000
    20  H   -0.023973   0.556821  -0.026783   0.000022  -0.000001  -0.000000
    21  H   -0.018181  -0.026783   0.523285  -0.000001   0.000000  -0.000000
    22  C   -0.000001   0.000022  -0.000001   5.491149   0.398944   0.381858
    23  H   -0.000000  -0.000001   0.000000   0.398944   0.515414  -0.031068
    24  H    0.000000  -0.000000  -0.000000   0.381858  -0.031068   0.554888
    25  H    0.000000   0.000000  -0.000001   0.375005  -0.009409  -0.018938
    26  C    0.000001  -0.000016   0.000003  -0.041027  -0.014786   0.015044
    27  H   -0.000000  -0.000000   0.000001  -0.011835   0.002557  -0.002654
    28  H    0.000000   0.000000  -0.000000   0.007091  -0.003556  -0.006573
    29  H    0.000000  -0.000000  -0.000000   0.002002   0.000068   0.000658
              25         26         27         28         29
     1  O    0.011113   0.000803  -0.000076  -0.000256   0.000016
     2  O   -0.000000   0.000004   0.000000  -0.000000   0.000000
     3  N    0.000007  -0.037992  -0.002290   0.000689   0.003367
     4  H   -0.000003  -0.009528   0.000672   0.000759   0.001830
     5  C   -0.000135  -0.001269   0.000773  -0.000376  -0.000529
     6  C   -0.002299   0.214043  -0.052453  -0.057244  -0.055231
     7  C    0.000026   0.006894  -0.000231  -0.000401   0.004085
     8  C    0.000002   0.000421  -0.000021  -0.000007   0.000019
     9  C    0.000852   0.020648  -0.002079   0.001762  -0.000735
    10  H   -0.000130   0.000060   0.000003   0.000017   0.000003
    11  H   -0.000026  -0.000530  -0.000011   0.000017   0.000026
    12  C    0.029115  -0.089258  -0.015549   0.004417   0.023694
    13  C   -0.047320  -0.042758   0.006205  -0.003925  -0.000238
    14  C    0.000000   0.000462  -0.000172   0.000060   0.000074
    15  H    0.000000  -0.000016   0.000024  -0.000017   0.000044
    16  H    0.000000   0.000062   0.000001  -0.000001  -0.000003
    17  H    0.000000  -0.000119  -0.000069   0.000013   0.000014
    18  C    0.000001   0.000011  -0.000002   0.000001   0.000000
    19  H    0.000000   0.000001  -0.000000   0.000000   0.000000
    20  H    0.000000  -0.000016  -0.000000   0.000000  -0.000000
    21  H   -0.000001   0.000003   0.000001  -0.000000  -0.000000
    22  C    0.375005  -0.041027  -0.011835   0.007091   0.002002
    23  H   -0.009409  -0.014786   0.002557  -0.003556   0.000068
    24  H   -0.018938   0.015044  -0.002654  -0.006573   0.000658
    25  H    0.504033   0.001940  -0.000252   0.000987  -0.000033
    26  C    0.001940   5.212396   0.439247   0.421421   0.389730
    27  H   -0.000252   0.439247   0.512508  -0.039287  -0.019556
    28  H    0.000987   0.421421  -0.039287   0.535176  -0.023063
    29  H   -0.000033   0.389730  -0.019556  -0.023063   0.527893
 Mulliken charges:
               1
     1  O   -0.379251
     2  O   -0.397863
     3  N   -0.128227
     4  H    0.295901
     5  C   -0.023769
     6  C    0.211646
     7  C    0.137361
     8  C    0.130499
     9  C   -0.325166
    10  H    0.211413
    11  H    0.216025
    12  C   -0.091658
    13  C    0.120177
    14  C   -0.424044
    15  H    0.120772
    16  H    0.173267
    17  H    0.160600
    18  C   -0.463725
    19  H    0.150846
    20  H    0.143888
    21  H    0.165154
    22  C   -0.477912
    23  H    0.165745
    24  H    0.146038
    25  H    0.155464
    26  C   -0.485892
    27  H    0.184545
    28  H    0.162295
    29  H    0.145867
 Sum of Mulliken charges =  -0.00000
 Mulliken charges with hydrogens summed into heavy atoms:
               1
     1  O   -0.379251
     2  O   -0.397863
     3  N    0.167674
     5  C   -0.023769
     6  C    0.211646
     7  C    0.137361
     8  C    0.130499
     9  C    0.102272
    12  C   -0.091658
    13  C    0.120177
    14  C    0.030595
    18  C   -0.003837
    22  C   -0.010664
    26  C    0.006816
 Electronic spatial extent (au):  <R**2>=           3205.2491
 Charge=              0.0000 electrons
 Dipole moment (field-independent basis, Debye):
    X=              4.1700    Y=              7.4564    Z=             -0.6836  Tot=              8.5705
 Quadrupole moment (field-independent basis, Debye-Ang):
   XX=           -104.9283   YY=            -79.2580   ZZ=            -84.5906
   XY=             12.8858   XZ=              4.0985   YZ=             -0.7928
 Traceless Quadrupole moment (field-independent basis, Debye-Ang):
   XX=            -15.3360   YY=             10.3343   ZZ=              5.0017
   XY=             12.8858   XZ=              4.0985   YZ=             -0.7928
 Octapole moment (field-independent basis, Debye-Ang**2):
  XXX=            110.7316  YYY=             65.9811  ZZZ=              0.9142  XYY=            -34.7989
  XXY=             30.2805  XXZ=            -10.1861  XZZ=              2.2026  YZZ=             -1.8718
  YYZ=              0.5343  XYZ=             -3.3845
 Hexadecapole moment (field-independent basis, Debye-Ang**3):
 XXXX=          -3162.4065 YYYY=          -1286.2857 ZZZZ=           -140.2780 XXXY=             39.6178
 XXXZ=             52.9846 YYYX=             91.6380 YYYZ=            -17.4731 ZZZX=             -3.4520
 ZZZY=              5.3945 XXYY=           -712.6818 XXZZ=           -494.1678 YYZZ=           -240.7467
 XXYZ=             -3.1245 YYXZ=              4.3943 ZZXY=             -0.5876
 N-N= 9.006870825747D+02 E-N=-3.277004999555D+03  KE= 6.308118199092D+02
 No NMR shielding tensors so no spin-rotation constants.
 Leave Link  601 at Fri Jan 23 21:11:47 2026, MaxMem=  2147483648 cpu:               1.8 elap:               0.1
 (Enter /data/home/wyx/g16/l9999.exe)
 Electronic transition elements 
                 1             2             3             4             5 
      1  -0.633201D+03 -0.633183D+03 -0.633170D+03 -0.633139D+03 -0.633120D+03
      2   0.158794D+01  0.221088D+00  0.228129D-01  0.466987D+00 -0.339235D+00
      3   0.413376D+00  0.367088D-01 -0.100615D+00 -0.170623D+01  0.142138D+01
      4   0.147316D+00 -0.207944D-01  0.448320D-01  0.192447D+00 -0.812165D-01
      5  -0.189786D+00 -0.306932D-01 -0.391937D-02 -0.798899D-01  0.686962D-01
      6  -0.522420D-01 -0.593645D-02  0.149783D-01  0.306468D+00 -0.287472D+00
      7  -0.170979D-01  0.110252D-02 -0.350397D-02 -0.309142D-01  0.171346D-01
      8  -0.925443D-01 -0.884364D+00 -0.388342D+00  0.619460D-01 -0.189934D+00
      9   0.400234D-01 -0.256406D-01  0.898949D+00 -0.474784D-01  0.152359D-01
     10   0.145520D+01  0.290982D+00  0.258860D-01  0.229858D+00 -0.279510D+00
     11  -0.125859D+00 -0.306353D-01 -0.121325D-01 -0.127349D+01  0.558522D+00
     12   0.266012D+00  0.648001D-01  0.250362D-01  0.211036D+00 -0.297586D+00
     13  -0.183360D-01 -0.211777D-02 -0.375597D-01  0.149258D-01 -0.434452D-01
     14   0.527976D+00  0.840413D-01  0.185112D-01 -0.413063D+00  0.194583D+00
     15  -0.689037D-01 -0.120568D-01 -0.706317D-01 -0.755367D-01  0.433623D-01
     16   0.365633D-01 -0.738238D-01 -0.235613D-01 -0.616951D-01 -0.500702D-01
                 6 
      1  -0.633104D+03
      2  -0.475366D-01
      3   0.188295D+00
      4   0.437682D-01
      5   0.109086D-01
      6  -0.393870D-01
      7  -0.294558D-01
      8  -0.325521D-01
      9  -0.173503D-01
     10  -0.529458D-02
     11  -0.192881D+00
     12  -0.152079D+00
     13   0.128228D+00
     14  -0.157181D-01
     15  -0.339930D-01
     16   0.527216D-01
 1\1\GINC-CN013\SP\RCAM-B3LYP TD-FC\TZVP\C11H15N1O2\WYX\23-Jan-2026\0\\
 #p CAM-B3LYP TZVP em=gd3bj td(nstates=6,root=1) scrf=(Solvent=TetraHyd
 roFuran,CorrectedLR,NonEquilibrium=Save) Geom=Check Guess=Read\\Title 
 Card Required\\0,1\O,0,2.819342,-1.57439,0.247554\O,0,-3.44158,-1.6320
 31,-0.071868\N,0,-0.637781,1.516419,-0.299111\H,0,-0.949276,2.472238,-
 0.344617\C,0,-1.2404,-0.75786,-0.21093\C,0,0.693344,1.301132,-0.04722\
 C,0,-1.612101,0.541111,-0.281014\C,0,-2.216329,-1.822693,-0.159665\C,0
 ,0.221441,-1.122528,-0.250725\H,0,0.429608,-1.910154,0.472051\H,0,0.48
 0829,-1.54602,-1.22824\C,0,1.148525,0.031837,0.038584\C,0,2.512634,-0.
 389126,0.340325\C,0,-2.999784,1.078575,-0.333808\H,0,-3.017206,2.06416
 2,-0.802629\H,0,-3.677981,0.43833,-0.891673\H,0,-3.418927,1.171933,0.6
 69145\C,0,-1.766752,-3.25347,-0.2225\H,0,-2.557463,-3.932951,-0.537597
 \H,0,-0.926863,-3.40827,-0.900771\H,0,-1.429563,-3.598137,0.759472\C,0
 ,3.578928,0.568929,0.802995\H,0,3.959841,1.171474,-0.021782\H,0,3.2451
 95,1.246368,1.585396\H,0,4.397099,-0.039236,1.181679\C,0,1.455575,2.57
 926,0.098698\H,0,1.651134,2.815355,1.144713\H,0,2.40415,2.569574,-0.42
 7339\H,0,0.894362,3.420169,-0.309122\\Version=ES64L-G16RevA.03\State=1
 -A\HF=-633.3259593\RMSD=1.561e-09\Dipole=0.5767524,3.3123976,-0.255084
 1\Quadrupole=-15.7800227,11.620609,4.1594137,1.2258185,0.6410172,0.508
 783\PG=C01 [X(C11H15N1O2)]\\@


 CHILDREN YOU ARE VERY LITTLE,
 AND YOUR BONES ARE VERY BRITTLE;
 IF YOU WOULD GROW GREAT AND STATELY
 YOU MUST TRY TO WALK SEDATELY.
 YOU MUST STILL BE BRIGHT AND QUIET,
 AND CONTENT WITH SIMPLE DIET;
 AND REMAIN, THROUGH ALL BEWILD'RING
 INNOCENT AND HONEST CHILDREN.
     -- A CHILD'S GARDEN OF VERSE,
        ROBERT LOUIS STEVENSON
 Job cpu time:       0 days  2 hours 41 minutes 35.0 seconds.
 Elapsed time:       0 days  0 hours 10 minutes  8.3 seconds.
 File lengths (MBytes):  RWF=    735 Int=      0 D2E=      0 Chk=     67 Scr=      1
 Normal termination of Gaussian 16 at Fri Jan 23 21:11:49 2026.
