 Entering Gaussian System, Link 0=g16
 Input=DDL-LR-Eq-10.gjf
 Output=DDL-LR-Eq-10.log
 Initial command:
 /data/home/wyx/g16/l1.exe "/scr/tmp/wyx/13109/Gau-1686920.inp" -scrdir="/scr/tmp/wyx/13109/"
 Entering Link 1 = /data/home/wyx/g16/l1.exe PID=   1686921.
  
 Copyright (c) 1988,1990,1992,1993,1995,1998,2003,2009,2016,
            Gaussian, Inc.  All Rights Reserved.
  
 This is part of the Gaussian(R) 16 program.  It is based on
 the Gaussian(R) 09 system (copyright 2009, Gaussian, Inc.),
 the Gaussian(R) 03 system (copyright 2003, Gaussian, Inc.),
 the Gaussian(R) 98 system (copyright 1998, Gaussian, Inc.),
 the Gaussian(R) 94 system (copyright 1995, Gaussian, Inc.),
 the Gaussian 92(TM) system (copyright 1992, Gaussian, Inc.),
 the Gaussian 90(TM) system (copyright 1990, Gaussian, Inc.),
 the Gaussian 88(TM) system (copyright 1988, Gaussian, Inc.),
 the Gaussian 86(TM) system (copyright 1986, Carnegie Mellon
 University), and the Gaussian 82(TM) system (copyright 1983,
 Carnegie Mellon University). Gaussian is a federally registered
 trademark of Gaussian, Inc.
  
 This software contains proprietary and confidential information,
 including trade secrets, belonging to Gaussian, Inc.
  
 This software is provided under written license and may be
 used, copied, transmitted, or stored only in accord with that
 written license.
  
 The following legend is applicable only to US Government
 contracts under FAR:
  
                    RESTRICTED RIGHTS LEGEND
  
 Use, reproduction and disclosure by the US Government is
 subject to restrictions as set forth in subparagraphs (a)
 and (c) of the Commercial Computer Software - Restricted
 Rights clause in FAR 52.227-19.
  
 Gaussian, Inc.
 340 Quinnipiac St., Bldg. 40, Wallingford CT 06492
  
  
 ---------------------------------------------------------------
 Warning -- This program may not be used in any manner that
 competes with the business of Gaussian, Inc. or will provide
 assistance to any competitor of Gaussian, Inc.  The licensee
 of this program is prohibited from giving any competitor of
 Gaussian, Inc. access to this program.  By using this program,
 the user acknowledges that Gaussian, Inc. is engaged in the
 business of creating and licensing software in the field of
 computational chemistry and represents and warrants to the
 licensee that it is not a competitor of Gaussian, Inc. and that
 it will not use this program in any manner prohibited above.
 ---------------------------------------------------------------
  

 Cite this work as:
 Gaussian 16, Revision A.03,
 M. J. Frisch, G. W. Trucks, H. B. Schlegel, G. E. Scuseria, 
 M. A. Robb, J. R. Cheeseman, G. Scalmani, V. Barone, 
 G. A. Petersson, H. Nakatsuji, X. Li, M. Caricato, A. V. Marenich, 
 J. Bloino, B. G. Janesko, R. Gomperts, B. Mennucci, H. P. Hratchian, 
 J. V. Ortiz, A. F. Izmaylov, J. L. Sonnenberg, D. Williams-Young, 
 F. Ding, F. Lipparini, F. Egidi, J. Goings, B. Peng, A. Petrone, 
 T. Henderson, D. Ranasinghe, V. G. Zakrzewski, J. Gao, N. Rega, 
 G. Zheng, W. Liang, M. Hada, M. Ehara, K. Toyota, R. Fukuda, 
 J. Hasegawa, M. Ishida, T. Nakajima, Y. Honda, O. Kitao, H. Nakai, 
 T. Vreven, K. Throssell, J. A. Montgomery, Jr., J. E. Peralta, 
 F. Ogliaro, M. J. Bearpark, J. J. Heyd, E. N. Brothers, K. N. Kudin, 
 V. N. Staroverov, T. A. Keith, R. Kobayashi, J. Normand, 
 K. Raghavachari, A. P. Rendell, J. C. Burant, S. S. Iyengar, 
 J. Tomasi, M. Cossi, J. M. Millam, M. Klene, C. Adamo, R. Cammi, 
 J. W. Ochterski, R. L. Martin, K. Morokuma, O. Farkas, 
 J. B. Foresman, and D. J. Fox, Gaussian, Inc., Wallingford CT, 2016.
 
 ******************************************
 Gaussian 16:  ES64L-G16RevA.03 25-Dec-2016
                23-Jan-2026 
 ******************************************
 %nprocshared=16
 Will use up to   16 processors via shared memory.
 %mem=16GB
 %oldchk=DDL-LR-10.chk
 %chk=DDL-LR-Eq-10.chk
 Copying data from "DDL-LR-10.chk" to current chk file "DDL-LR-Eq-10.chk"
 IOpt=  2 FromEx=T IUOpen= 4 IOptOp= 5 NList=   0 IFRang= 0 IUIn= 4 IUOut= 2.
 ----------------------------------------------------------------------
 #p CAM-B3LYP TZVP em=gd3bj td(Eqsolv,nstates=6,root=1) scrf=(Solvent=T
 etraHydroFuran) Geom=Check Guess=Read
 ----------------------------------------------------------------------
 1/29=2,38=1,172=1/1;
 2/12=2,40=1/2;
 3/5=19,7=101,11=9,14=-4,25=1,30=1,70=2201,72=20,74=-40,116=-2,124=41/1,2,3,8;
 4/5=1/1;
 5/5=2,38=6,53=20/2;
 8/6=1,10=1,107=1,108=6/1;
 9/8=1,41=6,42=1,70=2,73=2/14;
 6/7=2,8=2,9=2,10=2/1;
 99/5=1,9=1/99;
 Leave Link    1 at Fri Jan 23 16:05:26 2026, MaxMem=  2147483648 cpu:               0.8 elap:               0.1
 (Enter /data/home/wyx/g16/l101.exe)
 -------------------
 Title Card Required
 -------------------
 Structure from the checkpoint file:  "DDL-LR-Eq-10.chk"
 Charge =  0 Multiplicity = 1
 Z-Matrix found in chk file.
 O,0,2.812196,-1.577469,0.289801
 O,0,-3.447231,-1.638882,-0.163557
 N,0,-0.641454,1.519284,-0.253884
 H,0,-0.955101,2.474361,-0.297176
 C,0,-1.241723,-0.759305,-0.204004
 C,0,0.688402,1.304486,-0.013089
 C,0,-1.614106,0.541001,-0.27221
 C,0,-2.208707,-1.822224,-0.195632
 C,0,0.219247,-1.125259,-0.185402
 H,0,0.402316,-1.878405,0.581023
 H,0,0.503341,-1.591889,-1.135191
 C,0,1.147307,0.035446,0.068621
 C,0,2.513569,-0.386828,0.34729
 C,0,-2.998553,1.077381,-0.357905
 H,0,-3.017807,2.02342,-0.903448
 H,0,-3.687904,0.406098,-0.863943
 H,0,-3.412968,1.251371,0.636857
 C,0,-1.781276,-3.25898,-0.236183
 H,0,-2.510353,-3.926355,-0.696101
 H,0,-0.84727,-3.419096,-0.775117
 H,0,-1.609131,-3.640533,0.775061
 C,0,3.601359,0.578249,0.737044
 H,0,3.913986,1.200585,-0.100899
 H,0,3.322936,1.238162,1.555697
 H,0,4.450352,-0.028198,1.043941
 C,0,1.451715,2.58187,0.127238
 H,0,1.734458,2.77701,1.160968
 H,0,2.35317,2.605363,-0.4773
 H,0,0.85923,3.439335,-0.192501
 Recover connectivity data from disk.
 ITRead=  0  0  0  0  0  0  0  0  0  0  0  0  0  0  0  0  0  0  0  0
 ITRead=  0  0  0  0  0  0  0  0  0
 MicOpt= -1 -1 -1 -1 -1 -1 -1 -1 -1 -1 -1 -1 -1 -1 -1 -1 -1 -1 -1 -1
 MicOpt= -1 -1 -1 -1 -1 -1 -1 -1 -1
 NAtoms=     29 NQM=       29 NQMF=       0 NMMI=      0 NMMIF=      0
                NMic=       0 NMicF=      0.
                    Isotopes and Nuclear Properties:
 (Nuclear quadrupole moments (NQMom) in fm**2, nuclear magnetic moments (NMagM)
  in nuclear magnetons)

  Atom         1           2           3           4           5           6           7           8           9          10
 IAtWgt=          16          16          14           1          12          12          12          12          12           1
 AtmWgt=  15.9949146  15.9949146  14.0030740   1.0078250  12.0000000  12.0000000  12.0000000  12.0000000  12.0000000   1.0078250
 NucSpn=           0           0           2           1           0           0           0           0           0           1
 AtZEff=   5.6000000   5.6000000   4.5500000   1.0000000   3.6000000   3.6000000   3.6000000   3.6000000   3.6000000   1.0000000
 NQMom=    0.0000000   0.0000000   2.0440000   0.0000000   0.0000000   0.0000000   0.0000000   0.0000000   0.0000000   0.0000000
 NMagM=    0.0000000   0.0000000   0.4037610   2.7928460   0.0000000   0.0000000   0.0000000   0.0000000   0.0000000   2.7928460
 AtZNuc=   8.0000000   8.0000000   7.0000000   1.0000000   6.0000000   6.0000000   6.0000000   6.0000000   6.0000000   1.0000000

  Atom        11          12          13          14          15          16          17          18          19          20
 IAtWgt=           1          12          12          12           1           1           1          12           1           1
 AtmWgt=   1.0078250  12.0000000  12.0000000  12.0000000   1.0078250   1.0078250   1.0078250  12.0000000   1.0078250   1.0078250
 NucSpn=           1           0           0           0           1           1           1           0           1           1
 AtZEff=   1.0000000   3.6000000   3.6000000   3.6000000   1.0000000   1.0000000   1.0000000   3.6000000   1.0000000   1.0000000
 NQMom=    0.0000000   0.0000000   0.0000000   0.0000000   0.0000000   0.0000000   0.0000000   0.0000000   0.0000000   0.0000000
 NMagM=    2.7928460   0.0000000   0.0000000   0.0000000   2.7928460   2.7928460   2.7928460   0.0000000   2.7928460   2.7928460
 AtZNuc=   1.0000000   6.0000000   6.0000000   6.0000000   1.0000000   1.0000000   1.0000000   6.0000000   1.0000000   1.0000000

  Atom        21          22          23          24          25          26          27          28          29
 IAtWgt=           1          12           1           1           1          12           1           1           1
 AtmWgt=   1.0078250  12.0000000   1.0078250   1.0078250   1.0078250  12.0000000   1.0078250   1.0078250   1.0078250
 NucSpn=           1           0           1           1           1           0           1           1           1
 AtZEff=   1.0000000   3.6000000   1.0000000   1.0000000   1.0000000   3.6000000   1.0000000   1.0000000   1.0000000
 NQMom=    0.0000000   0.0000000   0.0000000   0.0000000   0.0000000   0.0000000   0.0000000   0.0000000   0.0000000
 NMagM=    2.7928460   0.0000000   2.7928460   2.7928460   2.7928460   0.0000000   2.7928460   2.7928460   2.7928460
 AtZNuc=   1.0000000   6.0000000   1.0000000   1.0000000   1.0000000   6.0000000   1.0000000   1.0000000   1.0000000
 Leave Link  101 at Fri Jan 23 16:05:27 2026, MaxMem=  2147483648 cpu:               0.9 elap:               0.1
 (Enter /data/home/wyx/g16/l202.exe)
                          Input orientation:                          
 ---------------------------------------------------------------------
 Center     Atomic      Atomic             Coordinates (Angstroms)
 Number     Number       Type             X           Y           Z
 ---------------------------------------------------------------------
      1          8           0        2.812196   -1.577469    0.289801
      2          8           0       -3.447231   -1.638882   -0.163557
      3          7           0       -0.641454    1.519284   -0.253884
      4          1           0       -0.955101    2.474361   -0.297176
      5          6           0       -1.241723   -0.759305   -0.204004
      6          6           0        0.688402    1.304486   -0.013089
      7          6           0       -1.614106    0.541001   -0.272210
      8          6           0       -2.208707   -1.822224   -0.195632
      9          6           0        0.219247   -1.125259   -0.185402
     10          1           0        0.402316   -1.878405    0.581023
     11          1           0        0.503341   -1.591889   -1.135191
     12          6           0        1.147307    0.035446    0.068621
     13          6           0        2.513569   -0.386828    0.347290
     14          6           0       -2.998553    1.077381   -0.357905
     15          1           0       -3.017807    2.023420   -0.903448
     16          1           0       -3.687904    0.406098   -0.863943
     17          1           0       -3.412968    1.251371    0.636857
     18          6           0       -1.781276   -3.258980   -0.236183
     19          1           0       -2.510353   -3.926355   -0.696101
     20          1           0       -0.847270   -3.419096   -0.775117
     21          1           0       -1.609131   -3.640533    0.775061
     22          6           0        3.601359    0.578249    0.737044
     23          1           0        3.913986    1.200585   -0.100899
     24          1           0        3.322936    1.238162    1.555697
     25          1           0        4.450352   -0.028198    1.043941
     26          6           0        1.451715    2.581870    0.127238
     27          1           0        1.734458    2.777010    1.160968
     28          1           0        2.353170    2.605363   -0.477300
     29          1           0        0.859230    3.439335   -0.192501
 ---------------------------------------------------------------------
                    Distance matrix (angstroms):
                    1          2          3          4          5
     1  O    0.000000
     2  O    6.276124   0.000000
     3  N    4.670457   4.225465   0.000000
     4  H    5.563667   4.811168   1.006191   0.000000
     5  C    4.165032   2.374775   2.356858   3.247681   0.000000
     6  C    3.592758   5.078338   1.368443   2.037257   2.832148
     7  C    4.939223   2.850271   1.379647   2.042741   1.354296
     8  C    5.050249   1.252432   3.691253   4.476883   1.436985
     9  C    2.674639   3.702343   2.781924   3.787988   1.506221
    10  H    2.445996   3.928204   3.651139   4.643316   2.138110
    11  H    2.713231   4.068575   3.430256   4.400422   2.146055
    12  C    2.328577   4.895616   2.346370   3.240715   2.532473
    13  C    1.228865   6.112261   3.734815   4.542401   3.813775
    14  C    6.421258   2.759922   2.400420   2.476073   2.546282
    15  H    6.955514   3.760891   2.514585   2.196741   3.374501
    16  H    6.893255   2.174950   3.300335   3.473780   2.788814
    17  H    6.846565   2.999233   2.923437   2.899868   3.076389
    18  C    4.919769   2.324951   4.912363   5.792882   2.557446
    19  H    5.900745   2.528612   5.774368   6.599024   3.446997
    20  H    4.232887   3.209823   4.970075   5.913788   2.748864
    21  H    4.903044   2.875104   5.349658   6.242546   3.065132
    22  C    2.338787   7.443747   4.457460   5.042438   5.111758
    23  H    3.013996   7.890121   4.569136   5.036769   5.516623
    24  H    3.129077   7.554362   4.366921   4.823166   5.284178
    25  H    2.377503   8.150103   5.477731   6.105761   5.872955
    26  C    4.379205   6.472942   2.378171   2.446313   4.304391
    27  H    4.569676   6.935731   3.037867   3.074330   4.819370
    28  H    4.277293   7.194213   3.193314   3.315760   4.931423
    29  H    5.405091   6.658433   2.437707   2.057651   4.694967
                    6          7          8          9         10
     6  C    0.000000
     7  C    2.439589   0.000000
     8  C    4.266483   2.438083   0.000000
     9  C    2.480617   2.478940   2.526030   0.000000
    10  H    3.250478   3.263049   2.724663   1.090023   0.000000
    11  H    3.111647   3.126905   2.879415   1.095697   1.742896
    12  C    1.351937   2.827924   3.844944   1.507667   2.116694
    13  C    2.514289   4.275786   4.965382   2.468391   2.595539
    14  C    3.710002   1.487192   3.009634   3.903283   4.602626
    15  H    3.878865   2.136915   3.993072   4.572558   5.396771
    16  H    4.547868   2.160783   2.756825   4.251035   4.902732
    17  H    4.152889   2.137038   3.404448   4.417858   4.935079
    18  C    5.193679   3.803827   1.499536   2.925310   2.709592
    19  H    6.169298   4.576048   2.183764   3.944321   3.782696
    20  H    5.025057   4.064889   2.176996   2.597482   2.402979
    21  H    5.509360   4.310688   2.146622   3.254544   2.681169
    22  C    3.094420   5.312349   6.355236   3.897631   4.036504
    23  H    3.228451   5.569937   6.828889   4.366668   4.719854
    24  H    3.066962   5.310524   6.559893   4.272010   4.380982
    25  H    4.128635   6.231685   7.007006   4.540603   4.474836
    26  C    1.494673   3.704587   5.735763   3.919123   4.604477
    27  H    2.154291   4.273946   6.208210   4.397304   4.876867
    28  H    2.163152   4.476933   6.363457   4.307711   5.003005
    29  H    2.149175   3.811048   6.090669   4.609246   5.393095
                   11         12         13         14         15
    11  H    0.000000
    12  C    2.124164   0.000000
    13  C    2.773254   1.456930   0.000000
    14  C    4.471290   4.296011   5.746712   0.000000
    15  H    5.051994   4.716475   6.161961   1.092235   0.000000
    16  H    4.651028   4.938251   6.368209   1.087152   1.751091
    17  H    5.153810   4.753680   6.155598   1.091588   1.767697
    18  C    2.967639   4.418455   5.199557   4.505619   5.466077
    19  H    3.837302   5.446021   6.233515   5.038858   5.974975
    20  H    2.300541   4.077265   4.663656   5.002039   5.860775
    21  H    3.508353   4.648637   5.269368   5.047060   6.073065
    22  C    4.220483   2.600730   1.505513   6.708717   6.970875
    23  H    4.527711   3.006792   2.163775   6.918412   7.026443
    24  H    4.816657   2.896771   2.180806   6.606735   6.846097
    25  H    4.772069   3.444620   2.089274   7.659874   7.985916
    26  C    4.462444   2.565224   3.160558   4.722683   4.620693
    27  H    5.086774   3.009010   3.358416   5.253295   5.235813
    28  H    4.633747   2.890780   3.107874   5.566859   5.419193
    29  H    5.131134   3.426023   4.203301   4.526442   4.188279
                   16         17         18         19         20
    16  H    0.000000
    17  H    1.744270   0.000000
    18  C    4.178769   4.875232   0.000000
    19  H    4.492766   5.422208   1.090168   0.000000
    20  H    4.765417   5.512689   1.090162   1.740517   0.000000
    21  H    4.835582   5.215712   1.094455   1.748775   1.741413
    22  C    7.464995   7.047263   6.681636   7.726473   6.168930
    23  H    7.681287   7.364178   7.234779   8.240868   6.668252
    24  H    7.463167   6.798297   7.034778   8.109876   6.671834
    25  H    8.370176   7.977143   7.135114   8.165463   6.547668
    26  C    5.668519   5.069031   6.685793   7.663737   6.489312
    27  H    6.254878   5.394280   7.123594   8.148756   6.986091
    28  H    6.440562   6.026856   7.179297   8.146476   6.828295
    29  H    5.507067   4.871006   7.200111   8.115485   7.091520
                   21         22         23         24         25
    21  H    0.000000
    22  C    6.704385   0.000000
    23  H    7.396523   1.089581   0.000000
    24  H    6.981142   1.087749   1.759279   0.000000
    25  H    7.059646   1.087544   1.763024   1.771053   0.000000
    26  C    6.964679   3.001221   2.832450   2.710630   4.079782
    27  H    7.246611   2.915404   2.971156   2.246581   3.906273
    28  H    7.501963   2.672414   2.133360   2.634912   3.694319
    29  H    7.559994   4.070521   3.788394   3.737808   5.142833
                   26         27         28         29
    26  C    0.000000
    27  H    1.089321   0.000000
    28  H    1.085652   1.759599   0.000000
    29  H    1.090192   1.742578   1.734496   0.000000
 Stoichiometry    C11H15NO2
 Framework group  C1[X(C11H15NO2)]
 Deg. of freedom    81
 Full point group                 C1      NOp   1
 RotChk:  IX=0 Diff= 1.34D-15
 Largest Abelian subgroup         C1      NOp   1
 Largest concise Abelian subgroup C1      NOp   1
                         Standard orientation:                         
 ---------------------------------------------------------------------
 Center     Atomic      Atomic             Coordinates (Angstroms)
 Number     Number       Type             X           Y           Z
 ---------------------------------------------------------------------
      1          8           0        2.264418   -2.305142   -0.084857
      2          8           0       -3.644036   -0.217107    0.261559
      3          7           0        0.044581    1.803612   -0.145079
      4          1           0        0.074853    2.809307   -0.135954
      5          6           0       -1.290943   -0.135913   -0.048143
      6          6           0        1.238358    1.137976   -0.078283
      7          6           0       -1.199862    1.215311   -0.051864
      8          6           0       -2.556060   -0.807109    0.069753
      9          6           0       -0.052405   -0.975603   -0.220326
     10          1           0       -0.051781   -1.787546    0.506928
     11          1           0       -0.057123   -1.457391   -1.204404
     12          6           0        1.240217   -0.213944   -0.071786
     13          6           0        2.401121   -1.088883    0.025302
     14          6           0       -2.316331    2.192870    0.046200
     15          1           0       -2.072611    3.118224   -0.480389
     16          1           0       -3.247571    1.824011   -0.376453
     17          1           0       -2.528310    2.441455    1.087754
     18          6           0       -2.655170   -2.299103   -0.043130
     19          1           0       -3.616786   -2.653393   -0.414936
     20          1           0       -1.901522   -2.735988   -0.698570
     21          1           0       -2.509033   -2.771926    0.933042
     22          6           0        3.791178   -0.572611    0.285638
     23          1           0        4.199531   -0.047488   -0.577310
     24          1           0        3.852375    0.096072    1.141392
     25          1           0        4.409947   -1.446860    0.474231
     26          6           0        2.404323    2.071347   -0.020050
     27          1           0        2.853993    2.101454    0.971671
     28          1           0        3.183053    1.821582   -0.734078
     29          1           0        2.109308    3.095173   -0.250845
 ---------------------------------------------------------------------
 Rotational constants (GHZ):           1.0964819           0.4864952           0.3422975
 Leave Link  202 at Fri Jan 23 16:05:27 2026, MaxMem=  2147483648 cpu:               0.0 elap:               0.0
 (Enter /data/home/wyx/g16/l301.exe)
 Standard basis: TZVP (5D, 7F)
 Ernie: Thresh=  0.10000D-02 Tol=  0.10000D-05 Strict=F.
 There are   370 symmetry adapted cartesian basis functions of A   symmetry.
 There are   356 symmetry adapted basis functions of A   symmetry.
   356 basis functions,   610 primitive gaussians,   370 cartesian basis functions
    52 alpha electrons       52 beta electrons
       nuclear repulsion energy       900.4665285323 Hartrees.
 IExCor=20419 DFT=T Ex+Corr=CAM-B3LYP ExCW=0 ScaHFX=  1.000000
 ScaDFX=  1.000000  1.000000  1.000000  0.810000 ScalE2=  1.000000  1.000000
 IRadAn=      5 IRanWt=     -1 IRanGd=            0 ICorTp=0 IEmpDi=141
 HFx  wShort=  0.000000 wLong=  0.330000 cFull=  0.190000 cShort=  0.000000 cLong=  0.460000
 DFx  wShort=  0.000000 wLong=  0.330000 cFull=  0.190000 cShort=  0.000000 cLong=  0.460000
 NAtoms=   29 NActive=   29 NUniq=   29 SFac= 1.00D+00 NAtFMM=   60 NAOKFM=F Big=F
 Integral buffers will be    131072 words long.
 Raffenetti 1 integral format.
 Two-electron integral symmetry is turned on.
 R6Disp:  Grimme-D3(BJ) Dispersion energy=       -0.0261516924 Hartrees.
 Nuclear repulsion after empirical dispersion term =      900.4403768399 Hartrees.
 ------------------------------------------------------------------------------
 Polarizable Continuum Model (PCM)
 =================================
 Model                : PCM.
 Atomic radii         : UFF (Universal Force Field).
 Polarization charges : Total charges.
 Charge compensation  : None.
 Solution method      : On-the-fly selection.
 Cavity type          : Scaled VdW (van der Waals Surface) (Alpha=1.100).
 Cavity algorithm     : GePol (No added spheres)
                        Default sphere list used, NSphG=   29.
                        Lebedev-Laikov grids with approx.  5.0 points / Ang**2.
                        Smoothing algorithm: York/Karplus (Gamma=1.0000).
                        Polarization charges: spherical gaussians, with
                                              point-specific exponents (IZeta= 3).
                        Self-potential: point-specific (ISelfS= 7).
                        Self-field    : sphere-specific E.n sum rule (ISelfD= 2).
 Solvent              : TetraHydroFuran, Eps=   7.425700 Eps(inf)=   1.974025
 ------------------------------------------------------------------------------
 GePol: Number of generator spheres                  =      29
 GePol: Total number of spheres                      =      29
 GePol: Number of exposed spheres                    =      29 (100.00%)
 GePol: Number of points                             =    2106
 GePol: Average weight of points                     =       0.13
 GePol: Minimum weight of points                     =   0.65D-08
 GePol: Maximum weight of points                     =    0.20577
 GePol: Number of points with low weight             =     134
 GePol: Fraction of low-weight points (<1% of avg)   =       6.36%
 GePol: Cavity surface area                          =    269.068 Ang**2
 GePol: Cavity volume                                =    286.676 Ang**3
 Leave Link  301 at Fri Jan 23 16:05:28 2026, MaxMem=  2147483648 cpu:               0.5 elap:               0.0
 (Enter /data/home/wyx/g16/l302.exe)
 NPDir=0 NMtPBC=     1 NCelOv=     1 NCel=       1 NClECP=     1 NCelD=      1
         NCelK=      1 NCelE2=     1 NClLst=     1 CellRange=     0.0.
 One-electron integrals computed using PRISM.
 One-electron integral symmetry used in STVInt
 NBasis=   356 RedAO= T EigKep=  3.94D-05  NBF=   356
 NBsUse=   356 1.00D-06 EigRej= -1.00D+00 NBFU=   356
 Precomputing XC quadrature grid using
 IXCGrd= 4 IRadAn=           5 IRanWt=          -1 IRanGd=           0 AccXCQ= 0.00D+00.
 Generated NRdTot=       0 NPtTot=           0 NUsed=           0 NTot=          32
 NSgBfM=   366   366   366   366   366 MxSgAt=    29 MxSgA2=    29.
 Leave Link  302 at Fri Jan 23 16:05:28 2026, MaxMem=  2147483648 cpu:               3.2 elap:               0.2
 (Enter /data/home/wyx/g16/l303.exe)
 DipDrv:  MaxL=1.
 Leave Link  303 at Fri Jan 23 16:05:28 2026, MaxMem=  2147483648 cpu:               0.6 elap:               0.0
 (Enter /data/home/wyx/g16/l308.exe)
 Leave Link  308 at Fri Jan 23 16:05:29 2026, MaxMem=  2147483648 cpu:               0.7 elap:               0.1
 (Enter /data/home/wyx/g16/l401.exe)
 Initial guess from the checkpoint file:  "DDL-LR-Eq-10.chk"
 B after Tr=     0.000000    0.000000    0.000000
         Rot=    1.000000    0.000000    0.000000   -0.000000 Ang=   0.00 deg.
 Guess basis will be translated and rotated to current coordinates.
 JPrj=2 DoOrth=T DoCkMO=T.
 Leave Link  401 at Fri Jan 23 16:05:29 2026, MaxMem=  2147483648 cpu:               2.2 elap:               0.2
 (Enter /data/home/wyx/g16/l502.exe)
 Integral symmetry usage will be decided dynamically.
 Closed shell SCF:
 Using DIIS extrapolation, IDIIS=  1040.
 NGot=  2147483648 LenX=  2147200095 LenY=  2147062754
 Requested convergence on RMS density matrix=1.00D-08 within 128 cycles.
 Requested convergence on MAX density matrix=1.00D-06.
 Requested convergence on             energy=1.00D-06.
 No special actions if energy rises.
 Fock matrices will be formed incrementally for  20 cycles.

 Cycle   1  Pass 1  IDiag  1:
 FoFJK:  IHMeth= 1 ICntrl=       0 DoSepK=T KAlg= 0 I1Cent=           0 FoldK=F
 IRaf=         1 NMat=       1 IRICut=       1 DoRegI=T DoRafI=F ISym2E= 0 IDoP0=0 IntGTp=1.
 FoFCou: FMM=F IPFlag=           0 FMFlag=      100000 FMFlg1=           0
         NFxFlg=           0 DoJE=T BraDBF=F KetDBF=F FulRan=T
         wScrn=  0.000000 ICntrl=       500 IOpCl=  0 I1Cent=           0 NGrid=           0
         NMat0=    1 NMatS0=      1 NMatT0=    0 NMatD0=    1 NMtDS0=    0 NMtDT0=    0
 Symmetry not used in FoFCou.
 Inv3:  Mode=1 IEnd=    13305708.
 Iteration    1 A*A^-1 deviation from unit magnitude is 3.66D-15 for   1049.
 Iteration    1 A*A^-1 deviation from orthogonality  is 1.89D-15 for   1798    241.
 Iteration    1 A^-1*A deviation from unit magnitude is 3.66D-15 for   1049.
 Iteration    1 A^-1*A deviation from orthogonality  is 1.84D-15 for   1749    507.
 E= -633.323272323528    
 DIIS: error= 5.31D-09 at cycle   1 NSaved=   1.
 NSaved= 1 IEnMin= 1 EnMin= -633.323272323528     IErMin= 1 ErrMin= 5.31D-09
 ErrMax= 5.31D-09  0.00D+00 EMaxC= 1.00D-01 BMatC= 1.56D-14 BMatP= 1.56D-14
 IDIUse=1 WtCom= 1.00D+00 WtEn= 0.00D+00
 Coeff-Com:  0.100D+01
 Coeff:      0.100D+01
 Gap=     0.234 Goal=   None    Shift=    0.000
 RMSDP=1.64D-09 MaxDP=9.74D-08              OVMax= 1.19D-07

 Error on total polarization charges =  0.01455
 SCF Done:  E(RCAM-B3LYP) =  -633.323272324     A.U. after    1 cycles
            NFock=  1  Conv=0.16D-08     -V/T= 2.0041
 KE= 6.307365235126D+02 PE=-3.276941925594D+03 EE= 1.112441752918D+03
 Leave Link  502 at Fri Jan 23 16:05:35 2026, MaxMem=  2147483648 cpu:              85.0 elap:               5.6
 (Enter /data/home/wyx/g16/l801.exe)
 DoSCS=F DFT=T ScalE2(SS,OS)=  1.000000  1.000000
 ExpMin= 9.52D-02 ExpMax= 2.70D+04 ExpMxC= 9.22D+02 IAcc=3 IRadAn=         5 AccDes= 0.00D+00
 HarFok:  IExCor=  205 AccDes= 0.00D+00 IRadAn=         5 IDoV=-2 UseB2=F ITyADJ=14
 ICtDFT= 12500011 ScaDFX=  1.000000  1.000000  1.000000  1.000000
 Largest valence mixing into a core orbital is  5.63D-05
 Largest core mixing into a valence orbital is  1.15D-05
 Range of M.O.s used for correlation:    15   356
 NBasis=   356 NAE=    52 NBE=    52 NFC=    14 NFV=     0
 NROrb=    342 NOA=    38 NOB=    38 NVA=   304 NVB=   304

 **** Warning!!: The largest alpha MO coefficient is  0.37983142D+02

 Leave Link  801 at Fri Jan 23 16:05:35 2026, MaxMem=  2147483648 cpu:               1.0 elap:               0.1
 (Enter /data/home/wyx/g16/l914.exe)
 RHF ground state
 Two-electron integrals replicated using symmetry.
 MDV=  2147483648 DFT=T DoStab=F Mixed=T DoRPA=T DoScal=F NonHer=T
 NEqPCM:  Using equilibrium solvation (IEInf=0, Eps=   7.4257, EpsInf=   1.9740)
 Making orbital integer symmetry assigments:
 Orbital symmetries:
       Occupied  (A) (A) (A) (A) (A) (A) (A) (A) (A) (A) (A) (A)
                 (A) (A) (A) (A) (A) (A) (A) (A) (A) (A) (A) (A)
                 (A) (A) (A) (A) (A) (A) (A) (A) (A) (A) (A) (A)
                 (A) (A) (A) (A) (A) (A) (A) (A) (A) (A) (A) (A)
                 (A) (A) (A) (A)
       Virtual   (A) (A) (A) (A) (A) (A) (A) (A) (A) (A) (A) (A)
                 (A) (A) (A) (A) (A) (A) (A) (A) (A) (A) (A) (A)
                 (A) (A) (A) (A) (A) (A) (A) (A) (A) (A) (A) (A)
                 (A) (A) (A) (A) (A) (A) (A) (A) (A) (A) (A) (A)
                 (A) (A) (A) (A) (A) (A) (A) (A) (A) (A) (A) (A)
                 (A) (A) (A) (A) (A) (A) (A) (A) (A) (A) (A) (A)
                 (A) (A) (A) (A) (A) (A) (A) (A) (A) (A) (A) (A)
                 (A) (A) (A) (A) (A) (A) (A) (A) (A) (A) (A) (A)
                 (A) (A) (A) (A) (A) (A) (A) (A) (A) (A) (A) (A)
                 (A) (A) (A) (A) (A) (A) (A) (A) (A) (A) (A) (A)
                 (A) (A) (A) (A) (A) (A) (A) (A) (A) (A) (A) (A)
                 (A) (A) (A) (A) (A) (A) (A) (A) (A) (A) (A) (A)
                 (A) (A) (A) (A) (A) (A) (A) (A) (A) (A) (A) (A)
                 (A) (A) (A) (A) (A) (A) (A) (A) (A) (A) (A) (A)
                 (A) (A) (A) (A) (A) (A) (A) (A) (A) (A) (A) (A)
                 (A) (A) (A) (A) (A) (A) (A) (A) (A) (A) (A) (A)
                 (A) (A) (A) (A) (A) (A) (A) (A) (A) (A) (A) (A)
                 (A) (A) (A) (A) (A) (A) (A) (A) (A) (A) (A) (A)
                 (A) (A) (A) (A) (A) (A) (A) (A) (A) (A) (A) (A)
                 (A) (A) (A) (A) (A) (A) (A) (A) (A) (A) (A) (A)
                 (A) (A) (A) (A) (A) (A) (A) (A) (A) (A) (A) (A)
                 (A) (A) (A) (A) (A) (A) (A) (A) (A) (A) (A) (A)
                 (A) (A) (A) (A) (A) (A) (A) (A) (A) (A) (A) (A)
                 (A) (A) (A) (A) (A) (A) (A) (A) (A) (A) (A) (A)
                 (A) (A) (A) (A) (A) (A) (A) (A) (A) (A) (A) (A)
                 (A) (A) (A) (A)
    24 initial guesses have been made.
 Convergence on wavefunction:    0.001000000000000
 Davidson Disk Diagonalization:  ConvIn= 1.00D-03 SkipCon=T Conv= 1.00D-03.
 Max sub-space:  2000 roots to seek:    24 dimension of matrix:        23104
 Iteration     1 Dimension    24 NMult     0 NNew     24
 CISAX will form    24 AO SS matrices at one time.
 NMat=    24 NSing=    24 JSym2X= 0.
 FoFJK:  IHMeth= 1 ICntrl=       0 DoSepK=T KAlg= 0 I1Cent=           0 FoldK=F
 IRaf=         1 NMat=      48 IRICut=       1 DoRegI=T DoRafI=F ISym2E= 0 IDoP0=3 IntGTp=3.
 FoFCou: FMM=F IPFlag=           0 FMFlag=      100000 FMFlg1=           0
         NFxFlg=           0 DoJE=F BraDBF=F KetDBF=F FulRan=T
         wScrn=  0.000000 ICntrl=       500 IOpCl=  0 I1Cent=           0 NGrid=           0
         NMat0=   24 NMatS0=     24 NMatT0=    0 NMatD0=   24 NMtDS0=    0 NMtDT0=    0
 Symmetry not used in FoFCou.
 New state      3 was old state      4
 New state      4 was old state      3
 New state      5 was old state      6
 New state      6 was old state      5
 Excitation Energies [eV] at current iteration:
 Root      1 :     3.777887098122041
 Root      2 :     4.036043197387965
 Root      3 :     4.495149551269835
 Root      4 :     5.522261462648123
 Root      5 :     6.184334136351941
 Root      6 :     6.321995292384701
 Root      7 :     6.731637274735585
 Root      8 :     6.756210964260212
 Root      9 :     6.843396551458731
 Root     10 :     7.083606116271884
 Root     11 :     7.296012082410860
 Root     12 :     7.463083372876841
 Root     13 :     7.488515413718738
 Root     14 :     7.622484919210233
 Root     15 :     7.738218943789484
 Root     16 :     7.987341526682909
 Root     17 :     8.188481596530105
 Root     18 :     8.243699573970749
 Root     19 :     8.311723886960003
 Root     20 :     8.504492075485304
 Root     21 :     8.667714643065564
 Root     22 :     8.756495779814005
 Root     23 :     8.888796293940525
 Root     24 :     9.110508306718176
 Iteration     2 Dimension    36 NMult    24 NNew     12
 CISAX will form    12 AO SS matrices at one time.
 NMat=    12 NSing=    12 JSym2X= 0.
 Root      1 not converged, maximum delta is    0.081227298116377
 Root      2 not converged, maximum delta is    0.075787542384770
 Root      3 not converged, maximum delta is    0.098214027732021
 Root      4 not converged, maximum delta is    0.367170716182463
 New state      5 was old state      6
 Root      5 not converged, maximum delta is    0.328546120736418
 New state      6 was old state      5
 Root      6 not converged, maximum delta is    0.192217214588468
 Excitation Energies [eV] at current iteration:
 Root      1 :     3.357343011509964   Change is   -0.420544086612077
 Root      2 :     3.802263156411030   Change is   -0.233780040976935
 Root      3 :     4.238366227258337   Change is   -0.256783324011497
 Root      4 :     5.105390250921088   Change is   -0.416871211727035
 Root      5 :     5.594000518536361   Change is   -0.727994773848340
 Root      6 :     6.060188595963159   Change is   -0.124145540388782
 Iteration     3 Dimension    48 NMult    36 NNew     12
 CISAX will form    12 AO SS matrices at one time.
 NMat=    12 NSing=    12 JSym2X= 0.
 Root      1 not converged, maximum delta is    0.008328703643126
 Root      2 not converged, maximum delta is    0.010614600622206
 Root      3 not converged, maximum delta is    0.017364884060349
 Root      4 not converged, maximum delta is    0.015708014332307
 Root      5 not converged, maximum delta is    0.015316909102537
 Root      6 not converged, maximum delta is    0.015240406112758
 Excitation Energies [eV] at current iteration:
 Root      1 :     3.342556153631600   Change is   -0.014786857878364
 Root      2 :     3.790919509410489   Change is   -0.011343647000541
 Root      3 :     4.225149567625085   Change is   -0.013216659633252
 Root      4 :     5.083676923387507   Change is   -0.021713327533581
 Root      5 :     5.575930795647460   Change is   -0.018069722888901
 Root      6 :     6.052632485244245   Change is   -0.007556110718914
 Iteration     4 Dimension    60 NMult    48 NNew     12
 CISAX will form    12 AO SS matrices at one time.
 NMat=    12 NSing=    12 JSym2X= 0.
 Root      1 not converged, maximum delta is    0.002177616980317
 Root      2 not converged, maximum delta is    0.001789415173051
 Root      3 not converged, maximum delta is    0.002044715475243
 Root      4 not converged, maximum delta is    0.003183163347484
 Root      5 not converged, maximum delta is    0.003225852073418
 Root      6 not converged, maximum delta is    0.003860324809798
 Excitation Energies [eV] at current iteration:
 Root      1 :     3.341302673648782   Change is   -0.001253479982818
 Root      2 :     3.790066211570399   Change is   -0.000853297840090
 Root      3 :     4.224613526761057   Change is   -0.000536040864028
 Root      4 :     5.081373607782031   Change is   -0.002303315605476
 Root      5 :     5.573829840744465   Change is   -0.002100954902995
 Root      6 :     6.052119857584222   Change is   -0.000512627660023
 Iteration     5 Dimension    72 NMult    60 NNew     12
 CISAX will form    12 AO SS matrices at one time.
 NMat=    12 NSing=    12 JSym2X= 0.
 Root      1 has converged.
 Root      2 has converged.
 Root      3 has converged.
 Root      4 has converged.
 Root      5 has converged.
 Root      6 has converged.
 Excitation Energies [eV] at current iteration:
 Root      1 :     3.341242040386809   Change is   -0.000060633261973
 Root      2 :     3.790031564183074   Change is   -0.000034647387325
 Root      3 :     4.224577762345373   Change is   -0.000035764415684
 Root      4 :     5.081213209016621   Change is   -0.000160398765411
 Root      5 :     5.573664112333776   Change is   -0.000165728410690
 Root      6 :     6.052082564187657   Change is   -0.000037293396564
 Convergence achieved on expansion vectors.
 ***********************************************************************
 Excited states from <AA,BB:AA,BB> singles matrix:
 ***********************************************************************
 
 1PDM for each excited state written to RWF  633
 Ground to excited state transition densities written to RWF  633
 Ground to excited state transition electric dipole moments (Au):
       state          X           Y           Z        Dip. S.      Osc.
         1         1.6564     -0.1298     -0.0341      2.7617      0.2261
         2         0.2286     -0.0441     -0.0467      0.0564      0.0052
         3        -0.0077     -0.0817      0.0399      0.0083      0.0009
         4        -0.0872     -1.7783      0.0854      3.1774      0.3955
         5         0.2119      1.4330     -0.0093      2.0984      0.2865
         6         0.0189      0.1600      0.0401      0.0276      0.0041
 Ground to excited state transition velocity dipole moments (Au):
       state          X           Y           Z        Dip. S.      Osc.
         1        -0.1960      0.0132      0.0042      0.0386      0.2097
         2        -0.0315      0.0052      0.0046      0.0010      0.0050
         3         0.0010      0.0122     -0.0028      0.0002      0.0007
         4         0.0202      0.3158     -0.0127      0.1003      0.3580
         5        -0.0420     -0.2888      0.0024      0.0852      0.2773
         6        -0.0054     -0.0327     -0.0288      0.0019      0.0058
 Ground to excited state transition magnetic dipole moments (Au):
       state          X           Y           Z
         1         0.0806     -0.0174      1.4599
         2        -0.7872      0.2695      0.3754
         3        -0.0347      0.9638      0.0644
         4         0.0603     -0.0623      0.2901
         5        -0.1798      0.0812     -0.2476
         6        -0.0314     -0.0038     -0.0073
 Ground to excited state transition velocity quadrupole moments (Au):
       state          XX          YY          ZZ          XY          XZ          YZ
         1         0.2834     -0.1286     -0.0064      0.5261     -0.0412     -0.0060
         2         0.0399      0.0075     -0.0010      0.0928     -0.0372     -0.0644
         3        -0.0134      0.0091     -0.0159      0.0232     -0.0791      0.0023
         4        -1.4037      0.3081      0.0226      0.1867      0.0554     -0.0203
         5         0.6027     -0.3488     -0.0417     -0.0826     -0.0398     -0.0637
         6        -0.1566     -0.1167      0.1009      0.0009      0.0176      0.0496
 <0|del|b> * <b|rxdel|0> + <0|del|b> * <b|delr+rdel|0>
 Rotatory Strengths (R) in cgs (10**-40 erg-esu-cm/Gauss)
       state          XX          YY          ZZ    R(velocity)    E-M Angle
         1        24.8065    -30.8722    -51.1321    -19.0659       91.98
         2         9.5140     71.4282     60.9363     47.2928       18.50
         3        28.4908     -0.3357     24.5598     17.5716       17.95
         4       -81.8385     -0.9590     -1.0059    -27.9345      103.34
         5       -61.7208     16.9764    -12.2145    -18.9863      100.29
         6         1.4084      0.2141     -0.0145      0.5360       69.21
 1/2[<0|r|b>*<b|rxdel|0> + (<0|rxdel|b>*<b|r|0>)*]
 Rotatory Strengths (R) in cgs (10**-40 erg-esu-cm/Gauss)
       state          XX          YY          ZZ     R(length)
         1       -94.4444     -1.5963     35.1699    -20.2902
         2       127.2443      8.4007     12.4057     49.3502
         3        -0.1898     55.6929     -1.8156     17.8958
         4         3.7186    -78.2966    -17.5234    -30.7005
         5        26.9372    -82.2861     -1.6238    -18.9909
         6         0.4203      0.4352      0.2058      0.3538
  1/2[<0|del|b>*<b|r|0> + (<0|r|b>*<b|del|0>)*] (Au)
       state          X           Y           Z        Dip. S.   Osc.(frdel)
         1        -0.3247     -0.0017     -0.0001      0.3265      0.2177
         2        -0.0072     -0.0002     -0.0002      0.0076      0.0051
         3        -0.0000     -0.0010     -0.0001      0.0011      0.0007
         4        -0.0018     -0.5616     -0.0011      0.5644      0.3763
         5        -0.0089     -0.4139     -0.0000      0.4228      0.2819
         6        -0.0001     -0.0052     -0.0012      0.0065      0.0043

 Excitation energies and oscillator strengths:
 
 Excited State   1:      Singlet-A      3.3412 eV  371.07 nm  f=0.2261  <S**2>=0.000
      52 -> 53         0.69761
 This state for optimization and/or second-order correction.
 Total Energy, E(TD-HF/TD-DFT) =  -633.200483938    
 Copying the excited state density for this state as the 1-particle RhoCI density.
 
 Excited State   2:      Singlet-A      3.7900 eV  327.13 nm  f=0.0052  <S**2>=0.000
      51 -> 53         0.59336
      51 -> 54        -0.32516
 
 Excited State   3:      Singlet-A      4.2246 eV  293.48 nm  f=0.0009  <S**2>=0.000
      50 -> 53         0.54512
      50 -> 54         0.37571
      50 -> 58         0.12324
      51 -> 54        -0.13127
 
 Excited State   4:      Singlet-A      5.0812 eV  244.01 nm  f=0.3955  <S**2>=0.000
      52 -> 54         0.69337
 
 Excited State   5:      Singlet-A      5.5737 eV  222.45 nm  f=0.2865  <S**2>=0.000
      49 -> 53         0.68079
      50 -> 53        -0.11099
 
 Excited State   6:      Singlet-A      6.0521 eV  204.86 nm  f=0.0041  <S**2>=0.000
      52 -> 55         0.65976
      52 -> 56         0.12174
      52 -> 57         0.11272
 SavETr:  write IOETrn=   770 NScale= 10 NData=  16 NLR=1 NState=    6 LETran=     118.
 Leave Link  914 at Fri Jan 23 16:07:26 2026, MaxMem=  2147483648 cpu:            1766.2 elap:             110.7
 (Enter /data/home/wyx/g16/l601.exe)
 Copying SCF densities to generalized density rwf, IOpCl= 0 IROHF=0.

 **********************************************************************

            Population analysis using the SCF density.

 **********************************************************************

 Orbital symmetries:
       Occupied  (A) (A) (A) (A) (A) (A) (A) (A) (A) (A) (A) (A)
                 (A) (A) (A) (A) (A) (A) (A) (A) (A) (A) (A) (A)
                 (A) (A) (A) (A) (A) (A) (A) (A) (A) (A) (A) (A)
                 (A) (A) (A) (A) (A) (A) (A) (A) (A) (A) (A) (A)
                 (A) (A) (A) (A)
       Virtual   (A) (A) (A) (A) (A) (A) (A) (A) (A) (A) (A) (A)
                 (A) (A) (A) (A) (A) (A) (A) (A) (A) (A) (A) (A)
                 (A) (A) (A) (A) (A) (A) (A) (A) (A) (A) (A) (A)
                 (A) (A) (A) (A) (A) (A) (A) (A) (A) (A) (A) (A)
                 (A) (A) (A) (A) (A) (A) (A) (A) (A) (A) (A) (A)
                 (A) (A) (A) (A) (A) (A) (A) (A) (A) (A) (A) (A)
                 (A) (A) (A) (A) (A) (A) (A) (A) (A) (A) (A) (A)
                 (A) (A) (A) (A) (A) (A) (A) (A) (A) (A) (A) (A)
                 (A) (A) (A) (A) (A) (A) (A) (A) (A) (A) (A) (A)
                 (A) (A) (A) (A) (A) (A) (A) (A) (A) (A) (A) (A)
                 (A) (A) (A) (A) (A) (A) (A) (A) (A) (A) (A) (A)
                 (A) (A) (A) (A) (A) (A) (A) (A) (A) (A) (A) (A)
                 (A) (A) (A) (A) (A) (A) (A) (A) (A) (A) (A) (A)
                 (A) (A) (A) (A) (A) (A) (A) (A) (A) (A) (A) (A)
                 (A) (A) (A) (A) (A) (A) (A) (A) (A) (A) (A) (A)
                 (A) (A) (A) (A) (A) (A) (A) (A) (A) (A) (A) (A)
                 (A) (A) (A) (A) (A) (A) (A) (A) (A) (A) (A) (A)
                 (A) (A) (A) (A) (A) (A) (A) (A) (A) (A) (A) (A)
                 (A) (A) (A) (A) (A) (A) (A) (A) (A) (A) (A) (A)
                 (A) (A) (A) (A) (A) (A) (A) (A) (A) (A) (A) (A)
                 (A) (A) (A) (A) (A) (A) (A) (A) (A) (A) (A) (A)
                 (A) (A) (A) (A) (A) (A) (A) (A) (A) (A) (A) (A)
                 (A) (A) (A) (A) (A) (A) (A) (A) (A) (A) (A) (A)
                 (A) (A) (A) (A) (A) (A) (A) (A) (A) (A) (A) (A)
                 (A) (A) (A) (A) (A) (A) (A) (A) (A) (A) (A) (A)
                 (A) (A) (A) (A)
 The electronic state is 1-A.
 Alpha  occ. eigenvalues --  -19.17774 -19.16848 -14.44323 -10.33270 -10.33091
 Alpha  occ. eigenvalues --  -10.32267 -10.31900 -10.26003 -10.25054 -10.24878
 Alpha  occ. eigenvalues --  -10.24837 -10.24634 -10.24054 -10.23701  -1.11864
 Alpha  occ. eigenvalues --   -1.10114  -1.07813  -0.91549  -0.90584  -0.83880
 Alpha  occ. eigenvalues --   -0.82560  -0.81562  -0.78711  -0.74323  -0.71526
 Alpha  occ. eigenvalues --   -0.68955  -0.62034  -0.58515  -0.56960  -0.55220
 Alpha  occ. eigenvalues --   -0.54777  -0.54088  -0.52519  -0.51939  -0.50677
 Alpha  occ. eigenvalues --   -0.49676  -0.49338  -0.49136  -0.48408  -0.48256
 Alpha  occ. eigenvalues --   -0.46759  -0.45133  -0.44772  -0.43748  -0.43008
 Alpha  occ. eigenvalues --   -0.42396  -0.41759  -0.41207  -0.33079  -0.32184
 Alpha  occ. eigenvalues --   -0.30959  -0.26203
 Alpha virt. eigenvalues --   -0.02787   0.02291   0.06291   0.08121   0.08456
 Alpha virt. eigenvalues --    0.09914   0.10644   0.11991   0.12675   0.13509
 Alpha virt. eigenvalues --    0.13943   0.15081   0.15575   0.16708   0.16901
 Alpha virt. eigenvalues --    0.17569   0.17626   0.17791   0.18361   0.19331
 Alpha virt. eigenvalues --    0.19890   0.21566   0.22892   0.23407   0.23922
 Alpha virt. eigenvalues --    0.24500   0.24686   0.25853   0.26076   0.26667
 Alpha virt. eigenvalues --    0.27303   0.27694   0.28068   0.29477   0.29914
 Alpha virt. eigenvalues --    0.31147   0.31759   0.32799   0.33515   0.34675
 Alpha virt. eigenvalues --    0.35396   0.35610   0.36708   0.37778   0.38541
 Alpha virt. eigenvalues --    0.39705   0.41215   0.41817   0.42330   0.43099
 Alpha virt. eigenvalues --    0.44111   0.45165   0.45659   0.46164   0.46577
 Alpha virt. eigenvalues --    0.46747   0.48122   0.48390   0.48785   0.49123
 Alpha virt. eigenvalues --    0.49841   0.50331   0.50851   0.51257   0.52009
 Alpha virt. eigenvalues --    0.52475   0.52885   0.53375   0.54014   0.54351
 Alpha virt. eigenvalues --    0.54728   0.55675   0.55869   0.56991   0.57605
 Alpha virt. eigenvalues --    0.58167   0.59614   0.59962   0.62064   0.62901
 Alpha virt. eigenvalues --    0.63248   0.65065   0.65943   0.67930   0.68155
 Alpha virt. eigenvalues --    0.70154   0.70863   0.71302   0.71844   0.72987
 Alpha virt. eigenvalues --    0.73834   0.74956   0.76791   0.77472   0.78615
 Alpha virt. eigenvalues --    0.80385   0.80991   0.82550   0.85813   0.87754
 Alpha virt. eigenvalues --    0.90719   0.90855   0.95778   1.01798   1.22176
 Alpha virt. eigenvalues --    1.25123   1.25704   1.27659   1.29725   1.30625
 Alpha virt. eigenvalues --    1.32626   1.33099   1.33915   1.35593   1.35948
 Alpha virt. eigenvalues --    1.37031   1.37308   1.38472   1.39038   1.39553
 Alpha virt. eigenvalues --    1.39825   1.40951   1.41087   1.41437   1.42254
 Alpha virt. eigenvalues --    1.42975   1.44175   1.44337   1.44825   1.46999
 Alpha virt. eigenvalues --    1.47867   1.49685   1.49995   1.50850   1.51698
 Alpha virt. eigenvalues --    1.52092   1.52746   1.53771   1.55651   1.57692
 Alpha virt. eigenvalues --    1.58655   1.59527   1.60628   1.61265   1.61833
 Alpha virt. eigenvalues --    1.63039   1.63400   1.64502   1.65222   1.66007
 Alpha virt. eigenvalues --    1.66132   1.66521   1.67306   1.67978   1.68593
 Alpha virt. eigenvalues --    1.69075   1.69885   1.71155   1.72429   1.73166
 Alpha virt. eigenvalues --    1.74334   1.74648   1.76032   1.76458   1.79101
 Alpha virt. eigenvalues --    1.81033   1.82575   1.83772   1.84263   1.86222
 Alpha virt. eigenvalues --    1.86860   1.87425   1.88342   1.89835   1.90303
 Alpha virt. eigenvalues --    1.91637   1.93527   1.95772   1.97986   2.00356
 Alpha virt. eigenvalues --    2.01510   2.04734   2.04984   2.06777   2.09529
 Alpha virt. eigenvalues --    2.10600   2.13318   2.15109   2.18305   2.19367
 Alpha virt. eigenvalues --    2.19846   2.22331   2.23528   2.24595   2.25327
 Alpha virt. eigenvalues --    2.26875   2.28950   2.30491   2.31212   2.33392
 Alpha virt. eigenvalues --    2.34505   2.35116   2.36369   2.37884   2.39333
 Alpha virt. eigenvalues --    2.40667   2.41537   2.42057   2.44858   2.45512
 Alpha virt. eigenvalues --    2.45840   2.48690   2.49331   2.50411   2.51771
 Alpha virt. eigenvalues --    2.52842   2.53238   2.54449   2.56001   2.57115
 Alpha virt. eigenvalues --    2.57212   2.60598   2.60844   2.62322   2.63143
 Alpha virt. eigenvalues --    2.64261   2.65661   2.66398   2.67255   2.69043
 Alpha virt. eigenvalues --    2.70114   2.72716   2.73380   2.74264   2.74926
 Alpha virt. eigenvalues --    2.76460   2.76842   2.77668   2.78135   2.79444
 Alpha virt. eigenvalues --    2.80520   2.81628   2.83226   2.84273   2.84859
 Alpha virt. eigenvalues --    2.85960   2.86376   2.88523   2.89983   2.93593
 Alpha virt. eigenvalues --    2.97333   2.98977   2.99212   3.05543   3.09794
 Alpha virt. eigenvalues --    3.10340   3.11974   3.14030   3.19543   3.20871
 Alpha virt. eigenvalues --    3.21576   3.23601   3.24260   3.25560   3.26417
 Alpha virt. eigenvalues --    3.28869   3.31833   3.32772   3.35825   3.37726
 Alpha virt. eigenvalues --    3.38434   3.39568   3.39897   3.40667   3.41803
 Alpha virt. eigenvalues --    3.42609   3.43431   3.45939   3.47668   3.48067
 Alpha virt. eigenvalues --    3.50115   3.53655   3.54946   3.57966   3.59934
 Alpha virt. eigenvalues --    3.62416   3.91682   4.00545   4.33392   4.36264
 Alpha virt. eigenvalues --   21.64198  21.77738  22.07248  22.10316  22.12065
 Alpha virt. eigenvalues --   22.13393  22.16706  22.19353  22.21615  22.27478
 Alpha virt. eigenvalues --   22.31603  31.92941  43.63424  43.65811
          Condensed to atoms (all electrons):
               1          2          3          4          5          6
     1  O    7.924678   0.000000  -0.000201   0.000017   0.015449   0.016117
     2  O    0.000000   8.032344   0.000496   0.000035  -0.183556   0.001513
     3  N   -0.000201   0.000496   6.372353   0.373214  -0.114070   0.357026
     4  H    0.000017   0.000035   0.373214   0.406320   0.014217  -0.042092
     5  C    0.015449  -0.183556  -0.114070   0.014217   7.114081  -0.053091
     6  C    0.016117   0.001513   0.357026  -0.042092  -0.053091   5.554186
     7  C   -0.000135  -0.028041   0.373638  -0.044986   0.395195  -0.135622
     8  C   -0.000396   0.665428   0.003874  -0.000836  -0.396464   0.039807
     9  C   -0.007116   0.022071   0.017432   0.000342  -0.620858  -0.079904
    10  H    0.011373  -0.000196  -0.001222   0.000009  -0.118809   0.020327
    11  H    0.003936   0.000050   0.002619   0.000016  -0.041191  -0.003627
    12  C   -0.236661  -0.003244  -0.094658   0.017713   0.187083  -0.123984
    13  C    0.742159  -0.000011   0.000221   0.000467   0.068952   0.106116
    14  C   -0.000008  -0.040442  -0.043298  -0.002940  -0.051401  -0.000653
    15  H    0.000000   0.004846   0.004745   0.000313   0.015738   0.006088
    16  H    0.000000   0.012989   0.003194   0.000741  -0.001585  -0.000475
    17  H   -0.000000   0.000882  -0.003945   0.000754  -0.013422  -0.001057
    18  C   -0.000183  -0.101469  -0.000339   0.000019  -0.203038  -0.001064
    19  H   -0.000002   0.005581   0.000005  -0.000001   0.016015   0.000028
    20  H    0.000360   0.005676   0.000107   0.000001   0.064740  -0.001398
    21  H    0.000014  -0.000202   0.000014  -0.000001  -0.007385   0.000170
    22  C   -0.126469   0.000000  -0.000051   0.000122   0.002354  -0.002714
    23  H    0.002487   0.000000   0.000087  -0.000023  -0.000174   0.008130
    24  H    0.003857  -0.000000   0.000082  -0.000036  -0.000281  -0.021828
    25  H    0.010649   0.000000   0.000015  -0.000003  -0.000080  -0.001938
    26  C    0.000820   0.000007  -0.028773  -0.010256   0.000198   0.226160
    27  H   -0.000034  -0.000000  -0.003228   0.000565   0.000472  -0.040378
    28  H   -0.000088  -0.000000   0.000331   0.000867   0.000147  -0.039020
    29  H    0.000016   0.000000   0.003531   0.001982  -0.000395  -0.051983
               7          8          9         10         11         12
     1  O   -0.000135  -0.000396  -0.007116   0.011373   0.003936  -0.236661
     2  O   -0.028041   0.665428   0.022071  -0.000196   0.000050  -0.003244
     3  N    0.373638   0.003874   0.017432  -0.001222   0.002619  -0.094658
     4  H   -0.044986  -0.000836   0.000342   0.000009   0.000016   0.017713
     5  C    0.395195  -0.396464  -0.620858  -0.118809  -0.041191   0.187083
     6  C   -0.135622   0.039807  -0.079904   0.020327  -0.003627  -0.123984
     7  C    5.488306  -0.264840  -0.206132   0.016673  -0.005360   0.027424
     8  C   -0.264840   5.576416   0.182231  -0.008801   0.000988  -0.063868
     9  C   -0.206132   0.182231   6.353391   0.549364   0.404345  -0.121486
    10  H    0.016673  -0.008801   0.549364   0.503126  -0.035534  -0.102422
    11  H   -0.005360   0.000988   0.404345  -0.035534   0.546613  -0.017163
    12  C    0.027424  -0.063868  -0.121486  -0.102422  -0.017163   7.435781
    13  C    0.019882  -0.008958  -0.221265  -0.002819  -0.006276  -0.437355
    14  C    0.236415  -0.060367   0.014268   0.000508  -0.001225   0.001323
    15  H   -0.074976   0.006350  -0.000570  -0.000010   0.000110  -0.001142
    16  H   -0.036584  -0.015471   0.001101  -0.000062   0.000113  -0.000341
    17  H   -0.015466   0.003579  -0.000271   0.000061  -0.000044   0.000267
    18  C    0.008481   0.330301  -0.000810   0.001628  -0.011898   0.004428
    19  H    0.000296  -0.042508  -0.001902   0.000479   0.000239  -0.000193
    20  H    0.004341  -0.103938  -0.015372  -0.006216   0.001569   0.007125
    21  H   -0.000557  -0.012320  -0.003595  -0.000485   0.000505  -0.002222
    22  C    0.000462  -0.000018   0.009681   0.000896   0.001516  -0.325076
    23  H   -0.000016   0.000005  -0.002127  -0.000137   0.000154   0.005091
    24  H   -0.000032  -0.000002   0.001837   0.000032  -0.000144   0.047236
    25  H    0.000014   0.000000  -0.000070  -0.000101  -0.000040   0.027557
    26  C    0.005904   0.000701   0.019013   0.000111  -0.000527  -0.096202
    27  H   -0.001238  -0.000014   0.000183   0.000035  -0.000008  -0.011800
    28  H   -0.000844  -0.000003  -0.000813   0.000003  -0.000028  -0.004349
    29  H    0.003852   0.000013  -0.000633  -0.000003   0.000041   0.021885
              13         14         15         16         17         18
     1  O    0.742159  -0.000008   0.000000   0.000000  -0.000000  -0.000183
     2  O   -0.000011  -0.040442   0.004846   0.012989   0.000882  -0.101469
     3  N    0.000221  -0.043298   0.004745   0.003194  -0.003945  -0.000339
     4  H    0.000467  -0.002940   0.000313   0.000741   0.000754   0.000019
     5  C    0.068952  -0.051401   0.015738  -0.001585  -0.013422  -0.203038
     6  C    0.106116  -0.000653   0.006088  -0.000475  -0.001057  -0.001064
     7  C    0.019882   0.236415  -0.074976  -0.036584  -0.015466   0.008481
     8  C   -0.008958  -0.060367   0.006350  -0.015471   0.003579   0.330301
     9  C   -0.221265   0.014268  -0.000570   0.001101  -0.000271  -0.000810
    10  H   -0.002819   0.000508  -0.000010  -0.000062   0.000061   0.001628
    11  H   -0.006276  -0.001225   0.000110   0.000113  -0.000044  -0.011898
    12  C   -0.437355   0.001323  -0.001142  -0.000341   0.000267   0.004428
    13  C    5.461970  -0.000025  -0.000025   0.000001  -0.000021   0.000795
    14  C   -0.000025   5.191886   0.382195   0.421846   0.401566   0.000255
    15  H   -0.000025   0.382195   0.584096  -0.027753  -0.028531   0.000186
    16  H    0.000001   0.421846  -0.027753   0.481268  -0.020372   0.000390
    17  H   -0.000021   0.401566  -0.028531  -0.020372   0.504421  -0.000001
    18  C    0.000795   0.000255   0.000186   0.000390  -0.000001   5.247091
    19  H   -0.000014  -0.000006  -0.000002   0.000085  -0.000014   0.401082
    20  H    0.001227   0.000273  -0.000019  -0.000095  -0.000001   0.395450
    21  H   -0.000079  -0.000280  -0.000005   0.000024   0.000014   0.391932
    22  C    0.332531   0.000002   0.000003  -0.000000  -0.000001   0.000016
    23  H   -0.037085  -0.000001   0.000000  -0.000000  -0.000000  -0.000002
    24  H   -0.067189   0.000000  -0.000000   0.000000   0.000000   0.000002
    25  H   -0.049947   0.000000   0.000000  -0.000000  -0.000000  -0.000000
    26  C   -0.045535   0.000695  -0.000207   0.000042  -0.000108  -0.000000
    27  H    0.004226  -0.000091   0.000017   0.000002  -0.000011  -0.000000
    28  H   -0.004248   0.000081  -0.000019  -0.000002   0.000004   0.000000
    29  H   -0.000339  -0.000050   0.000103  -0.000001  -0.000001   0.000000
              19         20         21         22         23         24
     1  O   -0.000002   0.000360   0.000014  -0.126469   0.002487   0.003857
     2  O    0.005581   0.005676  -0.000202   0.000000   0.000000  -0.000000
     3  N    0.000005   0.000107   0.000014  -0.000051   0.000087   0.000082
     4  H   -0.000001   0.000001  -0.000001   0.000122  -0.000023  -0.000036
     5  C    0.016015   0.064740  -0.007385   0.002354  -0.000174  -0.000281
     6  C    0.000028  -0.001398   0.000170  -0.002714   0.008130  -0.021828
     7  C    0.000296   0.004341  -0.000557   0.000462  -0.000016  -0.000032
     8  C   -0.042508  -0.103938  -0.012320  -0.000018   0.000005  -0.000002
     9  C   -0.001902  -0.015372  -0.003595   0.009681  -0.002127   0.001837
    10  H    0.000479  -0.006216  -0.000485   0.000896  -0.000137   0.000032
    11  H    0.000239   0.001569   0.000505   0.001516   0.000154  -0.000144
    12  C   -0.000193   0.007125  -0.002222  -0.325076   0.005091   0.047236
    13  C   -0.000014   0.001227  -0.000079   0.332531  -0.037085  -0.067189
    14  C   -0.000006   0.000273  -0.000280   0.000002  -0.000001   0.000000
    15  H   -0.000002  -0.000019  -0.000005   0.000003   0.000000  -0.000000
    16  H    0.000085  -0.000095   0.000024  -0.000000  -0.000000   0.000000
    17  H   -0.000014  -0.000001   0.000014  -0.000001  -0.000000   0.000000
    18  C    0.401082   0.395450   0.391932   0.000016  -0.000002   0.000002
    19  H    0.504589  -0.029526  -0.011587  -0.000000   0.000000   0.000000
    20  H   -0.029526   0.546196  -0.021813   0.000034  -0.000001  -0.000001
    21  H   -0.011587  -0.021813   0.494459  -0.000004   0.000000  -0.000000
    22  C   -0.000000   0.000034  -0.000004   5.459423   0.396656   0.383981
    23  H    0.000000  -0.000001   0.000000   0.396656   0.514567  -0.032335
    24  H    0.000000  -0.000001  -0.000000   0.383981  -0.032335   0.548154
    25  H   -0.000000  -0.000000  -0.000000   0.383371  -0.008809  -0.018191
    26  C    0.000000  -0.000017   0.000002  -0.043796  -0.011268   0.012474
    27  H    0.000000   0.000000  -0.000000  -0.010289   0.001010  -0.001231
    28  H   -0.000000   0.000000   0.000000   0.005451  -0.000780  -0.004987
    29  H    0.000000  -0.000000  -0.000000   0.002135   0.000193   0.000455
              25         26         27         28         29
     1  O    0.010649   0.000820  -0.000034  -0.000088   0.000016
     2  O    0.000000   0.000007  -0.000000  -0.000000   0.000000
     3  N    0.000015  -0.028773  -0.003228   0.000331   0.003531
     4  H   -0.000003  -0.010256   0.000565   0.000867   0.001982
     5  C   -0.000080   0.000198   0.000472   0.000147  -0.000395
     6  C   -0.001938   0.226160  -0.040378  -0.039020  -0.051983
     7  C    0.000014   0.005904  -0.001238  -0.000844   0.003852
     8  C    0.000000   0.000701  -0.000014  -0.000003   0.000013
     9  C   -0.000070   0.019013   0.000183  -0.000813  -0.000633
    10  H   -0.000101   0.000111   0.000035   0.000003  -0.000003
    11  H   -0.000040  -0.000527  -0.000008  -0.000028   0.000041
    12  C    0.027557  -0.096202  -0.011800  -0.004349   0.021885
    13  C   -0.049947  -0.045535   0.004226  -0.004248  -0.000339
    14  C    0.000000   0.000695  -0.000091   0.000081  -0.000050
    15  H    0.000000  -0.000207   0.000017  -0.000019   0.000103
    16  H   -0.000000   0.000042   0.000002  -0.000002  -0.000001
    17  H   -0.000000  -0.000108  -0.000011   0.000004  -0.000001
    18  C   -0.000000  -0.000000  -0.000000   0.000000   0.000000
    19  H   -0.000000   0.000000   0.000000  -0.000000   0.000000
    20  H   -0.000000  -0.000017   0.000000   0.000000  -0.000000
    21  H   -0.000000   0.000002  -0.000000   0.000000  -0.000000
    22  C    0.383371  -0.043796  -0.010289   0.005451   0.002135
    23  H   -0.008809  -0.011268   0.001010  -0.000780   0.000193
    24  H   -0.018191   0.012474  -0.001231  -0.004987   0.000455
    25  H    0.495375   0.002211   0.000063   0.000388  -0.000033
    26  C    0.002211   5.209980   0.434779   0.420707   0.388044
    27  H    0.000063   0.434779   0.485475  -0.030789  -0.016814
    28  H    0.000388   0.420707  -0.030789   0.513975  -0.023816
    29  H   -0.000033   0.388044  -0.016814  -0.023816   0.521118
 Mulliken charges:
               1
     1  O   -0.360639
     2  O   -0.394755
     3  N   -0.223200
     4  H    0.283463
     5  C   -0.088843
     6  C    0.265159
     7  C    0.233947
     8  C    0.169108
     9  C   -0.292336
    10  H    0.172191
    11  H    0.160252
    12  C   -0.140749
    13  C    0.142644
    14  C   -0.450528
    15  H    0.128468
    16  H    0.180945
    17  H    0.171719
    18  C   -0.463248
    19  H    0.157354
    20  H    0.151296
    21  H    0.173404
    22  C   -0.470220
    23  H    0.164379
    24  H    0.148147
    25  H    0.159570
    26  C   -0.485160
    27  H    0.189100
    28  H    0.167832
    29  H    0.150700
 Sum of Mulliken charges =  -0.00000
 Mulliken charges with hydrogens summed into heavy atoms:
               1
     1  O   -0.360639
     2  O   -0.394755
     3  N    0.060263
     5  C   -0.088843
     6  C    0.265159
     7  C    0.233947
     8  C    0.169108
     9  C    0.040107
    12  C   -0.140749
    13  C    0.142644
    14  C    0.030604
    18  C    0.018806
    22  C    0.001875
    26  C    0.022471
 Electronic spatial extent (au):  <R**2>=           3208.2309
 Charge=             -0.0000 electrons
 Dipole moment (field-independent basis, Debye):
    X=              4.1219    Y=              7.1193    Z=             -0.2256  Tot=              8.2295
 Quadrupole moment (field-independent basis, Debye-Ang):
   XX=            -98.5660   YY=            -78.7285   ZZ=            -84.4899
   XY=             12.9805   XZ=              3.0258   YZ=             -0.7224
 Traceless Quadrupole moment (field-independent basis, Debye-Ang):
   XX=            -11.3046   YY=              8.5330   ZZ=              2.7716
   XY=             12.9805   XZ=              3.0258   YZ=             -0.7224
 Octapole moment (field-independent basis, Debye-Ang**2):
  XXX=            111.6832  YYY=             61.4970  ZZZ=              2.2350  XYY=            -35.9033
  XXY=             28.3877  XXZ=             -7.9638  XZZ=              1.4644  YZZ=             -1.6004
  YYZ=              1.7369  XYZ=             -2.3759
 Hexadecapole moment (field-independent basis, Debye-Ang**3):
 XXXX=          -3112.6698 YYYY=          -1280.5085 ZZZZ=           -133.2439 XXXY=             42.8538
 XXXZ=             43.2030 YYYX=             93.0951 YYYZ=            -13.3361 ZZZX=             -4.1891
 ZZZY=              3.1577 XXYY=           -687.1413 XXZZ=           -484.3766 YYZZ=           -238.5792
 XXYZ=             -0.6222 YYXZ=              1.8095 ZZXY=              0.7726
 N-N= 9.004403768399D+02 E-N=-3.276941926025D+03  KE= 6.307365235126D+02
 Leave Link  601 at Fri Jan 23 16:07:26 2026, MaxMem=  2147483648 cpu:               0.7 elap:               0.1
 (Enter /data/home/wyx/g16/l9999.exe)
 Electronic transition elements 
                 1             2             3             4             5 
      1  -0.633200D+03 -0.633184D+03 -0.633168D+03 -0.633137D+03 -0.633118D+03
      2   0.159245D+01  0.233960D+00  0.153827D-01  0.510280D+00 -0.286738D+00
      3   0.445893D+00  0.364229D-01 -0.788948D-01 -0.169909D+01  0.141845D+01
      4   0.164338D+00 -0.175537D-01  0.431970D-01  0.173375D+00 -0.643260D-01
      5  -0.187725D+00 -0.317437D-01 -0.285780D-02 -0.865696D-01  0.583380D-01
      6  -0.548411D-01 -0.583334D-02  0.117930D-01  0.303341D+00 -0.285663D+00
      7  -0.191784D-01  0.609111D-03 -0.333818D-02 -0.277993D-01  0.136054D-01
      8  -0.104789D+00 -0.872949D+00 -0.367024D+00  0.403620D-01 -0.163570D+00
      9   0.298759D-01 -0.121521D-01  0.894197D+00 -0.341062D-01  0.114523D-01
     10   0.145813D+01  0.266629D+00  0.634434D-02  0.298168D+00 -0.270786D+00
     11  -0.916021D-01 -0.197574D-01 -0.653376D-02 -0.131695D+01  0.539153D+00
     12   0.258488D+00  0.692015D-01  0.208093D-01  0.226925D+00 -0.291884D+00
     13  -0.183971D-01 -0.305633D-02 -0.344484D-01  0.170138D-01 -0.351650D-01
     14   0.533113D+00  0.899909D-01  0.126943D-01 -0.404417D+00  0.250204D+00
     15  -0.544275D-01 -0.165481D-01 -0.740642D-01 -0.107719D+00  0.556966D-01
     16   0.450810D-01 -0.631841D-01 -0.240256D-01 -0.545652D-01 -0.387594D-01
                 6 
      1  -0.633101D+03
      2  -0.416791D-01
      3   0.157319D+00
      4   0.330678D-01
      5   0.965424D-02
      6  -0.329148D-01
      7  -0.273768D-01
      8  -0.270482D-01
      9  -0.144768D-01
     10  -0.106055D-01
     11  -0.148263D+00
     12  -0.119489D+00
     13   0.954080D-01
     14  -0.191375D-01
     15  -0.321184D-01
     16   0.534811D-01
 1\1\GINC-CN013\SP\RCAM-B3LYP TD-FC\TZVP\C11H15N1O2\WYX\23-Jan-2026\0\\
 #p CAM-B3LYP TZVP em=gd3bj td(Eqsolv,nstates=6,root=1) scrf=(Solvent=T
 etraHydroFuran) Geom=Check Guess=Read\\Title Card Required\\0,1\O,0,2.
 812196,-1.577469,0.289801\O,0,-3.447231,-1.638882,-0.163557\N,0,-0.641
 454,1.519284,-0.253884\H,0,-0.955101,2.474361,-0.297176\C,0,-1.241723,
 -0.759305,-0.204004\C,0,0.688402,1.304486,-0.013089\C,0,-1.614106,0.54
 1001,-0.27221\C,0,-2.208707,-1.822224,-0.195632\C,0,0.219247,-1.125259
 ,-0.185402\H,0,0.402316,-1.878405,0.581023\H,0,0.503341,-1.591889,-1.1
 35191\C,0,1.147307,0.035446,0.068621\C,0,2.513569,-0.386828,0.34729\C,
 0,-2.998553,1.077381,-0.357905\H,0,-3.017807,2.02342,-0.903448\H,0,-3.
 687904,0.406098,-0.863943\H,0,-3.412968,1.251371,0.636857\C,0,-1.78127
 6,-3.25898,-0.236183\H,0,-2.510353,-3.926355,-0.696101\H,0,-0.84727,-3
 .419096,-0.775117\H,0,-1.609131,-3.640533,0.775061\C,0,3.601359,0.5782
 49,0.737044\H,0,3.913986,1.200585,-0.100899\H,0,3.322936,1.238162,1.55
 5697\H,0,4.450352,-0.028198,1.043941\C,0,1.451715,2.58187,0.127238\H,0
 ,1.734458,2.77701,1.160968\H,0,2.35317,2.605363,-0.4773\H,0,0.85923,3.
 439335,-0.192501\\Version=ES64L-G16RevA.03\State=1-A\HF=-633.3232723\R
 MSD=1.644e-09\PG=C01 [X(C11H15N1O2)]\\@


 A great many people think they are thinking when they
 are merely rearranging their prejudices.
                               -- William James
 Job cpu time:       0 days  0 hours 31 minutes  2.3 seconds.
 Elapsed time:       0 days  0 hours  1 minutes 57.2 seconds.
 File lengths (MBytes):  RWF=    735 Int=      0 D2E=      0 Chk=     67 Scr=      1
 Normal termination of Gaussian 16 at Fri Jan 23 16:07:28 2026.
