 Entering Gaussian System, Link 0=g16
 Input=DDL-S1-cLR-9.gjf
 Output=DDL-S1-cLR-9.log
 Initial command:
 /data/home/wyx/g16/l1.exe "/scr/tmp/wyx/13109/Gau-1695888.inp" -scrdir="/scr/tmp/wyx/13109/"
 Entering Link 1 = /data/home/wyx/g16/l1.exe PID=   1695889.
  
 Copyright (c) 1988,1990,1992,1993,1995,1998,2003,2009,2016,
            Gaussian, Inc.  All Rights Reserved.
  
 This is part of the Gaussian(R) 16 program.  It is based on
 the Gaussian(R) 09 system (copyright 2009, Gaussian, Inc.),
 the Gaussian(R) 03 system (copyright 2003, Gaussian, Inc.),
 the Gaussian(R) 98 system (copyright 1998, Gaussian, Inc.),
 the Gaussian(R) 94 system (copyright 1995, Gaussian, Inc.),
 the Gaussian 92(TM) system (copyright 1992, Gaussian, Inc.),
 the Gaussian 90(TM) system (copyright 1990, Gaussian, Inc.),
 the Gaussian 88(TM) system (copyright 1988, Gaussian, Inc.),
 the Gaussian 86(TM) system (copyright 1986, Carnegie Mellon
 University), and the Gaussian 82(TM) system (copyright 1983,
 Carnegie Mellon University). Gaussian is a federally registered
 trademark of Gaussian, Inc.
  
 This software contains proprietary and confidential information,
 including trade secrets, belonging to Gaussian, Inc.
  
 This software is provided under written license and may be
 used, copied, transmitted, or stored only in accord with that
 written license.
  
 The following legend is applicable only to US Government
 contracts under FAR:
  
                    RESTRICTED RIGHTS LEGEND
  
 Use, reproduction and disclosure by the US Government is
 subject to restrictions as set forth in subparagraphs (a)
 and (c) of the Commercial Computer Software - Restricted
 Rights clause in FAR 52.227-19.
  
 Gaussian, Inc.
 340 Quinnipiac St., Bldg. 40, Wallingford CT 06492
  
  
 ---------------------------------------------------------------
 Warning -- This program may not be used in any manner that
 competes with the business of Gaussian, Inc. or will provide
 assistance to any competitor of Gaussian, Inc.  The licensee
 of this program is prohibited from giving any competitor of
 Gaussian, Inc. access to this program.  By using this program,
 the user acknowledges that Gaussian, Inc. is engaged in the
 business of creating and licensing software in the field of
 computational chemistry and represents and warrants to the
 licensee that it is not a competitor of Gaussian, Inc. and that
 it will not use this program in any manner prohibited above.
 ---------------------------------------------------------------
  

 Cite this work as:
 Gaussian 16, Revision A.03,
 M. J. Frisch, G. W. Trucks, H. B. Schlegel, G. E. Scuseria, 
 M. A. Robb, J. R. Cheeseman, G. Scalmani, V. Barone, 
 G. A. Petersson, H. Nakatsuji, X. Li, M. Caricato, A. V. Marenich, 
 J. Bloino, B. G. Janesko, R. Gomperts, B. Mennucci, H. P. Hratchian, 
 J. V. Ortiz, A. F. Izmaylov, J. L. Sonnenberg, D. Williams-Young, 
 F. Ding, F. Lipparini, F. Egidi, J. Goings, B. Peng, A. Petrone, 
 T. Henderson, D. Ranasinghe, V. G. Zakrzewski, J. Gao, N. Rega, 
 G. Zheng, W. Liang, M. Hada, M. Ehara, K. Toyota, R. Fukuda, 
 J. Hasegawa, M. Ishida, T. Nakajima, Y. Honda, O. Kitao, H. Nakai, 
 T. Vreven, K. Throssell, J. A. Montgomery, Jr., J. E. Peralta, 
 F. Ogliaro, M. J. Bearpark, J. J. Heyd, E. N. Brothers, K. N. Kudin, 
 V. N. Staroverov, T. A. Keith, R. Kobayashi, J. Normand, 
 K. Raghavachari, A. P. Rendell, J. C. Burant, S. S. Iyengar, 
 J. Tomasi, M. Cossi, J. M. Millam, M. Klene, C. Adamo, R. Cammi, 
 J. W. Ochterski, R. L. Martin, K. Morokuma, O. Farkas, 
 J. B. Foresman, and D. J. Fox, Gaussian, Inc., Wallingford CT, 2016.
 
 ******************************************
 Gaussian 16:  ES64L-G16RevA.03 25-Dec-2016
                23-Jan-2026 
 ******************************************
 %nprocshared=16
 Will use up to   16 processors via shared memory.
 %mem=16GB
 %oldchk=DDL-LR-9.chk
 %chk=DDL-S1-cLR-9.chk
 Copying data from "DDL-LR-9.chk" to current chk file "DDL-S1-cLR-9.chk"
 IOpt=  2 FromEx=T IUOpen= 4 IOptOp= 5 NList=   0 IFRang= 0 IUIn= 4 IUOut= 2.
 ----------------------------------------------------------------------
 #p CAM-B3LYP TZVP em=gd3bj td(nstates=6,root=1) scrf=(Solvent=TetraHyd
 roFuran,CorrectedLR,NonEquilibrium=Save) Geom=Check Guess=Read
 ----------------------------------------------------------------------
 1/29=2,30=1,38=1,172=1/1;
 2/12=2,40=1/2;
 3/5=19,7=101,11=9,14=-4,25=1,30=1,70=9002201,71=1,72=20,74=-40,116=-2,124=41/1,2,3,8;
 4/5=1/1;
 5/5=2,38=6,53=20/2;
 8/6=1,10=1,107=1,108=6/1;
 9/8=1,15=1,41=6,42=1,70=2,73=22/14;
 10/5=4,13=10,28=1,74=20/2;
 6/7=2,8=2,9=2,10=2,22=-1/1;
 99/5=1,9=1/99;
 Leave Link    1 at Fri Jan 23 19:59:14 2026, MaxMem=  2147483648 cpu:               0.8 elap:               0.2
 (Enter /data/home/wyx/g16/l101.exe)
 -------------------
 Title Card Required
 -------------------
 Structure from the checkpoint file:  "DDL-S1-cLR-9.chk"
 Charge =  0 Multiplicity = 1
 Z-Matrix found in chk file.
 O,0,2.809094,-1.578071,0.310833
 O,0,-3.448305,-1.642133,-0.208932
 N,0,-0.643429,1.520514,-0.231603
 H,0,-0.958187,2.475215,-0.274119
 C,0,-1.242103,-0.760338,-0.200636
 C,0,0.685997,1.306078,0.003643
 C,0,-1.615047,0.540802,-0.267709
 C,0,-2.204093,-1.82235,-0.213132
 C,0,0.217972,-1.126518,-0.153404
 H,0,0.388615,-1.861769,0.633669
 H,0,0.513562,-1.614585,-1.088375
 C,0,1.146806,0.037003,0.08316
 C,0,2.514283,-0.385286,0.350937
 C,0,-2.997744,1.076935,-0.369395
 H,0,-3.017073,2.00128,-0.951526
 H,0,-3.692154,0.391021,-0.848576
 H,0,-3.40941,1.290526,0.619094
 C,0,-1.78758,-3.262088,-0.242795
 H,0,-2.477526,-3.91957,-0.773032
 H,0,-0.813671,-3.424774,-0.70405
 H,0,-1.70236,-3.660932,0.772964
 C,0,3.611768,0.582593,0.704248
 H,0,3.890002,1.214559,-0.138249
 H,0,3.361592,1.233561,1.539281
 H,0,4.474003,-0.022524,0.974707
 C,0,1.450081,2.583203,0.141248
 H,0,1.775722,2.757856,1.165587
 H,0,2.325584,2.623381,-0.500244
 H,0,0.843601,3.44641,-0.133595
 Recover connectivity data from disk.
 ITRead=  0  0  0  0  0  0  0  0  0  0  0  0  0  0  0  0  0  0  0  0
 ITRead=  0  0  0  0  0  0  0  0  0
 MicOpt= -1 -1 -1 -1 -1 -1 -1 -1 -1 -1 -1 -1 -1 -1 -1 -1 -1 -1 -1 -1
 MicOpt= -1 -1 -1 -1 -1 -1 -1 -1 -1
 NAtoms=     29 NQM=       29 NQMF=       0 NMMI=      0 NMMIF=      0
                NMic=       0 NMicF=      0.
                    Isotopes and Nuclear Properties:
 (Nuclear quadrupole moments (NQMom) in fm**2, nuclear magnetic moments (NMagM)
  in nuclear magnetons)

  Atom         1           2           3           4           5           6           7           8           9          10
 IAtWgt=          16          16          14           1          12          12          12          12          12           1
 AtmWgt=  15.9949146  15.9949146  14.0030740   1.0078250  12.0000000  12.0000000  12.0000000  12.0000000  12.0000000   1.0078250
 NucSpn=           0           0           2           1           0           0           0           0           0           1
 AtZEff=   5.6000000   5.6000000   4.5500000   1.0000000   3.6000000   3.6000000   3.6000000   3.6000000   3.6000000   1.0000000
 NQMom=    0.0000000   0.0000000   2.0440000   0.0000000   0.0000000   0.0000000   0.0000000   0.0000000   0.0000000   0.0000000
 NMagM=    0.0000000   0.0000000   0.4037610   2.7928460   0.0000000   0.0000000   0.0000000   0.0000000   0.0000000   2.7928460
 AtZNuc=   8.0000000   8.0000000   7.0000000   1.0000000   6.0000000   6.0000000   6.0000000   6.0000000   6.0000000   1.0000000

  Atom        11          12          13          14          15          16          17          18          19          20
 IAtWgt=           1          12          12          12           1           1           1          12           1           1
 AtmWgt=   1.0078250  12.0000000  12.0000000  12.0000000   1.0078250   1.0078250   1.0078250  12.0000000   1.0078250   1.0078250
 NucSpn=           1           0           0           0           1           1           1           0           1           1
 AtZEff=   1.0000000   3.6000000   3.6000000   3.6000000   1.0000000   1.0000000   1.0000000   3.6000000   1.0000000   1.0000000
 NQMom=    0.0000000   0.0000000   0.0000000   0.0000000   0.0000000   0.0000000   0.0000000   0.0000000   0.0000000   0.0000000
 NMagM=    2.7928460   0.0000000   0.0000000   0.0000000   2.7928460   2.7928460   2.7928460   0.0000000   2.7928460   2.7928460
 AtZNuc=   1.0000000   6.0000000   6.0000000   6.0000000   1.0000000   1.0000000   1.0000000   6.0000000   1.0000000   1.0000000

  Atom        21          22          23          24          25          26          27          28          29
 IAtWgt=           1          12           1           1           1          12           1           1           1
 AtmWgt=   1.0078250  12.0000000   1.0078250   1.0078250   1.0078250  12.0000000   1.0078250   1.0078250   1.0078250
 NucSpn=           1           0           1           1           1           0           1           1           1
 AtZEff=   1.0000000   3.6000000   1.0000000   1.0000000   1.0000000   3.6000000   1.0000000   1.0000000   1.0000000
 NQMom=    0.0000000   0.0000000   0.0000000   0.0000000   0.0000000   0.0000000   0.0000000   0.0000000   0.0000000
 NMagM=    2.7928460   0.0000000   2.7928460   2.7928460   2.7928460   0.0000000   2.7928460   2.7928460   2.7928460
 AtZNuc=   1.0000000   6.0000000   1.0000000   1.0000000   1.0000000   6.0000000   1.0000000   1.0000000   1.0000000
 Leave Link  101 at Fri Jan 23 19:59:16 2026, MaxMem=  2147483648 cpu:               0.9 elap:               0.1
 (Enter /data/home/wyx/g16/l202.exe)
                          Input orientation:                          
 ---------------------------------------------------------------------
 Center     Atomic      Atomic             Coordinates (Angstroms)
 Number     Number       Type             X           Y           Z
 ---------------------------------------------------------------------
      1          8           0        2.809094   -1.578071    0.310833
      2          8           0       -3.448305   -1.642133   -0.208932
      3          7           0       -0.643429    1.520514   -0.231603
      4          1           0       -0.958187    2.475215   -0.274119
      5          6           0       -1.242103   -0.760338   -0.200636
      6          6           0        0.685997    1.306078    0.003643
      7          6           0       -1.615047    0.540802   -0.267709
      8          6           0       -2.204093   -1.822350   -0.213132
      9          6           0        0.217972   -1.126518   -0.153404
     10          1           0        0.388615   -1.861769    0.633669
     11          1           0        0.513562   -1.614585   -1.088375
     12          6           0        1.146806    0.037003    0.083160
     13          6           0        2.514283   -0.385286    0.350937
     14          6           0       -2.997744    1.076935   -0.369395
     15          1           0       -3.017073    2.001280   -0.951526
     16          1           0       -3.692154    0.391021   -0.848576
     17          1           0       -3.409410    1.290526    0.619094
     18          6           0       -1.787580   -3.262088   -0.242795
     19          1           0       -2.477526   -3.919570   -0.773032
     20          1           0       -0.813671   -3.424774   -0.704050
     21          1           0       -1.702360   -3.660932    0.772964
     22          6           0        3.611768    0.582593    0.704248
     23          1           0        3.890002    1.214559   -0.138249
     24          1           0        3.361592    1.233561    1.539281
     25          1           0        4.474003   -0.022524    0.974707
     26          6           0        1.450081    2.583203    0.141248
     27          1           0        1.775722    2.757856    1.165587
     28          1           0        2.325584    2.623381   -0.500244
     29          1           0        0.843601    3.446410   -0.133595
 ---------------------------------------------------------------------
                    Distance matrix (angstroms):
                    1          2          3          4          5
     1  O    0.000000
     2  O    6.279276   0.000000
     3  N    4.670694   4.227313   0.000000
     4  H    5.564504   4.812223   1.006148   0.000000
     5  C    4.164431   2.375912   2.358316   3.248817   0.000000
     6  C    3.594471   5.082282   1.367003   2.036510   2.833615
     7  C    4.939368   2.851227   1.380283   2.042905   1.355194
     8  C    5.046410   1.257203   3.689275   4.474938   1.432987
     9  C    2.670829   3.702773   2.784763   3.790831   1.506034
    10  H    2.458338   3.934485   3.640556   4.631132   2.137395
    11  H    2.688603   4.058395   3.449860   4.422163   2.144803
    12  C    2.328841   4.901006   2.346236   3.240914   2.534399
    13  C    1.229332   6.119279   3.733975   4.542159   3.815145
    14  C    6.421147   2.760812   2.399697   2.474683   2.546827
    15  H    6.953382   3.743243   2.526581   2.218672   3.367624
    16  H    6.891138   2.145302   3.309250   3.485461   2.783560
    17  H    6.855193   3.047561   2.902969   2.865277   3.094385
    18  C    4.926645   2.320217   4.917569   5.797027   2.560874
    19  H    5.882664   2.539161   5.766418   6.591705   3.440153
    20  H    4.191029   3.219355   4.970720   5.917398   2.745214
    21  H    4.990500   2.843940   5.383110   6.269169   3.094055
    22  C    2.338275   7.458414   4.456704   5.042193   5.116868
    23  H    3.028006   7.875051   4.544702   5.011252   5.499328
    24  H    3.117629   7.596089   4.388458   4.846712   5.310080
    25  H    2.373263   8.172337   5.479440   6.107942   5.882148
    26  C    4.380853   6.478447   2.377206   2.446211   4.306275
    27  H    4.538582   6.967041   3.055396   3.102724   4.832341
    28  H    4.306254   7.184516   3.178604   3.294881   4.926227
    29  H    5.413510   6.657282   2.435147   2.051684   4.695890
                    6          7          8          9         10
     6  C    0.000000
     7  C    2.440099   0.000000
     8  C    4.264584   2.436071   0.000000
     9  C    2.482183   2.480520   2.520744   0.000000
    10  H    3.243551   3.255686   2.727776   1.090503   0.000000
    11  H    3.122901   3.138497   2.862668   1.095333   1.744175
    12  C    1.352486   2.829267   3.843632   1.507473   2.117368
    13  C    2.514748   4.276883   4.964514   2.465122   2.603537
    14  C    3.709665   1.486482   3.010009   3.904188   4.594513
    15  H    3.886950   2.136885   3.978229   4.570080   5.388386
    16  H    4.553220   2.161993   2.741738   4.251503   4.891297
    17  H    4.141422   2.137345   3.440260   4.426822   4.935805
    18  C    5.200717   3.806883   1.499069   2.931022   2.732198
    19  H    6.157800   4.571011   2.187827   3.930749   3.798436
    20  H    5.013062   4.069200   2.177622   2.578658   2.382849
    21  H    5.564826   4.329572   2.145811   3.311961   2.761986
    22  C    3.094255   5.316582   6.359998   3.895443   4.045813
    23  H    3.208451   5.547637   6.809289   4.354845   4.724337
    24  H    3.085815   5.339669   6.586835   4.279895   4.386319
    25  H    4.130029   6.239989   7.017642   4.539299   4.493275
    26  C    1.494593   3.705895   5.734760   3.920069   4.596408
    27  H    2.155290   4.297322   6.222385   4.388016   4.852622
    28  H    2.162738   4.463158   6.353340   4.315561   5.015394
    29  H    2.150510   3.808608   6.087249   4.615569   5.382608
                   11         12         13         14         15
    11  H    0.000000
    12  C    2.121611   0.000000
    13  C    2.754211   1.456031   0.000000
    14  C    4.482241   4.296924   5.747992   0.000000
    15  H    5.055550   4.718776   6.163441   1.092549   0.000000
    16  H    4.665620   4.940546   6.368779   1.087335   1.749076
    17  H    5.171540   4.755802   6.162012   1.091879   1.768035
    18  C    2.953731   4.427287   5.209082   4.506400   5.451330
    19  H    3.789328   5.433536   6.218732   5.039704   5.948062
    20  H    2.277287   4.055499   4.628905   5.014734   5.861594
    21  H    3.544352   4.718930   5.356122   5.042855   6.063248
    22  C    4.199996   2.599895   1.505354   6.714368   6.978237
    23  H    4.506345   2.993457   2.165966   6.892997   6.999145
    24  H    4.809136   2.908147   2.179624   6.641440   6.890637
    25  H    4.740892   3.445089   2.088346   7.670882   7.995147
    26  C    4.473306   2.564856   3.160447   4.723637   4.635542
    27  H    5.078546   2.995033   3.329935   5.288444   5.293908
    28  H    4.646469   2.901591   3.132442   5.544947   5.397652
    29  H    5.160833   3.429719   4.208069   4.519507   4.202644
                   16         17         18         19         20
    16  H    0.000000
    17  H    1.744451   0.000000
    18  C    4.164082   4.909122   0.000000
    19  H    4.479087   5.472798   1.090623   0.000000
    20  H    4.781929   5.542799   1.089826   1.737238   0.000000
    21  H    4.796561   5.239717   1.094580   1.748679   1.739859
    22  C    7.469621   7.057291   6.695627   7.715655   6.134069
    23  H    7.659756   7.338989   7.230922   8.204124   6.630843
    24  H    7.494469   6.833481   7.064038   8.123845   6.645708
    25  H    8.377440   7.999923   7.154335   8.158757   6.507920
    26  C    5.676971   5.051139   6.693083   7.651670   6.475715
    27  H    6.289390   5.416392   7.135852   8.150851   6.958837
    28  H    6.427903   5.993294   7.184925   8.121237   6.817378
    29  H    5.515403   4.827264   7.206871   8.105333   7.091202
                   21         22         23         24         25
    21  H    0.000000
    22  C    6.800896   0.000000
    23  H    7.474974   1.089310   0.000000
    24  H    7.084272   1.087946   1.758887   0.000000
    25  H    7.171204   1.087549   1.763548   1.770297   0.000000
    26  C    7.023259   2.998716   2.811498   2.725785   4.077815
    27  H    7.311091   2.883690   2.924369   2.231167   3.879132
    28  H    7.572185   2.696273   2.136170   2.676672   3.713758
    29  H    7.603820   4.070157   3.776472   3.746397   5.142145
                   26         27         28         29
    26  C    0.000000
    27  H    1.088952   0.000000
    28  H    1.086109   1.759382   0.000000
    29  H    1.090176   1.740928   1.734382   0.000000
 Stoichiometry    C11H15NO2
 Framework group  C1[X(C11H15NO2)]
 Deg. of freedom    81
 Full point group                 C1      NOp   1
 RotChk:  IX=0 Diff= 4.68D-16
 Largest Abelian subgroup         C1      NOp   1
 Largest concise Abelian subgroup C1      NOp   1
                         Standard orientation:                         
 ---------------------------------------------------------------------
 Center     Atomic      Atomic             Coordinates (Angstroms)
 Number     Number       Type             X           Y           Z
 ---------------------------------------------------------------------
      1          8           0        2.261387   -2.308219   -0.068688
      2          8           0       -3.650808   -0.213469    0.226735
      3          7           0        0.047335    1.803978   -0.125151
      4          1           0        0.077570    2.809632   -0.116124
      5          6           0       -1.291374   -0.135746   -0.041570
      6          6           0        1.239701    1.137993   -0.066634
      7          6           0       -1.199051    1.216294   -0.045585
      8          6           0       -2.554318   -0.805264    0.059264
      9          6           0       -0.051712   -0.978312   -0.188057
     10          1           0       -0.052784   -1.769697    0.562213
     11          1           0       -0.054672   -1.485837   -1.158708
     12          6           0        1.241725   -0.214482   -0.061327
     13          6           0        2.401867   -1.090330    0.022254
     14          6           0       -2.314594    2.195113    0.038722
     15          1           0       -2.083320    3.101401   -0.525918
     16          1           0       -3.253995    1.813318   -0.353778
     17          1           0       -2.507870    2.481452    1.074509
     18          6           0       -2.665160   -2.296945   -0.039789
     19          1           0       -3.596649   -2.650768   -0.483181
     20          1           0       -1.868390   -2.755411   -0.625184
     21          1           0       -2.603067   -2.755966    0.951952
     22          6           0        3.798879   -0.573889    0.240744
     23          1           0        4.176003   -0.028986   -0.623810
     24          1           0        3.888387    0.076619    1.108186
     25          1           0        4.425803   -1.449844    0.390520
     26          6           0        2.407073    2.069887   -0.015423
     27          1           0        2.891437    2.067147    0.959872
     28          1           0        3.160690    1.845194   -0.764559
     29          1           0        2.106660    3.101488   -0.199910
 ---------------------------------------------------------------------
 Rotational constants (GHZ):           1.0982118           0.4858344           0.3416515
 Leave Link  202 at Fri Jan 23 19:59:17 2026, MaxMem=  2147483648 cpu:               0.0 elap:               0.0
 (Enter /data/home/wyx/g16/l301.exe)
 Standard basis: TZVP (5D, 7F)
 Ernie: Thresh=  0.10000D-02 Tol=  0.10000D-05 Strict=F.
 There are   370 symmetry adapted cartesian basis functions of A   symmetry.
 There are   356 symmetry adapted basis functions of A   symmetry.
   356 basis functions,   610 primitive gaussians,   370 cartesian basis functions
    52 alpha electrons       52 beta electrons
       nuclear repulsion energy       900.3054206077 Hartrees.
 IExCor=20419 DFT=T Ex+Corr=CAM-B3LYP ExCW=0 ScaHFX=  1.000000
 ScaDFX=  1.000000  1.000000  1.000000  0.810000 ScalE2=  1.000000  1.000000
 IRadAn=      5 IRanWt=     -1 IRanGd=            0 ICorTp=0 IEmpDi=141
 HFx  wShort=  0.000000 wLong=  0.330000 cFull=  0.190000 cShort=  0.000000 cLong=  0.460000
 DFx  wShort=  0.000000 wLong=  0.330000 cFull=  0.190000 cShort=  0.000000 cLong=  0.460000
 NAtoms=   29 NActive=   29 NUniq=   29 SFac= 1.00D+00 NAtFMM=   60 NAOKFM=F Big=F
 Integral buffers will be    131072 words long.
 Raffenetti 1 integral format.
 Two-electron integral symmetry is turned on.
 R6Disp:  Grimme-D3(BJ) Dispersion energy=       -0.0261411977 Hartrees.
 Nuclear repulsion after empirical dispersion term =      900.2792794100 Hartrees.
 ------------------------------------------------------------------------------
 Polarizable Continuum Model (PCM)
 =================================
 Model                : PCM.
 Atomic radii         : UFF (Universal Force Field).
 Polarization charges : Total charges.
 Charge compensation  : None.
 Solution method      : On-the-fly selection.
 Cavity type          : Scaled VdW (van der Waals Surface) (Alpha=1.100).
 Cavity algorithm     : GePol (No added spheres)
                        Default sphere list used, NSphG=   29.
                        Lebedev-Laikov grids with approx.  5.0 points / Ang**2.
                        Smoothing algorithm: York/Karplus (Gamma=1.0000).
                        Polarization charges: spherical gaussians, with
                                              point-specific exponents (IZeta= 3).
                        Self-potential: point-specific (ISelfS= 7).
                        Self-field    : sphere-specific E.n sum rule (ISelfD= 2).
 1st derivatives      : Analytical E(r).r(x)/FMM algorithm (CHGder, D1EAlg=3).
                        Cavity 1st derivative terms included.
 Solvent              : TetraHydroFuran, Eps=   7.425700 Eps(inf)=   1.974025
 ------------------------------------------------------------------------------
 GePol: Number of generator spheres                  =      29
 GePol: Total number of spheres                      =      29
 GePol: Number of exposed spheres                    =      29 (100.00%)
 GePol: Number of points                             =    2114
 GePol: Average weight of points                     =       0.13
 GePol: Minimum weight of points                     =   0.61D-10
 GePol: Maximum weight of points                     =    0.20577
 GePol: Number of points with low weight             =     132
 GePol: Fraction of low-weight points (<1% of avg)   =       6.24%
 GePol: Cavity surface area                          =    268.939 Ang**2
 GePol: Cavity volume                                =    286.571 Ang**3
 Leave Link  301 at Fri Jan 23 19:59:17 2026, MaxMem=  2147483648 cpu:               0.6 elap:               0.0
 (Enter /data/home/wyx/g16/l302.exe)
 NPDir=0 NMtPBC=     1 NCelOv=     1 NCel=       1 NClECP=     1 NCelD=      1
         NCelK=      1 NCelE2=     1 NClLst=     1 CellRange=     0.0.
 One-electron integrals computed using PRISM.
 One-electron integral symmetry used in STVInt
 NBasis=   356 RedAO= T EigKep=  3.82D-05  NBF=   356
 NBsUse=   356 1.00D-06 EigRej= -1.00D+00 NBFU=   356
 Precomputing XC quadrature grid using
 IXCGrd= 4 IRadAn=           5 IRanWt=          -1 IRanGd=           0 AccXCQ= 0.00D+00.
 Generated NRdTot=       0 NPtTot=           0 NUsed=           0 NTot=          32
 NSgBfM=   366   366   366   366   366 MxSgAt=    29 MxSgA2=    29.
 Leave Link  302 at Fri Jan 23 19:59:17 2026, MaxMem=  2147483648 cpu:               3.1 elap:               0.2
 (Enter /data/home/wyx/g16/l303.exe)
 DipDrv:  MaxL=1.
 Leave Link  303 at Fri Jan 23 19:59:17 2026, MaxMem=  2147483648 cpu:               0.6 elap:               0.0
 (Enter /data/home/wyx/g16/l308.exe)
 Leave Link  308 at Fri Jan 23 19:59:18 2026, MaxMem=  2147483648 cpu:               0.7 elap:               0.1
 (Enter /data/home/wyx/g16/l401.exe)
 Initial guess from the checkpoint file:  "DDL-S1-cLR-9.chk"
 B after Tr=     0.000000   -0.000000    0.000000
         Rot=    1.000000   -0.000000   -0.000000    0.000000 Ang=   0.00 deg.
 Guess basis will be translated and rotated to current coordinates.
 JPrj=2 DoOrth=T DoCkMO=T.
 Leave Link  401 at Fri Jan 23 19:59:18 2026, MaxMem=  2147483648 cpu:               2.2 elap:               0.2
 (Enter /data/home/wyx/g16/l502.exe)
 Integral symmetry usage will be decided dynamically.
 Closed shell SCF:
 Using DIIS extrapolation, IDIIS=  1040.
 NGot=  2147483648 LenX=  2147200095 LenY=  2147062754
 Requested convergence on RMS density matrix=1.00D-08 within 128 cycles.
 Requested convergence on MAX density matrix=1.00D-06.
 Requested convergence on             energy=1.00D-06.
 No special actions if energy rises.
 Fock matrices will be formed incrementally for  20 cycles.

 Cycle   1  Pass 1  IDiag  1:
 FoFJK:  IHMeth= 1 ICntrl=       0 DoSepK=T KAlg= 0 I1Cent=           0 FoldK=F
 IRaf=         1 NMat=       1 IRICut=       1 DoRegI=T DoRafI=F ISym2E= 0 IDoP0=0 IntGTp=1.
 FoFCou: FMM=F IPFlag=           0 FMFlag=      100000 FMFlg1=           0
         NFxFlg=           0 DoJE=T BraDBF=F KetDBF=F FulRan=T
         wScrn=  0.000000 ICntrl=       500 IOpCl=  0 I1Cent=           0 NGrid=           0
         NMat0=    1 NMatS0=      1 NMatT0=    0 NMatD0=    1 NMtDS0=    0 NMtDT0=    0
 Symmetry not used in FoFCou.
 Inv3:  Mode=1 IEnd=    13406988.
 Iteration    1 A*A^-1 deviation from unit magnitude is 3.33D-15 for    689.
 Iteration    1 A*A^-1 deviation from orthogonality  is 2.04D-15 for   1798    658.
 Iteration    1 A^-1*A deviation from unit magnitude is 3.33D-15 for    874.
 Iteration    1 A^-1*A deviation from orthogonality  is 1.67D-15 for   1966    100.
 E= -633.321871084474    
 DIIS: error= 5.39D-09 at cycle   1 NSaved=   1.
 NSaved= 1 IEnMin= 1 EnMin= -633.321871084474     IErMin= 1 ErrMin= 5.39D-09
 ErrMax= 5.39D-09  0.00D+00 EMaxC= 1.00D-01 BMatC= 1.63D-14 BMatP= 1.63D-14
 IDIUse=1 WtCom= 1.00D+00 WtEn= 0.00D+00
 Coeff-Com:  0.100D+01
 Coeff:      0.100D+01
 Gap=     0.233 Goal=   None    Shift=    0.000
 RMSDP=1.68D-09 MaxDP=9.76D-08              OVMax= 1.18D-07

 Error on total polarization charges =  0.01461
 SCF Done:  E(RCAM-B3LYP) =  -633.321871084     A.U. after    1 cycles
            NFock=  1  Conv=0.17D-08     -V/T= 2.0041
 KE= 6.307315274297D+02 PE=-3.276609714225D+03 EE= 1.112277036301D+03
 Leave Link  502 at Fri Jan 23 19:59:24 2026, MaxMem=  2147483648 cpu:              85.2 elap:               5.6
 (Enter /data/home/wyx/g16/l801.exe)
 DoSCS=F DFT=T ScalE2(SS,OS)=  1.000000  1.000000
 ExpMin= 9.52D-02 ExpMax= 2.70D+04 ExpMxC= 9.22D+02 IAcc=3 IRadAn=         5 AccDes= 0.00D+00
 HarFok:  IExCor=  205 AccDes= 0.00D+00 IRadAn=         5 IDoV=-2 UseB2=F ITyADJ=14
 ICtDFT= 12500011 ScaDFX=  1.000000  1.000000  1.000000  1.000000
 Largest valence mixing into a core orbital is  5.79D-05
 Largest core mixing into a valence orbital is  1.14D-05
 Range of M.O.s used for correlation:    15   356
 NBasis=   356 NAE=    52 NBE=    52 NFC=    14 NFV=     0
 NROrb=    342 NOA=    38 NOB=    38 NVA=   304 NVB=   304

 **** Warning!!: The largest alpha MO coefficient is  0.41282226D+02

 Leave Link  801 at Fri Jan 23 19:59:24 2026, MaxMem=  2147483648 cpu:               1.0 elap:               0.1
 (Enter /data/home/wyx/g16/l914.exe)
 RHF ground state
 Two-electron integrals replicated using symmetry.
 MDV=  2147483648 DFT=T DoStab=F Mixed=T DoRPA=T DoScal=F NonHer=T
 NEqPCM:  Using equilibrium solvation (IEInf=0, Eps=   7.4257, EpsInf=   1.9740)
 Making orbital integer symmetry assigments:
 Orbital symmetries:
       Occupied  (A) (A) (A) (A) (A) (A) (A) (A) (A) (A) (A) (A)
                 (A) (A) (A) (A) (A) (A) (A) (A) (A) (A) (A) (A)
                 (A) (A) (A) (A) (A) (A) (A) (A) (A) (A) (A) (A)
                 (A) (A) (A) (A) (A) (A) (A) (A) (A) (A) (A) (A)
                 (A) (A) (A) (A)
       Virtual   (A) (A) (A) (A) (A) (A) (A) (A) (A) (A) (A) (A)
                 (A) (A) (A) (A) (A) (A) (A) (A) (A) (A) (A) (A)
                 (A) (A) (A) (A) (A) (A) (A) (A) (A) (A) (A) (A)
                 (A) (A) (A) (A) (A) (A) (A) (A) (A) (A) (A) (A)
                 (A) (A) (A) (A) (A) (A) (A) (A) (A) (A) (A) (A)
                 (A) (A) (A) (A) (A) (A) (A) (A) (A) (A) (A) (A)
                 (A) (A) (A) (A) (A) (A) (A) (A) (A) (A) (A) (A)
                 (A) (A) (A) (A) (A) (A) (A) (A) (A) (A) (A) (A)
                 (A) (A) (A) (A) (A) (A) (A) (A) (A) (A) (A) (A)
                 (A) (A) (A) (A) (A) (A) (A) (A) (A) (A) (A) (A)
                 (A) (A) (A) (A) (A) (A) (A) (A) (A) (A) (A) (A)
                 (A) (A) (A) (A) (A) (A) (A) (A) (A) (A) (A) (A)
                 (A) (A) (A) (A) (A) (A) (A) (A) (A) (A) (A) (A)
                 (A) (A) (A) (A) (A) (A) (A) (A) (A) (A) (A) (A)
                 (A) (A) (A) (A) (A) (A) (A) (A) (A) (A) (A) (A)
                 (A) (A) (A) (A) (A) (A) (A) (A) (A) (A) (A) (A)
                 (A) (A) (A) (A) (A) (A) (A) (A) (A) (A) (A) (A)
                 (A) (A) (A) (A) (A) (A) (A) (A) (A) (A) (A) (A)
                 (A) (A) (A) (A) (A) (A) (A) (A) (A) (A) (A) (A)
                 (A) (A) (A) (A) (A) (A) (A) (A) (A) (A) (A) (A)
                 (A) (A) (A) (A) (A) (A) (A) (A) (A) (A) (A) (A)
                 (A) (A) (A) (A) (A) (A) (A) (A) (A) (A) (A) (A)
                 (A) (A) (A) (A) (A) (A) (A) (A) (A) (A) (A) (A)
                 (A) (A) (A) (A) (A) (A) (A) (A) (A) (A) (A) (A)
                 (A) (A) (A) (A) (A) (A) (A) (A) (A) (A) (A) (A)
                 (A) (A) (A) (A)
 PCM Corrected Linear-Response:
 Compute the excitation energies in the ground state reaction field.
    24 initial guesses have been made.
 Convergence on wavefunction:    0.000001000000000
 Davidson Disk Diagonalization:  ConvIn= 1.00D-06 SkipCon=T Conv= 1.00D-06.
 Max sub-space:  2000 roots to seek:    24 dimension of matrix:        23104
 Iteration     1 Dimension    24 NMult     0 NNew     24
 CISAX will form    24 AO SS matrices at one time.
 NMat=    24 NSing=    24 JSym2X= 0.
 FoFJK:  IHMeth= 1 ICntrl=       0 DoSepK=T KAlg= 0 I1Cent=           0 FoldK=F
 IRaf=         1 NMat=      48 IRICut=       1 DoRegI=T DoRafI=F ISym2E= 0 IDoP0=3 IntGTp=3.
 FoFCou: FMM=F IPFlag=           0 FMFlag=      100000 FMFlg1=           0
         NFxFlg=           0 DoJE=F BraDBF=F KetDBF=F FulRan=T
         wScrn=  0.000000 ICntrl=       500 IOpCl=  0 I1Cent=           0 NGrid=           0
         NMat0=   24 NMatS0=     24 NMatT0=    0 NMatD0=   24 NMtDS0=    0 NMtDT0=    0
 Symmetry not used in FoFCou.
 New state      3 was old state      4
 New state      4 was old state      3
 New state      5 was old state      6
 New state      6 was old state      5
 Excitation Energies [eV] at current iteration:
 Root      1 :     3.881693566082862
 Root      2 :     4.010344355026988
 Root      3 :     4.493680822990803
 Root      4 :     5.559422914874582
 Root      5 :     6.221932015140097
 Root      6 :     6.577049807084141
 Root      7 :     6.720003473898696
 Root      8 :     6.793561870444227
 Root      9 :     6.817763772000201
 Root     10 :     7.100218472657221
 Root     11 :     7.382520781020772
 Root     12 :     7.431159160552706
 Root     13 :     7.498593056460678
 Root     14 :     7.662584672641229
 Root     15 :     7.737895763059999
 Root     16 :     8.062118131450919
 Root     17 :     8.201573751034484
 Root     18 :     8.250809205713061
 Root     19 :     8.329560209767571
 Root     20 :     8.545839520848324
 Root     21 :     8.662735050731849
 Root     22 :     8.857605379771362
 Root     23 :     8.962855838883559
 Root     24 :     9.100789214511131
 Iteration     2 Dimension    36 NMult    24 NNew     12
 CISAX will form    12 AO SS matrices at one time.
 NMat=    12 NSing=    12 JSym2X= 0.
 Root      1 not converged, maximum delta is    0.261965021359666
 Root      2 not converged, maximum delta is    0.253571946916725
 Root      3 not converged, maximum delta is    0.097199100549712
 Root      4 not converged, maximum delta is    0.235803514237605
 New state      5 was old state      6
 Root      5 not converged, maximum delta is    0.196799247553148
 New state      6 was old state      5
 Root      6 not converged, maximum delta is    0.077961660310696
 Excitation Energies [eV] at current iteration:
 Root      1 :     3.454723275730323   Change is   -0.426970290352539
 Root      2 :     3.751860656981876   Change is   -0.258483698045112
 Root      3 :     4.239617155124948   Change is   -0.254063667865855
 Root      4 :     5.239312336390713   Change is   -0.320110578483870
 Root      5 :     5.733191935493467   Change is   -0.843857871590673
 Root      6 :     6.100584422117151   Change is   -0.121347593022946
 Iteration     3 Dimension    48 NMult    36 NNew     12
 CISAX will form    12 AO SS matrices at one time.
 NMat=    12 NSing=    12 JSym2X= 0.
 Root      1 not converged, maximum delta is    0.010812771426378
 Root      2 not converged, maximum delta is    0.010475589590734
 Root      3 not converged, maximum delta is    0.018100179951732
 Root      4 not converged, maximum delta is    0.030114186904373
 Root      5 not converged, maximum delta is    0.028608611089649
 Root      6 not converged, maximum delta is    0.012001979514034
 Excitation Energies [eV] at current iteration:
 Root      1 :     3.434903681641890   Change is   -0.019819594088433
 Root      2 :     3.740425359487972   Change is   -0.011435297493903
 Root      3 :     4.226089011315720   Change is   -0.013528143809228
 Root      4 :     5.216030777283577   Change is   -0.023281559107135
 Root      5 :     5.690782050515525   Change is   -0.042409884977943
 Root      6 :     6.094199948250642   Change is   -0.006384473866508
 Iteration     4 Dimension    60 NMult    48 NNew     12
 CISAX will form    12 AO SS matrices at one time.
 NMat=    12 NSing=    12 JSym2X= 0.
 Root      1 not converged, maximum delta is    0.002624177687823
 Root      2 not converged, maximum delta is    0.001799188326563
 Root      3 not converged, maximum delta is    0.002042750579860
 Root      4 not converged, maximum delta is    0.003644331753251
 Root      5 not converged, maximum delta is    0.006439544790350
 Root      6 not converged, maximum delta is    0.003235535394539
 Excitation Energies [eV] at current iteration:
 Root      1 :     3.433209950100815   Change is   -0.001693731541075
 Root      2 :     3.739528203839617   Change is   -0.000897155648355
 Root      3 :     4.225567023322436   Change is   -0.000521987993284
 Root      4 :     5.213583596925541   Change is   -0.002447180358036
 Root      5 :     5.685044316324559   Change is   -0.005737734190966
 Root      6 :     6.093784912135900   Change is   -0.000415036114742
 Iteration     5 Dimension    72 NMult    60 NNew     12
 CISAX will form    12 AO SS matrices at one time.
 NMat=    12 NSing=    12 JSym2X= 0.
 Root      1 not converged, maximum delta is    0.000809352689342
 Root      2 not converged, maximum delta is    0.000306844278878
 Root      3 not converged, maximum delta is    0.000646005613100
 Root      4 not converged, maximum delta is    0.000626388809362
 Root      5 not converged, maximum delta is    0.001024724914535
 Root      6 not converged, maximum delta is    0.000943882179366
 Excitation Energies [eV] at current iteration:
 Root      1 :     3.433100387697758   Change is   -0.000109562403057
 Root      2 :     3.739487154632701   Change is   -0.000041049206916
 Root      3 :     4.225533258589730   Change is   -0.000033764732707
 Root      4 :     5.213397633038580   Change is   -0.000185963886961
 Root      5 :     5.684605868530481   Change is   -0.000438447794078
 Root      6 :     6.093749862347662   Change is   -0.000035049788238
 Iteration     6 Dimension    84 NMult    72 NNew     12
 CISAX will form    12 AO SS matrices at one time.
 NMat=    12 NSing=    12 JSym2X= 0.
 Root      1 not converged, maximum delta is    0.000220134869721
 Root      2 not converged, maximum delta is    0.000074777275257
 Root      3 not converged, maximum delta is    0.000219434696840
 Root      4 not converged, maximum delta is    0.000320339418523
 Root      5 not converged, maximum delta is    0.000339725350115
 Root      6 not converged, maximum delta is    0.000270918012284
 Excitation Energies [eV] at current iteration:
 Root      1 :     3.433094718892992   Change is   -0.000005668804766
 Root      2 :     3.739484218400065   Change is   -0.000002936232636
 Root      3 :     4.225530826776176   Change is   -0.000002431813553
 Root      4 :     5.213381949288911   Change is   -0.000015683749669
 Root      5 :     5.684570222024491   Change is   -0.000035646505990
 Root      6 :     6.093745883470332   Change is   -0.000003978877330
 Iteration     7 Dimension    96 NMult    84 NNew     12
 CISAX will form    12 AO SS matrices at one time.
 NMat=    12 NSing=    12 JSym2X= 0.
 Root      1 not converged, maximum delta is    0.000021255535735
 Root      2 not converged, maximum delta is    0.000012672836704
 Root      3 not converged, maximum delta is    0.000055077922866
 Root      4 not converged, maximum delta is    0.000130193909244
 Root      5 not converged, maximum delta is    0.000116236853851
 Root      6 not converged, maximum delta is    0.000154425523741
 Excitation Energies [eV] at current iteration:
 Root      1 :     3.433094341108303   Change is   -0.000000377784689
 Root      2 :     3.739484067916520   Change is   -0.000000150483546
 Root      3 :     4.225530643347922   Change is   -0.000000183428254
 Root      4 :     5.213380529695582   Change is   -0.000001419593329
 Root      5 :     5.684567379782297   Change is   -0.000002842242194
 Root      6 :     6.093745412308035   Change is   -0.000000471162297
 Iteration     8 Dimension   108 NMult    96 NNew     12
 CISAX will form    12 AO SS matrices at one time.
 NMat=    12 NSing=    12 JSym2X= 0.
 Root      1 not converged, maximum delta is    0.000003508438848
 Root      2 not converged, maximum delta is    0.000002909865460
 Root      3 not converged, maximum delta is    0.000006314109490
 Root      4 not converged, maximum delta is    0.000032836508957
 Root      5 not converged, maximum delta is    0.000038812573470
 Root      6 not converged, maximum delta is    0.000033047781363
 Excitation Energies [eV] at current iteration:
 Root      1 :     3.433094326161003   Change is   -0.000000014947301
 Root      2 :     3.739484061372030   Change is   -0.000000006544489
 Root      3 :     4.225530635235322   Change is   -0.000000008112600
 Root      4 :     5.213380423422204   Change is   -0.000000106273378
 Root      5 :     5.684567160630587   Change is   -0.000000219151710
 Root      6 :     6.093745372835622   Change is   -0.000000039472413
 Iteration     9 Dimension   120 NMult   108 NNew     12
 CISAX will form    12 AO SS matrices at one time.
 NMat=    12 NSing=    12 JSym2X= 0.
 Root      1 has converged.
 Root      2 has converged.
 Root      3 has converged.
 Root      4 not converged, maximum delta is    0.000007475146486
 Root      5 not converged, maximum delta is    0.000011027002210
 Root      6 not converged, maximum delta is    0.000004088528720
 Excitation Energies [eV] at current iteration:
 Root      1 :     3.433094325631326   Change is   -0.000000000529677
 Root      2 :     3.739484061157096   Change is   -0.000000000214934
 Root      3 :     4.225530634943809   Change is   -0.000000000291513
 Root      4 :     5.213380417222036   Change is   -0.000000006200167
 Root      5 :     5.684567142903966   Change is   -0.000000017726621
 Root      6 :     6.093745370545776   Change is   -0.000000002289846
 Iteration    10 Dimension   126 NMult   120 NNew      6
 CISAX will form     6 AO SS matrices at one time.
 NMat=     6 NSing=     6 JSym2X= 0.
 Root      1 has converged.
 Root      2 has converged.
 Root      3 has converged.
 Root      4 not converged, maximum delta is    0.000001365158795
 Root      5 not converged, maximum delta is    0.000002341411886
 Root      6 not converged, maximum delta is    0.000001175069678
 Excitation Energies [eV] at current iteration:
 Root      1 :     3.433094325629793   Change is   -0.000000000001532
 Root      2 :     3.739484061155184   Change is   -0.000000000001912
 Root      3 :     4.225530634943245   Change is   -0.000000000000564
 Root      4 :     5.213380416888027   Change is   -0.000000000334010
 Root      5 :     5.684567141668055   Change is   -0.000000001235911
 Root      6 :     6.093745370398824   Change is   -0.000000000146952
 Iteration    11 Dimension   132 NMult   126 NNew      6
 CISAX will form     6 AO SS matrices at one time.
 NMat=     6 NSing=     6 JSym2X= 0.
 Root      1 has converged.
 Root      2 has converged.
 Root      3 has converged.
 Root      4 has converged.
 Root      5 has converged.
 Root      6 has converged.
 Excitation Energies [eV] at current iteration:
 Root      1 :     3.433094325629530   Change is   -0.000000000000264
 Root      2 :     3.739484061155184   Change is    0.000000000000000
 Root      3 :     4.225530634943089   Change is   -0.000000000000156
 Root      4 :     5.213380416869719   Change is   -0.000000000018308
 Root      5 :     5.684567141594214   Change is   -0.000000000073841
 Root      6 :     6.093745370387992   Change is   -0.000000000010833
 Convergence achieved on expansion vectors.
 PCM Corrected Linear-Response:
 The state of interest is root number   1
 Excitation energy =    3.4331 eV, Total energy =  -633.195707189    
 Recompute the excitation energies using the linear response reaction field.
 Convergence on wavefunction:    0.000001000000000
 Davidson Disk Diagonalization:  ConvIn= 1.00D-06 SkipCon=T Conv= 1.00D-06.
 Max sub-space:  2000 roots to seek:     6 dimension of matrix:        23104
 Iteration     1 Dimension     6 NMult     0 NNew      6
 CISAX will form     6 AO SS matrices at one time.
 NMat=     6 NSing=     6 JSym2X= 0.
 Excitation Energies [eV] at current iteration:
 Root      1 :     3.527031531766336
 Root      2 :     3.768146163229442
 Root      3 :     4.252709092609052
 Root      4 :     5.291596544329541
 Root      5 :     5.861280959331310
 Root      6 :     6.068427053095327
 Iteration     2 Dimension    18 NMult     6 NNew     12
 CISAX will form    12 AO SS matrices at one time.
 NMat=    12 NSing=    12 JSym2X= 0.
 Root      1 not converged, maximum delta is    0.060196754705505
 Root      2 not converged, maximum delta is    0.071326857176479
 Root      3 not converged, maximum delta is    0.004266859853172
 Root      4 not converged, maximum delta is    0.235211506783208
 Root      5 not converged, maximum delta is    0.258435144313539
 Root      6 not converged, maximum delta is    0.050646774578107
 Excitation Energies [eV] at current iteration:
 Root      1 :     3.317231595208433   Change is   -0.209799936557903
 Root      2 :     3.732830712242090   Change is   -0.035315450987352
 Root      3 :     4.221215255903391   Change is   -0.031493836705662
 Root      4 :     5.081109031061023   Change is   -0.210487513268518
 Root      5 :     5.564773385473002   Change is   -0.296507573858309
 Root      6 :     6.054941187149305   Change is   -0.013485865946022
 Iteration     3 Dimension    30 NMult    18 NNew     12
 CISAX will form    12 AO SS matrices at one time.
 NMat=    12 NSing=    12 JSym2X= 0.
 Root      1 not converged, maximum delta is    0.002711468056688
 Root      2 not converged, maximum delta is    0.000882480927974
 Root      3 not converged, maximum delta is    0.000991699857721
 Root      4 not converged, maximum delta is    0.012336809760316
 Root      5 not converged, maximum delta is    0.009468955776707
 Root      6 not converged, maximum delta is    0.006732343648699
 Excitation Energies [eV] at current iteration:
 Root      1 :     3.314328478456581   Change is   -0.002903116751852
 Root      2 :     3.732541007971705   Change is   -0.000289704270385
 Root      3 :     4.220945001896976   Change is   -0.000270254006415
 Root      4 :     5.072503288542332   Change is   -0.008605742518690
 Root      5 :     5.556527930173193   Change is   -0.008245455299809
 Root      6 :     6.054059036387924   Change is   -0.000882150761381
 Iteration     4 Dimension    42 NMult    30 NNew     12
 CISAX will form    12 AO SS matrices at one time.
 NMat=    12 NSing=    12 JSym2X= 0.
 Root      1 not converged, maximum delta is    0.001700903196431
 Root      2 not converged, maximum delta is    0.000310698247614
 Root      3 not converged, maximum delta is    0.000254333364415
 Root      4 not converged, maximum delta is    0.002580053198214
 Root      5 not converged, maximum delta is    0.003627930238183
 Root      6 not converged, maximum delta is    0.007943793498018
 Excitation Energies [eV] at current iteration:
 Root      1 :     3.313925771870198   Change is   -0.000402706586382
 Root      2 :     3.732522650895973   Change is   -0.000018357075731
 Root      3 :     4.220931755147381   Change is   -0.000013246749595
 Root      4 :     5.071348002666715   Change is   -0.001155285875617
 Root      5 :     5.555290132741794   Change is   -0.001237797431398
 Root      6 :     6.053750052717768   Change is   -0.000308983670156
 Iteration     5 Dimension    54 NMult    42 NNew     12
 CISAX will form    12 AO SS matrices at one time.
 NMat=    12 NSing=    12 JSym2X= 0.
 Root      1 not converged, maximum delta is    0.000616863267127
 Root      2 not converged, maximum delta is    0.000091346622298
 Root      3 not converged, maximum delta is    0.000091467238459
 Root      4 not converged, maximum delta is    0.000924707162045
 Root      5 not converged, maximum delta is    0.000742246153266
 Root      6 not converged, maximum delta is    0.004000337889216
 Excitation Energies [eV] at current iteration:
 Root      1 :     3.313895137137289   Change is   -0.000030634732909
 Root      2 :     3.732521542536118   Change is   -0.000001108359855
 Root      3 :     4.220930922733177   Change is   -0.000000832414204
 Root      4 :     5.071211881279973   Change is   -0.000136121386742
 Root      5 :     5.555141342248336   Change is   -0.000148790493458
 Root      6 :     6.053672106208275   Change is   -0.000077946509493
 Iteration     6 Dimension    66 NMult    54 NNew     12
 CISAX will form    12 AO SS matrices at one time.
 NMat=    12 NSing=    12 JSym2X= 0.
 Root      1 not converged, maximum delta is    0.000102255567341
 Root      2 not converged, maximum delta is    0.000019765352109
 Root      3 not converged, maximum delta is    0.000018925266240
 Root      4 not converged, maximum delta is    0.000416487272503
 Root      5 not converged, maximum delta is    0.000393881172525
 Root      6 not converged, maximum delta is    0.000720737336101
 Excitation Energies [eV] at current iteration:
 Root      1 :     3.313893047154491   Change is   -0.000002089982798
 Root      2 :     3.732521440906344   Change is   -0.000000101629775
 Root      3 :     4.220930854376226   Change is   -0.000000068356951
 Root      4 :     5.071197458631536   Change is   -0.000014422648437
 Root      5 :     5.555124024068749   Change is   -0.000017318179587
 Root      6 :     6.053662824674596   Change is   -0.000009281533678
 Iteration     7 Dimension    78 NMult    66 NNew     12
 CISAX will form    12 AO SS matrices at one time.
 NMat=    12 NSing=    12 JSym2X= 0.
 Root      1 not converged, maximum delta is    0.000016965647205
 Root      2 not converged, maximum delta is    0.000002729911648
 Root      3 not converged, maximum delta is    0.000007289071927
 Root      4 not converged, maximum delta is    0.000142525557474
 Root      5 not converged, maximum delta is    0.000180638008036
 Root      6 not converged, maximum delta is    0.000105532501114
 Excitation Energies [eV] at current iteration:
 Root      1 :     3.313892949585754   Change is   -0.000000097568737
 Root      2 :     3.732521436134436   Change is   -0.000000004771907
 Root      3 :     4.220930849008714   Change is   -0.000000005367512
 Root      4 :     5.071196062400021   Change is   -0.000001396231516
 Root      5 :     5.555122074077272   Change is   -0.000001949991477
 Root      6 :     6.053661834979342   Change is   -0.000000989695254
 Iteration     8 Dimension    90 NMult    78 NNew     12
 CISAX will form    12 AO SS matrices at one time.
 NMat=    12 NSing=    12 JSym2X= 0.
 Root      1 not converged, maximum delta is    0.000004300471035
 Root      2 has converged.
 Root      3 not converged, maximum delta is    0.000001664324374
 Root      4 not converged, maximum delta is    0.000037063731577
 Root      5 not converged, maximum delta is    0.000049955835040
 Root      6 not converged, maximum delta is    0.000042665770486
 Excitation Energies [eV] at current iteration:
 Root      1 :     3.313892944335516   Change is   -0.000000005250238
 Root      2 :     3.732521435938220   Change is   -0.000000000196217
 Root      3 :     4.220930848680657   Change is   -0.000000000328057
 Root      4 :     5.071195951391434   Change is   -0.000000111008587
 Root      5 :     5.555121877811011   Change is   -0.000000196266261
 Root      6 :     6.053661702869304   Change is   -0.000000132110038
 Iteration     9 Dimension   100 NMult    90 NNew     10
 CISAX will form    10 AO SS matrices at one time.
 NMat=    10 NSing=    10 JSym2X= 0.
 Root      1 has converged.
 Root      2 has converged.
 Root      3 has converged.
 Root      4 not converged, maximum delta is    0.000013690150961
 Root      5 not converged, maximum delta is    0.000020680467039
 Root      6 not converged, maximum delta is    0.000025692185869
 Excitation Energies [eV] at current iteration:
 Root      1 :     3.313892944185583   Change is   -0.000000000149933
 Root      2 :     3.732521435936215   Change is   -0.000000000002004
 Root      3 :     4.220930848664901   Change is   -0.000000000015756
 Root      4 :     5.071195940806997   Change is   -0.000000010584436
 Root      5 :     5.555121855986986   Change is   -0.000000021824025
 Root      6 :     6.053661686723275   Change is   -0.000000016146030
 Iteration    10 Dimension   106 NMult   100 NNew      6
 CISAX will form     6 AO SS matrices at one time.
 NMat=     6 NSing=     6 JSym2X= 0.
 Root      1 has converged.
 Root      2 has converged.
 Root      3 has converged.
 Root      4 not converged, maximum delta is    0.000003685869572
 Root      5 not converged, maximum delta is    0.000006839751483
 Root      6 not converged, maximum delta is    0.000010899475065
 Excitation Energies [eV] at current iteration:
 Root      1 :     3.313892944184640   Change is   -0.000000000000943
 Root      2 :     3.732521435935664   Change is   -0.000000000000551
 Root      3 :     4.220930848664589   Change is   -0.000000000000311
 Root      4 :     5.071195940000402   Change is   -0.000000000806595
 Root      5 :     5.555121853908092   Change is   -0.000000002078895
 Root      6 :     6.053661684710708   Change is   -0.000000002012567
 Iteration    11 Dimension   112 NMult   106 NNew      6
 CISAX will form     6 AO SS matrices at one time.
 NMat=     6 NSing=     6 JSym2X= 0.
 Root      1 has converged.
 Root      2 has converged.
 Root      3 has converged.
 Root      4 has converged.
 Root      5 not converged, maximum delta is    0.000001086523470
 Root      6 not converged, maximum delta is    0.000002080274845
 Excitation Energies [eV] at current iteration:
 Root      1 :     3.313892944184541   Change is   -0.000000000000099
 Root      2 :     3.732521435935488   Change is   -0.000000000000176
 Root      3 :     4.220930848664512   Change is   -0.000000000000078
 Root      4 :     5.071195939947069   Change is   -0.000000000053333
 Root      5 :     5.555121853755060   Change is   -0.000000000153032
 Root      6 :     6.053661684486342   Change is   -0.000000000224366
 Iteration    12 Dimension   116 NMult   112 NNew      4
 CISAX will form     4 AO SS matrices at one time.
 NMat=     4 NSing=     4 JSym2X= 0.
 Root      1 has converged.
 Root      2 has converged.
 Root      3 has converged.
 Root      4 has converged.
 Root      5 has converged.
 Root      6 has converged.
 Excitation Energies [eV] at current iteration:
 Root      1 :     3.313892944184516   Change is   -0.000000000000025
 Root      2 :     3.732521435935510   Change is    0.000000000000022
 Root      3 :     4.220930848664512   Change is    0.000000000000000
 Root      4 :     5.071195939944703   Change is   -0.000000000002366
 Root      5 :     5.555121853746536   Change is   -0.000000000008524
 Root      6 :     6.053661684465144   Change is   -0.000000000021198
 Convergence achieved on expansion vectors.
 ***********************************************************************
 Excited states from <AA,BB:AA,BB> singles matrix:
 ***********************************************************************
 
 1PDM for each excited state written to RWF  633
 Ground to excited state transition densities written to RWF  633
 Ground to excited state transition electric dipole moments (Au):
       state          X           Y           Z        Dip. S.      Osc.
         1         1.6656     -0.1172     -0.0297      2.7889      0.2264
         2        -0.2323      0.0449      0.0461      0.0581      0.0053
         3        -0.0076     -0.0701      0.0392      0.0065      0.0007
         4        -0.0694     -1.7822      0.0749      3.1868      0.3959
         5         0.2364      1.4152     -0.0074      2.0587      0.2802
         6         0.0147      0.1424      0.0351      0.0217      0.0032
 Ground to excited state transition velocity dipole moments (Au):
       state          X           Y           Z        Dip. S.      Osc.
         1        -0.1958      0.0118      0.0036      0.0385      0.2108
         2         0.0317     -0.0053     -0.0044      0.0011      0.0051
         3         0.0009      0.0105     -0.0027      0.0001      0.0005
         4         0.0172      0.3154     -0.0111      0.0999      0.3573
         5        -0.0466     -0.2843      0.0019      0.0830      0.2710
         6        -0.0046     -0.0290     -0.0276      0.0016      0.0049
 Ground to excited state transition magnetic dipole moments (Au):
       state          X           Y           Z
         1         0.0777     -0.0187      1.4587
         2         0.7784     -0.2722     -0.3611
         3        -0.0285      0.9593      0.0542
         4         0.0557     -0.0532      0.3277
         5        -0.1631      0.0725     -0.2510
         6        -0.0297     -0.0031     -0.0090
 Ground to excited state transition velocity quadrupole moments (Au):
       state          XX          YY          ZZ          XY          XZ          YZ
         1         0.3029     -0.1333     -0.0077      0.5209     -0.0361     -0.0054
         2        -0.0464     -0.0071      0.0005     -0.0922      0.0377      0.0583
         3        -0.0139      0.0086     -0.0138      0.0194     -0.0802      0.0027
         4        -1.4211      0.3100      0.0264      0.2041      0.0478     -0.0151
         5         0.6162     -0.3669     -0.0394     -0.0620     -0.0326     -0.0605
         6        -0.1343     -0.0979      0.0852     -0.0026      0.0155      0.0504
 <0|del|b> * <b|rxdel|0> + <0|del|b> * <b|delr+rdel|0>
 Rotatory Strengths (R) in cgs (10**-40 erg-esu-cm/Gauss)
       state          XX          YY          ZZ    R(velocity)    E-M Angle
         1        21.0933    -31.4068    -49.1607    -19.8247       92.05
         2         9.4386     71.3400     61.9895     47.5894       18.33
         3        24.4963     -0.2725     21.0405     15.0881       18.99
         4       -71.6159     -1.2800     -0.9583    -24.6181      100.54
         5       -52.7948     17.4119    -11.3822    -15.5884       98.75
         6         1.3658      0.1307      0.0145      0.5037       67.77
 1/2[<0|r|b>*<b|rxdel|0> + (<0|rxdel|b>*<b|r|0>)*]
 Rotatory Strengths (R) in cgs (10**-40 erg-esu-cm/Gauss)
       state          XX          YY          ZZ     R(length)
         1       -91.5557     -1.5501     30.6402    -20.8219
         2       127.8752      8.6450     11.7708     49.4303
         3        -0.1524     47.5665     -1.5029     15.3037
         4         2.7354    -67.0682    -17.3524    -27.2284
         5        27.2606    -72.5824     -1.3097    -15.5438
         6         0.3085      0.3151      0.2236      0.2824
  1/2[<0|del|b>*<b|r|0> + (<0|r|b>*<b|del|0>)*] (Au)
       state          X           Y           Z        Dip. S.   Osc.(frdel)
         1        -0.3262     -0.0014     -0.0001      0.3277      0.2185
         2        -0.0074     -0.0002     -0.0002      0.0078      0.0052
         3        -0.0000     -0.0007     -0.0001      0.0009      0.0006
         4        -0.0012     -0.5621     -0.0008      0.5641      0.3761
         5        -0.0110     -0.4023     -0.0000      0.4134      0.2756
         6        -0.0001     -0.0041     -0.0010      0.0052      0.0034

 Excitation energies and oscillator strengths:
 
 Excited State   1:      Singlet-A      3.3139 eV  374.13 nm  f=0.2264  <S**2>=0.000
      52 -> 53         0.69748
 This state for optimization and/or second-order correction.
 Total Energy, E(TD-HF/TD-DFT) =  -633.200087760    
 Copying the excited state density for this state as the 1-particle RhoCI density.
 
 Excited State   2:      Singlet-A      3.7325 eV  332.17 nm  f=0.0053  <S**2>=0.000
      51 -> 53         0.59931
      51 -> 54        -0.31785
 
 Excited State   3:      Singlet-A      4.2209 eV  293.74 nm  f=0.0007  <S**2>=0.000
      50 -> 53         0.54325
      50 -> 54         0.38599
      50 -> 58         0.12367
      51 -> 54         0.12449
 
 Excited State   4:      Singlet-A      5.0712 eV  244.49 nm  f=0.3959  <S**2>=0.000
      52 -> 54         0.69312
 
 Excited State   5:      Singlet-A      5.5551 eV  223.19 nm  f=0.2802  <S**2>=0.000
      49 -> 53         0.68323
 
 Excited State   6:      Singlet-A      6.0537 eV  204.81 nm  f=0.0032  <S**2>=0.000
      52 -> 55         0.65970
      52 -> 56         0.11529
      52 -> 57         0.11821
 SavETr:  write IOETrn=   770 NScale= 10 NData=  16 NLR=1 NState=    6 LETran=     118.
 The selected state is a singlet.
 CISGrd: IGrad=1 NXY=2 DFT=T
 CISAX will form     1 AO SS matrices at one time.
 NMat=     1 NSing=     1 JSym2X= 0.
 Leave Link  914 at Fri Jan 23 20:07:31 2026, MaxMem=  2147483648 cpu:            7747.1 elap:             486.5
 (Enter /data/home/wyx/g16/l1002.exe)
 Minotr:  Closed shell wavefunction.
          Computing CIS/TDA/TD derivatives.
          Using Z-Vector for PSCF gradient.
          Skipping F1 and S1 gradient terms here.
 NEqPCM:  Using equilibrium solvation (IEInf=0, Eps=   7.4257, EpsInf=   1.9740)
          Frozen-core window.
          Direct CPHF calculation.
          Differentiating once with respect to electric field.
                with respect to dipole field.
          Electric field/nuclear overlap derivatives assumed to be zero.
          Requested convergence is 1.0D-10 RMS, and 1.0D-09 maximum.
          NewPWx=F KeepS1=T KeepF1=T KeepIn=T MapXYZ=F SortEE=F KeepMc=T.
 Two-electron integral symmetry used by symmetrizing perturbed Fock matrices.
          MDV=    2147483648 using IRadAn=       5.
          Solving linear equations separately, MaxMat=     384.
          There are     1 degrees of freedom in the 1st order CPHF.  IDoFFX=0 NUNeed=     1.
 FoFJK:  IHMeth= 1 ICntrl=       0 DoSepK=T KAlg= 0 I1Cent=           0 FoldK=F
 IRaf=         1 NMat=       1 IRICut=       1 DoRegI=T DoRafI=F ISym2E=-1 IDoP0=0 IntGTp=1.
 FoFCou: FMM=F IPFlag=           0 FMFlag=      100000 FMFlg1=           0
         NFxFlg=           0 DoJE=T BraDBF=F KetDBF=F FulRan=T
         wScrn=  0.000000 ICntrl=       500 IOpCl=  0 I1Cent=           0 NGrid=           0
         NMat0=    1 NMatS0=      1 NMatT0=    0 NMatD0=    1 NMtDS0=    0 NMtDT0=    0
 Petite list used in FoFCou.
 LinEq1:  Iter=  0 NonCon=     1 RMS=3.49D-03 Max=1.68D-01 NDo=     1
 AX will form     1 AO Fock derivatives at one time.
 LinEq1:  Iter=  1 NonCon=     1 RMS=1.43D-03 Max=9.29D-02 NDo=     1
 LinEq1:  Iter=  2 NonCon=     1 RMS=6.72D-04 Max=3.73D-02 NDo=     1
 LinEq1:  Iter=  3 NonCon=     1 RMS=3.64D-04 Max=2.03D-02 NDo=     1
 LinEq1:  Iter=  4 NonCon=     1 RMS=1.69D-04 Max=4.13D-03 NDo=     1
 LinEq1:  Iter=  5 NonCon=     1 RMS=8.67D-05 Max=3.09D-03 NDo=     1
 LinEq1:  Iter=  6 NonCon=     1 RMS=5.69D-05 Max=1.90D-03 NDo=     1
 LinEq1:  Iter=  7 NonCon=     1 RMS=2.12D-05 Max=9.88D-04 NDo=     1
 LinEq1:  Iter=  8 NonCon=     1 RMS=1.21D-05 Max=4.29D-04 NDo=     1
 LinEq1:  Iter=  9 NonCon=     1 RMS=8.46D-06 Max=4.29D-04 NDo=     1
 LinEq1:  Iter= 10 NonCon=     1 RMS=5.00D-06 Max=1.69D-04 NDo=     1
 LinEq1:  Iter= 11 NonCon=     1 RMS=2.12D-06 Max=5.32D-05 NDo=     1
 LinEq1:  Iter= 12 NonCon=     1 RMS=8.30D-07 Max=1.72D-05 NDo=     1
 LinEq1:  Iter= 13 NonCon=     1 RMS=2.93D-07 Max=1.21D-05 NDo=     1
 LinEq1:  Iter= 14 NonCon=     1 RMS=9.44D-08 Max=4.97D-06 NDo=     1
 LinEq1:  Iter= 15 NonCon=     1 RMS=3.50D-08 Max=1.53D-06 NDo=     1
 LinEq1:  Iter= 16 NonCon=     1 RMS=1.66D-08 Max=3.41D-07 NDo=     1
 LinEq1:  Iter= 17 NonCon=     1 RMS=7.57D-09 Max=1.95D-07 NDo=     1
 LinEq1:  Iter= 18 NonCon=     1 RMS=3.58D-09 Max=5.32D-08 NDo=     1
 LinEq1:  Iter= 19 NonCon=     1 RMS=1.44D-09 Max=3.25D-08 NDo=     1
 LinEq1:  Iter= 20 NonCon=     1 RMS=4.29D-10 Max=8.18D-09 NDo=     1
 LinEq1:  Iter= 21 NonCon=     1 RMS=1.95D-10 Max=3.76D-09 NDo=     1
 LinEq1:  Iter= 22 NonCon=     1 RMS=7.55D-11 Max=2.03D-09 NDo=     1
 LinEq1:  Iter= 23 NonCon=     0 RMS=1.82D-11 Max=4.21D-10 NDo=     1
 Linear equations converged to 1.000D-10 1.000D-09 after    23 iterations.
 PCM Corrected Linear-Response - Equilibrium solvation:
 Corrected transition energy               =    3.4145          eV
 Total energy after correction             = -633.196392321     a.u.
 NEqPCM:  Using non-equilibrium solvation (IEInf=1, Eps=   7.4257, EpsInf=   1.9740)
 Inv3:  Mode=1 IEnd=    13406988.
 Iteration    1 A*A^-1 deviation from unit magnitude is 3.11D-15 for   1037.
 Iteration    1 A*A^-1 deviation from orthogonality  is 2.76D-15 for   1815    226.
 Iteration    1 A^-1*A deviation from unit magnitude is 3.11D-15 for   1965.
 Iteration    1 A^-1*A deviation from orthogonality  is 1.58D-15 for   1323    429.
 NEqSol: Computing the dynamic-inertial partition of the PCM polarization charges.
 End of Minotr F.D. properties file   721 does not exist.
 End of Minotr F.D. properties file   722 does not exist.
 End of Minotr F.D. properties file   788 does not exist.
 Leave Link 1002 at Fri Jan 23 20:09:31 2026, MaxMem=  2147483648 cpu:            1888.5 elap:             119.4
 (Enter /data/home/wyx/g16/l601.exe)
 Copying SCF densities to generalized density rwf, IOpCl= 0 IROHF=0.

 **********************************************************************

            Population analysis using the CI density.

 **********************************************************************

 Orbital symmetries:
       Occupied  (A) (A) (A) (A) (A) (A) (A) (A) (A) (A) (A) (A)
                 (A) (A) (A) (A) (A) (A) (A) (A) (A) (A) (A) (A)
                 (A) (A) (A) (A) (A) (A) (A) (A) (A) (A) (A) (A)
                 (A) (A) (A) (A) (A) (A) (A) (A) (A) (A) (A) (A)
                 (A) (A) (A) (A)
       Virtual   (A) (A) (A) (A) (A) (A) (A) (A) (A) (A) (A) (A)
                 (A) (A) (A) (A) (A) (A) (A) (A) (A) (A) (A) (A)
                 (A) (A) (A) (A) (A) (A) (A) (A) (A) (A) (A) (A)
                 (A) (A) (A) (A) (A) (A) (A) (A) (A) (A) (A) (A)
                 (A) (A) (A) (A) (A) (A) (A) (A) (A) (A) (A) (A)
                 (A) (A) (A) (A) (A) (A) (A) (A) (A) (A) (A) (A)
                 (A) (A) (A) (A) (A) (A) (A) (A) (A) (A) (A) (A)
                 (A) (A) (A) (A) (A) (A) (A) (A) (A) (A) (A) (A)
                 (A) (A) (A) (A) (A) (A) (A) (A) (A) (A) (A) (A)
                 (A) (A) (A) (A) (A) (A) (A) (A) (A) (A) (A) (A)
                 (A) (A) (A) (A) (A) (A) (A) (A) (A) (A) (A) (A)
                 (A) (A) (A) (A) (A) (A) (A) (A) (A) (A) (A) (A)
                 (A) (A) (A) (A) (A) (A) (A) (A) (A) (A) (A) (A)
                 (A) (A) (A) (A) (A) (A) (A) (A) (A) (A) (A) (A)
                 (A) (A) (A) (A) (A) (A) (A) (A) (A) (A) (A) (A)
                 (A) (A) (A) (A) (A) (A) (A) (A) (A) (A) (A) (A)
                 (A) (A) (A) (A) (A) (A) (A) (A) (A) (A) (A) (A)
                 (A) (A) (A) (A) (A) (A) (A) (A) (A) (A) (A) (A)
                 (A) (A) (A) (A) (A) (A) (A) (A) (A) (A) (A) (A)
                 (A) (A) (A) (A) (A) (A) (A) (A) (A) (A) (A) (A)
                 (A) (A) (A) (A) (A) (A) (A) (A) (A) (A) (A) (A)
                 (A) (A) (A) (A) (A) (A) (A) (A) (A) (A) (A) (A)
                 (A) (A) (A) (A) (A) (A) (A) (A) (A) (A) (A) (A)
                 (A) (A) (A) (A) (A) (A) (A) (A) (A) (A) (A) (A)
                 (A) (A) (A) (A) (A) (A) (A) (A) (A) (A) (A) (A)
                 (A) (A) (A) (A)
 The electronic state is 1-A.
 Alpha  occ. eigenvalues --  -19.17758 -19.16768 -14.44364 -10.33252 -10.33106
 Alpha  occ. eigenvalues --  -10.32310 -10.31991 -10.26016 -10.25061 -10.24909
 Alpha  occ. eigenvalues --  -10.24883 -10.24589 -10.24040 -10.23702  -1.11831
 Alpha  occ. eigenvalues --   -1.09877  -1.07850  -0.91583  -0.90621  -0.83890
 Alpha  occ. eigenvalues --   -0.82564  -0.81559  -0.78737  -0.74356  -0.71582
 Alpha  occ. eigenvalues --   -0.69008  -0.62086  -0.58545  -0.56980  -0.55229
 Alpha  occ. eigenvalues --   -0.54804  -0.54107  -0.52511  -0.51937  -0.50676
 Alpha  occ. eigenvalues --   -0.49641  -0.49287  -0.49148  -0.48437  -0.48238
 Alpha  occ. eigenvalues --   -0.46745  -0.45116  -0.44733  -0.43784  -0.42986
 Alpha  occ. eigenvalues --   -0.42402  -0.41715  -0.41085  -0.33099  -0.32175
 Alpha  occ. eigenvalues --   -0.30896  -0.26205
 Alpha virt. eigenvalues --   -0.02905   0.02246   0.06291   0.08145   0.08449
 Alpha virt. eigenvalues --    0.09905   0.10647   0.11943   0.12688   0.13418
 Alpha virt. eigenvalues --    0.13982   0.15118   0.15606   0.16734   0.16821
 Alpha virt. eigenvalues --    0.17560   0.17635   0.17769   0.18466   0.19328
 Alpha virt. eigenvalues --    0.19931   0.21404   0.22930   0.23356   0.24066
 Alpha virt. eigenvalues --    0.24470   0.24761   0.25883   0.26184   0.26613
 Alpha virt. eigenvalues --    0.27306   0.27607   0.28170   0.29562   0.29847
 Alpha virt. eigenvalues --    0.31114   0.31611   0.33079   0.33547   0.34727
 Alpha virt. eigenvalues --    0.35369   0.35571   0.36693   0.37627   0.38290
 Alpha virt. eigenvalues --    0.39850   0.41138   0.41814   0.42404   0.43242
 Alpha virt. eigenvalues --    0.44130   0.45369   0.45680   0.46163   0.46598
 Alpha virt. eigenvalues --    0.46693   0.48064   0.48314   0.48768   0.49069
 Alpha virt. eigenvalues --    0.49906   0.50592   0.51042   0.51238   0.52056
 Alpha virt. eigenvalues --    0.52255   0.52894   0.53253   0.53967   0.54255
 Alpha virt. eigenvalues --    0.54728   0.55693   0.55983   0.57075   0.57382
 Alpha virt. eigenvalues --    0.58168   0.59641   0.60094   0.62158   0.63141
 Alpha virt. eigenvalues --    0.63253   0.64872   0.66027   0.68021   0.68235
 Alpha virt. eigenvalues --    0.70028   0.70535   0.71279   0.71818   0.73012
 Alpha virt. eigenvalues --    0.73746   0.75049   0.77023   0.78025   0.79181
 Alpha virt. eigenvalues --    0.80853   0.81225   0.82539   0.86119   0.88181
 Alpha virt. eigenvalues --    0.91264   0.92122   0.96304   1.02302   1.21438
 Alpha virt. eigenvalues --    1.24716   1.25118   1.26981   1.29801   1.30424
 Alpha virt. eigenvalues --    1.32712   1.33255   1.33916   1.35610   1.36127
 Alpha virt. eigenvalues --    1.36921   1.37386   1.38679   1.39190   1.39585
 Alpha virt. eigenvalues --    1.39791   1.40875   1.41165   1.41459   1.42302
 Alpha virt. eigenvalues --    1.42944   1.44189   1.44356   1.44815   1.46726
 Alpha virt. eigenvalues --    1.48023   1.49759   1.50098   1.50919   1.51686
 Alpha virt. eigenvalues --    1.52178   1.52640   1.54241   1.55948   1.57760
 Alpha virt. eigenvalues --    1.58805   1.59246   1.60677   1.61179   1.61705
 Alpha virt. eigenvalues --    1.62869   1.63184   1.64356   1.64984   1.65699
 Alpha virt. eigenvalues --    1.65974   1.66457   1.66769   1.67803   1.68307
 Alpha virt. eigenvalues --    1.69162   1.69963   1.71168   1.72360   1.73122
 Alpha virt. eigenvalues --    1.74299   1.74853   1.75912   1.76264   1.79483
 Alpha virt. eigenvalues --    1.81122   1.82629   1.83675   1.83972   1.86211
 Alpha virt. eigenvalues --    1.86748   1.87195   1.88479   1.89987   1.90419
 Alpha virt. eigenvalues --    1.91710   1.93438   1.95984   1.97981   2.00639
 Alpha virt. eigenvalues --    2.01700   2.04895   2.05115   2.06932   2.09558
 Alpha virt. eigenvalues --    2.10528   2.13375   2.15173   2.18484   2.19317
 Alpha virt. eigenvalues --    2.19826   2.22628   2.23952   2.24785   2.25448
 Alpha virt. eigenvalues --    2.26840   2.29076   2.30541   2.31330   2.33455
 Alpha virt. eigenvalues --    2.34685   2.35341   2.36555   2.37787   2.39545
 Alpha virt. eigenvalues --    2.41296   2.41488   2.42406   2.44950   2.45669
 Alpha virt. eigenvalues --    2.45983   2.48429   2.49488   2.50318   2.51558
 Alpha virt. eigenvalues --    2.52931   2.53359   2.54561   2.55924   2.56588
 Alpha virt. eigenvalues --    2.56962   2.60449   2.60825   2.62503   2.63288
 Alpha virt. eigenvalues --    2.64537   2.65425   2.66461   2.67297   2.69064
 Alpha virt. eigenvalues --    2.69546   2.72996   2.73232   2.74387   2.74863
 Alpha virt. eigenvalues --    2.76509   2.76830   2.77654   2.78104   2.79583
 Alpha virt. eigenvalues --    2.80418   2.81737   2.83376   2.84766   2.84791
 Alpha virt. eigenvalues --    2.85914   2.86478   2.88654   2.89934   2.93739
 Alpha virt. eigenvalues --    2.97315   2.98913   2.98988   3.05550   3.09412
 Alpha virt. eigenvalues --    3.10159   3.11640   3.13989   3.19905   3.20927
 Alpha virt. eigenvalues --    3.22048   3.23289   3.24111   3.25685   3.26360
 Alpha virt. eigenvalues --    3.29467   3.32113   3.33042   3.35988   3.38066
 Alpha virt. eigenvalues --    3.38813   3.39478   3.39818   3.40945   3.41700
 Alpha virt. eigenvalues --    3.42365   3.43323   3.46000   3.47705   3.48720
 Alpha virt. eigenvalues --    3.49952   3.53835   3.55615   3.58389   3.60225
 Alpha virt. eigenvalues --    3.62983   3.91981   4.00739   4.32897   4.36501
 Alpha virt. eigenvalues --   21.64418  21.77645  22.06988  22.10261  22.12239
 Alpha virt. eigenvalues --   22.13391  22.16972  22.19620  22.21667  22.27737
 Alpha virt. eigenvalues --   22.31718  31.92917  43.63695  43.66026
          Condensed to atoms (all electrons):
               1          2          3          4          5          6
     1  O    7.965705  -0.000000  -0.000240   0.000017   0.020310   0.022146
     2  O   -0.000000   8.085347   0.000272   0.000039  -0.195917   0.001555
     3  N   -0.000240   0.000272   6.177829   0.366570  -0.076268   0.402448
     4  H    0.000017   0.000039   0.366570   0.395406   0.014782  -0.039164
     5  C    0.020310  -0.195917  -0.076268   0.014782   7.371346   0.006680
     6  C    0.022146   0.001555   0.402448  -0.039164   0.006680   5.915630
     7  C   -0.000434  -0.015553   0.385648  -0.043320   0.109007  -0.245428
     8  C   -0.000352   0.635901   0.003385  -0.000592  -0.460169   0.047162
     9  C   -0.007903   0.023741   0.003904  -0.000627  -0.660146  -0.137576
    10  H    0.010884  -0.000423  -0.001426  -0.000001  -0.086152   0.013590
    11  H    0.002620  -0.000117   0.000760   0.000047  -0.029078   0.003124
    12  C   -0.254664  -0.003290  -0.064728   0.017537   0.090074  -0.331311
    13  C    0.724385  -0.000007  -0.000139   0.000621   0.075702   0.064760
    14  C   -0.000011  -0.051345  -0.047569  -0.003931  -0.018896   0.001654
    15  H    0.000000   0.005128   0.003954   0.000878   0.020299   0.005737
    16  H    0.000000   0.018995   0.003327   0.000710  -0.007312  -0.000338
    17  H    0.000000  -0.001216  -0.003191   0.000505  -0.017773   0.001106
    18  C   -0.000125  -0.105214  -0.000344   0.000020  -0.205605  -0.001824
    19  H   -0.000001   0.008064   0.000008  -0.000001   0.016216   0.000008
    20  H    0.000475   0.006361   0.000089   0.000001   0.072370  -0.001532
    21  H   -0.000037   0.001964   0.000003  -0.000000  -0.010410   0.000147
    22  C   -0.128049   0.000000   0.000123   0.000125   0.003029  -0.001044
    23  H    0.002891   0.000000   0.000142  -0.000022  -0.000229   0.010615
    24  H    0.003920  -0.000000   0.000018  -0.000038  -0.000315  -0.018922
    25  H    0.011424  -0.000000   0.000008  -0.000003  -0.000102  -0.002388
    26  C    0.000781   0.000007  -0.035979  -0.011333  -0.000304   0.246143
    27  H   -0.000088   0.000000  -0.001973   0.000780   0.000760  -0.051001
    28  H   -0.000197  -0.000000  -0.000927   0.000679  -0.000347  -0.060737
    29  H    0.000014   0.000000   0.004448   0.002316  -0.000469  -0.052736
               7          8          9         10         11         12
     1  O   -0.000434  -0.000352  -0.007903   0.010884   0.002620  -0.254664
     2  O   -0.015553   0.635901   0.023741  -0.000423  -0.000117  -0.003290
     3  N    0.385648   0.003385   0.003904  -0.001426   0.000760  -0.064728
     4  H   -0.043320  -0.000592  -0.000627  -0.000001   0.000047   0.017537
     5  C    0.109007  -0.460169  -0.660146  -0.086152  -0.029078   0.090074
     6  C   -0.245428   0.047162  -0.137576   0.013590   0.003124  -0.331311
     7  C    6.063227  -0.357568  -0.241636   0.013821  -0.008062   0.074916
     8  C   -0.357568   5.764225   0.237283  -0.006307   0.004813  -0.076587
     9  C   -0.241636   0.237283   6.597525   0.512248   0.362700  -0.176954
    10  H    0.013821  -0.006307   0.512248   0.456118  -0.023106  -0.099574
    11  H   -0.008062   0.004813   0.362700  -0.023106   0.483271   0.009767
    12  C    0.074916  -0.076587  -0.176954  -0.099574   0.009767   7.703942
    13  C    0.023611  -0.010170  -0.205528   0.002457  -0.007505  -0.460254
    14  C    0.197209  -0.061128   0.013251   0.000106  -0.000622   0.004726
    15  H   -0.088257   0.008484  -0.000974  -0.000007   0.000080  -0.001309
    16  H   -0.029902  -0.016359   0.001335  -0.000026   0.000053  -0.000636
    17  H   -0.027239   0.003611   0.000569   0.000091  -0.000043  -0.000744
    18  C    0.012155   0.332884  -0.003386  -0.001540  -0.009762   0.003663
    19  H    0.003496  -0.041808  -0.004924   0.000915  -0.000126  -0.000844
    20  H    0.005975  -0.115280  -0.012773  -0.004719  -0.002141   0.006770
    21  H   -0.002661  -0.027625  -0.002329  -0.001349   0.000794   0.000304
    22  C    0.000343   0.000014   0.009009   0.001160   0.001193  -0.353309
    23  H   -0.000025   0.000006  -0.002921  -0.000132   0.000097   0.008689
    24  H   -0.000024  -0.000002   0.001836  -0.000009  -0.000128   0.047216
    25  H    0.000020  -0.000000   0.000254  -0.000116  -0.000041   0.030596
    26  C    0.007060   0.000661   0.020146   0.000109  -0.000506  -0.101116
    27  H   -0.000482  -0.000011  -0.002074  -0.000009   0.000006  -0.012010
    28  H   -0.000438  -0.000013   0.001952   0.000023  -0.000006   0.006301
    29  H    0.004022   0.000025  -0.000715   0.000006   0.000015   0.023165
              13         14         15         16         17         18
     1  O    0.724385  -0.000011   0.000000   0.000000   0.000000  -0.000125
     2  O   -0.000007  -0.051345   0.005128   0.018995  -0.001216  -0.105214
     3  N   -0.000139  -0.047569   0.003954   0.003327  -0.003191  -0.000344
     4  H    0.000621  -0.003931   0.000878   0.000710   0.000505   0.000020
     5  C    0.075702  -0.018896   0.020299  -0.007312  -0.017773  -0.205605
     6  C    0.064760   0.001654   0.005737  -0.000338   0.001106  -0.001824
     7  C    0.023611   0.197209  -0.088257  -0.029902  -0.027239   0.012155
     8  C   -0.010170  -0.061128   0.008484  -0.016359   0.003611   0.332884
     9  C   -0.205528   0.013251  -0.000974   0.001335   0.000569  -0.003386
    10  H    0.002457   0.000106  -0.000007  -0.000026   0.000091  -0.001540
    11  H   -0.007505  -0.000622   0.000080   0.000053  -0.000043  -0.009762
    12  C   -0.460254   0.004726  -0.001309  -0.000636  -0.000744   0.003663
    13  C    5.537485  -0.000036  -0.000029   0.000001  -0.000038   0.001026
    14  C   -0.000036   5.222387   0.390406   0.414399   0.392603   0.000460
    15  H   -0.000029   0.390406   0.594213  -0.027418  -0.034260   0.000260
    16  H    0.000001   0.414399  -0.027418   0.477240  -0.016173   0.000644
    17  H   -0.000038   0.392603  -0.034260  -0.016173   0.541735  -0.000176
    18  C    0.001026   0.000460   0.000260   0.000644  -0.000176   5.268390
    19  H   -0.000017  -0.000463  -0.000014   0.000255   0.000051   0.380913
    20  H    0.001540   0.000348  -0.000028  -0.000135   0.000006   0.388825
    21  H   -0.000024  -0.000077  -0.000002  -0.000056  -0.000060   0.400043
    22  C    0.335618   0.000012   0.000003  -0.000000  -0.000001   0.000009
    23  H   -0.042427   0.000001   0.000000  -0.000000  -0.000000  -0.000002
    24  H   -0.066107  -0.000000  -0.000000   0.000000   0.000000   0.000002
    25  H   -0.050324   0.000000   0.000000   0.000000   0.000000   0.000001
    26  C   -0.040156   0.000014  -0.000102   0.000056  -0.000087  -0.000005
    27  H    0.004792  -0.000097   0.000032  -0.000001  -0.000063  -0.000002
    28  H   -0.002545   0.000018  -0.000027   0.000000   0.000019   0.000001
    29  H   -0.000219   0.000233   0.000029  -0.000001   0.000012   0.000000
              19         20         21         22         23         24
     1  O   -0.000001   0.000475  -0.000037  -0.128049   0.002891   0.003920
     2  O    0.008064   0.006361   0.001964   0.000000   0.000000  -0.000000
     3  N    0.000008   0.000089   0.000003   0.000123   0.000142   0.000018
     4  H   -0.000001   0.000001  -0.000000   0.000125  -0.000022  -0.000038
     5  C    0.016216   0.072370  -0.010410   0.003029  -0.000229  -0.000315
     6  C    0.000008  -0.001532   0.000147  -0.001044   0.010615  -0.018922
     7  C    0.003496   0.005975  -0.002661   0.000343  -0.000025  -0.000024
     8  C   -0.041808  -0.115280  -0.027625   0.000014   0.000006  -0.000002
     9  C   -0.004924  -0.012773  -0.002329   0.009009  -0.002921   0.001836
    10  H    0.000915  -0.004719  -0.001349   0.001160  -0.000132  -0.000009
    11  H   -0.000126  -0.002141   0.000794   0.001193   0.000097  -0.000128
    12  C   -0.000844   0.006770   0.000304  -0.353309   0.008689   0.047216
    13  C   -0.000017   0.001540  -0.000024   0.335618  -0.042427  -0.066107
    14  C   -0.000463   0.000348  -0.000077   0.000012   0.000001  -0.000000
    15  H   -0.000014  -0.000028  -0.000002   0.000003   0.000000  -0.000000
    16  H    0.000255  -0.000135  -0.000056  -0.000000  -0.000000   0.000000
    17  H    0.000051   0.000006  -0.000060  -0.000001  -0.000000   0.000000
    18  C    0.380913   0.388825   0.400043   0.000009  -0.000002   0.000002
    19  H    0.542176  -0.026482  -0.026287  -0.000001  -0.000000   0.000000
    20  H   -0.026482   0.562023  -0.024693   0.000040  -0.000001  -0.000001
    21  H   -0.026287  -0.024693   0.529469  -0.000001   0.000000  -0.000000
    22  C   -0.000001   0.000040  -0.000001   5.493871   0.393519   0.380799
    23  H   -0.000000  -0.000001   0.000000   0.393519   0.525386  -0.033171
    24  H    0.000000  -0.000001  -0.000000   0.380799  -0.033171   0.551785
    25  H    0.000000  -0.000000  -0.000000   0.377043  -0.009719  -0.016165
    26  C    0.000001  -0.000017   0.000001  -0.046442  -0.009474   0.009361
    27  H   -0.000000  -0.000000   0.000000  -0.009736   0.001574  -0.002480
    28  H    0.000000   0.000001  -0.000000   0.001829  -0.002968  -0.003425
    29  H    0.000000  -0.000000  -0.000000   0.002149   0.000133   0.000464
              25         26         27         28         29
     1  O    0.011424   0.000781  -0.000088  -0.000197   0.000014
     2  O   -0.000000   0.000007   0.000000  -0.000000   0.000000
     3  N    0.000008  -0.035979  -0.001973  -0.000927   0.004448
     4  H   -0.000003  -0.011333   0.000780   0.000679   0.002316
     5  C   -0.000102  -0.000304   0.000760  -0.000347  -0.000469
     6  C   -0.002388   0.246143  -0.051001  -0.060737  -0.052736
     7  C    0.000020   0.007060  -0.000482  -0.000438   0.004022
     8  C   -0.000000   0.000661  -0.000011  -0.000013   0.000025
     9  C    0.000254   0.020146  -0.002074   0.001952  -0.000715
    10  H   -0.000116   0.000109  -0.000009   0.000023   0.000006
    11  H   -0.000041  -0.000506   0.000006  -0.000006   0.000015
    12  C    0.030596  -0.101116  -0.012010   0.006301   0.023165
    13  C   -0.050324  -0.040156   0.004792  -0.002545  -0.000219
    14  C    0.000000   0.000014  -0.000097   0.000018   0.000233
    15  H    0.000000  -0.000102   0.000032  -0.000027   0.000029
    16  H    0.000000   0.000056  -0.000001   0.000000  -0.000001
    17  H    0.000000  -0.000087  -0.000063   0.000019   0.000012
    18  C    0.000001  -0.000005  -0.000002   0.000001   0.000000
    19  H    0.000000   0.000001  -0.000000   0.000000   0.000000
    20  H   -0.000000  -0.000017  -0.000000   0.000001  -0.000000
    21  H   -0.000000   0.000001   0.000000  -0.000000  -0.000000
    22  C    0.377043  -0.046442  -0.009736   0.001829   0.002149
    23  H   -0.009719  -0.009474   0.001574  -0.002968   0.000133
    24  H   -0.016165   0.009361  -0.002480  -0.003425   0.000464
    25  H    0.499378   0.002308  -0.000095   0.000497  -0.000030
    26  C    0.002308   5.182738   0.437493   0.425072   0.385014
    27  H   -0.000095   0.437493   0.516955  -0.042798  -0.018181
    28  H    0.000497   0.425072  -0.042798   0.536338  -0.021169
    29  H   -0.000030   0.385014  -0.018181  -0.021169   0.525681
 Mulliken charges:
               1
     1  O   -0.373471
     2  O   -0.414294
     3  N   -0.120151
     4  H    0.297999
     5  C   -0.031082
     6  C    0.201499
     7  C    0.160518
     8  C    0.135519
     9  C   -0.325287
    10  H    0.213367
    11  H    0.211904
    12  C   -0.090336
    13  C    0.113527
    14  C   -0.453651
    15  H    0.122923
    16  H    0.181342
    17  H    0.160755
    18  C   -0.461311
    19  H    0.148865
    20  H    0.142980
    21  H    0.162887
    22  C   -0.461304
    23  H    0.158037
    24  H    0.145384
    25  H    0.157457
    26  C   -0.471442
    27  H    0.178709
    28  H    0.162865
    29  H    0.145793
 Sum of Mulliken charges =  -0.00000
 Mulliken charges with hydrogens summed into heavy atoms:
               1
     1  O   -0.373471
     2  O   -0.414294
     3  N    0.177848
     5  C   -0.031082
     6  C    0.201499
     7  C    0.160518
     8  C    0.135519
     9  C    0.099984
    12  C   -0.090336
    13  C    0.113527
    14  C    0.011369
    18  C   -0.006579
    22  C   -0.000426
    26  C    0.015925
 Electronic spatial extent (au):  <R**2>=           3217.6853
 Charge=             -0.0000 electrons
 Dipole moment (field-independent basis, Debye):
    X=              4.8475    Y=              7.4591    Z=             -0.4959  Tot=              8.9097
 Quadrupole moment (field-independent basis, Debye-Ang):
   XX=           -105.6613   YY=            -79.2301   ZZ=            -84.4796
   XY=             12.8887   XZ=              2.8507   YZ=             -0.4574
 Traceless Quadrupole moment (field-independent basis, Debye-Ang):
   XX=            -15.8709   YY=             10.5602   ZZ=              5.3107
   XY=             12.8887   XZ=              2.8507   YZ=             -0.4574
 Octapole moment (field-independent basis, Debye-Ang**2):
  XXX=            120.1287  YYY=             66.0578  ZZZ=              1.2121  XYY=            -33.5030
  XXY=             30.0115  XXZ=             -8.0815  XZZ=              2.1804  YZZ=             -1.8785
  YYZ=              0.0505  XYZ=             -2.0611
 Hexadecapole moment (field-independent basis, Debye-Ang**3):
 XXXX=          -3210.7062 YYYY=          -1290.6779 ZZZZ=           -130.6457 XXXY=             37.6595
 XXXZ=             42.0465 YYYX=             93.2278 YYYZ=            -11.6660 ZZZX=             -3.4986
 ZZZY=              3.1784 XXYY=           -713.8678 XXZZ=           -492.3693 YYZZ=           -239.3090
 XXYZ=             -0.3822 YYXZ=              2.6573 ZZXY=              0.6815
 N-N= 9.002792794100D+02 E-N=-3.276141184296D+03  KE= 6.307974837671D+02
 No NMR shielding tensors so no spin-rotation constants.
 Leave Link  601 at Fri Jan 23 20:09:31 2026, MaxMem=  2147483648 cpu:               1.8 elap:               0.1
 (Enter /data/home/wyx/g16/l9999.exe)
 Electronic transition elements 
                 1             2             3             4             5 
      1  -0.633200D+03 -0.633185D+03 -0.633167D+03 -0.633136D+03 -0.633118D+03
      2   0.159521D+01 -0.237639D+00  0.116945D-01  0.531268D+00 -0.259748D+00
      3   0.462690D+00 -0.372647D-01 -0.680081D-01 -0.169641D+01  0.140998D+01
      4   0.173618D+00  0.158209D-01  0.418245D-01  0.163586D+00 -0.568530D-01
      5  -0.186913D+00  0.318758D-01 -0.235391D-02 -0.897329D-01  0.529908D-01
      6  -0.562202D-01  0.583142D-02  0.101801D-01  0.301897D+00 -0.282926D+00
      7  -0.202346D-01 -0.361682D-03 -0.318357D-02 -0.262379D-01  0.119348D-01
      8  -0.110402D+00  0.864401D+00 -0.359571D+00  0.274836D-01 -0.143990D+00
      9   0.250137D-01  0.825934D-02  0.891495D+00 -0.272402D-01  0.927234D-02
     10   0.145649D+01 -0.251201D+00 -0.212681D-02  0.334375D+00 -0.272043D+00
     11  -0.742066D-01  0.133179D-01 -0.399797D-02 -0.133892D+01  0.533374D+00
     12   0.254446D+00 -0.697954D-01  0.179371D-01  0.236989D+00 -0.292045D+00
     13  -0.183285D-01  0.355235D-02 -0.330208D-01  0.172904D-01 -0.315183D-01
     14   0.536190D+00 -0.910706D-01  0.990806D-02 -0.399522D+00  0.276374D+00
     15  -0.466111D-01  0.180842D-01 -0.750546D-01 -0.124160D+00  0.619870D-01
     16   0.496105D-01  0.570971D-01 -0.243529D-01 -0.522999D-01 -0.296912D-01
                 6 
      1  -0.633099D+03
      2  -0.392795D-01
      3   0.139176D+00
      4   0.287429D-01
      5   0.915182D-02
      6  -0.290914D-01
      7  -0.262975D-01
      8  -0.254390D-01
      9  -0.132539D-01
     10  -0.122672D-01
     11  -0.124060D+00
     12  -0.102695D+00
     13   0.798071D-01
     14  -0.207412D-01
     15  -0.298545D-01
     16   0.524019D-01
 1\1\GINC-CN013\SP\RCAM-B3LYP TD-FC\TZVP\C11H15N1O2\WYX\23-Jan-2026\0\\
 #p CAM-B3LYP TZVP em=gd3bj td(nstates=6,root=1) scrf=(Solvent=TetraHyd
 roFuran,CorrectedLR,NonEquilibrium=Save) Geom=Check Guess=Read\\Title 
 Card Required\\0,1\O,0,2.809094,-1.578071,0.310833\O,0,-3.448305,-1.64
 2133,-0.208932\N,0,-0.643429,1.520514,-0.231603\H,0,-0.958187,2.475215
 ,-0.274119\C,0,-1.242103,-0.760338,-0.200636\C,0,0.685997,1.306078,0.0
 03643\C,0,-1.615047,0.540802,-0.267709\C,0,-2.204093,-1.82235,-0.21313
 2\C,0,0.217972,-1.126518,-0.153404\H,0,0.388615,-1.861769,0.633669\H,0
 ,0.513562,-1.614585,-1.088375\C,0,1.146806,0.037003,0.08316\C,0,2.5142
 83,-0.385286,0.350937\C,0,-2.997744,1.076935,-0.369395\H,0,-3.017073,2
 .00128,-0.951526\H,0,-3.692154,0.391021,-0.848576\H,0,-3.40941,1.29052
 6,0.619094\C,0,-1.78758,-3.262088,-0.242795\H,0,-2.477526,-3.91957,-0.
 773032\H,0,-0.813671,-3.424774,-0.70405\H,0,-1.70236,-3.660932,0.77296
 4\C,0,3.611768,0.582593,0.704248\H,0,3.890002,1.214559,-0.138249\H,0,3
 .361592,1.233561,1.539281\H,0,4.474003,-0.022524,0.974707\C,0,1.450081
 ,2.583203,0.141248\H,0,1.775722,2.757856,1.165587\H,0,2.325584,2.62338
 1,-0.500244\H,0,0.843601,3.44641,-0.133595\\Version=ES64L-G16RevA.03\S
 tate=1-A\HF=-633.3218711\RMSD=1.676e-09\Dipole=0.8045348,3.4093286,-0.
 128885\Quadrupole=-15.8741473,11.7243352,4.1498121,0.9377541,-0.495207
 3,0.4509322\PG=C01 [X(C11H15N1O2)]\\@


 CHARLIE BROWN -- WHICH DO YOU THINK LASTS LONGER IN LIFE, THE GOOD THINGS 
                  OR THE BAD THINGS?
 LINUS --         GOOD THINGS LAST EIGHT SECONDS ..
                  BAD THINGS LAST THREE WEEKS
 CHARLIE BROWN -- WHAT ABOUT IN BETWEEN?
 SNOOPY --        IN BETWEEN YOU SHOULD TAKE A NAP ...
 Job cpu time:       0 days  2 hours 42 minutes 13.0 seconds.
 Elapsed time:       0 days  0 hours 10 minutes 12.5 seconds.
 File lengths (MBytes):  RWF=    735 Int=      0 D2E=      0 Chk=     67 Scr=      1
 Normal termination of Gaussian 16 at Fri Jan 23 20:09:36 2026.
