 Entering Gaussian System, Link 0=g16
 Input=DDL-LR-Eq-9.gjf
 Output=DDL-LR-Eq-9.log
 Initial command:
 /data/home/wyx/g16/l1.exe "/scr/tmp/wyx/13109/Gau-1686467.inp" -scrdir="/scr/tmp/wyx/13109/"
 Entering Link 1 = /data/home/wyx/g16/l1.exe PID=   1686468.
  
 Copyright (c) 1988,1990,1992,1993,1995,1998,2003,2009,2016,
            Gaussian, Inc.  All Rights Reserved.
  
 This is part of the Gaussian(R) 16 program.  It is based on
 the Gaussian(R) 09 system (copyright 2009, Gaussian, Inc.),
 the Gaussian(R) 03 system (copyright 2003, Gaussian, Inc.),
 the Gaussian(R) 98 system (copyright 1998, Gaussian, Inc.),
 the Gaussian(R) 94 system (copyright 1995, Gaussian, Inc.),
 the Gaussian 92(TM) system (copyright 1992, Gaussian, Inc.),
 the Gaussian 90(TM) system (copyright 1990, Gaussian, Inc.),
 the Gaussian 88(TM) system (copyright 1988, Gaussian, Inc.),
 the Gaussian 86(TM) system (copyright 1986, Carnegie Mellon
 University), and the Gaussian 82(TM) system (copyright 1983,
 Carnegie Mellon University). Gaussian is a federally registered
 trademark of Gaussian, Inc.
  
 This software contains proprietary and confidential information,
 including trade secrets, belonging to Gaussian, Inc.
  
 This software is provided under written license and may be
 used, copied, transmitted, or stored only in accord with that
 written license.
  
 The following legend is applicable only to US Government
 contracts under FAR:
  
                    RESTRICTED RIGHTS LEGEND
  
 Use, reproduction and disclosure by the US Government is
 subject to restrictions as set forth in subparagraphs (a)
 and (c) of the Commercial Computer Software - Restricted
 Rights clause in FAR 52.227-19.
  
 Gaussian, Inc.
 340 Quinnipiac St., Bldg. 40, Wallingford CT 06492
  
  
 ---------------------------------------------------------------
 Warning -- This program may not be used in any manner that
 competes with the business of Gaussian, Inc. or will provide
 assistance to any competitor of Gaussian, Inc.  The licensee
 of this program is prohibited from giving any competitor of
 Gaussian, Inc. access to this program.  By using this program,
 the user acknowledges that Gaussian, Inc. is engaged in the
 business of creating and licensing software in the field of
 computational chemistry and represents and warrants to the
 licensee that it is not a competitor of Gaussian, Inc. and that
 it will not use this program in any manner prohibited above.
 ---------------------------------------------------------------
  

 Cite this work as:
 Gaussian 16, Revision A.03,
 M. J. Frisch, G. W. Trucks, H. B. Schlegel, G. E. Scuseria, 
 M. A. Robb, J. R. Cheeseman, G. Scalmani, V. Barone, 
 G. A. Petersson, H. Nakatsuji, X. Li, M. Caricato, A. V. Marenich, 
 J. Bloino, B. G. Janesko, R. Gomperts, B. Mennucci, H. P. Hratchian, 
 J. V. Ortiz, A. F. Izmaylov, J. L. Sonnenberg, D. Williams-Young, 
 F. Ding, F. Lipparini, F. Egidi, J. Goings, B. Peng, A. Petrone, 
 T. Henderson, D. Ranasinghe, V. G. Zakrzewski, J. Gao, N. Rega, 
 G. Zheng, W. Liang, M. Hada, M. Ehara, K. Toyota, R. Fukuda, 
 J. Hasegawa, M. Ishida, T. Nakajima, Y. Honda, O. Kitao, H. Nakai, 
 T. Vreven, K. Throssell, J. A. Montgomery, Jr., J. E. Peralta, 
 F. Ogliaro, M. J. Bearpark, J. J. Heyd, E. N. Brothers, K. N. Kudin, 
 V. N. Staroverov, T. A. Keith, R. Kobayashi, J. Normand, 
 K. Raghavachari, A. P. Rendell, J. C. Burant, S. S. Iyengar, 
 J. Tomasi, M. Cossi, J. M. Millam, M. Klene, C. Adamo, R. Cammi, 
 J. W. Ochterski, R. L. Martin, K. Morokuma, O. Farkas, 
 J. B. Foresman, and D. J. Fox, Gaussian, Inc., Wallingford CT, 2016.
 
 ******************************************
 Gaussian 16:  ES64L-G16RevA.03 25-Dec-2016
                23-Jan-2026 
 ******************************************
 %nprocshared=16
 Will use up to   16 processors via shared memory.
 %mem=16GB
 %oldchk=DDL-LR-9.chk
 %chk=DDL-LR-Eq-9.chk
 Copying data from "DDL-LR-9.chk" to current chk file "DDL-LR-Eq-9.chk"
 IOpt=  2 FromEx=T IUOpen= 4 IOptOp= 5 NList=   0 IFRang= 0 IUIn= 4 IUOut= 2.
 ----------------------------------------------------------------------
 #p CAM-B3LYP TZVP em=gd3bj td(Eqsolv,nstates=6,root=1) scrf=(Solvent=T
 etraHydroFuran) Geom=Check Guess=Read
 ----------------------------------------------------------------------
 1/29=2,38=1,172=1/1;
 2/12=2,40=1/2;
 3/5=19,7=101,11=9,14=-4,25=1,30=1,70=2201,72=20,74=-40,116=-2,124=41/1,2,3,8;
 4/5=1/1;
 5/5=2,38=6,53=20/2;
 8/6=1,10=1,107=1,108=6/1;
 9/8=1,41=6,42=1,70=2,73=2/14;
 6/7=2,8=2,9=2,10=2/1;
 99/5=1,9=1/99;
 Leave Link    1 at Fri Jan 23 16:00:05 2026, MaxMem=  2147483648 cpu:               1.0 elap:               0.3
 (Enter /data/home/wyx/g16/l101.exe)
 -------------------
 Title Card Required
 -------------------
 Structure from the checkpoint file:  "DDL-LR-Eq-9.chk"
 Charge =  0 Multiplicity = 1
 Z-Matrix found in chk file.
 O,0,2.809094,-1.578071,0.310833
 O,0,-3.448305,-1.642133,-0.208932
 N,0,-0.643429,1.520514,-0.231603
 H,0,-0.958187,2.475215,-0.274119
 C,0,-1.242103,-0.760338,-0.200636
 C,0,0.685997,1.306078,0.003643
 C,0,-1.615047,0.540802,-0.267709
 C,0,-2.204093,-1.82235,-0.213132
 C,0,0.217972,-1.126518,-0.153404
 H,0,0.388615,-1.861769,0.633669
 H,0,0.513562,-1.614585,-1.088375
 C,0,1.146806,0.037003,0.08316
 C,0,2.514283,-0.385286,0.350937
 C,0,-2.997744,1.076935,-0.369395
 H,0,-3.017073,2.00128,-0.951526
 H,0,-3.692154,0.391021,-0.848576
 H,0,-3.40941,1.290526,0.619094
 C,0,-1.78758,-3.262088,-0.242795
 H,0,-2.477526,-3.91957,-0.773032
 H,0,-0.813671,-3.424774,-0.70405
 H,0,-1.70236,-3.660932,0.772964
 C,0,3.611768,0.582593,0.704248
 H,0,3.890002,1.214559,-0.138249
 H,0,3.361592,1.233561,1.539281
 H,0,4.474003,-0.022524,0.974707
 C,0,1.450081,2.583203,0.141248
 H,0,1.775722,2.757856,1.165587
 H,0,2.325584,2.623381,-0.500244
 H,0,0.843601,3.44641,-0.133595
 Recover connectivity data from disk.
 ITRead=  0  0  0  0  0  0  0  0  0  0  0  0  0  0  0  0  0  0  0  0
 ITRead=  0  0  0  0  0  0  0  0  0
 MicOpt= -1 -1 -1 -1 -1 -1 -1 -1 -1 -1 -1 -1 -1 -1 -1 -1 -1 -1 -1 -1
 MicOpt= -1 -1 -1 -1 -1 -1 -1 -1 -1
 NAtoms=     29 NQM=       29 NQMF=       0 NMMI=      0 NMMIF=      0
                NMic=       0 NMicF=      0.
                    Isotopes and Nuclear Properties:
 (Nuclear quadrupole moments (NQMom) in fm**2, nuclear magnetic moments (NMagM)
  in nuclear magnetons)

  Atom         1           2           3           4           5           6           7           8           9          10
 IAtWgt=          16          16          14           1          12          12          12          12          12           1
 AtmWgt=  15.9949146  15.9949146  14.0030740   1.0078250  12.0000000  12.0000000  12.0000000  12.0000000  12.0000000   1.0078250
 NucSpn=           0           0           2           1           0           0           0           0           0           1
 AtZEff=   5.6000000   5.6000000   4.5500000   1.0000000   3.6000000   3.6000000   3.6000000   3.6000000   3.6000000   1.0000000
 NQMom=    0.0000000   0.0000000   2.0440000   0.0000000   0.0000000   0.0000000   0.0000000   0.0000000   0.0000000   0.0000000
 NMagM=    0.0000000   0.0000000   0.4037610   2.7928460   0.0000000   0.0000000   0.0000000   0.0000000   0.0000000   2.7928460
 AtZNuc=   8.0000000   8.0000000   7.0000000   1.0000000   6.0000000   6.0000000   6.0000000   6.0000000   6.0000000   1.0000000

  Atom        11          12          13          14          15          16          17          18          19          20
 IAtWgt=           1          12          12          12           1           1           1          12           1           1
 AtmWgt=   1.0078250  12.0000000  12.0000000  12.0000000   1.0078250   1.0078250   1.0078250  12.0000000   1.0078250   1.0078250
 NucSpn=           1           0           0           0           1           1           1           0           1           1
 AtZEff=   1.0000000   3.6000000   3.6000000   3.6000000   1.0000000   1.0000000   1.0000000   3.6000000   1.0000000   1.0000000
 NQMom=    0.0000000   0.0000000   0.0000000   0.0000000   0.0000000   0.0000000   0.0000000   0.0000000   0.0000000   0.0000000
 NMagM=    2.7928460   0.0000000   0.0000000   0.0000000   2.7928460   2.7928460   2.7928460   0.0000000   2.7928460   2.7928460
 AtZNuc=   1.0000000   6.0000000   6.0000000   6.0000000   1.0000000   1.0000000   1.0000000   6.0000000   1.0000000   1.0000000

  Atom        21          22          23          24          25          26          27          28          29
 IAtWgt=           1          12           1           1           1          12           1           1           1
 AtmWgt=   1.0078250  12.0000000   1.0078250   1.0078250   1.0078250  12.0000000   1.0078250   1.0078250   1.0078250
 NucSpn=           1           0           1           1           1           0           1           1           1
 AtZEff=   1.0000000   3.6000000   1.0000000   1.0000000   1.0000000   3.6000000   1.0000000   1.0000000   1.0000000
 NQMom=    0.0000000   0.0000000   0.0000000   0.0000000   0.0000000   0.0000000   0.0000000   0.0000000   0.0000000
 NMagM=    2.7928460   0.0000000   2.7928460   2.7928460   2.7928460   0.0000000   2.7928460   2.7928460   2.7928460
 AtZNuc=   1.0000000   6.0000000   1.0000000   1.0000000   1.0000000   6.0000000   1.0000000   1.0000000   1.0000000
 Leave Link  101 at Fri Jan 23 16:00:08 2026, MaxMem=  2147483648 cpu:               0.9 elap:               0.1
 (Enter /data/home/wyx/g16/l202.exe)
                          Input orientation:                          
 ---------------------------------------------------------------------
 Center     Atomic      Atomic             Coordinates (Angstroms)
 Number     Number       Type             X           Y           Z
 ---------------------------------------------------------------------
      1          8           0        2.809094   -1.578071    0.310833
      2          8           0       -3.448305   -1.642133   -0.208932
      3          7           0       -0.643429    1.520514   -0.231603
      4          1           0       -0.958187    2.475215   -0.274119
      5          6           0       -1.242103   -0.760338   -0.200636
      6          6           0        0.685997    1.306078    0.003643
      7          6           0       -1.615047    0.540802   -0.267709
      8          6           0       -2.204093   -1.822350   -0.213132
      9          6           0        0.217972   -1.126518   -0.153404
     10          1           0        0.388615   -1.861769    0.633669
     11          1           0        0.513562   -1.614585   -1.088375
     12          6           0        1.146806    0.037003    0.083160
     13          6           0        2.514283   -0.385286    0.350937
     14          6           0       -2.997744    1.076935   -0.369395
     15          1           0       -3.017073    2.001280   -0.951526
     16          1           0       -3.692154    0.391021   -0.848576
     17          1           0       -3.409410    1.290526    0.619094
     18          6           0       -1.787580   -3.262088   -0.242795
     19          1           0       -2.477526   -3.919570   -0.773032
     20          1           0       -0.813671   -3.424774   -0.704050
     21          1           0       -1.702360   -3.660932    0.772964
     22          6           0        3.611768    0.582593    0.704248
     23          1           0        3.890002    1.214559   -0.138249
     24          1           0        3.361592    1.233561    1.539281
     25          1           0        4.474003   -0.022524    0.974707
     26          6           0        1.450081    2.583203    0.141248
     27          1           0        1.775722    2.757856    1.165587
     28          1           0        2.325584    2.623381   -0.500244
     29          1           0        0.843601    3.446410   -0.133595
 ---------------------------------------------------------------------
                    Distance matrix (angstroms):
                    1          2          3          4          5
     1  O    0.000000
     2  O    6.279276   0.000000
     3  N    4.670694   4.227313   0.000000
     4  H    5.564504   4.812223   1.006148   0.000000
     5  C    4.164431   2.375912   2.358316   3.248817   0.000000
     6  C    3.594471   5.082282   1.367003   2.036510   2.833615
     7  C    4.939368   2.851227   1.380283   2.042905   1.355194
     8  C    5.046410   1.257203   3.689275   4.474938   1.432987
     9  C    2.670829   3.702773   2.784763   3.790831   1.506034
    10  H    2.458338   3.934485   3.640556   4.631132   2.137395
    11  H    2.688603   4.058395   3.449860   4.422163   2.144803
    12  C    2.328841   4.901006   2.346236   3.240914   2.534399
    13  C    1.229332   6.119279   3.733975   4.542159   3.815145
    14  C    6.421147   2.760812   2.399697   2.474683   2.546827
    15  H    6.953382   3.743243   2.526581   2.218672   3.367624
    16  H    6.891138   2.145302   3.309250   3.485461   2.783560
    17  H    6.855193   3.047561   2.902969   2.865277   3.094385
    18  C    4.926645   2.320217   4.917569   5.797027   2.560874
    19  H    5.882664   2.539161   5.766418   6.591705   3.440153
    20  H    4.191029   3.219355   4.970720   5.917398   2.745214
    21  H    4.990500   2.843940   5.383110   6.269169   3.094055
    22  C    2.338275   7.458414   4.456704   5.042193   5.116868
    23  H    3.028006   7.875051   4.544702   5.011252   5.499328
    24  H    3.117629   7.596089   4.388458   4.846712   5.310080
    25  H    2.373263   8.172337   5.479440   6.107942   5.882148
    26  C    4.380853   6.478447   2.377206   2.446211   4.306275
    27  H    4.538582   6.967041   3.055396   3.102724   4.832341
    28  H    4.306254   7.184516   3.178604   3.294881   4.926227
    29  H    5.413510   6.657282   2.435147   2.051684   4.695890
                    6          7          8          9         10
     6  C    0.000000
     7  C    2.440099   0.000000
     8  C    4.264584   2.436071   0.000000
     9  C    2.482183   2.480520   2.520744   0.000000
    10  H    3.243551   3.255686   2.727776   1.090503   0.000000
    11  H    3.122901   3.138497   2.862668   1.095333   1.744175
    12  C    1.352486   2.829267   3.843632   1.507473   2.117368
    13  C    2.514748   4.276883   4.964514   2.465122   2.603537
    14  C    3.709665   1.486482   3.010009   3.904188   4.594513
    15  H    3.886950   2.136885   3.978229   4.570080   5.388386
    16  H    4.553220   2.161993   2.741738   4.251503   4.891297
    17  H    4.141422   2.137345   3.440260   4.426822   4.935805
    18  C    5.200717   3.806883   1.499069   2.931022   2.732198
    19  H    6.157800   4.571011   2.187827   3.930749   3.798436
    20  H    5.013062   4.069200   2.177622   2.578658   2.382849
    21  H    5.564826   4.329572   2.145811   3.311961   2.761986
    22  C    3.094255   5.316582   6.359998   3.895443   4.045813
    23  H    3.208451   5.547637   6.809289   4.354845   4.724337
    24  H    3.085815   5.339669   6.586835   4.279895   4.386319
    25  H    4.130029   6.239989   7.017642   4.539299   4.493275
    26  C    1.494593   3.705895   5.734760   3.920069   4.596408
    27  H    2.155290   4.297322   6.222385   4.388016   4.852622
    28  H    2.162738   4.463158   6.353340   4.315561   5.015394
    29  H    2.150510   3.808608   6.087249   4.615569   5.382608
                   11         12         13         14         15
    11  H    0.000000
    12  C    2.121611   0.000000
    13  C    2.754211   1.456031   0.000000
    14  C    4.482241   4.296924   5.747992   0.000000
    15  H    5.055550   4.718776   6.163441   1.092549   0.000000
    16  H    4.665620   4.940546   6.368779   1.087335   1.749076
    17  H    5.171540   4.755802   6.162012   1.091879   1.768035
    18  C    2.953731   4.427287   5.209082   4.506400   5.451330
    19  H    3.789328   5.433536   6.218732   5.039704   5.948062
    20  H    2.277287   4.055499   4.628905   5.014734   5.861594
    21  H    3.544352   4.718930   5.356122   5.042855   6.063248
    22  C    4.199996   2.599895   1.505354   6.714368   6.978237
    23  H    4.506345   2.993457   2.165966   6.892997   6.999145
    24  H    4.809136   2.908147   2.179624   6.641440   6.890637
    25  H    4.740892   3.445089   2.088346   7.670882   7.995147
    26  C    4.473306   2.564856   3.160447   4.723637   4.635542
    27  H    5.078546   2.995033   3.329935   5.288444   5.293908
    28  H    4.646469   2.901591   3.132442   5.544947   5.397652
    29  H    5.160833   3.429719   4.208069   4.519507   4.202644
                   16         17         18         19         20
    16  H    0.000000
    17  H    1.744451   0.000000
    18  C    4.164082   4.909122   0.000000
    19  H    4.479087   5.472798   1.090623   0.000000
    20  H    4.781929   5.542799   1.089826   1.737238   0.000000
    21  H    4.796561   5.239717   1.094580   1.748679   1.739859
    22  C    7.469621   7.057291   6.695627   7.715655   6.134069
    23  H    7.659756   7.338989   7.230922   8.204124   6.630843
    24  H    7.494469   6.833481   7.064038   8.123845   6.645708
    25  H    8.377440   7.999923   7.154335   8.158757   6.507920
    26  C    5.676971   5.051139   6.693083   7.651670   6.475715
    27  H    6.289390   5.416392   7.135852   8.150851   6.958837
    28  H    6.427903   5.993294   7.184925   8.121237   6.817378
    29  H    5.515403   4.827264   7.206871   8.105333   7.091202
                   21         22         23         24         25
    21  H    0.000000
    22  C    6.800896   0.000000
    23  H    7.474974   1.089310   0.000000
    24  H    7.084272   1.087946   1.758887   0.000000
    25  H    7.171204   1.087549   1.763548   1.770297   0.000000
    26  C    7.023259   2.998716   2.811498   2.725785   4.077815
    27  H    7.311091   2.883690   2.924369   2.231167   3.879132
    28  H    7.572185   2.696273   2.136170   2.676672   3.713758
    29  H    7.603820   4.070157   3.776472   3.746397   5.142145
                   26         27         28         29
    26  C    0.000000
    27  H    1.088952   0.000000
    28  H    1.086109   1.759382   0.000000
    29  H    1.090176   1.740928   1.734382   0.000000
 Stoichiometry    C11H15NO2
 Framework group  C1[X(C11H15NO2)]
 Deg. of freedom    81
 Full point group                 C1      NOp   1
 RotChk:  IX=0 Diff= 4.68D-16
 Largest Abelian subgroup         C1      NOp   1
 Largest concise Abelian subgroup C1      NOp   1
                         Standard orientation:                         
 ---------------------------------------------------------------------
 Center     Atomic      Atomic             Coordinates (Angstroms)
 Number     Number       Type             X           Y           Z
 ---------------------------------------------------------------------
      1          8           0        2.261387   -2.308219   -0.068688
      2          8           0       -3.650808   -0.213469    0.226735
      3          7           0        0.047335    1.803978   -0.125151
      4          1           0        0.077570    2.809632   -0.116124
      5          6           0       -1.291374   -0.135746   -0.041570
      6          6           0        1.239701    1.137993   -0.066634
      7          6           0       -1.199051    1.216294   -0.045585
      8          6           0       -2.554318   -0.805264    0.059264
      9          6           0       -0.051712   -0.978312   -0.188057
     10          1           0       -0.052784   -1.769697    0.562213
     11          1           0       -0.054672   -1.485837   -1.158708
     12          6           0        1.241725   -0.214482   -0.061327
     13          6           0        2.401867   -1.090330    0.022254
     14          6           0       -2.314594    2.195113    0.038722
     15          1           0       -2.083320    3.101401   -0.525918
     16          1           0       -3.253995    1.813318   -0.353778
     17          1           0       -2.507870    2.481452    1.074509
     18          6           0       -2.665160   -2.296945   -0.039789
     19          1           0       -3.596649   -2.650768   -0.483181
     20          1           0       -1.868390   -2.755411   -0.625184
     21          1           0       -2.603067   -2.755966    0.951952
     22          6           0        3.798879   -0.573889    0.240744
     23          1           0        4.176003   -0.028986   -0.623810
     24          1           0        3.888387    0.076619    1.108186
     25          1           0        4.425803   -1.449844    0.390520
     26          6           0        2.407073    2.069887   -0.015423
     27          1           0        2.891437    2.067147    0.959872
     28          1           0        3.160690    1.845194   -0.764559
     29          1           0        2.106660    3.101488   -0.199910
 ---------------------------------------------------------------------
 Rotational constants (GHZ):           1.0982118           0.4858344           0.3416515
 Leave Link  202 at Fri Jan 23 16:00:08 2026, MaxMem=  2147483648 cpu:               0.0 elap:               0.0
 (Enter /data/home/wyx/g16/l301.exe)
 Standard basis: TZVP (5D, 7F)
 Ernie: Thresh=  0.10000D-02 Tol=  0.10000D-05 Strict=F.
 There are   370 symmetry adapted cartesian basis functions of A   symmetry.
 There are   356 symmetry adapted basis functions of A   symmetry.
   356 basis functions,   610 primitive gaussians,   370 cartesian basis functions
    52 alpha electrons       52 beta electrons
       nuclear repulsion energy       900.3054206077 Hartrees.
 IExCor=20419 DFT=T Ex+Corr=CAM-B3LYP ExCW=0 ScaHFX=  1.000000
 ScaDFX=  1.000000  1.000000  1.000000  0.810000 ScalE2=  1.000000  1.000000
 IRadAn=      5 IRanWt=     -1 IRanGd=            0 ICorTp=0 IEmpDi=141
 HFx  wShort=  0.000000 wLong=  0.330000 cFull=  0.190000 cShort=  0.000000 cLong=  0.460000
 DFx  wShort=  0.000000 wLong=  0.330000 cFull=  0.190000 cShort=  0.000000 cLong=  0.460000
 NAtoms=   29 NActive=   29 NUniq=   29 SFac= 1.00D+00 NAtFMM=   60 NAOKFM=F Big=F
 Integral buffers will be    131072 words long.
 Raffenetti 1 integral format.
 Two-electron integral symmetry is turned on.
 R6Disp:  Grimme-D3(BJ) Dispersion energy=       -0.0261411977 Hartrees.
 Nuclear repulsion after empirical dispersion term =      900.2792794100 Hartrees.
 ------------------------------------------------------------------------------
 Polarizable Continuum Model (PCM)
 =================================
 Model                : PCM.
 Atomic radii         : UFF (Universal Force Field).
 Polarization charges : Total charges.
 Charge compensation  : None.
 Solution method      : On-the-fly selection.
 Cavity type          : Scaled VdW (van der Waals Surface) (Alpha=1.100).
 Cavity algorithm     : GePol (No added spheres)
                        Default sphere list used, NSphG=   29.
                        Lebedev-Laikov grids with approx.  5.0 points / Ang**2.
                        Smoothing algorithm: York/Karplus (Gamma=1.0000).
                        Polarization charges: spherical gaussians, with
                                              point-specific exponents (IZeta= 3).
                        Self-potential: point-specific (ISelfS= 7).
                        Self-field    : sphere-specific E.n sum rule (ISelfD= 2).
 Solvent              : TetraHydroFuran, Eps=   7.425700 Eps(inf)=   1.974025
 ------------------------------------------------------------------------------
 GePol: Number of generator spheres                  =      29
 GePol: Total number of spheres                      =      29
 GePol: Number of exposed spheres                    =      29 (100.00%)
 GePol: Number of points                             =    2114
 GePol: Average weight of points                     =       0.13
 GePol: Minimum weight of points                     =   0.61D-10
 GePol: Maximum weight of points                     =    0.20577
 GePol: Number of points with low weight             =     132
 GePol: Fraction of low-weight points (<1% of avg)   =       6.24%
 GePol: Cavity surface area                          =    268.939 Ang**2
 GePol: Cavity volume                                =    286.571 Ang**3
 Leave Link  301 at Fri Jan 23 16:00:08 2026, MaxMem=  2147483648 cpu:               0.5 elap:               0.0
 (Enter /data/home/wyx/g16/l302.exe)
 NPDir=0 NMtPBC=     1 NCelOv=     1 NCel=       1 NClECP=     1 NCelD=      1
         NCelK=      1 NCelE2=     1 NClLst=     1 CellRange=     0.0.
 One-electron integrals computed using PRISM.
 One-electron integral symmetry used in STVInt
 NBasis=   356 RedAO= T EigKep=  3.82D-05  NBF=   356
 NBsUse=   356 1.00D-06 EigRej= -1.00D+00 NBFU=   356
 Precomputing XC quadrature grid using
 IXCGrd= 4 IRadAn=           5 IRanWt=          -1 IRanGd=           0 AccXCQ= 0.00D+00.
 Generated NRdTot=       0 NPtTot=           0 NUsed=           0 NTot=          32
 NSgBfM=   366   366   366   366   366 MxSgAt=    29 MxSgA2=    29.
 Leave Link  302 at Fri Jan 23 16:00:08 2026, MaxMem=  2147483648 cpu:               3.2 elap:               0.2
 (Enter /data/home/wyx/g16/l303.exe)
 DipDrv:  MaxL=1.
 Leave Link  303 at Fri Jan 23 16:00:08 2026, MaxMem=  2147483648 cpu:               0.6 elap:               0.0
 (Enter /data/home/wyx/g16/l308.exe)
 Leave Link  308 at Fri Jan 23 16:00:09 2026, MaxMem=  2147483648 cpu:               0.7 elap:               0.1
 (Enter /data/home/wyx/g16/l401.exe)
 Initial guess from the checkpoint file:  "DDL-LR-Eq-9.chk"
 B after Tr=     0.000000   -0.000000    0.000000
         Rot=    1.000000   -0.000000   -0.000000    0.000000 Ang=   0.00 deg.
 Guess basis will be translated and rotated to current coordinates.
 JPrj=2 DoOrth=T DoCkMO=T.
 Leave Link  401 at Fri Jan 23 16:00:09 2026, MaxMem=  2147483648 cpu:               2.2 elap:               0.1
 (Enter /data/home/wyx/g16/l502.exe)
 Integral symmetry usage will be decided dynamically.
 Closed shell SCF:
 Using DIIS extrapolation, IDIIS=  1040.
 NGot=  2147483648 LenX=  2147200095 LenY=  2147062754
 Requested convergence on RMS density matrix=1.00D-08 within 128 cycles.
 Requested convergence on MAX density matrix=1.00D-06.
 Requested convergence on             energy=1.00D-06.
 No special actions if energy rises.
 Fock matrices will be formed incrementally for  20 cycles.

 Cycle   1  Pass 1  IDiag  1:
 FoFJK:  IHMeth= 1 ICntrl=       0 DoSepK=T KAlg= 0 I1Cent=           0 FoldK=F
 IRaf=         1 NMat=       1 IRICut=       1 DoRegI=T DoRafI=F ISym2E= 0 IDoP0=0 IntGTp=1.
 FoFCou: FMM=F IPFlag=           0 FMFlag=      100000 FMFlg1=           0
         NFxFlg=           0 DoJE=T BraDBF=F KetDBF=F FulRan=T
         wScrn=  0.000000 ICntrl=       500 IOpCl=  0 I1Cent=           0 NGrid=           0
         NMat0=    1 NMatS0=      1 NMatT0=    0 NMatD0=    1 NMtDS0=    0 NMtDT0=    0
 Symmetry not used in FoFCou.
 Inv3:  Mode=1 IEnd=    13406988.
 Iteration    1 A*A^-1 deviation from unit magnitude is 3.33D-15 for    689.
 Iteration    1 A*A^-1 deviation from orthogonality  is 1.82D-15 for   1798    658.
 Iteration    1 A^-1*A deviation from unit magnitude is 3.33D-15 for    689.
 Iteration    1 A^-1*A deviation from orthogonality  is 1.89D-15 for   1966    100.
 E= -633.321871084474    
 DIIS: error= 5.39D-09 at cycle   1 NSaved=   1.
 NSaved= 1 IEnMin= 1 EnMin= -633.321871084474     IErMin= 1 ErrMin= 5.39D-09
 ErrMax= 5.39D-09  0.00D+00 EMaxC= 1.00D-01 BMatC= 1.63D-14 BMatP= 1.63D-14
 IDIUse=1 WtCom= 1.00D+00 WtEn= 0.00D+00
 Coeff-Com:  0.100D+01
 Coeff:      0.100D+01
 Gap=     0.233 Goal=   None    Shift=    0.000
 RMSDP=1.67D-09 MaxDP=9.78D-08              OVMax= 1.18D-07

 Error on total polarization charges =  0.01461
 SCF Done:  E(RCAM-B3LYP) =  -633.321871084     A.U. after    1 cycles
            NFock=  1  Conv=0.17D-08     -V/T= 2.0041
 KE= 6.307315274297D+02 PE=-3.276609714225D+03 EE= 1.112277036301D+03
 Leave Link  502 at Fri Jan 23 16:00:15 2026, MaxMem=  2147483648 cpu:              85.1 elap:               5.6
 (Enter /data/home/wyx/g16/l801.exe)
 DoSCS=F DFT=T ScalE2(SS,OS)=  1.000000  1.000000
 ExpMin= 9.52D-02 ExpMax= 2.70D+04 ExpMxC= 9.22D+02 IAcc=3 IRadAn=         5 AccDes= 0.00D+00
 HarFok:  IExCor=  205 AccDes= 0.00D+00 IRadAn=         5 IDoV=-2 UseB2=F ITyADJ=14
 ICtDFT= 12500011 ScaDFX=  1.000000  1.000000  1.000000  1.000000
 Largest valence mixing into a core orbital is  5.79D-05
 Largest core mixing into a valence orbital is  1.14D-05
 Range of M.O.s used for correlation:    15   356
 NBasis=   356 NAE=    52 NBE=    52 NFC=    14 NFV=     0
 NROrb=    342 NOA=    38 NOB=    38 NVA=   304 NVB=   304

 **** Warning!!: The largest alpha MO coefficient is  0.41282225D+02

 Leave Link  801 at Fri Jan 23 16:00:15 2026, MaxMem=  2147483648 cpu:               1.0 elap:               0.1
 (Enter /data/home/wyx/g16/l914.exe)
 RHF ground state
 Two-electron integrals replicated using symmetry.
 MDV=  2147483648 DFT=T DoStab=F Mixed=T DoRPA=T DoScal=F NonHer=T
 NEqPCM:  Using equilibrium solvation (IEInf=0, Eps=   7.4257, EpsInf=   1.9740)
 Making orbital integer symmetry assigments:
 Orbital symmetries:
       Occupied  (A) (A) (A) (A) (A) (A) (A) (A) (A) (A) (A) (A)
                 (A) (A) (A) (A) (A) (A) (A) (A) (A) (A) (A) (A)
                 (A) (A) (A) (A) (A) (A) (A) (A) (A) (A) (A) (A)
                 (A) (A) (A) (A) (A) (A) (A) (A) (A) (A) (A) (A)
                 (A) (A) (A) (A)
       Virtual   (A) (A) (A) (A) (A) (A) (A) (A) (A) (A) (A) (A)
                 (A) (A) (A) (A) (A) (A) (A) (A) (A) (A) (A) (A)
                 (A) (A) (A) (A) (A) (A) (A) (A) (A) (A) (A) (A)
                 (A) (A) (A) (A) (A) (A) (A) (A) (A) (A) (A) (A)
                 (A) (A) (A) (A) (A) (A) (A) (A) (A) (A) (A) (A)
                 (A) (A) (A) (A) (A) (A) (A) (A) (A) (A) (A) (A)
                 (A) (A) (A) (A) (A) (A) (A) (A) (A) (A) (A) (A)
                 (A) (A) (A) (A) (A) (A) (A) (A) (A) (A) (A) (A)
                 (A) (A) (A) (A) (A) (A) (A) (A) (A) (A) (A) (A)
                 (A) (A) (A) (A) (A) (A) (A) (A) (A) (A) (A) (A)
                 (A) (A) (A) (A) (A) (A) (A) (A) (A) (A) (A) (A)
                 (A) (A) (A) (A) (A) (A) (A) (A) (A) (A) (A) (A)
                 (A) (A) (A) (A) (A) (A) (A) (A) (A) (A) (A) (A)
                 (A) (A) (A) (A) (A) (A) (A) (A) (A) (A) (A) (A)
                 (A) (A) (A) (A) (A) (A) (A) (A) (A) (A) (A) (A)
                 (A) (A) (A) (A) (A) (A) (A) (A) (A) (A) (A) (A)
                 (A) (A) (A) (A) (A) (A) (A) (A) (A) (A) (A) (A)
                 (A) (A) (A) (A) (A) (A) (A) (A) (A) (A) (A) (A)
                 (A) (A) (A) (A) (A) (A) (A) (A) (A) (A) (A) (A)
                 (A) (A) (A) (A) (A) (A) (A) (A) (A) (A) (A) (A)
                 (A) (A) (A) (A) (A) (A) (A) (A) (A) (A) (A) (A)
                 (A) (A) (A) (A) (A) (A) (A) (A) (A) (A) (A) (A)
                 (A) (A) (A) (A) (A) (A) (A) (A) (A) (A) (A) (A)
                 (A) (A) (A) (A) (A) (A) (A) (A) (A) (A) (A) (A)
                 (A) (A) (A) (A) (A) (A) (A) (A) (A) (A) (A) (A)
                 (A) (A) (A) (A)
    24 initial guesses have been made.
 Convergence on wavefunction:    0.001000000000000
 Davidson Disk Diagonalization:  ConvIn= 1.00D-03 SkipCon=T Conv= 1.00D-03.
 Max sub-space:  2000 roots to seek:    24 dimension of matrix:        23104
 Iteration     1 Dimension    24 NMult     0 NNew     24
 CISAX will form    24 AO SS matrices at one time.
 NMat=    24 NSing=    24 JSym2X= 0.
 FoFJK:  IHMeth= 1 ICntrl=       0 DoSepK=T KAlg= 0 I1Cent=           0 FoldK=F
 IRaf=         1 NMat=      48 IRICut=       1 DoRegI=T DoRafI=F ISym2E= 0 IDoP0=3 IntGTp=3.
 FoFCou: FMM=F IPFlag=           0 FMFlag=      100000 FMFlg1=           0
         NFxFlg=           0 DoJE=F BraDBF=F KetDBF=F FulRan=T
         wScrn=  0.000000 ICntrl=       500 IOpCl=  0 I1Cent=           0 NGrid=           0
         NMat0=   24 NMatS0=     24 NMatT0=    0 NMatD0=   24 NMtDS0=    0 NMtDT0=    0
 Symmetry not used in FoFCou.
 New state      3 was old state      4
 New state      4 was old state      3
 New state      5 was old state      6
 New state      6 was old state      5
 Excitation Energies [eV] at current iteration:
 Root      1 :     3.749744027612527
 Root      2 :     3.976085577663181
 Root      3 :     4.487518396030523
 Root      4 :     5.512617595222063
 Root      5 :     6.181091382218728
 Root      6 :     6.305608812583253
 Root      7 :     6.716037641413345
 Root      8 :     6.761799112925869
 Root      9 :     6.807640600545364
 Root     10 :     7.084466722842321
 Root     11 :     7.300472030898255
 Root     12 :     7.425955383774125
 Root     13 :     7.481614077266562
 Root     14 :     7.626412405190779
 Root     15 :     7.730221508930741
 Root     16 :     7.953659157978344
 Root     17 :     8.192666602196894
 Root     18 :     8.235760501682911
 Root     19 :     8.319355112317867
 Root     20 :     8.474146660268003
 Root     21 :     8.635976284988873
 Root     22 :     8.715649394382339
 Root     23 :     8.857718916191313
 Root     24 :     9.095537006438386
 Iteration     2 Dimension    36 NMult    24 NNew     12
 CISAX will form    12 AO SS matrices at one time.
 NMat=    12 NSing=    12 JSym2X= 0.
 Root      1 not converged, maximum delta is    0.092841342896496
 Root      2 not converged, maximum delta is    0.087161174265387
 Root      3 not converged, maximum delta is    0.098316179314243
 Root      4 not converged, maximum delta is    0.373587447276104
 New state      5 was old state      6
 Root      5 not converged, maximum delta is    0.336273424248488
 New state      6 was old state      5
 Root      6 not converged, maximum delta is    0.178513682217095
 Excitation Energies [eV] at current iteration:
 Root      1 :     3.329940439293433   Change is   -0.419803588319093
 Root      2 :     3.744289178015079   Change is   -0.231796399648102
 Root      3 :     4.234517343221799   Change is   -0.253001052808723
 Root      4 :     5.095861611226335   Change is   -0.416755983995728
 Root      5 :     5.575711734417633   Change is   -0.729897078165620
 Root      6 :     6.060624657235313   Change is   -0.120466724983415
 Iteration     3 Dimension    48 NMult    36 NNew     12
 CISAX will form    12 AO SS matrices at one time.
 NMat=    12 NSing=    12 JSym2X= 0.
 Root      1 not converged, maximum delta is    0.008278858579500
 Root      2 not converged, maximum delta is    0.010431635312364
 Root      3 not converged, maximum delta is    0.017732575603494
 Root      4 not converged, maximum delta is    0.016364517736700
 Root      5 not converged, maximum delta is    0.015972720293037
 Root      6 not converged, maximum delta is    0.012529039415097
 Excitation Energies [eV] at current iteration:
 Root      1 :     3.315194903716577   Change is   -0.014745535576857
 Root      2 :     3.733366094664940   Change is   -0.010923083350139
 Root      3 :     4.221463251712308   Change is   -0.013054091509491
 Root      4 :     5.073805271474929   Change is   -0.022056339751406
 Root      5 :     5.557497304382186   Change is   -0.018214430035447
 Root      6 :     6.054125259628437   Change is   -0.006499397606876
 Iteration     4 Dimension    60 NMult    48 NNew     12
 CISAX will form    12 AO SS matrices at one time.
 NMat=    12 NSing=    12 JSym2X= 0.
 Root      1 not converged, maximum delta is    0.002190078265783
 Root      2 not converged, maximum delta is    0.001792572422188
 Root      3 not converged, maximum delta is    0.001984829712065
 Root      4 not converged, maximum delta is    0.003173630340578
 Root      5 not converged, maximum delta is    0.003335185525790
 Root      6 not converged, maximum delta is    0.003346540738981
 Excitation Energies [eV] at current iteration:
 Root      1 :     3.313957230133059   Change is   -0.001237673583518
 Root      2 :     3.732557425175833   Change is   -0.000808669489107
 Root      3 :     4.220966637944560   Change is   -0.000496613767748
 Root      4 :     5.071370890790615   Change is   -0.002434380684314
 Root      5 :     5.555301609819788   Change is   -0.002195694562399
 Root      6 :     6.053697706805365   Change is   -0.000427552823072
 Iteration     5 Dimension    72 NMult    60 NNew     12
 CISAX will form    12 AO SS matrices at one time.
 NMat=    12 NSing=    12 JSym2X= 0.
 Root      1 has converged.
 Root      2 has converged.
 Root      3 has converged.
 Root      4 has converged.
 Root      5 has converged.
 Root      6 has converged.
 Excitation Energies [eV] at current iteration:
 Root      1 :     3.313896494192687   Change is   -0.000060735940372
 Root      2 :     3.732524209453428   Change is   -0.000033215722405
 Root      3 :     4.220933394722994   Change is   -0.000033243221566
 Root      4 :     5.071206634342656   Change is   -0.000164256447959
 Root      5 :     5.555134846910997   Change is   -0.000166762908790
 Root      6 :     6.053665043496724   Change is   -0.000032663308641
 Convergence achieved on expansion vectors.
 ***********************************************************************
 Excited states from <AA,BB:AA,BB> singles matrix:
 ***********************************************************************
 
 1PDM for each excited state written to RWF  633
 Ground to excited state transition densities written to RWF  633
 Ground to excited state transition electric dipole moments (Au):
       state          X           Y           Z        Dip. S.      Osc.
         1         1.6652     -0.1170     -0.0297      2.7875      0.2263
         2        -0.2323      0.0448      0.0461      0.0581      0.0053
         3        -0.0076     -0.0701      0.0395      0.0065      0.0007
         4        -0.0696     -1.7828      0.0749      3.1888      0.3962
         5         0.2368      1.4159     -0.0067      2.0609      0.2805
         6         0.0150      0.1426      0.0349      0.0218      0.0032
 Ground to excited state transition velocity dipole moments (Au):
       state          X           Y           Z        Dip. S.      Osc.
         1        -0.1958      0.0118      0.0035      0.0385      0.2106
         2         0.0316     -0.0053     -0.0044      0.0010      0.0051
         3         0.0009      0.0105     -0.0028      0.0001      0.0005
         4         0.0172      0.3155     -0.0111      0.1000      0.3576
         5        -0.0466     -0.2845      0.0018      0.0831      0.2715
         6        -0.0046     -0.0290     -0.0277      0.0016      0.0049
 Ground to excited state transition magnetic dipole moments (Au):
       state          X           Y           Z
         1         0.0778     -0.0186      1.4586
         2         0.7784     -0.2722     -0.3612
         3        -0.0285      0.9594      0.0543
         4         0.0559     -0.0537      0.3261
         5        -0.1634      0.0726     -0.2488
         6        -0.0300     -0.0034     -0.0096
 Ground to excited state transition velocity quadrupole moments (Au):
       state          XX          YY          ZZ          XY          XZ          YZ
         1         0.3024     -0.1331     -0.0077      0.5208     -0.0361     -0.0054
         2        -0.0461     -0.0068      0.0006     -0.0922      0.0377      0.0583
         3        -0.0138      0.0092     -0.0136      0.0194     -0.0803      0.0027
         4        -1.4195      0.3101      0.0264      0.2028      0.0478     -0.0150
         5         0.6143     -0.3664     -0.0392     -0.0601     -0.0326     -0.0608
         6        -0.1348     -0.0984      0.0850     -0.0022      0.0158      0.0504
 <0|del|b> * <b|rxdel|0> + <0|del|b> * <b|delr+rdel|0>
 Rotatory Strengths (R) in cgs (10**-40 erg-esu-cm/Gauss)
       state          XX          YY          ZZ    R(velocity)    E-M Angle
         1        20.9397    -31.4719    -49.1581    -19.8968       92.06
         2         9.4034     71.2885     61.9339     47.5419       18.37
         3        24.4898     -0.2755     21.0323     15.0822       19.12
         4       -71.9189     -1.2654     -1.1849    -24.7897      100.66
         5       -52.8477     17.5149    -11.4192    -15.5840       98.79
         6         1.4084      0.1738      0.0244      0.5355       66.76
 1/2[<0|r|b>*<b|rxdel|0> + (<0|rxdel|b>*<b|r|0>)*]
 Rotatory Strengths (R) in cgs (10**-40 erg-esu-cm/Gauss)
       state          XX          YY          ZZ     R(length)
         1       -91.5702     -1.5359     30.6162    -20.8300
         2       127.8496      8.6167     11.7733     49.4132
         3        -0.1531     47.5568     -1.5168     15.2956
         4         2.7504    -67.6748    -17.2857    -27.4034
         5        27.3632    -72.7277     -1.1705    -15.5117
         6         0.3177      0.3476      0.2373      0.3008
  1/2[<0|del|b>*<b|r|0> + (<0|r|b>*<b|del|0>)*] (Au)
       state          X           Y           Z        Dip. S.   Osc.(frdel)
         1        -0.3260     -0.0014     -0.0001      0.3275      0.2183
         2        -0.0073     -0.0002     -0.0002      0.0078      0.0052
         3        -0.0000     -0.0007     -0.0001      0.0009      0.0006
         4        -0.0012     -0.5625     -0.0008      0.5645      0.3763
         5        -0.0110     -0.4029     -0.0000      0.4139      0.2759
         6        -0.0001     -0.0041     -0.0010      0.0052      0.0035

 Excitation energies and oscillator strengths:
 
 Excited State   1:      Singlet-A      3.3139 eV  374.13 nm  f=0.2263  <S**2>=0.000
      52 -> 53         0.69748
 This state for optimization and/or second-order correction.
 Total Energy, E(TD-HF/TD-DFT) =  -633.200087629    
 Copying the excited state density for this state as the 1-particle RhoCI density.
 
 Excited State   2:      Singlet-A      3.7325 eV  332.17 nm  f=0.0053  <S**2>=0.000
      51 -> 53         0.59932
      51 -> 54        -0.31785
 
 Excited State   3:      Singlet-A      4.2209 eV  293.74 nm  f=0.0007  <S**2>=0.000
      50 -> 53         0.54325
      50 -> 54         0.38598
      50 -> 58         0.12369
      51 -> 54         0.12451
 
 Excited State   4:      Singlet-A      5.0712 eV  244.49 nm  f=0.3962  <S**2>=0.000
      52 -> 54         0.69313
 
 Excited State   5:      Singlet-A      5.5551 eV  223.19 nm  f=0.2805  <S**2>=0.000
      49 -> 53         0.68323
 
 Excited State   6:      Singlet-A      6.0537 eV  204.81 nm  f=0.0032  <S**2>=0.000
      52 -> 55         0.65972
      52 -> 56         0.11525
      52 -> 57         0.11820
 SavETr:  write IOETrn=   770 NScale= 10 NData=  16 NLR=1 NState=    6 LETran=     118.
 Leave Link  914 at Fri Jan 23 16:02:06 2026, MaxMem=  2147483648 cpu:            1766.7 elap:             110.7
 (Enter /data/home/wyx/g16/l601.exe)
 Copying SCF densities to generalized density rwf, IOpCl= 0 IROHF=0.

 **********************************************************************

            Population analysis using the SCF density.

 **********************************************************************

 Orbital symmetries:
       Occupied  (A) (A) (A) (A) (A) (A) (A) (A) (A) (A) (A) (A)
                 (A) (A) (A) (A) (A) (A) (A) (A) (A) (A) (A) (A)
                 (A) (A) (A) (A) (A) (A) (A) (A) (A) (A) (A) (A)
                 (A) (A) (A) (A) (A) (A) (A) (A) (A) (A) (A) (A)
                 (A) (A) (A) (A)
       Virtual   (A) (A) (A) (A) (A) (A) (A) (A) (A) (A) (A) (A)
                 (A) (A) (A) (A) (A) (A) (A) (A) (A) (A) (A) (A)
                 (A) (A) (A) (A) (A) (A) (A) (A) (A) (A) (A) (A)
                 (A) (A) (A) (A) (A) (A) (A) (A) (A) (A) (A) (A)
                 (A) (A) (A) (A) (A) (A) (A) (A) (A) (A) (A) (A)
                 (A) (A) (A) (A) (A) (A) (A) (A) (A) (A) (A) (A)
                 (A) (A) (A) (A) (A) (A) (A) (A) (A) (A) (A) (A)
                 (A) (A) (A) (A) (A) (A) (A) (A) (A) (A) (A) (A)
                 (A) (A) (A) (A) (A) (A) (A) (A) (A) (A) (A) (A)
                 (A) (A) (A) (A) (A) (A) (A) (A) (A) (A) (A) (A)
                 (A) (A) (A) (A) (A) (A) (A) (A) (A) (A) (A) (A)
                 (A) (A) (A) (A) (A) (A) (A) (A) (A) (A) (A) (A)
                 (A) (A) (A) (A) (A) (A) (A) (A) (A) (A) (A) (A)
                 (A) (A) (A) (A) (A) (A) (A) (A) (A) (A) (A) (A)
                 (A) (A) (A) (A) (A) (A) (A) (A) (A) (A) (A) (A)
                 (A) (A) (A) (A) (A) (A) (A) (A) (A) (A) (A) (A)
                 (A) (A) (A) (A) (A) (A) (A) (A) (A) (A) (A) (A)
                 (A) (A) (A) (A) (A) (A) (A) (A) (A) (A) (A) (A)
                 (A) (A) (A) (A) (A) (A) (A) (A) (A) (A) (A) (A)
                 (A) (A) (A) (A) (A) (A) (A) (A) (A) (A) (A) (A)
                 (A) (A) (A) (A) (A) (A) (A) (A) (A) (A) (A) (A)
                 (A) (A) (A) (A) (A) (A) (A) (A) (A) (A) (A) (A)
                 (A) (A) (A) (A) (A) (A) (A) (A) (A) (A) (A) (A)
                 (A) (A) (A) (A) (A) (A) (A) (A) (A) (A) (A) (A)
                 (A) (A) (A) (A) (A) (A) (A) (A) (A) (A) (A) (A)
                 (A) (A) (A) (A)
 The electronic state is 1-A.
 Alpha  occ. eigenvalues --  -19.17758 -19.16768 -14.44364 -10.33252 -10.33106
 Alpha  occ. eigenvalues --  -10.32310 -10.31991 -10.26016 -10.25061 -10.24909
 Alpha  occ. eigenvalues --  -10.24883 -10.24589 -10.24040 -10.23702  -1.11831
 Alpha  occ. eigenvalues --   -1.09877  -1.07850  -0.91583  -0.90621  -0.83890
 Alpha  occ. eigenvalues --   -0.82564  -0.81559  -0.78737  -0.74356  -0.71582
 Alpha  occ. eigenvalues --   -0.69008  -0.62086  -0.58545  -0.56980  -0.55229
 Alpha  occ. eigenvalues --   -0.54804  -0.54107  -0.52511  -0.51937  -0.50676
 Alpha  occ. eigenvalues --   -0.49641  -0.49287  -0.49148  -0.48437  -0.48238
 Alpha  occ. eigenvalues --   -0.46745  -0.45116  -0.44733  -0.43784  -0.42986
 Alpha  occ. eigenvalues --   -0.42402  -0.41715  -0.41085  -0.33099  -0.32175
 Alpha  occ. eigenvalues --   -0.30896  -0.26205
 Alpha virt. eigenvalues --   -0.02905   0.02246   0.06291   0.08145   0.08449
 Alpha virt. eigenvalues --    0.09905   0.10647   0.11943   0.12688   0.13418
 Alpha virt. eigenvalues --    0.13982   0.15118   0.15606   0.16734   0.16821
 Alpha virt. eigenvalues --    0.17560   0.17635   0.17769   0.18466   0.19328
 Alpha virt. eigenvalues --    0.19931   0.21404   0.22930   0.23356   0.24066
 Alpha virt. eigenvalues --    0.24470   0.24761   0.25883   0.26184   0.26613
 Alpha virt. eigenvalues --    0.27306   0.27607   0.28170   0.29562   0.29847
 Alpha virt. eigenvalues --    0.31114   0.31611   0.33079   0.33547   0.34727
 Alpha virt. eigenvalues --    0.35369   0.35571   0.36693   0.37627   0.38290
 Alpha virt. eigenvalues --    0.39850   0.41138   0.41814   0.42404   0.43242
 Alpha virt. eigenvalues --    0.44130   0.45369   0.45680   0.46163   0.46598
 Alpha virt. eigenvalues --    0.46693   0.48064   0.48314   0.48768   0.49069
 Alpha virt. eigenvalues --    0.49906   0.50592   0.51042   0.51238   0.52056
 Alpha virt. eigenvalues --    0.52255   0.52894   0.53253   0.53967   0.54255
 Alpha virt. eigenvalues --    0.54728   0.55693   0.55983   0.57075   0.57382
 Alpha virt. eigenvalues --    0.58168   0.59641   0.60094   0.62158   0.63141
 Alpha virt. eigenvalues --    0.63253   0.64872   0.66027   0.68021   0.68235
 Alpha virt. eigenvalues --    0.70028   0.70535   0.71279   0.71818   0.73012
 Alpha virt. eigenvalues --    0.73746   0.75049   0.77023   0.78025   0.79181
 Alpha virt. eigenvalues --    0.80853   0.81225   0.82539   0.86119   0.88181
 Alpha virt. eigenvalues --    0.91264   0.92122   0.96304   1.02302   1.21438
 Alpha virt. eigenvalues --    1.24716   1.25118   1.26981   1.29801   1.30424
 Alpha virt. eigenvalues --    1.32712   1.33255   1.33916   1.35610   1.36127
 Alpha virt. eigenvalues --    1.36921   1.37386   1.38679   1.39190   1.39585
 Alpha virt. eigenvalues --    1.39791   1.40875   1.41165   1.41459   1.42302
 Alpha virt. eigenvalues --    1.42944   1.44189   1.44356   1.44815   1.46726
 Alpha virt. eigenvalues --    1.48023   1.49759   1.50098   1.50919   1.51686
 Alpha virt. eigenvalues --    1.52178   1.52640   1.54241   1.55948   1.57760
 Alpha virt. eigenvalues --    1.58805   1.59246   1.60677   1.61179   1.61705
 Alpha virt. eigenvalues --    1.62869   1.63184   1.64356   1.64984   1.65699
 Alpha virt. eigenvalues --    1.65974   1.66457   1.66769   1.67803   1.68307
 Alpha virt. eigenvalues --    1.69162   1.69963   1.71168   1.72360   1.73122
 Alpha virt. eigenvalues --    1.74299   1.74853   1.75912   1.76264   1.79483
 Alpha virt. eigenvalues --    1.81122   1.82629   1.83675   1.83972   1.86211
 Alpha virt. eigenvalues --    1.86748   1.87195   1.88479   1.89987   1.90419
 Alpha virt. eigenvalues --    1.91710   1.93438   1.95984   1.97981   2.00639
 Alpha virt. eigenvalues --    2.01700   2.04895   2.05115   2.06932   2.09558
 Alpha virt. eigenvalues --    2.10528   2.13375   2.15173   2.18484   2.19317
 Alpha virt. eigenvalues --    2.19826   2.22628   2.23952   2.24785   2.25448
 Alpha virt. eigenvalues --    2.26840   2.29076   2.30541   2.31330   2.33455
 Alpha virt. eigenvalues --    2.34685   2.35341   2.36555   2.37787   2.39545
 Alpha virt. eigenvalues --    2.41296   2.41488   2.42406   2.44950   2.45669
 Alpha virt. eigenvalues --    2.45983   2.48429   2.49488   2.50318   2.51558
 Alpha virt. eigenvalues --    2.52931   2.53359   2.54561   2.55924   2.56588
 Alpha virt. eigenvalues --    2.56962   2.60449   2.60825   2.62503   2.63288
 Alpha virt. eigenvalues --    2.64537   2.65425   2.66461   2.67297   2.69064
 Alpha virt. eigenvalues --    2.69546   2.72996   2.73232   2.74387   2.74863
 Alpha virt. eigenvalues --    2.76509   2.76830   2.77654   2.78104   2.79583
 Alpha virt. eigenvalues --    2.80418   2.81737   2.83376   2.84766   2.84791
 Alpha virt. eigenvalues --    2.85914   2.86478   2.88654   2.89934   2.93739
 Alpha virt. eigenvalues --    2.97315   2.98913   2.98988   3.05550   3.09412
 Alpha virt. eigenvalues --    3.10159   3.11640   3.13989   3.19905   3.20927
 Alpha virt. eigenvalues --    3.22048   3.23289   3.24111   3.25685   3.26360
 Alpha virt. eigenvalues --    3.29467   3.32113   3.33042   3.35988   3.38066
 Alpha virt. eigenvalues --    3.38813   3.39478   3.39818   3.40945   3.41700
 Alpha virt. eigenvalues --    3.42365   3.43323   3.46000   3.47705   3.48720
 Alpha virt. eigenvalues --    3.49952   3.53835   3.55615   3.58389   3.60225
 Alpha virt. eigenvalues --    3.62983   3.91981   4.00739   4.32897   4.36501
 Alpha virt. eigenvalues --   21.64418  21.77645  22.06988  22.10261  22.12239
 Alpha virt. eigenvalues --   22.13391  22.16972  22.19620  22.21667  22.27737
 Alpha virt. eigenvalues --   22.31718  31.92917  43.63695  43.66026
          Condensed to atoms (all electrons):
               1          2          3          4          5          6
     1  O    7.923405   0.000000  -0.000199   0.000017   0.015631   0.015934
     2  O    0.000000   8.043543   0.000515   0.000032  -0.180523   0.001599
     3  N   -0.000199   0.000515   6.365606   0.372385  -0.112843   0.362551
     4  H    0.000017   0.000032   0.372385   0.405280   0.013710  -0.041160
     5  C    0.015631  -0.180523  -0.112843   0.013710   7.131473  -0.050041
     6  C    0.015934   0.001599   0.362551  -0.041160  -0.050041   5.537404
     7  C   -0.000067  -0.026525   0.372425  -0.045263   0.394492  -0.144585
     8  C   -0.000421   0.654110   0.003800  -0.000905  -0.416835   0.042115
     9  C   -0.003693   0.022995   0.018546   0.000512  -0.646093  -0.073917
    10  H    0.010546  -0.000218  -0.001126   0.000006  -0.118230   0.018790
    11  H    0.004128   0.000026   0.002343   0.000019  -0.045674  -0.000876
    12  C   -0.240473  -0.003474  -0.095838   0.018293   0.193543  -0.107963
    13  C    0.746044  -0.000008   0.000058   0.000481   0.068369   0.093093
    14  C   -0.000009  -0.045599  -0.044896  -0.002109  -0.045341  -0.001500
    15  H    0.000000   0.004872   0.004848   0.000204   0.014642   0.005816
    16  H    0.000000   0.015712   0.003291   0.000740   0.000560  -0.000436
    17  H   -0.000000   0.000980  -0.003878   0.000709  -0.014647  -0.000870
    18  C   -0.000203  -0.099049  -0.000317   0.000018  -0.185992  -0.001381
    19  H   -0.000001   0.004613   0.000006  -0.000001   0.014049   0.000030
    20  H    0.000454   0.006071   0.000102   0.000001   0.068339  -0.001428
    21  H    0.000013  -0.000545   0.000013  -0.000001  -0.009144   0.000154
    22  C   -0.128554   0.000000  -0.000086   0.000123   0.001929  -0.002983
    23  H    0.002661   0.000000   0.000110  -0.000025  -0.000189   0.006595
    24  H    0.003743   0.000000   0.000105  -0.000034  -0.000258  -0.018390
    25  H    0.010902  -0.000000   0.000013  -0.000003  -0.000066  -0.002140
    26  C    0.000804   0.000008  -0.028136  -0.010954   0.000511   0.235541
    27  H   -0.000036  -0.000000  -0.003214   0.000594   0.000482  -0.041218
    28  H   -0.000073  -0.000000  -0.000204   0.000844   0.000207  -0.039537
    29  H    0.000015   0.000000   0.004045   0.002195  -0.000393  -0.051656
               7          8          9         10         11         12
     1  O   -0.000067  -0.000421  -0.003693   0.010546   0.004128  -0.240473
     2  O   -0.026525   0.654110   0.022995  -0.000218   0.000026  -0.003474
     3  N    0.372425   0.003800   0.018546  -0.001126   0.002343  -0.095838
     4  H   -0.045263  -0.000905   0.000512   0.000006   0.000019   0.018293
     5  C    0.394492  -0.416835  -0.646093  -0.118230  -0.045674   0.193543
     6  C   -0.144585   0.042115  -0.073917   0.018790  -0.000876  -0.107963
     7  C    5.501875  -0.275241  -0.219428   0.015848  -0.004341   0.035554
     8  C   -0.275241   5.614814   0.201314  -0.008382   0.001493  -0.071504
     9  C   -0.219428   0.201314   6.374539   0.548510   0.409963  -0.142525
    10  H    0.015848  -0.008382   0.548510   0.506075  -0.036367  -0.099038
    11  H   -0.004341   0.001493   0.409963  -0.036367   0.546387  -0.019551
    12  C    0.035554  -0.071504  -0.142525  -0.099038  -0.019551   7.451758
    13  C    0.021769  -0.009506  -0.214458  -0.003491  -0.007142  -0.444093
    14  C    0.234542  -0.063999   0.014612   0.000488  -0.001153   0.002519
    15  H   -0.074247   0.006403  -0.000569  -0.000012   0.000110  -0.001171
    16  H   -0.039035  -0.017031   0.001400  -0.000063   0.000099  -0.000372
    17  H   -0.014964   0.004194  -0.000366   0.000063  -0.000040   0.000169
    18  C    0.010644   0.324512  -0.003769   0.000225  -0.012117   0.006299
    19  H    0.000182  -0.040108  -0.002067   0.000469   0.000297  -0.000178
    20  H    0.004906  -0.110868  -0.016232  -0.006405   0.001244   0.006917
    21  H   -0.000711  -0.011009  -0.003039  -0.000225   0.000460  -0.001928
    22  C    0.000629  -0.000023   0.011660   0.000869   0.001440  -0.334064
    23  H   -0.000026   0.000005  -0.002068  -0.000140   0.000152   0.008780
    24  H   -0.000030  -0.000000   0.001412   0.000051  -0.000146   0.042803
    25  H    0.000013  -0.000000  -0.000067  -0.000096  -0.000040   0.028112
    26  C    0.006272   0.000761   0.018375   0.000113  -0.000486  -0.099719
    27  H   -0.001308  -0.000014   0.000236   0.000033  -0.000006  -0.009679
    28  H   -0.000901  -0.000004  -0.000776   0.000003  -0.000017  -0.004182
    29  H    0.003842   0.000017  -0.000651  -0.000002   0.000033   0.021355
              13         14         15         16         17         18
     1  O    0.746044  -0.000009   0.000000   0.000000  -0.000000  -0.000203
     2  O   -0.000008  -0.045599   0.004872   0.015712   0.000980  -0.099049
     3  N    0.000058  -0.044896   0.004848   0.003291  -0.003878  -0.000317
     4  H    0.000481  -0.002109   0.000204   0.000740   0.000709   0.000018
     5  C    0.068369  -0.045341   0.014642   0.000560  -0.014647  -0.185992
     6  C    0.093093  -0.001500   0.005816  -0.000436  -0.000870  -0.001381
     7  C    0.021769   0.234542  -0.074247  -0.039035  -0.014964   0.010644
     8  C   -0.009506  -0.063999   0.006403  -0.017031   0.004194   0.324512
     9  C   -0.214458   0.014612  -0.000569   0.001400  -0.000366  -0.003769
    10  H   -0.003491   0.000488  -0.000012  -0.000063   0.000063   0.000225
    11  H   -0.007142  -0.001153   0.000110   0.000099  -0.000040  -0.012117
    12  C   -0.444093   0.002519  -0.001171  -0.000372   0.000169   0.006299
    13  C    5.467788  -0.000022  -0.000027   0.000001  -0.000021   0.000852
    14  C   -0.000022   5.207238   0.382933   0.421067   0.400774  -0.000130
    15  H   -0.000027   0.382933   0.582354  -0.027003  -0.028956   0.000170
    16  H    0.000001   0.421067  -0.027003   0.476146  -0.019355   0.000503
    17  H   -0.000021   0.400774  -0.028956  -0.019355   0.504150   0.000013
    18  C    0.000852  -0.000130   0.000170   0.000503   0.000013   5.228277
    19  H   -0.000014  -0.000013  -0.000001   0.000087  -0.000014   0.402682
    20  H    0.001431   0.000300  -0.000019  -0.000102  -0.000002   0.398178
    21  H   -0.000073  -0.000269  -0.000005   0.000022   0.000016   0.392912
    22  C    0.338834   0.000006   0.000003  -0.000000  -0.000001   0.000016
    23  H   -0.040008  -0.000001   0.000000  -0.000000  -0.000000  -0.000001
    24  H   -0.063417   0.000001  -0.000000   0.000000   0.000000   0.000002
    25  H   -0.050614   0.000000   0.000000  -0.000000  -0.000000   0.000000
    26  C   -0.044517   0.000419  -0.000188   0.000039  -0.000099  -0.000006
    27  H    0.003386  -0.000086   0.000018   0.000001  -0.000011  -0.000000
    28  H   -0.003426   0.000070  -0.000019  -0.000002   0.000005   0.000000
    29  H   -0.000312   0.000060   0.000088  -0.000001  -0.000002   0.000000
              19         20         21         22         23         24
     1  O   -0.000001   0.000454   0.000013  -0.128554   0.002661   0.003743
     2  O    0.004613   0.006071  -0.000545   0.000000   0.000000   0.000000
     3  N    0.000006   0.000102   0.000013  -0.000086   0.000110   0.000105
     4  H   -0.000001   0.000001  -0.000001   0.000123  -0.000025  -0.000034
     5  C    0.014049   0.068339  -0.009144   0.001929  -0.000189  -0.000258
     6  C    0.000030  -0.001428   0.000154  -0.002983   0.006595  -0.018390
     7  C    0.000182   0.004906  -0.000711   0.000629  -0.000026  -0.000030
     8  C   -0.040108  -0.110868  -0.011009  -0.000023   0.000005  -0.000000
     9  C   -0.002067  -0.016232  -0.003039   0.011660  -0.002068   0.001412
    10  H    0.000469  -0.006405  -0.000225   0.000869  -0.000140   0.000051
    11  H    0.000297   0.001244   0.000460   0.001440   0.000152  -0.000146
    12  C   -0.000178   0.006917  -0.001928  -0.334064   0.008780   0.042803
    13  C   -0.000014   0.001431  -0.000073   0.338834  -0.040008  -0.063417
    14  C   -0.000013   0.000300  -0.000269   0.000006  -0.000001   0.000001
    15  H   -0.000001  -0.000019  -0.000005   0.000003   0.000000  -0.000000
    16  H    0.000087  -0.000102   0.000022  -0.000000  -0.000000   0.000000
    17  H   -0.000014  -0.000002   0.000016  -0.000001  -0.000000   0.000000
    18  C    0.402682   0.398178   0.392912   0.000016  -0.000001   0.000002
    19  H    0.504684  -0.030032  -0.012444  -0.000000   0.000000   0.000000
    20  H   -0.030032   0.546596  -0.021226   0.000040  -0.000001  -0.000001
    21  H   -0.012444  -0.021226   0.493905  -0.000003   0.000000  -0.000000
    22  C   -0.000000   0.000040  -0.000003   5.462045   0.394747   0.384137
    23  H    0.000000  -0.000001   0.000000   0.394747   0.519981  -0.033057
    24  H    0.000000  -0.000001  -0.000000   0.384137  -0.033057   0.546732
    25  H   -0.000000  -0.000000  -0.000000   0.382881  -0.009590  -0.016990
    26  C    0.000000  -0.000017   0.000002  -0.045125  -0.008828   0.009849
    27  H    0.000000   0.000000  -0.000000  -0.009306   0.000654  -0.001034
    28  H   -0.000000   0.000000   0.000000   0.003395  -0.000818  -0.003981
    29  H    0.000000  -0.000000   0.000000   0.002189   0.000199   0.000397
              25         26         27         28         29
     1  O    0.010902   0.000804  -0.000036  -0.000073   0.000015
     2  O   -0.000000   0.000008  -0.000000  -0.000000   0.000000
     3  N    0.000013  -0.028136  -0.003214  -0.000204   0.004045
     4  H   -0.000003  -0.010954   0.000594   0.000844   0.002195
     5  C   -0.000066   0.000511   0.000482   0.000207  -0.000393
     6  C   -0.002140   0.235541  -0.041218  -0.039537  -0.051656
     7  C    0.000013   0.006272  -0.001308  -0.000901   0.003842
     8  C   -0.000000   0.000761  -0.000014  -0.000004   0.000017
     9  C   -0.000067   0.018375   0.000236  -0.000776  -0.000651
    10  H   -0.000096   0.000113   0.000033   0.000003  -0.000002
    11  H   -0.000040  -0.000486  -0.000006  -0.000017   0.000033
    12  C    0.028112  -0.099719  -0.009679  -0.004182   0.021355
    13  C   -0.050614  -0.044517   0.003386  -0.003426  -0.000312
    14  C    0.000000   0.000419  -0.000086   0.000070   0.000060
    15  H    0.000000  -0.000188   0.000018  -0.000019   0.000088
    16  H   -0.000000   0.000039   0.000001  -0.000002  -0.000001
    17  H   -0.000000  -0.000099  -0.000011   0.000005  -0.000002
    18  C    0.000000  -0.000006  -0.000000   0.000000   0.000000
    19  H   -0.000000   0.000000   0.000000  -0.000000   0.000000
    20  H   -0.000000  -0.000017   0.000000   0.000000  -0.000000
    21  H   -0.000000   0.000002  -0.000000   0.000000   0.000000
    22  C    0.382881  -0.045125  -0.009306   0.003395   0.002189
    23  H   -0.009590  -0.008828   0.000654  -0.000818   0.000199
    24  H   -0.016990   0.009849  -0.001034  -0.003981   0.000397
    25  H    0.495363   0.002317   0.000061   0.000307  -0.000030
    26  C    0.002317   5.199968   0.434234   0.422432   0.387285
    27  H    0.000061   0.434234   0.488381  -0.031700  -0.016808
    28  H    0.000307   0.422432  -0.031700   0.511983  -0.022643
    29  H   -0.000030   0.387285  -0.016808  -0.022643   0.520352
 Mulliken charges:
               1
     1  O   -0.360568
     2  O   -0.399137
     3  N   -0.220024
     4  H    0.284291
     5  C   -0.091667
     6  C    0.260458
     7  C    0.243680
     8  C    0.172313
     9  C   -0.294354
    10  H    0.171705
    11  H    0.159761
    12  C   -0.140347
    13  C    0.139041
    14  C   -0.459903
    15  H    0.129755
    16  H    0.183728
    17  H    0.172153
    18  C   -0.462337
    19  H    0.157773
    20  H    0.151752
    21  H    0.173127
    22  C   -0.464797
    23  H    0.160868
    24  H    0.148109
    25  H    0.159667
    26  C   -0.480854
    27  H    0.186343
    28  H    0.169039
    29  H    0.150425
 Sum of Mulliken charges =  -0.00000
 Mulliken charges with hydrogens summed into heavy atoms:
               1
     1  O   -0.360568
     2  O   -0.399137
     3  N    0.064267
     5  C   -0.091667
     6  C    0.260458
     7  C    0.243680
     8  C    0.172313
     9  C    0.037113
    12  C   -0.140347
    13  C    0.139041
    14  C    0.025734
    18  C    0.020315
    22  C    0.003847
    26  C    0.024952
 Electronic spatial extent (au):  <R**2>=           3212.1514
 Charge=              0.0000 electrons
 Dipole moment (field-independent basis, Debye):
    X=              4.1687    Y=              7.1533    Z=             -0.2014  Tot=              8.2818
 Quadrupole moment (field-independent basis, Debye-Ang):
   XX=            -98.7830   YY=            -78.7260   ZZ=            -84.4188
   XY=             13.0684   XZ=              2.5989   YZ=             -0.5924
 Traceless Quadrupole moment (field-independent basis, Debye-Ang):
   XX=            -11.4737   YY=              8.5833   ZZ=              2.8905
   XY=             13.0684   XZ=              2.5989   YZ=             -0.5924
 Octapole moment (field-independent basis, Debye-Ang**2):
  XXX=            112.9343  YYY=             61.7810  ZZZ=              2.1553  XYY=            -36.1671
  XXY=             28.2702  XXZ=             -7.2036  XZZ=              1.2405  YZZ=             -1.5983
  YYZ=              1.4651  XYZ=             -1.9801
 Hexadecapole moment (field-independent basis, Debye-Ang**3):
 XXXX=          -3127.5802 YYYY=          -1281.6326 ZZZZ=           -130.3122 XXXY=             43.6405
 XXXZ=             39.1138 YYYX=             93.7670 YYYZ=            -11.3869 ZZZX=             -4.1681
 ZZZY=              2.5207 XXYY=           -687.1912 XXZZ=           -483.7132 YYZZ=           -238.0205
 XXYZ=              0.1267 YYXZ=              1.0899 ZZXY=              1.3416
 N-N= 9.002792794100D+02 E-N=-3.276609714601D+03  KE= 6.307315274297D+02
 Leave Link  601 at Fri Jan 23 16:02:07 2026, MaxMem=  2147483648 cpu:               0.7 elap:               0.1
 (Enter /data/home/wyx/g16/l9999.exe)
 Electronic transition elements 
                 1             2             3             4             5 
      1  -0.633200D+03 -0.633185D+03 -0.633167D+03 -0.633136D+03 -0.633118D+03
      2   0.159475D+01 -0.237556D+00  0.116127D-01  0.531321D+00 -0.259707D+00
      3   0.462761D+00 -0.373766D-01 -0.680041D-01 -0.169697D+01  0.141079D+01
      4   0.173578D+00  0.158235D-01  0.420850D-01  0.163662D+00 -0.561225D-01
      5  -0.186817D+00  0.318482D-01 -0.234068D-02 -0.897328D-01  0.530166D-01
      6  -0.562169D-01  0.584527D-02  0.101810D-01  0.302016D+00 -0.283162D+00
      7  -0.202496D-01 -0.348555D-03 -0.320495D-02 -0.262567D-01  0.118571D-01
      8  -0.110403D+00  0.864369D+00 -0.359573D+00  0.280223D-01 -0.144618D+00
      9   0.251505D-01  0.832754D-02  0.891546D+00 -0.276255D-01  0.928276D-02
     10   0.145637D+01 -0.251358D+00 -0.199829D-02  0.332909D+00 -0.269956D+00
     11  -0.745335D-01  0.136209D-01 -0.377875D-02 -0.133679D+01  0.530631D+00
     12   0.254541D+00 -0.695137D-01  0.184197D-01  0.236406D+00 -0.290586D+00
     13  -0.183057D-01  0.358548D-02 -0.329184D-01  0.172671D-01 -0.313071D-01
     14   0.535913D+00 -0.910883D-01  0.980997D-02 -0.399973D+00  0.277085D+00
     15  -0.466887D-01  0.181694D-01 -0.751837D-01 -0.123829D+00  0.616536D-01
     16   0.495450D-01  0.571418D-01 -0.243868D-01 -0.522392D-01 -0.298855D-01
                 6 
      1  -0.633099D+03
      2  -0.390479D-01
      3   0.139393D+00
      4   0.285775D-01
      5   0.913864D-02
      6  -0.291625D-01
      7  -0.264050D-01
      8  -0.255582D-01
      9  -0.136732D-01
     10  -0.128859D-01
     11  -0.124869D+00
     12  -0.102959D+00
     13   0.796830D-01
     14  -0.205186D-01
     15  -0.296992D-01
     16   0.525848D-01
 1\1\GINC-CN013\SP\RCAM-B3LYP TD-FC\TZVP\C11H15N1O2\WYX\23-Jan-2026\0\\
 #p CAM-B3LYP TZVP em=gd3bj td(Eqsolv,nstates=6,root=1) scrf=(Solvent=T
 etraHydroFuran) Geom=Check Guess=Read\\Title Card Required\\0,1\O,0,2.
 809094,-1.578071,0.310833\O,0,-3.448305,-1.642133,-0.208932\N,0,-0.643
 429,1.520514,-0.231603\H,0,-0.958187,2.475215,-0.274119\C,0,-1.242103,
 -0.760338,-0.200636\C,0,0.685997,1.306078,0.003643\C,0,-1.615047,0.540
 802,-0.267709\C,0,-2.204093,-1.82235,-0.213132\C,0,0.217972,-1.126518,
 -0.153404\H,0,0.388615,-1.861769,0.633669\H,0,0.513562,-1.614585,-1.08
 8375\C,0,1.146806,0.037003,0.08316\C,0,2.514283,-0.385286,0.350937\C,0
 ,-2.997744,1.076935,-0.369395\H,0,-3.017073,2.00128,-0.951526\H,0,-3.6
 92154,0.391021,-0.848576\H,0,-3.40941,1.290526,0.619094\C,0,-1.78758,-
 3.262088,-0.242795\H,0,-2.477526,-3.91957,-0.773032\H,0,-0.813671,-3.4
 24774,-0.70405\H,0,-1.70236,-3.660932,0.772964\C,0,3.611768,0.582593,0
 .704248\H,0,3.890002,1.214559,-0.138249\H,0,3.361592,1.233561,1.539281
 \H,0,4.474003,-0.022524,0.974707\C,0,1.450081,2.583203,0.141248\H,0,1.
 775722,2.757856,1.165587\H,0,2.325584,2.623381,-0.500244\H,0,0.843601,
 3.44641,-0.133595\\Version=ES64L-G16RevA.03\State=1-A\HF=-633.3218711\
 RMSD=1.673e-09\PG=C01 [X(C11H15N1O2)]\\@


 ONE BIG VICE IN A MAN IS APT TO KEEP OUT MANY SMALLER ONES.

                           -- BRET HARTE
 Job cpu time:       0 days  0 hours 31 minutes  3.1 seconds.
 Elapsed time:       0 days  0 hours  1 minutes 57.3 seconds.
 File lengths (MBytes):  RWF=    735 Int=      0 D2E=      0 Chk=     67 Scr=      1
 Normal termination of Gaussian 16 at Fri Jan 23 16:02:09 2026.
