 Entering Gaussian System, Link 0=g16
 Input=DDL-S2-cLR-8.gjf
 Output=DDL-S2-cLR-8.log
 Initial command:
 /data/home/wyx/g16/l1.exe "/scr/tmp/wyx/13109/Gau-1694947.inp" -scrdir="/scr/tmp/wyx/13109/"
 Entering Link 1 = /data/home/wyx/g16/l1.exe PID=   1694948.
  
 Copyright (c) 1988,1990,1992,1993,1995,1998,2003,2009,2016,
            Gaussian, Inc.  All Rights Reserved.
  
 This is part of the Gaussian(R) 16 program.  It is based on
 the Gaussian(R) 09 system (copyright 2009, Gaussian, Inc.),
 the Gaussian(R) 03 system (copyright 2003, Gaussian, Inc.),
 the Gaussian(R) 98 system (copyright 1998, Gaussian, Inc.),
 the Gaussian(R) 94 system (copyright 1995, Gaussian, Inc.),
 the Gaussian 92(TM) system (copyright 1992, Gaussian, Inc.),
 the Gaussian 90(TM) system (copyright 1990, Gaussian, Inc.),
 the Gaussian 88(TM) system (copyright 1988, Gaussian, Inc.),
 the Gaussian 86(TM) system (copyright 1986, Carnegie Mellon
 University), and the Gaussian 82(TM) system (copyright 1983,
 Carnegie Mellon University). Gaussian is a federally registered
 trademark of Gaussian, Inc.
  
 This software contains proprietary and confidential information,
 including trade secrets, belonging to Gaussian, Inc.
  
 This software is provided under written license and may be
 used, copied, transmitted, or stored only in accord with that
 written license.
  
 The following legend is applicable only to US Government
 contracts under FAR:
  
                    RESTRICTED RIGHTS LEGEND
  
 Use, reproduction and disclosure by the US Government is
 subject to restrictions as set forth in subparagraphs (a)
 and (c) of the Commercial Computer Software - Restricted
 Rights clause in FAR 52.227-19.
  
 Gaussian, Inc.
 340 Quinnipiac St., Bldg. 40, Wallingford CT 06492
  
  
 ---------------------------------------------------------------
 Warning -- This program may not be used in any manner that
 competes with the business of Gaussian, Inc. or will provide
 assistance to any competitor of Gaussian, Inc.  The licensee
 of this program is prohibited from giving any competitor of
 Gaussian, Inc. access to this program.  By using this program,
 the user acknowledges that Gaussian, Inc. is engaged in the
 business of creating and licensing software in the field of
 computational chemistry and represents and warrants to the
 licensee that it is not a competitor of Gaussian, Inc. and that
 it will not use this program in any manner prohibited above.
 ---------------------------------------------------------------
  

 Cite this work as:
 Gaussian 16, Revision A.03,
 M. J. Frisch, G. W. Trucks, H. B. Schlegel, G. E. Scuseria, 
 M. A. Robb, J. R. Cheeseman, G. Scalmani, V. Barone, 
 G. A. Petersson, H. Nakatsuji, X. Li, M. Caricato, A. V. Marenich, 
 J. Bloino, B. G. Janesko, R. Gomperts, B. Mennucci, H. P. Hratchian, 
 J. V. Ortiz, A. F. Izmaylov, J. L. Sonnenberg, D. Williams-Young, 
 F. Ding, F. Lipparini, F. Egidi, J. Goings, B. Peng, A. Petrone, 
 T. Henderson, D. Ranasinghe, V. G. Zakrzewski, J. Gao, N. Rega, 
 G. Zheng, W. Liang, M. Hada, M. Ehara, K. Toyota, R. Fukuda, 
 J. Hasegawa, M. Ishida, T. Nakajima, Y. Honda, O. Kitao, H. Nakai, 
 T. Vreven, K. Throssell, J. A. Montgomery, Jr., J. E. Peralta, 
 F. Ogliaro, M. J. Bearpark, J. J. Heyd, E. N. Brothers, K. N. Kudin, 
 V. N. Staroverov, T. A. Keith, R. Kobayashi, J. Normand, 
 K. Raghavachari, A. P. Rendell, J. C. Burant, S. S. Iyengar, 
 J. Tomasi, M. Cossi, J. M. Millam, M. Klene, C. Adamo, R. Cammi, 
 J. W. Ochterski, R. L. Martin, K. Morokuma, O. Farkas, 
 J. B. Foresman, and D. J. Fox, Gaussian, Inc., Wallingford CT, 2016.
 
 ******************************************
 Gaussian 16:  ES64L-G16RevA.03 25-Dec-2016
                23-Jan-2026 
 ******************************************
 %nprocshared=16
 Will use up to   16 processors via shared memory.
 %mem=16GB
 %oldchk=DDL-LR-8.chk
 %chk=DDL-S2-cLR-8.chk
 Copying data from "DDL-LR-8.chk" to current chk file "DDL-S2-cLR-8.chk"
 IOpt=  2 FromEx=T IUOpen= 4 IOptOp= 5 NList=   0 IFRang= 0 IUIn= 4 IUOut= 2.
 ----------------------------------------------------------------------
 #p CAM-B3LYP TZVP em=gd3bj td(nstates=6,root=2) scrf=(Solvent=TetraHyd
 roFuran,CorrectedLR,NonEquilibrium=Save) Geom=Check Guess=Read
 ----------------------------------------------------------------------
 1/29=2,30=1,38=1,172=1/1;
 2/12=2,40=1/2;
 3/5=19,7=101,11=9,14=-4,25=1,30=1,70=9002201,71=1,72=20,74=-40,116=-2,124=41/1,2,3,8;
 4/5=1/1;
 5/5=2,38=6,53=20/2;
 8/6=1,10=1,107=2,108=6/1;
 9/8=2,15=1,41=6,42=1,70=2,73=22/14;
 10/5=4,13=10,28=2,74=20/2;
 6/7=2,8=2,9=2,10=2,22=-1/1;
 99/5=1,9=1/99;
 Leave Link    1 at Fri Jan 23 19:27:54 2026, MaxMem=  2147483648 cpu:               0.8 elap:               0.1
 (Enter /data/home/wyx/g16/l101.exe)
 -------------------
 Title Card Required
 -------------------
 Structure from the checkpoint file:  "DDL-S2-cLR-8.chk"
 Charge =  0 Multiplicity = 1
 Z-Matrix found in chk file.
 O,0,2.806315,-1.578061,0.331845
 O,0,-3.448266,-1.645141,-0.254192
 N,0,-0.645482,1.521607,-0.209486
 H,0,-0.961305,2.47595,-0.251416
 C,0,-1.242303,-0.761573,-0.197304
 C,0,0.683636,1.307594,0.020234
 C,0,-1.615939,0.540512,-0.263171
 C,0,-2.199001,-1.822689,-0.230343
 C,0,0.216573,-1.127758,-0.121764
 H,0,0.374887,-1.84467,0.685213
 H,0,0.523066,-1.637411,-1.041146
 C,0,1.146351,0.038364,0.097458
 C,0,2.51516,-0.383483,0.354657
 C,0,-2.996812,1.076549,-0.380659
 H,0,-3.015801,1.978019,-0.998143
 H,0,-3.695842,0.376515,-0.832338
 H,0,-3.405481,1.329278,0.60014
 C,0,-1.793233,-3.265365,-0.249152
 H,0,-2.438811,-3.91066,-0.84678
 H,0,-0.785454,-3.430225,-0.62873
 H,0,-1.796285,-3.680729,0.76361
 C,0,3.621661,0.586744,0.671518
 H,0,3.865367,1.228164,-0.174188
 H,0,3.400113,1.228668,1.521781
 H,0,4.495665,-0.016778,0.905243
 C,0,1.448622,2.584541,0.155174
 H,0,1.816605,2.738746,1.167988
 H,0,2.296707,2.641499,-0.521662
 H,0,0.829289,3.451792,-0.074384
 Recover connectivity data from disk.
 ITRead=  0  0  0  0  0  0  0  0  0  0  0  0  0  0  0  0  0  0  0  0
 ITRead=  0  0  0  0  0  0  0  0  0
 MicOpt= -1 -1 -1 -1 -1 -1 -1 -1 -1 -1 -1 -1 -1 -1 -1 -1 -1 -1 -1 -1
 MicOpt= -1 -1 -1 -1 -1 -1 -1 -1 -1
 NAtoms=     29 NQM=       29 NQMF=       0 NMMI=      0 NMMIF=      0
                NMic=       0 NMicF=      0.
                    Isotopes and Nuclear Properties:
 (Nuclear quadrupole moments (NQMom) in fm**2, nuclear magnetic moments (NMagM)
  in nuclear magnetons)

  Atom         1           2           3           4           5           6           7           8           9          10
 IAtWgt=          16          16          14           1          12          12          12          12          12           1
 AtmWgt=  15.9949146  15.9949146  14.0030740   1.0078250  12.0000000  12.0000000  12.0000000  12.0000000  12.0000000   1.0078250
 NucSpn=           0           0           2           1           0           0           0           0           0           1
 AtZEff=   5.6000000   5.6000000   4.5500000   1.0000000   3.6000000   3.6000000   3.6000000   3.6000000   3.6000000   1.0000000
 NQMom=    0.0000000   0.0000000   2.0440000   0.0000000   0.0000000   0.0000000   0.0000000   0.0000000   0.0000000   0.0000000
 NMagM=    0.0000000   0.0000000   0.4037610   2.7928460   0.0000000   0.0000000   0.0000000   0.0000000   0.0000000   2.7928460
 AtZNuc=   8.0000000   8.0000000   7.0000000   1.0000000   6.0000000   6.0000000   6.0000000   6.0000000   6.0000000   1.0000000

  Atom        11          12          13          14          15          16          17          18          19          20
 IAtWgt=           1          12          12          12           1           1           1          12           1           1
 AtmWgt=   1.0078250  12.0000000  12.0000000  12.0000000   1.0078250   1.0078250   1.0078250  12.0000000   1.0078250   1.0078250
 NucSpn=           1           0           0           0           1           1           1           0           1           1
 AtZEff=   1.0000000   3.6000000   3.6000000   3.6000000   1.0000000   1.0000000   1.0000000   3.6000000   1.0000000   1.0000000
 NQMom=    0.0000000   0.0000000   0.0000000   0.0000000   0.0000000   0.0000000   0.0000000   0.0000000   0.0000000   0.0000000
 NMagM=    2.7928460   0.0000000   0.0000000   0.0000000   2.7928460   2.7928460   2.7928460   0.0000000   2.7928460   2.7928460
 AtZNuc=   1.0000000   6.0000000   6.0000000   6.0000000   1.0000000   1.0000000   1.0000000   6.0000000   1.0000000   1.0000000

  Atom        21          22          23          24          25          26          27          28          29
 IAtWgt=           1          12           1           1           1          12           1           1           1
 AtmWgt=   1.0078250  12.0000000   1.0078250   1.0078250   1.0078250  12.0000000   1.0078250   1.0078250   1.0078250
 NucSpn=           1           0           1           1           1           0           1           1           1
 AtZEff=   1.0000000   3.6000000   1.0000000   1.0000000   1.0000000   3.6000000   1.0000000   1.0000000   1.0000000
 NQMom=    0.0000000   0.0000000   0.0000000   0.0000000   0.0000000   0.0000000   0.0000000   0.0000000   0.0000000
 NMagM=    2.7928460   0.0000000   2.7928460   2.7928460   2.7928460   0.0000000   2.7928460   2.7928460   2.7928460
 AtZNuc=   1.0000000   6.0000000   1.0000000   1.0000000   1.0000000   6.0000000   1.0000000   1.0000000   1.0000000
 Leave Link  101 at Fri Jan 23 19:27:57 2026, MaxMem=  2147483648 cpu:               0.9 elap:               0.1
 (Enter /data/home/wyx/g16/l202.exe)
                          Input orientation:                          
 ---------------------------------------------------------------------
 Center     Atomic      Atomic             Coordinates (Angstroms)
 Number     Number       Type             X           Y           Z
 ---------------------------------------------------------------------
      1          8           0        2.806315   -1.578061    0.331845
      2          8           0       -3.448266   -1.645141   -0.254192
      3          7           0       -0.645482    1.521607   -0.209486
      4          1           0       -0.961305    2.475950   -0.251416
      5          6           0       -1.242303   -0.761573   -0.197304
      6          6           0        0.683636    1.307594    0.020234
      7          6           0       -1.615939    0.540512   -0.263171
      8          6           0       -2.199001   -1.822689   -0.230343
      9          6           0        0.216573   -1.127758   -0.121764
     10          1           0        0.374887   -1.844670    0.685213
     11          1           0        0.523066   -1.637411   -1.041146
     12          6           0        1.146351    0.038364    0.097458
     13          6           0        2.515160   -0.383483    0.354657
     14          6           0       -2.996812    1.076549   -0.380659
     15          1           0       -3.015801    1.978019   -0.998143
     16          1           0       -3.695842    0.376515   -0.832338
     17          1           0       -3.405481    1.329278    0.600140
     18          6           0       -1.793233   -3.265365   -0.249152
     19          1           0       -2.438811   -3.910660   -0.846780
     20          1           0       -0.785454   -3.430225   -0.628730
     21          1           0       -1.796285   -3.680729    0.763610
     22          6           0        3.621661    0.586744    0.671518
     23          1           0        3.865367    1.228164   -0.174188
     24          1           0        3.400113    1.228668    1.521781
     25          1           0        4.495665   -0.016778    0.905243
     26          6           0        1.448622    2.584541    0.155174
     27          1           0        1.816605    2.738746    1.167988
     28          1           0        2.296707    2.641499   -0.521662
     29          1           0        0.829289    3.451792   -0.074384
 ---------------------------------------------------------------------
                    Distance matrix (angstroms):
                    1          2          3          4          5
     1  O    0.000000
     2  O    6.282334   0.000000
     3  N    4.670748   4.229171   0.000000
     4  H    5.565084   4.813354   1.006118   0.000000
     5  C    4.163887   2.377015   2.359927   3.250145   0.000000
     6  C    3.595813   5.085919   1.365697   2.035849   2.835139
     7  C    4.939507   2.852119   1.381020   2.043185   1.356233
     8  C    5.042726   1.262044   3.687570   4.473325   1.429101
     9  C    2.667452   3.703548   2.787466   3.793536   1.506027
    10  H    2.471395   3.941928   3.629526   4.618489   2.137110
    11  H    2.664930   4.048560   3.469374   4.443734   2.143756
    12  C    2.328787   4.905951   2.346250   3.241258   2.536228
    13  C    1.229759   6.125759   3.733267   4.541970   3.816561
    14  C    6.421129   2.761775   2.399194   2.473523   2.547668
    15  H    6.950655   3.723946   2.539430   2.241984   3.360358
    16  H    6.888667   2.117225   3.317209   3.496111   2.778195
    17  H    6.863746   3.094977   2.882721   2.830901   3.112381
    18  C    4.933598   2.316093   4.922805   5.801276   2.564213
    19  H    5.860164   2.550046   5.756014   6.582269   3.430772
    20  H    4.153796   3.227595   4.971519   5.920827   2.741631
    21  H    5.078539   2.812220   5.416231   6.295408   3.122775
    22  C    2.338065   7.471420   4.456304   5.042270   5.121617
    23  H    3.041802   7.858213   4.520521   4.985950   5.481595
    24  H    3.105845   7.636305   4.410208   4.870514   5.335573
    25  H    2.370716   8.191575   5.480934   6.109834   5.890213
    26  C    4.381986   6.483618   2.376568   2.446396   4.308340
    27  H    4.507048   6.997137   3.072578   3.130584   4.844912
    28  H    4.335073   7.172973   3.163556   3.273390   4.920437
    29  H    5.419693   6.656466   2.432862   2.046909   4.696706
                    6          7          8          9         10
     6  C    0.000000
     7  C    2.440651   0.000000
     8  C    4.262752   2.434288   0.000000
     9  C    2.483798   2.482181   2.515893   0.000000
    10  H    3.236401   3.248371   2.731964   1.090980   0.000000
    11  H    3.134544   3.150228   2.846292   1.094965   1.745058
    12  C    1.353149   2.830627   3.842181   1.507444   2.118119
    13  C    2.515166   4.278020   4.963552   2.462605   2.612490
    14  C    3.709420   1.485917   3.010760   3.905360   4.586715
    15  H    3.895176   2.136872   3.962583   4.567508   5.379907
    16  H    4.557808   2.162601   2.727532   4.251440   4.879289
    17  H    4.130089   2.137737   3.475657   4.435927   4.936838
    18  C    5.207629   3.810030   1.498771   2.936820   2.755387
    19  H    6.142602   4.564061   2.190234   3.914238   3.812114
    20  H    5.002630   4.073094   2.177384   2.561723   2.363646
    21  H    5.620141   4.348066   2.145329   3.369443   2.844512
    22  C    3.094477   5.320548   6.363869   3.894026   4.056292
    23  H    3.188655   5.524989   6.788771   4.343595   4.729094
    24  H    3.104854   5.368463   6.612926   4.288229   4.392863
    25  H    4.131436   6.247197   7.026338   4.538684   4.513359
    26  C    1.494659   3.707371   5.733886   3.921199   4.588220
    27  H    2.156190   4.320047   6.235953   4.378746   4.829009
    28  H    2.162164   4.448569   6.342336   4.323676   5.027490
    29  H    2.151221   3.806617   6.083996   4.620600   5.369914
                   11         12         13         14         15
    11  H    0.000000
    12  C    2.119699   0.000000
    13  C    2.736611   1.455247   0.000000
    14  C    4.493480   4.297932   5.749280   0.000000
    15  H    5.059324   4.720817   6.164275   1.092838   0.000000
    16  H    4.679603   4.942236   6.368917   1.087522   1.747788
    17  H    5.189272   4.757975   6.168290   1.092176   1.768396
    18  C    2.939852   4.435754   5.218436   4.507562   5.435875
    19  H    3.738737   5.416619   6.198892   5.039929   5.918815
    20  H    2.257541   4.036128   4.598232   5.026197   5.861742
    21  H    3.579341   4.789000   5.443127   5.038086   6.050820
    22  C    4.181073   2.599505   1.505352   6.719462   6.984219
    23  H    4.487105   2.980346   2.167981   6.866958   6.970772
    24  H    4.802125   2.919754   2.178153   6.675557   6.933650
    25  H    4.711308   3.445789   2.088066   7.680242   8.001513
    26  C    4.484720   2.564706   3.160137   4.724726   4.650708
    27  H    5.069938   2.981164   3.301182   5.322611   5.350045
    28  H    4.660980   2.912549   3.156925   5.521802   5.374940
    29  H    5.189257   3.432426   4.211362   4.513827   4.220196
                   16         17         18         19         20
    16  H    0.000000
    17  H    1.744723   0.000000
    18  C    4.150098   4.942811   0.000000
    19  H    4.467685   5.521320   1.091025   0.000000
    20  H    4.796153   5.570236   1.089439   1.735498   0.000000
    21  H    4.755691   5.264637   1.094634   1.749018   1.738719
    22  C    7.473395   7.066624   6.708759   7.698129   6.103224
    23  H    7.637431   7.312663   7.226145   8.161039   6.598283
    24  H    7.524667   6.868454   7.092488   8.131163   6.621854
    25  H    8.382998   8.020789   7.171902   8.143639   6.472628
    26  C    5.684722   5.033487   6.700336   7.635685   6.463978
    27  H    6.322065   5.438679   7.147627   8.147543   6.932179
    28  H    6.413838   5.957794   7.189778   8.090836   6.810067
    29  H    5.523462   4.784697   7.213069   8.092143   7.090617
                   21         22         23         24         25
    21  H    0.000000
    22  C    6.897387   0.000000
    23  H    7.551887   1.089050   0.000000
    24  H    7.188849   1.088162   1.758628   0.000000
    25  H    7.282392   1.087543   1.764179   1.769601   0.000000
    26  C    7.081894   2.996649   2.790859   2.741227   4.076020
    27  H    7.377408   2.852336   2.877624   2.216529   3.852182
    28  H    7.640358   2.720515   2.139848   2.718319   3.733351
    29  H    7.646485   4.069670   3.764605   3.754885   5.141299
                   26         27         28         29
    26  C    0.000000
    27  H    1.088569   0.000000
    28  H    1.086554   1.759225   0.000000
    29  H    1.090135   1.739746   1.734920   0.000000
 Stoichiometry    C11H15NO2
 Framework group  C1[X(C11H15NO2)]
 Deg. of freedom    81
 Full point group                 C1      NOp   1
 RotChk:  IX=0 Diff= 5.83D-16
 Largest Abelian subgroup         C1      NOp   1
 Largest concise Abelian subgroup C1      NOp   1
                         Standard orientation:                         
 ---------------------------------------------------------------------
 Center     Atomic      Atomic             Coordinates (Angstroms)
 Number     Number       Type             X           Y           Z
 ---------------------------------------------------------------------
      1          8           0        2.258811   -2.310761   -0.052545
      2          8           0       -3.656829   -0.209995    0.191802
      3          7           0        0.049937    1.804330   -0.105306
      4          1           0        0.080167    2.809955   -0.096533
      5          6           0       -1.291831   -0.135769   -0.035085
      6          6           0        1.240984    1.137992   -0.055036
      7          6           0       -1.198330    1.217231   -0.039259
      8          6           0       -2.552404   -0.803776    0.048886
      9          6           0       -0.051139   -0.980839   -0.156148
     10          1           0       -0.053612   -1.751224    0.616341
     11          1           0       -0.052795   -1.514031   -1.112522
     12          6           0        1.243104   -0.215150   -0.051070
     13          6           0        2.402710   -1.091565    0.019317
     14          6           0       -2.312885    2.197391    0.031462
     15          1           0       -2.094158    3.083271   -0.569927
     16          1           0       -3.259635    1.803039   -0.330279
     17          1           0       -2.487554    2.520961    1.059880
     18          6           0       -2.674736   -2.295111   -0.036386
     19          1           0       -3.570484   -2.648430   -0.549354
     20          1           0       -1.839456   -2.772890   -0.547180
     21          1           0       -2.698500   -2.738576    0.964113
     22          6           0        3.805657   -0.575247    0.196069
     23          1           0        4.151598   -0.010668   -0.668573
     24          1           0        3.923661    0.056863    1.073913
     25          1           0        4.439188   -1.452235    0.306878
     26          6           0        2.409892    2.068420   -0.010737
     27          1           0        2.927997    2.033043    0.945976
     28          1           0        3.137141    1.869311   -0.793082
     29          1           0        2.104899    3.105894   -0.148655
 ---------------------------------------------------------------------
 Rotational constants (GHZ):           1.0996506           0.4851880           0.3410648
 Leave Link  202 at Fri Jan 23 19:27:57 2026, MaxMem=  2147483648 cpu:               0.0 elap:               0.0
 (Enter /data/home/wyx/g16/l301.exe)
 Standard basis: TZVP (5D, 7F)
 Ernie: Thresh=  0.10000D-02 Tol=  0.10000D-05 Strict=F.
 There are   370 symmetry adapted cartesian basis functions of A   symmetry.
 There are   356 symmetry adapted basis functions of A   symmetry.
   356 basis functions,   610 primitive gaussians,   370 cartesian basis functions
    52 alpha electrons       52 beta electrons
       nuclear repulsion energy       900.1224605872 Hartrees.
 IExCor=20419 DFT=T Ex+Corr=CAM-B3LYP ExCW=0 ScaHFX=  1.000000
 ScaDFX=  1.000000  1.000000  1.000000  0.810000 ScalE2=  1.000000  1.000000
 IRadAn=      5 IRanWt=     -1 IRanGd=            0 ICorTp=0 IEmpDi=141
 HFx  wShort=  0.000000 wLong=  0.330000 cFull=  0.190000 cShort=  0.000000 cLong=  0.460000
 DFx  wShort=  0.000000 wLong=  0.330000 cFull=  0.190000 cShort=  0.000000 cLong=  0.460000
 NAtoms=   29 NActive=   29 NUniq=   29 SFac= 1.00D+00 NAtFMM=   60 NAOKFM=F Big=F
 Integral buffers will be    131072 words long.
 Raffenetti 1 integral format.
 Two-electron integral symmetry is turned on.
 R6Disp:  Grimme-D3(BJ) Dispersion energy=       -0.0261308638 Hartrees.
 Nuclear repulsion after empirical dispersion term =      900.0963297234 Hartrees.
 ------------------------------------------------------------------------------
 Polarizable Continuum Model (PCM)
 =================================
 Model                : PCM.
 Atomic radii         : UFF (Universal Force Field).
 Polarization charges : Total charges.
 Charge compensation  : None.
 Solution method      : On-the-fly selection.
 Cavity type          : Scaled VdW (van der Waals Surface) (Alpha=1.100).
 Cavity algorithm     : GePol (No added spheres)
                        Default sphere list used, NSphG=   29.
                        Lebedev-Laikov grids with approx.  5.0 points / Ang**2.
                        Smoothing algorithm: York/Karplus (Gamma=1.0000).
                        Polarization charges: spherical gaussians, with
                                              point-specific exponents (IZeta= 3).
                        Self-potential: point-specific (ISelfS= 7).
                        Self-field    : sphere-specific E.n sum rule (ISelfD= 2).
 1st derivatives      : Analytical E(r).r(x)/FMM algorithm (CHGder, D1EAlg=3).
                        Cavity 1st derivative terms included.
 Solvent              : TetraHydroFuran, Eps=   7.425700 Eps(inf)=   1.974025
 ------------------------------------------------------------------------------
 GePol: Number of generator spheres                  =      29
 GePol: Total number of spheres                      =      29
 GePol: Number of exposed spheres                    =      29 (100.00%)
 GePol: Number of points                             =    2100
 GePol: Average weight of points                     =       0.13
 GePol: Minimum weight of points                     =   0.42D-08
 GePol: Maximum weight of points                     =    0.20577
 GePol: Number of points with low weight             =     118
 GePol: Fraction of low-weight points (<1% of avg)   =       5.62%
 GePol: Cavity surface area                          =    268.705 Ang**2
 GePol: Cavity volume                                =    286.350 Ang**3
 Leave Link  301 at Fri Jan 23 19:27:58 2026, MaxMem=  2147483648 cpu:               0.6 elap:               0.0
 (Enter /data/home/wyx/g16/l302.exe)
 NPDir=0 NMtPBC=     1 NCelOv=     1 NCel=       1 NClECP=     1 NCelD=      1
         NCelK=      1 NCelE2=     1 NClLst=     1 CellRange=     0.0.
 One-electron integrals computed using PRISM.
 One-electron integral symmetry used in STVInt
 NBasis=   356 RedAO= T EigKep=  3.71D-05  NBF=   356
 NBsUse=   356 1.00D-06 EigRej= -1.00D+00 NBFU=   356
 Precomputing XC quadrature grid using
 IXCGrd= 4 IRadAn=           5 IRanWt=          -1 IRanGd=           0 AccXCQ= 0.00D+00.
 Generated NRdTot=       0 NPtTot=           0 NUsed=           0 NTot=          32
 NSgBfM=   366   366   366   366   366 MxSgAt=    29 MxSgA2=    29.
 Leave Link  302 at Fri Jan 23 19:27:58 2026, MaxMem=  2147483648 cpu:               3.1 elap:               0.2
 (Enter /data/home/wyx/g16/l303.exe)
 DipDrv:  MaxL=1.
 Leave Link  303 at Fri Jan 23 19:27:58 2026, MaxMem=  2147483648 cpu:               0.6 elap:               0.0
 (Enter /data/home/wyx/g16/l308.exe)
 Leave Link  308 at Fri Jan 23 19:27:58 2026, MaxMem=  2147483648 cpu:               0.7 elap:               0.1
 (Enter /data/home/wyx/g16/l401.exe)
 Initial guess from the checkpoint file:  "DDL-S2-cLR-8.chk"
 B after Tr=     0.000000   -0.000000   -0.000000
         Rot=    1.000000   -0.000000    0.000000   -0.000000 Ang=   0.00 deg.
 Guess basis will be translated and rotated to current coordinates.
 JPrj=2 DoOrth=T DoCkMO=T.
 Leave Link  401 at Fri Jan 23 19:27:59 2026, MaxMem=  2147483648 cpu:               2.2 elap:               0.2
 (Enter /data/home/wyx/g16/l502.exe)
 Integral symmetry usage will be decided dynamically.
 Closed shell SCF:
 Using DIIS extrapolation, IDIIS=  1040.
 NGot=  2147483648 LenX=  2147200095 LenY=  2147062754
 Requested convergence on RMS density matrix=1.00D-08 within 128 cycles.
 Requested convergence on MAX density matrix=1.00D-06.
 Requested convergence on             energy=1.00D-06.
 No special actions if energy rises.
 Fock matrices will be formed incrementally for  20 cycles.

 Cycle   1  Pass 1  IDiag  1:
 FoFJK:  IHMeth= 1 ICntrl=       0 DoSepK=T KAlg= 0 I1Cent=           0 FoldK=F
 IRaf=         1 NMat=       1 IRICut=       1 DoRegI=T DoRafI=F ISym2E= 0 IDoP0=0 IntGTp=1.
 FoFCou: FMM=F IPFlag=           0 FMFlag=      100000 FMFlg1=           0
         NFxFlg=           0 DoJE=T BraDBF=F KetDBF=F FulRan=T
         wScrn=  0.000000 ICntrl=       500 IOpCl=  0 I1Cent=           0 NGrid=           0
         NMat0=    1 NMatS0=      1 NMatT0=    0 NMatD0=    1 NMtDS0=    0 NMtDT0=    0
 Symmetry not used in FoFCou.
 Inv3:  Mode=1 IEnd=    13230000.
 Iteration    1 A*A^-1 deviation from unit magnitude is 3.66D-15 for   1090.
 Iteration    1 A*A^-1 deviation from orthogonality  is 2.49D-15 for   1755    662.
 Iteration    1 A^-1*A deviation from unit magnitude is 3.55D-15 for   1090.
 Iteration    1 A^-1*A deviation from orthogonality  is 3.08D-15 for   1785   1755.
 E= -633.320489227371    
 DIIS: error= 5.51D-09 at cycle   1 NSaved=   1.
 NSaved= 1 IEnMin= 1 EnMin= -633.320489227371     IErMin= 1 ErrMin= 5.51D-09
 ErrMax= 5.51D-09  0.00D+00 EMaxC= 1.00D-01 BMatC= 1.70D-14 BMatP= 1.70D-14
 IDIUse=1 WtCom= 1.00D+00 WtEn= 0.00D+00
 Coeff-Com:  0.100D+01
 Coeff:      0.100D+01
 Gap=     0.232 Goal=   None    Shift=    0.000
 RMSDP=1.69D-09 MaxDP=9.74D-08              OVMax= 1.18D-07

 Error on total polarization charges =  0.01464
 SCF Done:  E(RCAM-B3LYP) =  -633.320489227     A.U. after    1 cycles
            NFock=  1  Conv=0.17D-08     -V/T= 2.0041
 KE= 6.307240881278D+02 PE=-3.276232583645D+03 EE= 1.112091676567D+03
 Leave Link  502 at Fri Jan 23 19:28:04 2026, MaxMem=  2147483648 cpu:              85.5 elap:               5.6
 (Enter /data/home/wyx/g16/l801.exe)
 DoSCS=F DFT=T ScalE2(SS,OS)=  1.000000  1.000000
 ExpMin= 9.52D-02 ExpMax= 2.70D+04 ExpMxC= 9.22D+02 IAcc=3 IRadAn=         5 AccDes= 0.00D+00
 HarFok:  IExCor=  205 AccDes= 0.00D+00 IRadAn=         5 IDoV=-2 UseB2=F ITyADJ=14
 ICtDFT= 12500011 ScaDFX=  1.000000  1.000000  1.000000  1.000000
 Largest valence mixing into a core orbital is  5.65D-05
 Largest core mixing into a valence orbital is  1.12D-05
 Range of M.O.s used for correlation:    15   356
 NBasis=   356 NAE=    52 NBE=    52 NFC=    14 NFV=     0
 NROrb=    342 NOA=    38 NOB=    38 NVA=   304 NVB=   304

 **** Warning!!: The largest alpha MO coefficient is  0.42342718D+02

 Leave Link  801 at Fri Jan 23 19:28:05 2026, MaxMem=  2147483648 cpu:               1.0 elap:               0.1
 (Enter /data/home/wyx/g16/l914.exe)
 RHF ground state
 Two-electron integrals replicated using symmetry.
 MDV=  2147483648 DFT=T DoStab=F Mixed=T DoRPA=T DoScal=F NonHer=T
 NEqPCM:  Using equilibrium solvation (IEInf=0, Eps=   7.4257, EpsInf=   1.9740)
 Making orbital integer symmetry assigments:
 Orbital symmetries:
       Occupied  (A) (A) (A) (A) (A) (A) (A) (A) (A) (A) (A) (A)
                 (A) (A) (A) (A) (A) (A) (A) (A) (A) (A) (A) (A)
                 (A) (A) (A) (A) (A) (A) (A) (A) (A) (A) (A) (A)
                 (A) (A) (A) (A) (A) (A) (A) (A) (A) (A) (A) (A)
                 (A) (A) (A) (A)
       Virtual   (A) (A) (A) (A) (A) (A) (A) (A) (A) (A) (A) (A)
                 (A) (A) (A) (A) (A) (A) (A) (A) (A) (A) (A) (A)
                 (A) (A) (A) (A) (A) (A) (A) (A) (A) (A) (A) (A)
                 (A) (A) (A) (A) (A) (A) (A) (A) (A) (A) (A) (A)
                 (A) (A) (A) (A) (A) (A) (A) (A) (A) (A) (A) (A)
                 (A) (A) (A) (A) (A) (A) (A) (A) (A) (A) (A) (A)
                 (A) (A) (A) (A) (A) (A) (A) (A) (A) (A) (A) (A)
                 (A) (A) (A) (A) (A) (A) (A) (A) (A) (A) (A) (A)
                 (A) (A) (A) (A) (A) (A) (A) (A) (A) (A) (A) (A)
                 (A) (A) (A) (A) (A) (A) (A) (A) (A) (A) (A) (A)
                 (A) (A) (A) (A) (A) (A) (A) (A) (A) (A) (A) (A)
                 (A) (A) (A) (A) (A) (A) (A) (A) (A) (A) (A) (A)
                 (A) (A) (A) (A) (A) (A) (A) (A) (A) (A) (A) (A)
                 (A) (A) (A) (A) (A) (A) (A) (A) (A) (A) (A) (A)
                 (A) (A) (A) (A) (A) (A) (A) (A) (A) (A) (A) (A)
                 (A) (A) (A) (A) (A) (A) (A) (A) (A) (A) (A) (A)
                 (A) (A) (A) (A) (A) (A) (A) (A) (A) (A) (A) (A)
                 (A) (A) (A) (A) (A) (A) (A) (A) (A) (A) (A) (A)
                 (A) (A) (A) (A) (A) (A) (A) (A) (A) (A) (A) (A)
                 (A) (A) (A) (A) (A) (A) (A) (A) (A) (A) (A) (A)
                 (A) (A) (A) (A) (A) (A) (A) (A) (A) (A) (A) (A)
                 (A) (A) (A) (A) (A) (A) (A) (A) (A) (A) (A) (A)
                 (A) (A) (A) (A) (A) (A) (A) (A) (A) (A) (A) (A)
                 (A) (A) (A) (A) (A) (A) (A) (A) (A) (A) (A) (A)
                 (A) (A) (A) (A) (A) (A) (A) (A) (A) (A) (A) (A)
                 (A) (A) (A) (A)
 PCM Corrected Linear-Response:
 Compute the excitation energies in the ground state reaction field.
    24 initial guesses have been made.
 Convergence on wavefunction:    0.000001000000000
 Davidson Disk Diagonalization:  ConvIn= 1.00D-06 SkipCon=T Conv= 1.00D-06.
 Max sub-space:  2000 roots to seek:    24 dimension of matrix:        23104
 Iteration     1 Dimension    24 NMult     0 NNew     24
 CISAX will form    24 AO SS matrices at one time.
 NMat=    24 NSing=    24 JSym2X= 0.
 FoFJK:  IHMeth= 1 ICntrl=       0 DoSepK=T KAlg= 0 I1Cent=           0 FoldK=F
 IRaf=         1 NMat=      48 IRICut=       1 DoRegI=T DoRafI=F ISym2E= 0 IDoP0=3 IntGTp=3.
 FoFCou: FMM=F IPFlag=           0 FMFlag=      100000 FMFlg1=           0
         NFxFlg=           0 DoJE=F BraDBF=F KetDBF=F FulRan=T
         wScrn=  0.000000 ICntrl=       500 IOpCl=  0 I1Cent=           0 NGrid=           0
         NMat0=   24 NMatS0=     24 NMatT0=    0 NMatD0=   24 NMtDS0=    0 NMtDT0=    0
 Symmetry not used in FoFCou.
 New state      3 was old state      4
 New state      4 was old state      3
 New state      5 was old state      6
 New state      6 was old state      5
 Excitation Energies [eV] at current iteration:
 Root      1 :     3.845817566877576
 Root      2 :     3.959116057413050
 Root      3 :     4.485445675773092
 Root      4 :     5.548207253831161
 Root      5 :     6.220243416352109
 Root      6 :     6.566236619180641
 Root      7 :     6.699847820188189
 Root      8 :     6.773415283860047
 Root      9 :     6.806346574745285
 Root     10 :     7.102390471011744
 Root     11 :     7.380926586700846
 Root     12 :     7.388422946860320
 Root     13 :     7.496393778544906
 Root     14 :     7.671572125446621
 Root     15 :     7.731136954631540
 Root     16 :     8.022749637787332
 Root     17 :     8.204931946096654
 Root     18 :     8.248382153128381
 Root     19 :     8.335972622947574
 Root     20 :     8.532824764578876
 Root     21 :     8.633509844921683
 Root     22 :     8.812780654445953
 Root     23 :     8.927029371707508
 Root     24 :     9.084409409960838
 Iteration     2 Dimension    36 NMult    24 NNew     12
 CISAX will form    12 AO SS matrices at one time.
 NMat=    12 NSing=    12 JSym2X= 0.
 Root      1 not converged, maximum delta is    0.323155170957080
 Root      2 not converged, maximum delta is    0.312882299624566
 Root      3 not converged, maximum delta is    0.097082701471761
 Root      4 not converged, maximum delta is    0.237335093127884
 New state      5 was old state      6
 Root      5 not converged, maximum delta is    0.201986631768159
 New state      6 was old state      5
 Root      6 not converged, maximum delta is    0.068105790316216
 Excitation Energies [eV] at current iteration:
 Root      1 :     3.428917062352935   Change is   -0.416900504524642
 Root      2 :     3.693973574679139   Change is   -0.265142482733911
 Root      3 :     4.235022875517517   Change is   -0.250422800255575
 Root      4 :     5.230204673883240   Change is   -0.318002579947921
 Root      5 :     5.710150149300972   Change is   -0.856086469879670
 Root      6 :     6.102155119404773   Change is   -0.118088296947336
 Iteration     3 Dimension    48 NMult    36 NNew     12
 CISAX will form    12 AO SS matrices at one time.
 NMat=    12 NSing=    12 JSym2X= 0.
 Root      1 not converged, maximum delta is    0.010734075246961
 Root      2 not converged, maximum delta is    0.010463290740502
 Root      3 not converged, maximum delta is    0.018388942810044
 Root      4 not converged, maximum delta is    0.030700082680985
 Root      5 not converged, maximum delta is    0.029234559212377
 Root      6 not converged, maximum delta is    0.010239461986970
 Excitation Energies [eV] at current iteration:
 Root      1 :     3.409156019373586   Change is   -0.019761042979349
 Root      2 :     3.682934085793589   Change is   -0.011039488885551
 Root      3 :     4.221650648271541   Change is   -0.013372227245977
 Root      4 :     5.206933085659960   Change is   -0.023271588223280
 Root      5 :     5.668351511206072   Change is   -0.041798638094900
 Root      6 :     6.096341021866629   Change is   -0.005814097538144
 Iteration     4 Dimension    60 NMult    48 NNew     12
 CISAX will form    12 AO SS matrices at one time.
 NMat=    12 NSing=    12 JSym2X= 0.
 Root      1 not converged, maximum delta is    0.002660658915830
 Root      2 not converged, maximum delta is    0.001824804017396
 Root      3 not converged, maximum delta is    0.001990947956052
 Root      4 not converged, maximum delta is    0.003782506872223
 Root      5 not converged, maximum delta is    0.006694037664126
 Root      6 not converged, maximum delta is    0.002812706217925
 Excitation Energies [eV] at current iteration:
 Root      1 :     3.407473259233420   Change is   -0.001682760140166
 Root      2 :     3.682085293235063   Change is   -0.000848792558526
 Root      3 :     4.221159114503463   Change is   -0.000491533768078
 Root      4 :     5.204437852999596   Change is   -0.002495232660364
 Root      5 :     5.662553014892701   Change is   -0.005798496313370
 Root      6 :     6.095980799814867   Change is   -0.000360222051763
 Iteration     5 Dimension    72 NMult    60 NNew     12
 CISAX will form    12 AO SS matrices at one time.
 NMat=    12 NSing=    12 JSym2X= 0.
 Root      1 not converged, maximum delta is    0.000819691923726
 Root      2 not converged, maximum delta is    0.000312394909863
 Root      3 not converged, maximum delta is    0.000637734733972
 Root      4 not converged, maximum delta is    0.000635696680659
 Root      5 not converged, maximum delta is    0.001080698831582
 Root      6 not converged, maximum delta is    0.000808791798846
 Excitation Energies [eV] at current iteration:
 Root      1 :     3.407363686869693   Change is   -0.000109572363726
 Root      2 :     3.682045891108318   Change is   -0.000039402126745
 Root      3 :     4.221129227816291   Change is   -0.000029886687172
 Root      4 :     5.204249921290644   Change is   -0.000187931708952
 Root      5 :     5.662110041168136   Change is   -0.000442973724565
 Root      6 :     6.095951934301570   Change is   -0.000028865513297
 Iteration     6 Dimension    84 NMult    72 NNew     12
 CISAX will form    12 AO SS matrices at one time.
 NMat=    12 NSing=    12 JSym2X= 0.
 Root      1 not converged, maximum delta is    0.000220966137901
 Root      2 not converged, maximum delta is    0.000077932720995
 Root      3 not converged, maximum delta is    0.000222393454139
 Root      4 not converged, maximum delta is    0.000255802376718
 Root      5 not converged, maximum delta is    0.000333572396332
 Root      6 not converged, maximum delta is    0.000277342155845
 Excitation Energies [eV] at current iteration:
 Root      1 :     3.407357849085399   Change is   -0.000005837784294
 Root      2 :     3.682043121422605   Change is   -0.000002769685712
 Root      3 :     4.221126966410651   Change is   -0.000002261405639
 Root      4 :     5.204235074797849   Change is   -0.000014846492795
 Root      5 :     5.662075273404129   Change is   -0.000034767764007
 Root      6 :     6.095948502897719   Change is   -0.000003431403851
 Iteration     7 Dimension    96 NMult    84 NNew     12
 CISAX will form    12 AO SS matrices at one time.
 NMat=    12 NSing=    12 JSym2X= 0.
 Root      1 not converged, maximum delta is    0.000022095146946
 Root      2 not converged, maximum delta is    0.000013209873775
 Root      3 not converged, maximum delta is    0.000050519025373
 Root      4 not converged, maximum delta is    0.000105433939662
 Root      5 not converged, maximum delta is    0.000112907464272
 Root      6 not converged, maximum delta is    0.000149749923415
 Excitation Energies [eV] at current iteration:
 Root      1 :     3.407357460079009   Change is   -0.000000389006389
 Root      2 :     3.682042980725038   Change is   -0.000000140697568
 Root      3 :     4.221126810786258   Change is   -0.000000155624393
 Root      4 :     5.204233774770946   Change is   -0.000001300026904
 Root      5 :     5.662072558598270   Change is   -0.000002714805860
 Root      6 :     6.095948071086188   Change is   -0.000000431811532
 Iteration     8 Dimension   108 NMult    96 NNew     12
 CISAX will form    12 AO SS matrices at one time.
 NMat=    12 NSing=    12 JSym2X= 0.
 Root      1 not converged, maximum delta is    0.000003791135121
 Root      2 not converged, maximum delta is    0.000003017543720
 Root      3 not converged, maximum delta is    0.000005727221340
 Root      4 not converged, maximum delta is    0.000032040034437
 Root      5 not converged, maximum delta is    0.000040473629683
 Root      6 not converged, maximum delta is    0.000030510683232
 Excitation Energies [eV] at current iteration:
 Root      1 :     3.407357444500836   Change is   -0.000000015578173
 Root      2 :     3.682042974364903   Change is   -0.000000006360135
 Root      3 :     4.221126803721337   Change is   -0.000000007064921
 Root      4 :     5.204233674386397   Change is   -0.000000100384548
 Root      5 :     5.662072342616220   Change is   -0.000000215982050
 Root      6 :     6.095948034734471   Change is   -0.000000036351716
 Iteration     9 Dimension   120 NMult   108 NNew     12
 CISAX will form    12 AO SS matrices at one time.
 NMat=    12 NSing=    12 JSym2X= 0.
 Root      1 has converged.
 Root      2 has converged.
 Root      3 has converged.
 Root      4 not converged, maximum delta is    0.000008337021765
 Root      5 not converged, maximum delta is    0.000013501663209
 Root      6 not converged, maximum delta is    0.000004082742682
 Excitation Energies [eV] at current iteration:
 Root      1 :     3.407357443961899   Change is   -0.000000000538937
 Root      2 :     3.682042974179859   Change is   -0.000000000185043
 Root      3 :     4.221126803477643   Change is   -0.000000000243694
 Root      4 :     5.204233667895643   Change is   -0.000000006490754
 Root      5 :     5.662072323927505   Change is   -0.000000018688715
 Root      6 :     6.095948032570208   Change is   -0.000000002164263
 Iteration    10 Dimension   126 NMult   120 NNew      6
 CISAX will form     6 AO SS matrices at one time.
 NMat=     6 NSing=     6 JSym2X= 0.
 Root      1 has converged.
 Root      2 has converged.
 Root      3 has converged.
 Root      4 not converged, maximum delta is    0.000001544015040
 Root      5 not converged, maximum delta is    0.000002909324649
 Root      6 not converged, maximum delta is    0.000001274909058
 Excitation Energies [eV] at current iteration:
 Root      1 :     3.407357443960500   Change is   -0.000000000001400
 Root      2 :     3.682042974178878   Change is   -0.000000000000982
 Root      3 :     4.221126803477020   Change is   -0.000000000000623
 Root      4 :     5.204233667512110   Change is   -0.000000000383533
 Root      5 :     5.662072322546372   Change is   -0.000000001381133
 Root      6 :     6.095948032416985   Change is   -0.000000000153223
 Iteration    11 Dimension   132 NMult   126 NNew      6
 CISAX will form     6 AO SS matrices at one time.
 NMat=     6 NSing=     6 JSym2X= 0.
 Root      1 has converged.
 Root      2 has converged.
 Root      3 has converged.
 Root      4 has converged.
 Root      5 has converged.
 Root      6 has converged.
 Excitation Energies [eV] at current iteration:
 Root      1 :     3.407357443960162   Change is   -0.000000000000338
 Root      2 :     3.682042974178855   Change is   -0.000000000000023
 Root      3 :     4.221126803476865   Change is   -0.000000000000156
 Root      4 :     5.204233667491354   Change is   -0.000000000020756
 Root      5 :     5.662072322468318   Change is   -0.000000000078054
 Root      6 :     6.095948032406034   Change is   -0.000000000010951
 Convergence achieved on expansion vectors.
 PCM Corrected Linear-Response:
 The state of interest is root number   2
 Excitation energy =    3.6820 eV, Total energy =  -633.185176638    
 Recompute the excitation energies using the linear response reaction field.
 Convergence on wavefunction:    0.000001000000000
 Davidson Disk Diagonalization:  ConvIn= 1.00D-06 SkipCon=T Conv= 1.00D-06.
 Max sub-space:  2000 roots to seek:     6 dimension of matrix:        23104
 Iteration     1 Dimension     6 NMult     0 NNew      6
 CISAX will form     6 AO SS matrices at one time.
 NMat=     6 NSing=     6 JSym2X= 0.
 Excitation Energies [eV] at current iteration:
 Root      1 :     3.501465712365957
 Root      2 :     3.710704754709884
 Root      3 :     4.248213599382710
 Root      4 :     5.282511248537990
 Root      5 :     5.842030836359669
 Root      6 :     6.070103485489520
 Iteration     2 Dimension    18 NMult     6 NNew     12
 CISAX will form    12 AO SS matrices at one time.
 NMat=    12 NSing=    12 JSym2X= 0.
 Root      1 not converged, maximum delta is    0.069957375356839
 Root      2 not converged, maximum delta is    0.081989771098076
 Root      3 not converged, maximum delta is    0.003651646927505
 Root      4 not converged, maximum delta is    0.242186268679308
 Root      5 not converged, maximum delta is    0.265362246923594
 Root      6 not converged, maximum delta is    0.039624440282097
 Excitation Energies [eV] at current iteration:
 Root      1 :     3.290822895285193   Change is   -0.210642817080765
 Root      2 :     3.675355796417944   Change is   -0.035348958291939
 Root      3 :     4.216903675432825   Change is   -0.031309923949886
 Root      4 :     5.071202383132757   Change is   -0.211308865405233
 Root      5 :     5.542708713667599   Change is   -0.299322122692070
 Root      6 :     6.057687152545720   Change is   -0.012416332943801
 Iteration     3 Dimension    30 NMult    18 NNew     12
 CISAX will form    12 AO SS matrices at one time.
 NMat=    12 NSing=    12 JSym2X= 0.
 Root      1 not converged, maximum delta is    0.002653225233652
 Root      2 not converged, maximum delta is    0.000834910508566
 Root      3 not converged, maximum delta is    0.000990876230392
 Root      4 not converged, maximum delta is    0.012577737421489
 Root      5 not converged, maximum delta is    0.009694669810287
 Root      6 not converged, maximum delta is    0.006262488658784
 Excitation Energies [eV] at current iteration:
 Root      1 :     3.287912820135384   Change is   -0.002910075149808
 Root      2 :     3.675074057325283   Change is   -0.000281739092661
 Root      3 :     4.216637455913020   Change is   -0.000266219519804
 Root      4 :     5.062452405401112   Change is   -0.008749977731645
 Root      5 :     5.534443342467949   Change is   -0.008265371199651
 Root      6 :     6.056880237375608   Change is   -0.000806915170111
 Iteration     4 Dimension    42 NMult    30 NNew     12
 CISAX will form    12 AO SS matrices at one time.
 NMat=    12 NSing=    12 JSym2X= 0.
 Root      1 not converged, maximum delta is    0.001760355116747
 Root      2 not converged, maximum delta is    0.000305677820426
 Root      3 not converged, maximum delta is    0.000263310079362
 Root      4 not converged, maximum delta is    0.002831431315041
 Root      5 not converged, maximum delta is    0.003903643742925
 Root      6 not converged, maximum delta is    0.007449553780524
 Excitation Energies [eV] at current iteration:
 Root      1 :     3.287509812196740   Change is   -0.000403007938644
 Root      2 :     3.675056227593807   Change is   -0.000017829731476
 Root      3 :     4.216624573668262   Change is   -0.000012882244758
 Root      4 :     5.061235747510426   Change is   -0.001216657890686
 Root      5 :     5.533158880273577   Change is   -0.001284462194371
 Root      6 :     6.056598488083194   Change is   -0.000281749292413
 Iteration     5 Dimension    54 NMult    42 NNew     12
 CISAX will form    12 AO SS matrices at one time.
 NMat=    12 NSing=    12 JSym2X= 0.
 Root      1 not converged, maximum delta is    0.000582462127836
 Root      2 not converged, maximum delta is    0.000080860592276
 Root      3 not converged, maximum delta is    0.000092457700490
 Root      4 not converged, maximum delta is    0.001102010160887
 Root      5 not converged, maximum delta is    0.000858730385126
 Root      6 not converged, maximum delta is    0.003857908796817
 Excitation Energies [eV] at current iteration:
 Root      1 :     3.287478995246750   Change is   -0.000030816949989
 Root      2 :     3.675055183565435   Change is   -0.000001044028372
 Root      3 :     4.216623782695071   Change is   -0.000000790973192
 Root      4 :     5.061088583597465   Change is   -0.000147163912961
 Root      5 :     5.533004090605025   Change is   -0.000154789668552
 Root      6 :     6.056525963684089   Change is   -0.000072524399106
 Iteration     6 Dimension    66 NMult    54 NNew     12
 CISAX will form    12 AO SS matrices at one time.
 NMat=    12 NSing=    12 JSym2X= 0.
 Root      1 not converged, maximum delta is    0.000093469837874
 Root      2 not converged, maximum delta is    0.000016131901904
 Root      3 not converged, maximum delta is    0.000018852102454
 Root      4 not converged, maximum delta is    0.000484941701167
 Root      5 not converged, maximum delta is    0.000436180108388
 Root      6 not converged, maximum delta is    0.000708157087228
 Excitation Energies [eV] at current iteration:
 Root      1 :     3.287476927886935   Change is   -0.000002067359815
 Root      2 :     3.675055093099378   Change is   -0.000000090466056
 Root      3 :     4.216623720145010   Change is   -0.000000062550061
 Root      4 :     5.061072967123021   Change is   -0.000015616474444
 Root      5 :     5.532986458930037   Change is   -0.000017631674987
 Root      6 :     6.056517188349488   Change is   -0.000008775334600
 Iteration     7 Dimension    78 NMult    66 NNew     12
 CISAX will form    12 AO SS matrices at one time.
 NMat=    12 NSing=    12 JSym2X= 0.
 Root      1 not converged, maximum delta is    0.000016852707186
 Root      2 not converged, maximum delta is    0.000003090169452
 Root      3 not converged, maximum delta is    0.000007116058693
 Root      4 not converged, maximum delta is    0.000124451336463
 Root      5 not converged, maximum delta is    0.000168451296222
 Root      6 not converged, maximum delta is    0.000102563176727
 Excitation Energies [eV] at current iteration:
 Root      1 :     3.287476831987036   Change is   -0.000000095899899
 Root      2 :     3.675055088735153   Change is   -0.000000004364225
 Root      3 :     4.216623715150589   Change is   -0.000000004994420
 Root      4 :     5.061071518431755   Change is   -0.000001448691267
 Root      5 :     5.532984578706788   Change is   -0.000001880223249
 Root      6 :     6.056516253329377   Change is   -0.000000935020111
 Iteration     8 Dimension    90 NMult    78 NNew     12
 CISAX will form    12 AO SS matrices at one time.
 NMat=    12 NSing=    12 JSym2X= 0.
 Root      1 not converged, maximum delta is    0.000004002069124
 Root      2 has converged.
 Root      3 not converged, maximum delta is    0.000001650319290
 Root      4 not converged, maximum delta is    0.000036086459182
 Root      5 not converged, maximum delta is    0.000045273769713
 Root      6 not converged, maximum delta is    0.000040430657613
 Excitation Energies [eV] at current iteration:
 Root      1 :     3.287476826600312   Change is   -0.000000005386724
 Root      2 :     3.675055088558818   Change is   -0.000000000176335
 Root      3 :     4.216623714822841   Change is   -0.000000000327748
 Root      4 :     5.061071399349295   Change is   -0.000000119082459
 Root      5 :     5.532984385156501   Change is   -0.000000193550286
 Root      6 :     6.056516126183364   Change is   -0.000000127146014
 Iteration     9 Dimension   100 NMult    90 NNew     10
 CISAX will form    10 AO SS matrices at one time.
 NMat=    10 NSing=    10 JSym2X= 0.
 Root      1 has converged.
 Root      2 has converged.
 Root      3 has converged.
 Root      4 not converged, maximum delta is    0.000014571074490
 Root      5 not converged, maximum delta is    0.000021795942002
 Root      6 not converged, maximum delta is    0.000028585225076
 Excitation Energies [eV] at current iteration:
 Root      1 :     3.287476826444523   Change is   -0.000000000155789
 Root      2 :     3.675055088557051   Change is   -0.000000000001767
 Root      3 :     4.216623714806854   Change is   -0.000000000015987
 Root      4 :     5.061071388876569   Change is   -0.000000010472726
 Root      5 :     5.532984364653551   Change is   -0.000000020502951
 Root      6 :     6.056516109996365   Change is   -0.000000016186998
 Iteration    10 Dimension   106 NMult   100 NNew      6
 CISAX will form     6 AO SS matrices at one time.
 NMat=     6 NSing=     6 JSym2X= 0.
 Root      1 has converged.
 Root      2 has converged.
 Root      3 has converged.
 Root      4 not converged, maximum delta is    0.000004244648588
 Root      5 not converged, maximum delta is    0.000007838933911
 Root      6 not converged, maximum delta is    0.000012658497212
 Excitation Energies [eV] at current iteration:
 Root      1 :     3.287476826443473   Change is   -0.000000000001051
 Root      2 :     3.675055088556715   Change is   -0.000000000000335
 Root      3 :     4.216623714806698   Change is   -0.000000000000156
 Root      4 :     5.061071388033016   Change is   -0.000000000843553
 Root      5 :     5.532984362587094   Change is   -0.000000002066456
 Root      6 :     6.056516107845062   Change is   -0.000000002151303
 Iteration    11 Dimension   112 NMult   106 NNew      6
 CISAX will form     6 AO SS matrices at one time.
 NMat=     6 NSing=     6 JSym2X= 0.
 Root      1 has converged.
 Root      2 has converged.
 Root      3 has converged.
 Root      4 has converged.
 Root      5 not converged, maximum delta is    0.000001210011680
 Root      6 not converged, maximum delta is    0.000002381228598
 Excitation Energies [eV] at current iteration:
 Root      1 :     3.287476826443422   Change is   -0.000000000000050
 Root      2 :     3.675055088556581   Change is   -0.000000000000134
 Root      3 :     4.216623714806679   Change is   -0.000000000000019
 Root      4 :     5.061071387975726   Change is   -0.000000000057289
 Root      5 :     5.532984362433155   Change is   -0.000000000153940
 Root      6 :     6.056516107614843   Change is   -0.000000000230218
 Iteration    12 Dimension   116 NMult   112 NNew      4
 CISAX will form     4 AO SS matrices at one time.
 NMat=     4 NSing=     4 JSym2X= 0.
 Root      1 has converged.
 Root      2 has converged.
 Root      3 has converged.
 Root      4 has converged.
 Root      5 has converged.
 Root      6 has converged.
 Excitation Energies [eV] at current iteration:
 Root      1 :     3.287476826443273   Change is   -0.000000000000150
 Root      2 :     3.675055088556671   Change is    0.000000000000090
 Root      3 :     4.216623714806659   Change is   -0.000000000000020
 Root      4 :     5.061071387972933   Change is   -0.000000000002794
 Root      5 :     5.532984362424283   Change is   -0.000000000008871
 Root      6 :     6.056516107594294   Change is   -0.000000000020550
 Convergence achieved on expansion vectors.
 ***********************************************************************
 Excited states from <AA,BB:AA,BB> singles matrix:
 ***********************************************************************
 
 1PDM for each excited state written to RWF  633
 Ground to excited state transition densities written to RWF  633
 Ground to excited state transition electric dipole moments (Au):
       state          X           Y           Z        Dip. S.      Osc.
         1         1.6743     -0.1044     -0.0251      2.8147      0.2267
         2        -0.2339      0.0447      0.0452      0.0588      0.0053
         3        -0.0075     -0.0583      0.0388      0.0050      0.0005
         4        -0.0531     -1.7875      0.0642      3.2021      0.3970
         5         0.2596      1.3948     -0.0049      2.0128      0.2728
         6         0.0101      0.1240      0.0305      0.0164      0.0024
 Ground to excited state transition velocity dipole moments (Au):
       state          X           Y           Z        Dip. S.      Osc.
         1        -0.1956      0.0105      0.0029      0.0384      0.2118
         2         0.0315     -0.0053     -0.0042      0.0010      0.0051
         3         0.0009      0.0088     -0.0027      0.0001      0.0004
         4         0.0145      0.3152     -0.0095      0.0997      0.3573
         5        -0.0507     -0.2792      0.0013      0.0805      0.2640
         6        -0.0036     -0.0252     -0.0266      0.0014      0.0041
 Ground to excited state transition magnetic dipole moments (Au):
       state          X           Y           Z
         1         0.0749     -0.0197      1.4554
         2         0.7691     -0.2735     -0.3444
         3        -0.0235      0.9551      0.0447
         4         0.0507     -0.0445      0.3628
         5        -0.1440      0.0625     -0.2542
         6        -0.0301     -0.0029     -0.0113
 Ground to excited state transition velocity quadrupole moments (Au):
       state          XX          YY          ZZ          XY          XZ          YZ
         1         0.3215     -0.1376     -0.0089      0.5156     -0.0306     -0.0047
         2        -0.0515     -0.0059      0.0003     -0.0900      0.0379      0.0520
         3        -0.0142      0.0086     -0.0115      0.0154     -0.0810      0.0029
         4        -1.4344      0.3127      0.0298      0.2195      0.0398     -0.0106
         5         0.6268     -0.3842     -0.0370     -0.0404     -0.0250     -0.0560
         6        -0.1121     -0.0791      0.0694     -0.0058      0.0141      0.0497
 <0|del|b> * <b|rxdel|0> + <0|del|b> * <b|delr+rdel|0>
 Rotatory Strengths (R) in cgs (10**-40 erg-esu-cm/Gauss)
       state          XX          YY          ZZ    R(velocity)    E-M Angle
         1        17.2319    -32.0882    -47.1243    -20.6602       92.13
         2         9.1651     70.4465     62.3501     47.3206       18.06
         3        20.4118     -0.2231     17.4778     12.5555       20.94
         4       -60.9694     -1.4794     -1.1197    -21.1895       98.25
         5       -43.1330     17.1527    -10.4599    -12.1467       97.10
         6         1.4004      0.1230      0.0067      0.5100       66.09
 1/2[<0|r|b>*<b|rxdel|0> + (<0|rxdel|b>*<b|r|0>)*]
 Rotatory Strengths (R) in cgs (10**-40 erg-esu-cm/Gauss)
       state          XX          YY          ZZ     R(length)
         1       -88.6331     -1.4559     25.8180    -21.4237
         2       127.2288      8.6383     10.9976     48.9549
         3        -0.1254     39.3782     -1.2283     12.6748
         4         1.9028    -56.1889    -16.4612    -23.5824
         5        26.4392    -61.6567     -0.8898    -12.0358
         6         0.2151      0.2520      0.2445      0.2372
  1/2[<0|del|b>*<b|r|0> + (<0|r|b>*<b|del|0>)*] (Au)
       state          X           Y           Z        Dip. S.   Osc.(frdel)
         1        -0.3275     -0.0011     -0.0001      0.3287      0.2191
         2        -0.0074     -0.0002     -0.0002      0.0078      0.0052
         3        -0.0000     -0.0005     -0.0001      0.0006      0.0004
         4        -0.0008     -0.5635     -0.0006      0.5648      0.3766
         5        -0.0132     -0.3894     -0.0000      0.4026      0.2684
         6        -0.0000     -0.0031     -0.0008      0.0040      0.0026

 Excitation energies and oscillator strengths:
 
 Excited State   1:      Singlet-A      3.2875 eV  377.14 nm  f=0.2267  <S**2>=0.000
      52 -> 53         0.69735
 
 Excited State   2:      Singlet-A      3.6751 eV  337.37 nm  f=0.0053  <S**2>=0.000
      51 -> 53         0.60494
      51 -> 54        -0.31028
 This state for optimization and/or second-order correction.
 Total Energy, E(TD-HF/TD-DFT) =  -633.185433438    
 Copying the excited state density for this state as the 1-particle RhoCI density.
 
 Excited State   3:      Singlet-A      4.2166 eV  294.04 nm  f=0.0005  <S**2>=0.000
      50 -> 53         0.54103
      50 -> 54         0.39509
      50 -> 58         0.12382
      51 -> 54         0.11866
 
 Excited State   4:      Singlet-A      5.0611 eV  244.98 nm  f=0.3970  <S**2>=0.000
      49 -> 53        -0.10059
      52 -> 54         0.69273
 
 Excited State   5:      Singlet-A      5.5330 eV  224.08 nm  f=0.2728  <S**2>=0.000
      49 -> 53         0.68495
      52 -> 54         0.10147
 
 Excited State   6:      Singlet-A      6.0565 eV  204.71 nm  f=0.0024  <S**2>=0.000
      52 -> 55         0.65973
      52 -> 56         0.10653
      52 -> 57         0.12482
      52 -> 62        -0.10154
 SavETr:  write IOETrn=   770 NScale= 10 NData=  16 NLR=1 NState=    6 LETran=     118.
 The selected state is a singlet.
 CISGrd: IGrad=1 NXY=2 DFT=T
 CISAX will form     1 AO SS matrices at one time.
 NMat=     1 NSing=     1 JSym2X= 0.
 Leave Link  914 at Fri Jan 23 19:36:10 2026, MaxMem=  2147483648 cpu:            7739.2 elap:             484.9
 (Enter /data/home/wyx/g16/l1002.exe)
 Minotr:  Closed shell wavefunction.
          Computing CIS/TDA/TD derivatives.
          Using Z-Vector for PSCF gradient.
          Skipping F1 and S1 gradient terms here.
 NEqPCM:  Using equilibrium solvation (IEInf=0, Eps=   7.4257, EpsInf=   1.9740)
          Frozen-core window.
          Direct CPHF calculation.
          Differentiating once with respect to electric field.
                with respect to dipole field.
          Electric field/nuclear overlap derivatives assumed to be zero.
          Requested convergence is 1.0D-10 RMS, and 1.0D-09 maximum.
          NewPWx=F KeepS1=T KeepF1=T KeepIn=T MapXYZ=F SortEE=F KeepMc=T.
 Two-electron integral symmetry used by symmetrizing perturbed Fock matrices.
          MDV=    2147483648 using IRadAn=       5.
          Solving linear equations separately, MaxMat=     384.
          There are     1 degrees of freedom in the 1st order CPHF.  IDoFFX=0 NUNeed=     1.
 FoFJK:  IHMeth= 1 ICntrl=       0 DoSepK=T KAlg= 0 I1Cent=           0 FoldK=F
 IRaf=         1 NMat=       1 IRICut=       1 DoRegI=T DoRafI=F ISym2E=-1 IDoP0=0 IntGTp=1.
 FoFCou: FMM=F IPFlag=           0 FMFlag=      100000 FMFlg1=           0
         NFxFlg=           0 DoJE=T BraDBF=F KetDBF=F FulRan=T
         wScrn=  0.000000 ICntrl=       500 IOpCl=  0 I1Cent=           0 NGrid=           0
         NMat0=    1 NMatS0=      1 NMatT0=    0 NMatD0=    1 NMtDS0=    0 NMtDT0=    0
 Petite list used in FoFCou.
 LinEq1:  Iter=  0 NonCon=     1 RMS=9.27D-03 Max=3.96D-01 NDo=     1
 AX will form     1 AO Fock derivatives at one time.
 LinEq1:  Iter=  1 NonCon=     1 RMS=2.35D-03 Max=8.84D-02 NDo=     1
 LinEq1:  Iter=  2 NonCon=     1 RMS=1.54D-03 Max=7.99D-02 NDo=     1
 LinEq1:  Iter=  3 NonCon=     1 RMS=6.55D-04 Max=3.71D-02 NDo=     1
 LinEq1:  Iter=  4 NonCon=     1 RMS=3.28D-04 Max=1.29D-02 NDo=     1
 LinEq1:  Iter=  5 NonCon=     1 RMS=1.73D-04 Max=8.13D-03 NDo=     1
 LinEq1:  Iter=  6 NonCon=     1 RMS=8.40D-05 Max=2.54D-03 NDo=     1
 LinEq1:  Iter=  7 NonCon=     1 RMS=4.91D-05 Max=2.29D-03 NDo=     1
 LinEq1:  Iter=  8 NonCon=     1 RMS=2.12D-05 Max=6.69D-04 NDo=     1
 LinEq1:  Iter=  9 NonCon=     1 RMS=1.60D-05 Max=7.18D-04 NDo=     1
 LinEq1:  Iter= 10 NonCon=     1 RMS=6.49D-06 Max=1.25D-04 NDo=     1
 LinEq1:  Iter= 11 NonCon=     1 RMS=3.92D-06 Max=1.44D-04 NDo=     1
 LinEq1:  Iter= 12 NonCon=     1 RMS=1.33D-06 Max=4.22D-05 NDo=     1
 LinEq1:  Iter= 13 NonCon=     1 RMS=6.45D-07 Max=2.57D-05 NDo=     1
 LinEq1:  Iter= 14 NonCon=     1 RMS=2.62D-07 Max=1.23D-05 NDo=     1
 LinEq1:  Iter= 15 NonCon=     1 RMS=1.30D-07 Max=5.42D-06 NDo=     1
 LinEq1:  Iter= 16 NonCon=     1 RMS=5.59D-08 Max=1.71D-06 NDo=     1
 LinEq1:  Iter= 17 NonCon=     1 RMS=1.76D-08 Max=3.89D-07 NDo=     1
 LinEq1:  Iter= 18 NonCon=     1 RMS=7.07D-09 Max=1.04D-07 NDo=     1
 LinEq1:  Iter= 19 NonCon=     1 RMS=2.00D-09 Max=4.11D-08 NDo=     1
 LinEq1:  Iter= 20 NonCon=     1 RMS=4.95D-10 Max=1.11D-08 NDo=     1
 LinEq1:  Iter= 21 NonCon=     1 RMS=1.86D-10 Max=4.42D-09 NDo=     1
 LinEq1:  Iter= 22 NonCon=     1 RMS=7.69D-11 Max=2.68D-09 NDo=     1
 LinEq1:  Iter= 23 NonCon=     1 RMS=2.62D-11 Max=1.17D-09 NDo=     1
 LinEq1:  Iter= 24 NonCon=     0 RMS=1.18D-11 Max=4.93D-10 NDo=     1
 Linear equations converged to 1.000D-10 1.000D-09 after    24 iterations.
 PCM Corrected Linear-Response - Equilibrium solvation:
 Corrected transition energy               =    3.6022          eV
 Total energy after correction             = -633.188112535     a.u.
 NEqPCM:  Using non-equilibrium solvation (IEInf=1, Eps=   7.4257, EpsInf=   1.9740)
 Inv3:  Mode=1 IEnd=    13230000.
 Iteration    1 A*A^-1 deviation from unit magnitude is 3.33D-15 for    953.
 Iteration    1 A*A^-1 deviation from orthogonality  is 1.89D-15 for   1075    958.
 Iteration    1 A^-1*A deviation from unit magnitude is 3.33D-15 for   1094.
 Iteration    1 A^-1*A deviation from orthogonality  is 1.55D-15 for   1842    622.
 NEqSol: Computing the dynamic-inertial partition of the PCM polarization charges.
 End of Minotr F.D. properties file   721 does not exist.
 End of Minotr F.D. properties file   722 does not exist.
 End of Minotr F.D. properties file   788 does not exist.
 Leave Link 1002 at Fri Jan 23 19:38:24 2026, MaxMem=  2147483648 cpu:            1971.2 elap:             133.2
 (Enter /data/home/wyx/g16/l601.exe)
 Copying SCF densities to generalized density rwf, IOpCl= 0 IROHF=0.

 **********************************************************************

            Population analysis using the CI density.

 **********************************************************************

 Orbital symmetries:
       Occupied  (A) (A) (A) (A) (A) (A) (A) (A) (A) (A) (A) (A)
                 (A) (A) (A) (A) (A) (A) (A) (A) (A) (A) (A) (A)
                 (A) (A) (A) (A) (A) (A) (A) (A) (A) (A) (A) (A)
                 (A) (A) (A) (A) (A) (A) (A) (A) (A) (A) (A) (A)
                 (A) (A) (A) (A)
       Virtual   (A) (A) (A) (A) (A) (A) (A) (A) (A) (A) (A) (A)
                 (A) (A) (A) (A) (A) (A) (A) (A) (A) (A) (A) (A)
                 (A) (A) (A) (A) (A) (A) (A) (A) (A) (A) (A) (A)
                 (A) (A) (A) (A) (A) (A) (A) (A) (A) (A) (A) (A)
                 (A) (A) (A) (A) (A) (A) (A) (A) (A) (A) (A) (A)
                 (A) (A) (A) (A) (A) (A) (A) (A) (A) (A) (A) (A)
                 (A) (A) (A) (A) (A) (A) (A) (A) (A) (A) (A) (A)
                 (A) (A) (A) (A) (A) (A) (A) (A) (A) (A) (A) (A)
                 (A) (A) (A) (A) (A) (A) (A) (A) (A) (A) (A) (A)
                 (A) (A) (A) (A) (A) (A) (A) (A) (A) (A) (A) (A)
                 (A) (A) (A) (A) (A) (A) (A) (A) (A) (A) (A) (A)
                 (A) (A) (A) (A) (A) (A) (A) (A) (A) (A) (A) (A)
                 (A) (A) (A) (A) (A) (A) (A) (A) (A) (A) (A) (A)
                 (A) (A) (A) (A) (A) (A) (A) (A) (A) (A) (A) (A)
                 (A) (A) (A) (A) (A) (A) (A) (A) (A) (A) (A) (A)
                 (A) (A) (A) (A) (A) (A) (A) (A) (A) (A) (A) (A)
                 (A) (A) (A) (A) (A) (A) (A) (A) (A) (A) (A) (A)
                 (A) (A) (A) (A) (A) (A) (A) (A) (A) (A) (A) (A)
                 (A) (A) (A) (A) (A) (A) (A) (A) (A) (A) (A) (A)
                 (A) (A) (A) (A) (A) (A) (A) (A) (A) (A) (A) (A)
                 (A) (A) (A) (A) (A) (A) (A) (A) (A) (A) (A) (A)
                 (A) (A) (A) (A) (A) (A) (A) (A) (A) (A) (A) (A)
                 (A) (A) (A) (A) (A) (A) (A) (A) (A) (A) (A) (A)
                 (A) (A) (A) (A) (A) (A) (A) (A) (A) (A) (A) (A)
                 (A) (A) (A) (A) (A) (A) (A) (A) (A) (A) (A) (A)
                 (A) (A) (A) (A)
 The electronic state is 1-A.
 Alpha  occ. eigenvalues --  -19.17743 -19.16692 -14.44405 -10.33237 -10.33121
 Alpha  occ. eigenvalues --  -10.32350 -10.32083 -10.26030 -10.25070 -10.24965
 Alpha  occ. eigenvalues --  -10.24907 -10.24543 -10.24031 -10.23706  -1.11801
 Alpha  occ. eigenvalues --   -1.09643  -1.07877  -0.91612  -0.90652  -0.83899
 Alpha  occ. eigenvalues --   -0.82567  -0.81555  -0.78760  -0.74384  -0.71632
 Alpha  occ. eigenvalues --   -0.69058  -0.62129  -0.58568  -0.56995  -0.55237
 Alpha  occ. eigenvalues --   -0.54827  -0.54126  -0.52502  -0.51932  -0.50676
 Alpha  occ. eigenvalues --   -0.49609  -0.49255  -0.49142  -0.48465  -0.48223
 Alpha  occ. eigenvalues --   -0.46730  -0.45113  -0.44699  -0.43815  -0.42965
 Alpha  occ. eigenvalues --   -0.42407  -0.41675  -0.40970  -0.33112  -0.32165
 Alpha  occ. eigenvalues --   -0.30831  -0.26210
 Alpha virt. eigenvalues --   -0.03025   0.02198   0.06292   0.08170   0.08446
 Alpha virt. eigenvalues --    0.09901   0.10657   0.11879   0.12698   0.13320
 Alpha virt. eigenvalues --    0.14047   0.15143   0.15644   0.16651   0.16847
 Alpha virt. eigenvalues --    0.17540   0.17628   0.17755   0.18576   0.19323
 Alpha virt. eigenvalues --    0.19972   0.21242   0.22948   0.23314   0.24196
 Alpha virt. eigenvalues --    0.24442   0.24836   0.25885   0.26303   0.26561
 Alpha virt. eigenvalues --    0.27294   0.27454   0.28365   0.29566   0.29817
 Alpha virt. eigenvalues --    0.31095   0.31450   0.33417   0.33590   0.34759
 Alpha virt. eigenvalues --    0.35270   0.35601   0.36686   0.37496   0.38054
 Alpha virt. eigenvalues --    0.39971   0.41053   0.41763   0.42512   0.43309
 Alpha virt. eigenvalues --    0.44199   0.45507   0.45715   0.46165   0.46546
 Alpha virt. eigenvalues --    0.46756   0.47998   0.48229   0.48733   0.48969
 Alpha virt. eigenvalues --    0.50024   0.50787   0.51165   0.51348   0.51823
 Alpha virt. eigenvalues --    0.52311   0.52880   0.53101   0.53912   0.54119
 Alpha virt. eigenvalues --    0.54765   0.55727   0.56092   0.57175   0.57227
 Alpha virt. eigenvalues --    0.58161   0.59492   0.60446   0.62326   0.63128
 Alpha virt. eigenvalues --    0.63397   0.64724   0.66077   0.68005   0.68317
 Alpha virt. eigenvalues --    0.69563   0.70454   0.71276   0.71829   0.72956
 Alpha virt. eigenvalues --    0.73634   0.75208   0.77204   0.78561   0.79378
 Alpha virt. eigenvalues --    0.81342   0.81485   0.82965   0.86543   0.88589
 Alpha virt. eigenvalues --    0.91886   0.93532   0.96944   1.02803   1.20713
 Alpha virt. eigenvalues --    1.24199   1.24529   1.26144   1.29799   1.30413
 Alpha virt. eigenvalues --    1.32736   1.33400   1.33915   1.35602   1.36340
 Alpha virt. eigenvalues --    1.36849   1.37465   1.38847   1.39317   1.39663
 Alpha virt. eigenvalues --    1.39820   1.40784   1.41227   1.41455   1.42260
 Alpha virt. eigenvalues --    1.43004   1.44071   1.44405   1.44881   1.46440
 Alpha virt. eigenvalues --    1.48163   1.49795   1.50218   1.50966   1.51666
 Alpha virt. eigenvalues --    1.52263   1.52598   1.54834   1.56263   1.57818
 Alpha virt. eigenvalues --    1.58618   1.59217   1.60639   1.61107   1.61648
 Alpha virt. eigenvalues --    1.62469   1.62966   1.64275   1.64841   1.65392
 Alpha virt. eigenvalues --    1.65862   1.66145   1.66528   1.67604   1.68003
 Alpha virt. eigenvalues --    1.69242   1.69969   1.71153   1.72156   1.73018
 Alpha virt. eigenvalues --    1.74236   1.75008   1.75721   1.76119   1.79861
 Alpha virt. eigenvalues --    1.81183   1.82705   1.83555   1.83809   1.86195
 Alpha virt. eigenvalues --    1.86637   1.86975   1.88625   1.90145   1.90553
 Alpha virt. eigenvalues --    1.91749   1.93385   1.96203   1.97991   2.00912
 Alpha virt. eigenvalues --    2.01880   2.05014   2.05265   2.07117   2.09556
 Alpha virt. eigenvalues --    2.10503   2.13433   2.15207   2.18440   2.19434
 Alpha virt. eigenvalues --    2.19887   2.22905   2.24322   2.24929   2.25690
 Alpha virt. eigenvalues --    2.26774   2.29153   2.30532   2.31459   2.33455
 Alpha virt. eigenvalues --    2.34912   2.35545   2.36715   2.37731   2.39740
 Alpha virt. eigenvalues --    2.41377   2.41627   2.42916   2.44970   2.45862
 Alpha virt. eigenvalues --    2.46172   2.48224   2.49552   2.50283   2.51325
 Alpha virt. eigenvalues --    2.53025   2.53482   2.54624   2.55958   2.56181
 Alpha virt. eigenvalues --    2.56729   2.60249   2.60850   2.62701   2.63379
 Alpha virt. eigenvalues --    2.64773   2.65209   2.66437   2.67275   2.68913
 Alpha virt. eigenvalues --    2.69184   2.72717   2.73550   2.74476   2.74812
 Alpha virt. eigenvalues --    2.76351   2.76433   2.77949   2.78227   2.79681
 Alpha virt. eigenvalues --    2.80398   2.81855   2.83476   2.84692   2.85258
 Alpha virt. eigenvalues --    2.85885   2.86707   2.88801   2.89930   2.93852
 Alpha virt. eigenvalues --    2.97270   2.98755   2.98973   3.05423   3.09313
 Alpha virt. eigenvalues --    3.09863   3.11499   3.14047   3.20267   3.20976
 Alpha virt. eigenvalues --    3.22369   3.22742   3.24201   3.25795   3.26328
 Alpha virt. eigenvalues --    3.30008   3.32085   3.33551   3.36135   3.38331
 Alpha virt. eigenvalues --    3.39113   3.39412   3.39789   3.41162   3.41584
 Alpha virt. eigenvalues --    3.42119   3.43347   3.46060   3.47678   3.49300
 Alpha virt. eigenvalues --    3.49828   3.53985   3.56217   3.58771   3.60522
 Alpha virt. eigenvalues --    3.63569   3.92254   4.00898   4.32404   4.36715
 Alpha virt. eigenvalues --   21.64613  21.77560  22.06744  22.10230  22.12399
 Alpha virt. eigenvalues --   22.13420  22.17194  22.19863  22.21706  22.27944
 Alpha virt. eigenvalues --   22.31830  31.92900  43.64004  43.66261
          Condensed to atoms (all electrons):
               1          2          3          4          5          6
     1  O    7.944733   0.000000  -0.000183   0.000018   0.016912   0.016064
     2  O    0.000000   8.021927   0.000731   0.000023  -0.075943   0.000446
     3  N   -0.000183   0.000731   6.364997   0.371818  -0.084642   0.419769
     4  H    0.000018   0.000023   0.371818   0.414840   0.014130  -0.042224
     5  C    0.016912  -0.075943  -0.084642   0.014130   6.035538  -0.068043
     6  C    0.016064   0.000446   0.419769  -0.042224  -0.068043   5.503036
     7  C   -0.000071   0.015175   0.299593  -0.047286   0.282091  -0.116021
     8  C   -0.000364   0.259343   0.012441  -0.001401   0.404887   0.019588
     9  C   -0.003697   0.014190   0.013448   0.000649  -0.520583  -0.123408
    10  H    0.010852  -0.000229  -0.000803   0.000007  -0.117940   0.015988
    11  H    0.005554  -0.000190   0.002598   0.000024  -0.039223   0.000907
    12  C   -0.255969  -0.001707  -0.113574   0.020218   0.225984  -0.056900
    13  C    0.756096   0.000028  -0.001610   0.000556   0.071403   0.093895
    14  C   -0.000010  -0.012682  -0.042930  -0.001346  -0.043938   0.000761
    15  H    0.000000  -0.000118   0.004473   0.000247   0.015350   0.001688
    16  H    0.000000   0.013567   0.003632   0.000746   0.022562  -0.000593
    17  H    0.000000  -0.001609   0.000025   0.000460  -0.020115   0.001157
    18  C   -0.000226  -0.051908  -0.000231   0.000014   0.003866  -0.002150
    19  H   -0.000002   0.004778   0.000004  -0.000001   0.004070   0.000078
    20  H    0.000530   0.003024   0.000027   0.000001   0.001242  -0.000614
    21  H   -0.000002   0.003336  -0.000027  -0.000000  -0.019341   0.000089
    22  C   -0.132868   0.000000  -0.000057   0.000135   0.001976  -0.003533
    23  H    0.003026  -0.000000   0.000155  -0.000028  -0.000211   0.005462
    24  H    0.003816  -0.000000   0.000135  -0.000033  -0.000276  -0.014765
    25  H    0.011964  -0.000000   0.000015  -0.000003  -0.000068  -0.002373
    26  C    0.000804   0.000007  -0.028319  -0.012072  -0.002202   0.240845
    27  H   -0.000045  -0.000000  -0.003661   0.000675   0.000830  -0.039314
    28  H   -0.000105   0.000000  -0.002014   0.000809  -0.000131  -0.053244
    29  H    0.000015  -0.000000   0.004151   0.002576  -0.000454  -0.050899
               7          8          9         10         11         12
     1  O   -0.000071  -0.000364  -0.003697   0.010852   0.005554  -0.255969
     2  O    0.015175   0.259343   0.014190  -0.000229  -0.000190  -0.001707
     3  N    0.299593   0.012441   0.013448  -0.000803   0.002598  -0.113574
     4  H   -0.047286  -0.001401   0.000649   0.000007   0.000024   0.020218
     5  C    0.282091   0.404887  -0.520583  -0.117940  -0.039223   0.225984
     6  C   -0.116021   0.019588  -0.123408   0.015988   0.000907  -0.056900
     7  C    5.569777  -0.157095  -0.040716   0.013773  -0.008077  -0.052203
     8  C   -0.157095   5.360282  -0.015955  -0.006550  -0.003087  -0.021995
     9  C   -0.040716  -0.015955   6.400079   0.549108   0.399542  -0.183387
    10  H    0.013773  -0.006550   0.549108   0.517173  -0.040761  -0.100951
    11  H   -0.008077  -0.003087   0.399542  -0.040761   0.554547  -0.011340
    12  C   -0.052203  -0.021995  -0.183387  -0.100951  -0.011340   7.537291
    13  C    0.017139  -0.004887  -0.208573  -0.002444  -0.005432  -0.464020
    14  C    0.181720  -0.052333   0.018618   0.000322  -0.000729   0.002328
    15  H   -0.065988   0.003006  -0.002997  -0.000020   0.000140   0.000687
    16  H   -0.053035  -0.042498   0.003180  -0.000040  -0.000022  -0.000625
    17  H   -0.037446   0.005241   0.001038   0.000101  -0.000074  -0.001167
    18  C    0.009201   0.219743  -0.019932   0.000647  -0.013313   0.005047
    19  H    0.002971  -0.045160  -0.000226   0.000676  -0.000380  -0.001337
    20  H    0.003674  -0.053802  -0.000180  -0.006554   0.001995   0.001847
    21  H   -0.003942  -0.046600  -0.001122  -0.001031   0.001225   0.001904
    22  C    0.000626  -0.000028   0.013424   0.000981   0.001567  -0.357394
    23  H   -0.000020   0.000002  -0.002319  -0.000149   0.000147   0.013501
    24  H   -0.000047   0.000002   0.001335   0.000059  -0.000156   0.040054
    25  H    0.000015  -0.000001  -0.000040  -0.000104  -0.000045   0.029720
    26  C    0.007696   0.000552   0.021529   0.000128  -0.000623  -0.101137
    27  H   -0.000518  -0.000031  -0.001678   0.000015   0.000019  -0.008656
    28  H   -0.001067   0.000001   0.001536   0.000016  -0.000058   0.002219
    29  H    0.004154   0.000003  -0.000878   0.000001   0.000029   0.019844
              13         14         15         16         17         18
     1  O    0.756096  -0.000010   0.000000   0.000000   0.000000  -0.000226
     2  O    0.000028  -0.012682  -0.000118   0.013567  -0.001609  -0.051908
     3  N   -0.001610  -0.042930   0.004473   0.003632   0.000025  -0.000231
     4  H    0.000556  -0.001346   0.000247   0.000746   0.000460   0.000014
     5  C    0.071403  -0.043938   0.015350   0.022562  -0.020115   0.003866
     6  C    0.093895   0.000761   0.001688  -0.000593   0.001157  -0.002150
     7  C    0.017139   0.181720  -0.065988  -0.053035  -0.037446   0.009201
     8  C   -0.004887  -0.052333   0.003006  -0.042498   0.005241   0.219743
     9  C   -0.208573   0.018618  -0.002997   0.003180   0.001038  -0.019932
    10  H   -0.002444   0.000322  -0.000020  -0.000040   0.000101   0.000647
    11  H   -0.005432  -0.000729   0.000140  -0.000022  -0.000074  -0.013313
    12  C   -0.464020   0.002328   0.000687  -0.000625  -0.001167   0.005047
    13  C    5.471622  -0.000100   0.000011   0.000012  -0.000031   0.000739
    14  C   -0.000100   5.210541   0.410263   0.429275   0.398230   0.001964
    15  H    0.000011   0.410263   0.563796  -0.031201  -0.037489   0.000010
    16  H    0.000012   0.429275  -0.031201   0.499811  -0.015956  -0.001205
    17  H   -0.000031   0.398230  -0.037489  -0.015956   0.541994  -0.000117
    18  C    0.000739   0.001964   0.000010  -0.001205  -0.000117   5.072560
    19  H   -0.000013  -0.000747  -0.000015   0.000560   0.000063   0.380401
    20  H    0.001038  -0.000150  -0.000003   0.000043   0.000015   0.416299
    21  H   -0.000099   0.000283   0.000014  -0.000251  -0.000095   0.417692
    22  C    0.346199   0.000005   0.000003  -0.000000  -0.000002   0.000004
    23  H   -0.043933  -0.000001   0.000000  -0.000000  -0.000000  -0.000001
    24  H   -0.061292   0.000001  -0.000000   0.000000   0.000000   0.000002
    25  H   -0.052423   0.000000   0.000000  -0.000000  -0.000000   0.000000
    26  C   -0.043563   0.000292  -0.000386   0.000061   0.000066  -0.000001
    27  H    0.003408  -0.000138   0.000042  -0.000003  -0.000040  -0.000001
    28  H   -0.003300   0.000090  -0.000043   0.000002   0.000015   0.000001
    29  H   -0.000084   0.000138   0.000064  -0.000005  -0.000009   0.000000
              19         20         21         22         23         24
     1  O   -0.000002   0.000530  -0.000002  -0.132868   0.003026   0.003816
     2  O    0.004778   0.003024   0.003336   0.000000  -0.000000  -0.000000
     3  N    0.000004   0.000027  -0.000027  -0.000057   0.000155   0.000135
     4  H   -0.000001   0.000001  -0.000000   0.000135  -0.000028  -0.000033
     5  C    0.004070   0.001242  -0.019341   0.001976  -0.000211  -0.000276
     6  C    0.000078  -0.000614   0.000089  -0.003533   0.005462  -0.014765
     7  C    0.002971   0.003674  -0.003942   0.000626  -0.000020  -0.000047
     8  C   -0.045160  -0.053802  -0.046600  -0.000028   0.000002   0.000002
     9  C   -0.000226  -0.000180  -0.001122   0.013424  -0.002319   0.001335
    10  H    0.000676  -0.006554  -0.001031   0.000981  -0.000149   0.000059
    11  H   -0.000380   0.001995   0.001225   0.001567   0.000147  -0.000156
    12  C   -0.001337   0.001847   0.001904  -0.357394   0.013501   0.040054
    13  C   -0.000013   0.001038  -0.000099   0.346199  -0.043933  -0.061292
    14  C   -0.000747  -0.000150   0.000283   0.000005  -0.000001   0.000001
    15  H   -0.000015  -0.000003   0.000014   0.000003   0.000000  -0.000000
    16  H    0.000560   0.000043  -0.000251  -0.000000  -0.000000   0.000000
    17  H    0.000063   0.000015  -0.000095  -0.000002  -0.000000   0.000000
    18  C    0.380401   0.416299   0.417692   0.000004  -0.000001   0.000002
    19  H    0.568118  -0.022014  -0.049531  -0.000001  -0.000000   0.000000
    20  H   -0.022014   0.501121  -0.029159   0.000045  -0.000001  -0.000001
    21  H   -0.049531  -0.029159   0.556564   0.000000   0.000000  -0.000000
    22  C   -0.000001   0.000045   0.000000   5.485148   0.391119   0.383156
    23  H   -0.000000  -0.000001   0.000000   0.391119   0.531268  -0.033891
    24  H    0.000000  -0.000001  -0.000000   0.383156  -0.033891   0.549223
    25  H   -0.000000  -0.000000   0.000000   0.380778  -0.010843  -0.015798
    26  C    0.000001  -0.000010  -0.000002  -0.047428  -0.005860   0.006675
    27  H   -0.000000  -0.000000   0.000000  -0.007091   0.000419  -0.001773
    28  H    0.000000   0.000000  -0.000000  -0.000301  -0.001726  -0.002405
    29  H    0.000000  -0.000000   0.000000   0.002281   0.000213   0.000329
              25         26         27         28         29
     1  O    0.011964   0.000804  -0.000045  -0.000105   0.000015
     2  O   -0.000000   0.000007  -0.000000   0.000000  -0.000000
     3  N    0.000015  -0.028319  -0.003661  -0.002014   0.004151
     4  H   -0.000003  -0.012072   0.000675   0.000809   0.002576
     5  C   -0.000068  -0.002202   0.000830  -0.000131  -0.000454
     6  C   -0.002373   0.240845  -0.039314  -0.053244  -0.050899
     7  C    0.000015   0.007696  -0.000518  -0.001067   0.004154
     8  C   -0.000001   0.000552  -0.000031   0.000001   0.000003
     9  C   -0.000040   0.021529  -0.001678   0.001536  -0.000878
    10  H   -0.000104   0.000128   0.000015   0.000016   0.000001
    11  H   -0.000045  -0.000623   0.000019  -0.000058   0.000029
    12  C    0.029720  -0.101137  -0.008656   0.002219   0.019844
    13  C   -0.052423  -0.043563   0.003408  -0.003300  -0.000084
    14  C    0.000000   0.000292  -0.000138   0.000090   0.000138
    15  H    0.000000  -0.000386   0.000042  -0.000043   0.000064
    16  H   -0.000000   0.000061  -0.000003   0.000002  -0.000005
    17  H   -0.000000   0.000066  -0.000040   0.000015  -0.000009
    18  C    0.000000  -0.000001  -0.000001   0.000001   0.000000
    19  H   -0.000000   0.000001  -0.000000   0.000000   0.000000
    20  H   -0.000000  -0.000010  -0.000000   0.000000  -0.000000
    21  H    0.000000  -0.000002   0.000000  -0.000000   0.000000
    22  C    0.380778  -0.047428  -0.007091  -0.000301   0.002281
    23  H   -0.010843  -0.005860   0.000419  -0.001726   0.000213
    24  H   -0.015798   0.006675  -0.001773  -0.002405   0.000329
    25  H    0.501014   0.002451   0.000091   0.000208  -0.000030
    26  C    0.002451   5.194907   0.427911   0.429549   0.386988
    27  H    0.000091   0.427911   0.508382  -0.037570  -0.017595
    28  H    0.000208   0.429549  -0.037570   0.525232  -0.022139
    29  H   -0.000030   0.386988  -0.017595  -0.022139   0.524994
 Mulliken charges:
               1
     1  O   -0.376842
     2  O   -0.192190
     3  N   -0.219959
     4  H    0.276449
     5  C   -0.107734
     6  C    0.254309
     7  C    0.175927
     8  C    0.166696
     9  C   -0.311985
    10  H    0.167730
    11  H    0.155214
    12  C   -0.168279
    13  C    0.129657
    14  C   -0.499726
    15  H    0.138464
    16  H    0.171983
    17  H    0.165745
    18  C   -0.439102
    19  H    0.157705
    20  H    0.181588
    21  H    0.170095
    22  C   -0.458743
    23  H    0.153672
    24  H    0.145650
    25  H    0.155473
    26  C   -0.478859
    27  H    0.176323
    28  H    0.164423
    29  H    0.146313
 Sum of Mulliken charges =   0.00000
 Mulliken charges with hydrogens summed into heavy atoms:
               1
     1  O   -0.376842
     2  O   -0.192190
     3  N    0.056490
     5  C   -0.107734
     6  C    0.254309
     7  C    0.175927
     8  C    0.166696
     9  C    0.010960
    12  C   -0.168279
    13  C    0.129657
    14  C   -0.023534
    18  C    0.070286
    22  C   -0.003947
    26  C    0.008200
 Electronic spatial extent (au):  <R**2>=           3209.0733
 Charge=              0.0000 electrons
 Dipole moment (field-independent basis, Debye):
    X=              0.3814    Y=              6.2339    Z=             -0.0529  Tot=              6.2458
 Quadrupole moment (field-independent basis, Debye-Ang):
   XX=            -87.5393   YY=            -79.5208   ZZ=            -85.8739
   XY=             15.6263   XZ=              1.4724   YZ=             -0.2816
 Traceless Quadrupole moment (field-independent basis, Debye-Ang):
   XX=             -3.2279   YY=              4.7905   ZZ=             -1.5625
   XY=             15.6263   XZ=              1.4724   YZ=             -0.2816
 Octapole moment (field-independent basis, Debye-Ang**2):
  XXX=             44.8136  YYY=             55.2514  ZZZ=              1.9334  XYY=            -42.7030
  XXY=             20.0396  XXZ=             -3.2999  XZZ=              1.7007  YZZ=             -2.0605
  YYZ=             -0.4015  XYZ=             -1.6661
 Hexadecapole moment (field-independent basis, Debye-Ang**3):
 XXXX=          -2913.5153 YYYY=          -1283.6840 ZZZZ=           -131.3009 XXXY=             81.5193
 XXXZ=             20.5418 YYYX=            108.6104 YYYZ=             -7.6778 ZZZX=             -3.8821
 ZZZY=              1.9994 XXYY=           -686.9234 XXZZ=           -488.8934 YYZZ=           -241.1350
 XXYZ=              0.1372 YYXZ=              3.8874 ZZXY=              2.2600
 N-N= 9.000963297234D+02 E-N=-3.276378260268D+03  KE= 6.308060296343D+02
 No NMR shielding tensors so no spin-rotation constants.
 Leave Link  601 at Fri Jan 23 19:38:24 2026, MaxMem=  2147483648 cpu:               1.8 elap:               0.1
 (Enter /data/home/wyx/g16/l9999.exe)
 Electronic transition elements 
                 1             2             3             4             5 
      1  -0.633200D+03 -0.633185D+03 -0.633166D+03 -0.633134D+03 -0.633117D+03
      2   0.159728D+01 -0.238933D+00  0.773308D-02  0.551413D+00 -0.233146D+00
      3   0.479464D+00 -0.383912D-01 -0.569704D-01 -0.169541D+01  0.139859D+01
      4   0.183088D+00  0.140803D-01  0.407220D-01  0.153657D+00 -0.488162D-01
      5  -0.186054D+00  0.316583D-01 -0.180607D-02 -0.927028D-01  0.477862D-01
      6  -0.576046D-01  0.581646D-02  0.853503D-02  0.300779D+00 -0.279504D+00
      7  -0.213032D-01 -0.114005D-03 -0.304455D-02 -0.246639D-01  0.102268D-01
      8  -0.115765D+00  0.854549D+00 -0.353384D+00  0.143947D-01 -0.121784D+00
      9   0.204806D-01  0.548650D-02  0.888674D+00 -0.209622D-01  0.668609D-02
     10   0.145272D+01 -0.233661D+00 -0.100516D-01  0.368137D+00 -0.272751D+00
     11  -0.576945D-01  0.721719D-02 -0.104833D-02 -0.135584D+01  0.524497D+00
     12   0.250689D+00 -0.684807D-01  0.153943D-01  0.246896D+00 -0.291039D+00
     13  -0.179913D-01  0.419276D-02 -0.314110D-01  0.170137D-01 -0.278333D-01
     14   0.538792D+00 -0.906935D-01  0.697378D-02 -0.394934D+00  0.301772D+00
     15  -0.385635D-01  0.194340D-01 -0.757726D-01 -0.139997D+00  0.678457D-01
     16   0.542462D-01  0.509231D-01 -0.247303D-01 -0.507482D-01 -0.191569D-01
                 6 
      1  -0.633098D+03
      2  -0.368969D-01
      3   0.120140D+00
      4   0.247753D-01
      5   0.874907D-02
      6  -0.251058D-01
      7  -0.254164D-01
      8  -0.255542D-01
      9  -0.131895D-01
     10  -0.147160D-01
     11  -0.100423D+00
     12  -0.858539D-01
     13   0.644750D-01
     14  -0.219612D-01
     15  -0.262887D-01
     16   0.504520D-01
 1\1\GINC-CN013\SP\RCAM-B3LYP TD-FC\TZVP\C11H15N1O2\WYX\23-Jan-2026\0\\
 #p CAM-B3LYP TZVP em=gd3bj td(nstates=6,root=2) scrf=(Solvent=TetraHyd
 roFuran,CorrectedLR,NonEquilibrium=Save) Geom=Check Guess=Read\\Title 
 Card Required\\0,1\O,0,2.806315,-1.578061,0.331845\O,0,-3.448266,-1.64
 5141,-0.254192\N,0,-0.645482,1.521607,-0.209486\H,0,-0.961305,2.47595,
 -0.251416\C,0,-1.242303,-0.761573,-0.197304\C,0,0.683636,1.307594,0.02
 0234\C,0,-1.615939,0.540512,-0.263171\C,0,-2.199001,-1.822689,-0.23034
 3\C,0,0.216573,-1.127758,-0.121764\H,0,0.374887,-1.84467,0.685213\H,0,
 0.523066,-1.637411,-1.041146\C,0,1.146351,0.038364,0.097458\C,0,2.5151
 6,-0.383483,0.354657\C,0,-2.996812,1.076549,-0.380659\H,0,-3.015801,1.
 978019,-0.998143\H,0,-3.695842,0.376515,-0.832338\H,0,-3.405481,1.3292
 78,0.60014\C,0,-1.793233,-3.265365,-0.249152\H,0,-2.438811,-3.91066,-0
 .84678\H,0,-0.785454,-3.430225,-0.62873\H,0,-1.796285,-3.680729,0.7636
 1\C,0,3.621661,0.586744,0.671518\H,0,3.865367,1.228164,-0.174188\H,0,3
 .400113,1.228668,1.521781\H,0,4.495665,-0.016778,0.905243\C,0,1.448622
 ,2.584541,0.155174\H,0,1.816605,2.738746,1.167988\H,0,2.296707,2.64149
 9,-0.521662\H,0,0.829289,3.451792,-0.074384\\Version=ES64L-G16RevA.03\
 State=1-A\HF=-633.3204892\RMSD=1.695e-09\Dipole=-0.6936272,2.3534799,-
 0.1348692\Quadrupole=-9.3459079,10.3788503,-1.0329425,6.8599663,-0.052
 8281,0.9913071\PG=C01 [X(C11H15N1O2)]\\@


 GARLIC THEN HAVE POWER TO SAVE FROM DEATH
 BEAR WITH IT THOUGH IT MAKETH UNSAVORY BREATH,
 AND SCORN NOT GARLIC LIKE SOME THAT THINK
 IT ONLY MAKETH MEN WINK AND DRINK AND STINK.
   --  SIR JOHN HARRINGTON,
       "THE ENGLISHMAN'S DOCTOR", 1609
 Job cpu time:       0 days  2 hours 43 minutes 28.2 seconds.
 Elapsed time:       0 days  0 hours 10 minutes 24.7 seconds.
 File lengths (MBytes):  RWF=    734 Int=      0 D2E=      0 Chk=     67 Scr=      1
 Normal termination of Gaussian 16 at Fri Jan 23 19:38:28 2026.
