 Entering Gaussian System, Link 0=g16
 Input=DDL-DDL-S3-TD-Neq.gjf
 Output=DDL-DDL-S3-TD-Neq.log
 Initial command:
 /data/home/wyx/g16/l1.exe "/scr/tmp/wyx/13522/Gau-222054.inp" -scrdir="/scr/tmp/wyx/13522/"
 Entering Link 1 = /data/home/wyx/g16/l1.exe PID=    222055.
  
 Copyright (c) 1988,1990,1992,1993,1995,1998,2003,2009,2016,
            Gaussian, Inc.  All Rights Reserved.
  
 This is part of the Gaussian(R) 16 program.  It is based on
 the Gaussian(R) 09 system (copyright 2009, Gaussian, Inc.),
 the Gaussian(R) 03 system (copyright 2003, Gaussian, Inc.),
 the Gaussian(R) 98 system (copyright 1998, Gaussian, Inc.),
 the Gaussian(R) 94 system (copyright 1995, Gaussian, Inc.),
 the Gaussian 92(TM) system (copyright 1992, Gaussian, Inc.),
 the Gaussian 90(TM) system (copyright 1990, Gaussian, Inc.),
 the Gaussian 88(TM) system (copyright 1988, Gaussian, Inc.),
 the Gaussian 86(TM) system (copyright 1986, Carnegie Mellon
 University), and the Gaussian 82(TM) system (copyright 1983,
 Carnegie Mellon University). Gaussian is a federally registered
 trademark of Gaussian, Inc.
  
 This software contains proprietary and confidential information,
 including trade secrets, belonging to Gaussian, Inc.
  
 This software is provided under written license and may be
 used, copied, transmitted, or stored only in accord with that
 written license.
  
 The following legend is applicable only to US Government
 contracts under FAR:
  
                    RESTRICTED RIGHTS LEGEND
  
 Use, reproduction and disclosure by the US Government is
 subject to restrictions as set forth in subparagraphs (a)
 and (c) of the Commercial Computer Software - Restricted
 Rights clause in FAR 52.227-19.
  
 Gaussian, Inc.
 340 Quinnipiac St., Bldg. 40, Wallingford CT 06492
  
  
 ---------------------------------------------------------------
 Warning -- This program may not be used in any manner that
 competes with the business of Gaussian, Inc. or will provide
 assistance to any competitor of Gaussian, Inc.  The licensee
 of this program is prohibited from giving any competitor of
 Gaussian, Inc. access to this program.  By using this program,
 the user acknowledges that Gaussian, Inc. is engaged in the
 business of creating and licensing software in the field of
 computational chemistry and represents and warrants to the
 licensee that it is not a competitor of Gaussian, Inc. and that
 it will not use this program in any manner prohibited above.
 ---------------------------------------------------------------
  

 Cite this work as:
 Gaussian 16, Revision A.03,
 M. J. Frisch, G. W. Trucks, H. B. Schlegel, G. E. Scuseria, 
 M. A. Robb, J. R. Cheeseman, G. Scalmani, V. Barone, 
 G. A. Petersson, H. Nakatsuji, X. Li, M. Caricato, A. V. Marenich, 
 J. Bloino, B. G. Janesko, R. Gomperts, B. Mennucci, H. P. Hratchian, 
 J. V. Ortiz, A. F. Izmaylov, J. L. Sonnenberg, D. Williams-Young, 
 F. Ding, F. Lipparini, F. Egidi, J. Goings, B. Peng, A. Petrone, 
 T. Henderson, D. Ranasinghe, V. G. Zakrzewski, J. Gao, N. Rega, 
 G. Zheng, W. Liang, M. Hada, M. Ehara, K. Toyota, R. Fukuda, 
 J. Hasegawa, M. Ishida, T. Nakajima, Y. Honda, O. Kitao, H. Nakai, 
 T. Vreven, K. Throssell, J. A. Montgomery, Jr., J. E. Peralta, 
 F. Ogliaro, M. J. Bearpark, J. J. Heyd, E. N. Brothers, K. N. Kudin, 
 V. N. Staroverov, T. A. Keith, R. Kobayashi, J. Normand, 
 K. Raghavachari, A. P. Rendell, J. C. Burant, S. S. Iyengar, 
 J. Tomasi, M. Cossi, J. M. Millam, M. Klene, C. Adamo, R. Cammi, 
 J. W. Ochterski, R. L. Martin, K. Morokuma, O. Farkas, 
 J. B. Foresman, and D. J. Fox, Gaussian, Inc., Wallingford CT, 2016.
 
 ******************************************
 Gaussian 16:  ES64L-G16RevA.03 25-Dec-2016
                 8-Feb-2026 
 ******************************************
 %nprocshared=32
 Will use up to   32 processors via shared memory.
 %mem=16GB
 %oldchk=DDL-DDL-S3-opt-freq.chk
 %chk=DDL-DDL-S3-TD-Neq.chk
 Copying data from "DDL-DDL-S3-opt-freq.chk" to current chk file "DDL-DDL-S3-TD-Neq.chk"
 IOpt=  2 FromEx=T IUOpen= 4 IOptOp= 5 NList=   0 IFRang= 0 IUIn= 4 IUOut= 2.
 ----------------------------------------------------------------------
 #p CAM-B3LYP/TZVP em=gd3bj TD=NStates=6 SCRF=(Solvent=Water) Geom=Chec
 k Guess=Read NoSymm
 ----------------------------------------------------------------------
 1/29=2,38=1,172=1/1;
 2/12=2,15=1,40=1/2;
 3/5=19,7=101,11=9,14=-4,25=1,30=1,70=2201,72=1,74=-40,116=-2,124=41/1,2,3,8;
 4/5=1/1;
 5/5=2,38=6,53=1/2;
 8/6=1,10=1,108=6/1;
 9/41=6,42=1,70=2/14;
 6/7=2,8=2,9=2,10=2/1;
 99/5=1,9=1/99;
 Leave Link    1 at Sun Feb  8 13:30:53 2026, MaxMem=  2147483648 cpu:              49.3 elap:               1.6
 (Enter /data/home/wyx/g16/l101.exe)
 -------------------
 Title Card Required
 -------------------
 Structure from the checkpoint file:  "DDL-DDL-S3-TD-Neq.chk"
 Charge =  0 Multiplicity = 1
 Redundant internal coordinates found in file.  (old form).
 O,0,-1.8619119703,4.1815209196,0.1755649578
 O,0,-2.3411907131,1.0780477288,3.307877361
 O,0,-8.0112848442,4.2435913163,-1.209364379
 O,0,-8.5163757722,1.0573702145,2.1834472241
 N,0,-5.2379184538,1.0843354811,-0.6715567849
 N,0,-5.7690308874,4.1974593855,2.8108941307
 H,0,-5.5451246995,0.1292967408,-0.7546942673
 H,0,-6.0695895998,5.1552510208,2.7404445974
 C,0,-5.8287327206,3.3842642232,-0.7831508463
 C,0,-6.3709569725,1.9229822942,2.7113105284
 C,0,-3.9271270287,1.2979297908,-0.3843713553
 C,0,-4.4289563448,3.9699849762,3.0312012301
 C,0,-6.19478588,2.068940384,-0.8901918873
 C,0,-6.7236939065,3.2261960016,2.6282026181
 C,0,-6.7491031113,4.4334887496,-0.9390827242
 C,0,-7.3467782772,0.8579603061,2.5012378893
 C,0,-4.3980192832,3.7539307155,-0.4686782482
 C,0,-4.9438211133,1.5331040754,3.015257295
 H,0,-4.3645323026,4.3597530293,0.437502696
 H,0,-4.8936468647,0.9412056661,3.9346584821
 H,0,-3.9983747754,4.4021892407,-1.2535533232
 H,0,-4.5665232991,0.8632265498,2.2406887802
 C,0,-3.4635564509,2.5781158235,-0.2921762014
 C,0,-3.9858988194,2.6964231413,3.1357018537
 C,0,-2.1054178466,2.9804329961,0.014707669
 C,0,-2.5980650835,2.280969897,3.328583984
 C,0,-7.5458582897,1.5267090734,-1.1937843687
 C,0,-8.0856555135,3.7701289247,2.3413251577
 H,0,-7.5215412554,0.8734784889,-2.0707616299
 H,0,-8.0970393323,4.8526460459,2.4662181868
 H,0,-8.2551591624,2.3287924152,-1.4046355895
 H,0,-8.3842106371,3.535622954,1.3211654464
 H,0,-7.9432585292,0.9538820266,-0.3519478548
 H,0,-8.8298924181,3.3253867207,2.9961327142
 C,0,-6.4503753978,5.9031968813,-0.790315165
 C,0,-6.8674900492,-0.561120587,2.6827064463
 H,0,-6.7170485738,6.4445727679,-1.7007400443
 H,0,-7.6994675108,-1.2421869118,2.5258420573
 H,0,-5.3924767892,6.0420091783,-0.5892032528
 H,0,-6.0710924244,-0.7937406336,1.9739953177
 H,0,-7.0313997745,6.3294041736,0.0315880756
 H,0,-6.45449211,-0.7109603128,3.6814506859
 C,0,-0.9523240704,2.0133148394,0.1371406766
 C,0,-1.4622780087,3.2441634192,3.5566565297
 H,0,-0.8585457943,1.3770851694,-0.7408718334
 H,0,-1.3149620169,3.89325822,2.6946741308
 H,0,-1.0652295253,1.368589706,1.0078806072
 H,0,-1.6394155498,3.8742742968,4.4269382573
 H,0,-0.0419899213,2.5963054689,0.2519576494
 H,0,-0.5592022519,2.6614044854,3.7190826815
 C,0,-3.1543114913,0.02786098,-0.1771222295
 C,0,-3.6290652503,5.2377831318,3.0877146131
 H,0,-2.6711026284,0.0150629083,0.7968958675
 H,0,-3.113506042,5.3489711046,4.0378935609
 H,0,-2.3904117488,-0.1078337984,-0.9397509669
 H,0,-2.8908215192,5.2631425466,2.2883784433
 H,0,-3.8232578684,-0.8297427387,-0.2240858941
 H,0,-4.2816082249,6.1000930478,2.9641204436
 Recover connectivity data from disk.
 ITRead=  0  0  0  0  0  0  0  0  0  0  0  0  0  0  0  0  0  0  0  0
 ITRead=  0  0  0  0  0  0  0  0  0  0  0  0  0  0  0  0  0  0  0  0
 ITRead=  0  0  0  0  0  0  0  0  0  0  0  0  0  0  0  0  0  0
 MicOpt= -1 -1 -1 -1 -1 -1 -1 -1 -1 -1 -1 -1 -1 -1 -1 -1 -1 -1 -1 -1
 MicOpt= -1 -1 -1 -1 -1 -1 -1 -1 -1 -1 -1 -1 -1 -1 -1 -1 -1 -1 -1 -1
 MicOpt= -1 -1 -1 -1 -1 -1 -1 -1 -1 -1 -1 -1 -1 -1 -1 -1 -1 -1
                           ----------------------------
                           !    Current Parameters    !
                           ! (Angstroms and Degrees)  !
 --------------------------                            --------------------------
 ! Name  Definition              Value                                          !
 --------------------------------------------------------------------------------
 ! R1    R(1,25)                 1.236                                          !
 ! R2    R(2,26)                 1.2302                                         !
 ! R3    R(3,15)                 1.3047                                         !
 ! R4    R(4,16)                 1.2283                                         !
 ! R5    R(5,7)                  1.0067                                         !
 ! R6    R(5,11)                 1.3588                                         !
 ! R7    R(5,13)                 1.3903                                         !
 ! R8    R(6,8)                  1.0063                                         !
 ! R9    R(6,12)                 1.377                                          !
 ! R10   R(6,14)                 1.3741                                         !
 ! R11   R(9,13)                 1.3695                                         !
 ! R12   R(9,15)                 1.4044                                         !
 ! R13   R(9,17)                 1.5108                                         !
 ! R14   R(10,14)                1.3527                                         !
 ! R15   R(10,16)                1.4597                                         !
 ! R16   R(10,18)                1.5103                                         !
 ! R17   R(11,23)                1.3647                                         !
 ! R18   R(11,51)                1.5011                                         !
 ! R19   R(12,24)                1.3525                                         !
 ! R20   R(12,52)                1.5001                                         !
 ! R21   R(13,27)                1.4871                                         !
 ! R22   R(14,28)                1.4944                                         !
 ! R23   R(15,35)                1.5071                                         !
 ! R24   R(16,36)                1.5088                                         !
 ! R25   R(17,19)                1.0906                                         !
 ! R26   R(17,21)                1.0936                                         !
 ! R27   R(17,23)                1.5123                                         !
 ! R28   R(18,20)                1.0946                                         !
 ! R29   R(18,22)                1.0914                                         !
 ! R30   R(18,24)                1.5118                                         !
 ! R31   R(19,56)                2.5325                                         !
 ! R32   R(23,25)                1.4493                                         !
 ! R33   R(24,26)                1.4615                                         !
 ! R34   R(25,43)                1.5099                                         !
 ! R35   R(26,44)                1.5066                                         !
 ! R36   R(27,29)                1.0938                                         !
 ! R37   R(27,31)                1.0913                                         !
 ! R38   R(27,33)                1.093                                          !
 ! R39   R(28,30)                1.0898                                         !
 ! R40   R(28,32)                1.0885                                         !
 ! R41   R(28,34)                1.0865                                         !
 ! R42   R(32,33)                3.1079                                         !
 ! R43   R(35,37)                1.0923                                         !
 ! R44   R(35,39)                1.0858                                         !
 ! R45   R(35,41)                1.0931                                         !
 ! R46   R(36,38)                1.0866                                         !
 ! R47   R(36,40)                1.0912                                         !
 ! R48   R(36,42)                1.0911                                         !
 ! R49   R(43,45)                1.0883                                         !
 ! R50   R(43,47)                1.0893                                         !
 ! R51   R(43,49)                1.0871                                         !
 ! R52   R(44,46)                1.0891                                         !
 ! R53   R(44,48)                1.0889                                         !
 ! R54   R(44,50)                1.087                                          !
 ! R55   R(51,53)                1.0874                                         !
 ! R56   R(51,55)                1.0879                                         !
 ! R57   R(51,57)                1.0887                                         !
 ! R58   R(52,54)                1.0867                                         !
 ! R59   R(52,56)                1.0884                                         !
 ! R60   R(52,58)                1.0884                                         !
 ! A1    A(7,5,11)             117.4505                                         !
 ! A2    A(7,5,13)             116.6708                                         !
 ! A3    A(11,5,13)            125.8642                                         !
 ! A4    A(8,6,12)             117.3291                                         !
 ! A5    A(8,6,14)             117.1259                                         !
 ! A6    A(12,6,14)            125.4958                                         !
 ! A7    A(13,9,15)            122.2563                                         !
 ! A8    A(13,9,17)            120.2913                                         !
 ! A9    A(15,9,17)            117.447                                          !
 ! A10   A(14,10,16)           121.3179                                         !
 ! A11   A(14,10,18)           120.4958                                         !
 ! A12   A(16,10,18)           118.1845                                         !
 ! A13   A(5,11,23)            119.3043                                         !
 ! A14   A(5,11,51)            113.1309                                         !
 ! A15   A(23,11,51)           127.5542                                         !
 ! A16   A(6,12,24)            119.126                                          !
 ! A17   A(6,12,52)            112.665                                          !
 ! A18   A(24,12,52)           128.1875                                         !
 ! A19   A(5,13,9)             118.943                                          !
 ! A20   A(5,13,27)            113.5262                                         !
 ! A21   A(9,13,27)            127.5158                                         !
 ! A22   A(6,14,10)            119.4498                                         !
 ! A23   A(6,14,28)            113.6687                                         !
 ! A24   A(10,14,28)           126.8806                                         !
 ! A25   A(3,15,9)             123.2482                                         !
 ! A26   A(3,15,35)            110.7407                                         !
 ! A27   A(9,15,35)            125.9944                                         !
 ! A28   A(4,16,10)            123.7353                                         !
 ! A29   A(4,16,36)            119.0974                                         !
 ! A30   A(10,16,36)           117.1664                                         !
 ! A31   A(9,17,19)            109.753                                          !
 ! A32   A(9,17,21)            109.9817                                         !
 ! A33   A(9,17,23)            114.7854                                         !
 ! A34   A(19,17,21)           104.8234                                         !
 ! A35   A(19,17,23)           108.4195                                         !
 ! A36   A(21,17,23)           108.5931                                         !
 ! A37   A(10,18,20)           110.6056                                         !
 ! A38   A(10,18,22)           110.0165                                         !
 ! A39   A(10,18,24)           114.5906                                         !
 ! A40   A(20,18,22)           104.3814                                         !
 ! A41   A(20,18,24)           108.6715                                         !
 ! A42   A(22,18,24)           108.048                                          !
 ! A43   A(17,19,56)           145.418                                          !
 ! A44   A(11,23,17)           120.7708                                         !
 ! A45   A(11,23,25)           126.3726                                         !
 ! A46   A(17,23,25)           112.8256                                         !
 ! A47   A(12,24,18)           120.7225                                         !
 ! A48   A(12,24,26)           126.0839                                         !
 ! A49   A(18,24,26)           113.1715                                         !
 ! A50   A(1,25,23)            118.8098                                         !
 ! A51   A(1,25,43)            117.4769                                         !
 ! A52   A(23,25,43)           123.7099                                         !
 ! A53   A(2,26,24)            118.296                                          !
 ! A54   A(2,26,44)            118.0521                                         !
 ! A55   A(24,26,44)           123.6515                                         !
 ! A56   A(13,27,29)           111.176                                          !
 ! A57   A(13,27,31)           111.2203                                         !
 ! A58   A(13,27,33)           111.3559                                         !
 ! A59   A(29,27,31)           107.3665                                         !
 ! A60   A(29,27,33)           108.2166                                         !
 ! A61   A(31,27,33)           107.3184                                         !
 ! A62   A(14,28,30)           110.4318                                         !
 ! A63   A(14,28,32)           110.5779                                         !
 ! A64   A(14,28,34)           111.0762                                         !
 ! A65   A(30,28,32)           108.5753                                         !
 ! A66   A(30,28,34)           109.2926                                         !
 ! A67   A(32,28,34)           106.7845                                         !
 ! A68   A(28,32,33)           130.1346                                         !
 ! A69   A(27,33,32)            91.7684                                         !
 ! A70   A(15,35,37)           110.6505                                         !
 ! A71   A(15,35,39)           109.6385                                         !
 ! A72   A(15,35,41)           110.4326                                         !
 ! A73   A(37,35,39)           109.2021                                         !
 ! A74   A(37,35,41)           107.6802                                         !
 ! A75   A(39,35,41)           109.1955                                         !
 ! A76   A(16,36,38)           109.2044                                         !
 ! A77   A(16,36,40)           110.7471                                         !
 ! A78   A(16,36,42)           111.0693                                         !
 ! A79   A(38,36,40)           109.3572                                         !
 ! A80   A(38,36,42)           109.6268                                         !
 ! A81   A(40,36,42)           106.7971                                         !
 ! A82   A(25,43,45)           112.0129                                         !
 ! A83   A(25,43,47)           111.3922                                         !
 ! A84   A(25,43,49)           107.7323                                         !
 ! A85   A(45,43,47)           107.9269                                         !
 ! A86   A(45,43,49)           109.0598                                         !
 ! A87   A(47,43,49)           108.6494                                         !
 ! A88   A(26,44,46)           111.2973                                         !
 ! A89   A(26,44,48)           111.6104                                         !
 ! A90   A(26,44,50)           107.8302                                         !
 ! A91   A(46,44,48)           108.0402                                         !
 ! A92   A(46,44,50)           108.9915                                         !
 ! A93   A(48,44,50)           109.023                                          !
 ! A94   A(11,51,53)           111.2487                                         !
 ! A95   A(11,51,55)           111.7311                                         !
 ! A96   A(11,51,57)           110.134                                          !
 ! A97   A(53,51,55)           108.3262                                         !
 ! A98   A(53,51,57)           107.6036                                         !
 ! A99   A(55,51,57)           107.6357                                         !
 ! A100  A(12,52,54)           111.862                                          !
 ! A101  A(12,52,56)           110.714                                          !
 ! A102  A(12,52,58)           110.2187                                         !
 ! A103  A(54,52,56)           108.5398                                         !
 ! A104  A(54,52,58)           107.6167                                         !
 ! A105  A(56,52,58)           107.7462                                         !
 ! A106  A(19,56,52)            97.6851                                         !
 ! D1    D(7,5,11,23)          178.5674                                         !
 ! D2    D(7,5,11,51)           -2.5299                                         !
 ! D3    D(13,5,11,23)           0.006                                          !
 ! D4    D(13,5,11,51)         178.9086                                         !
 ! D5    D(7,5,13,9)           179.713                                          !
 ! D6    D(7,5,13,27)            1.0133                                         !
 ! D7    D(11,5,13,9)           -1.7156                                         !
 ! D8    D(11,5,13,27)         179.5847                                         !
 ! D9    D(8,6,12,24)          179.8152                                         !
 ! D10   D(8,6,12,52)           -1.7336                                         !
 ! D11   D(14,6,12,24)          -2.8166                                         !
 ! D12   D(14,6,12,52)         175.6346                                         !
 ! D13   D(8,6,14,10)          179.933                                          !
 ! D14   D(8,6,14,28)            0.2665                                         !
 ! D15   D(12,6,14,10)           2.56                                           !
 ! D16   D(12,6,14,28)        -177.1065                                         !
 ! D17   D(15,9,13,5)         -177.517                                          !
 ! D18   D(15,9,13,27)           0.9799                                         !
 ! D19   D(17,9,13,5)            1.618                                          !
 ! D20   D(17,9,13,27)        -179.8851                                         !
 ! D21   D(13,9,15,3)           -0.7267                                         !
 ! D22   D(13,9,15,35)         177.6445                                         !
 ! D23   D(17,9,15,3)         -179.885                                          !
 ! D24   D(17,9,15,35)          -1.5138                                         !
 ! D25   D(13,9,17,19)        -122.4652                                         !
 ! D26   D(13,9,17,21)         122.7116                                         !
 ! D27   D(13,9,17,23)          -0.0803                                         !
 ! D28   D(15,9,17,19)          56.7104                                         !
 ! D29   D(15,9,17,21)         -58.1127                                         !
 ! D30   D(15,9,17,23)         179.0954                                         !
 ! D31   D(16,10,14,6)        -178.9184                                         !
 ! D32   D(16,10,14,28)          0.6998                                         !
 ! D33   D(18,10,14,6)           0.5847                                         !
 ! D34   D(18,10,14,28)       -179.7971                                         !
 ! D35   D(14,10,16,4)           3.2741                                         !
 ! D36   D(14,10,16,36)       -177.0791                                         !
 ! D37   D(18,10,16,4)        -176.2402                                         !
 ! D38   D(18,10,16,36)          3.4067                                         !
 ! D39   D(14,10,18,20)        120.2188                                         !
 ! D40   D(14,10,18,22)       -124.9856                                         !
 ! D41   D(14,10,18,24)         -3.025                                          !
 ! D42   D(16,10,18,20)        -60.2628                                         !
 ! D43   D(16,10,18,22)         54.5328                                         !
 ! D44   D(16,10,18,24)        176.4934                                         !
 ! D45   D(5,11,23,17)           1.6608                                         !
 ! D46   D(5,11,23,25)         179.4854                                         !
 ! D47   D(51,11,23,17)       -177.0663                                         !
 ! D48   D(51,11,23,25)          0.7584                                         !
 ! D49   D(5,11,51,53)        -123.559                                          !
 ! D50   D(5,11,51,55)         115.2321                                         !
 ! D51   D(5,11,51,57)          -4.3384                                         !
 ! D52   D(23,11,51,53)         55.2339                                         !
 ! D53   D(23,11,51,55)        -65.9749                                         !
 ! D54   D(23,11,51,57)        174.4545                                         !
 ! D55   D(6,12,24,18)          -0.0872                                         !
 ! D56   D(6,12,24,26)         178.0828                                         !
 ! D57   D(52,12,24,18)       -178.2688                                         !
 ! D58   D(52,12,24,26)         -0.0987                                         !
 ! D59   D(6,12,52,54)         121.0081                                         !
 ! D60   D(6,12,52,56)        -117.7935                                         !
 ! D61   D(6,12,52,58)           1.3196                                         !
 ! D62   D(24,12,52,54)        -60.7133                                         !
 ! D63   D(24,12,52,56)         60.485                                          !
 ! D64   D(24,12,52,58)        179.5981                                         !
 ! D65   D(5,13,27,29)         -57.739                                          !
 ! D66   D(5,13,27,31)        -177.3295                                         !
 ! D67   D(5,13,27,33)          63.0207                                         !
 ! D68   D(9,13,27,29)         123.6956                                         !
 ! D69   D(9,13,27,31)           4.1051                                         !
 ! D70   D(9,13,27,33)        -115.5448                                         !
 ! D71   D(6,14,28,30)          -7.8254                                         !
 ! D72   D(6,14,28,32)         112.3709                                         !
 ! D73   D(6,14,28,34)        -129.253                                          !
 ! D74   D(10,14,28,30)        172.5376                                         !
 ! D75   D(10,14,28,32)        -67.266                                          !
 ! D76   D(10,14,28,34)         51.11                                           !
 ! D77   D(3,15,35,37)         -58.1637                                         !
 ! D78   D(3,15,35,39)        -178.6731                                         !
 ! D79   D(3,15,35,41)          60.9638                                         !
 ! D80   D(9,15,35,37)         123.2929                                         !
 ! D81   D(9,15,35,39)           2.7834                                         !
 ! D82   D(9,15,35,41)        -117.5796                                         !
 ! D83   D(4,16,36,38)          -2.0317                                         !
 ! D84   D(4,16,36,40)         118.4507                                         !
 ! D85   D(4,16,36,42)        -123.0532                                         !
 ! D86   D(10,16,36,38)        178.3044                                         !
 ! D87   D(10,16,36,40)        -61.2132                                         !
 ! D88   D(10,16,36,42)         57.2829                                         !
 ! D89   D(9,17,19,56)         163.5138                                         !
 ! D90   D(21,17,19,56)        -78.4118                                         !
 ! D91   D(23,17,19,56)         37.4224                                         !
 ! D92   D(9,17,23,11)          -1.5936                                         !
 ! D93   D(9,17,23,25)        -179.6933                                         !
 ! D94   D(19,17,23,11)        121.5089                                         !
 ! D95   D(19,17,23,25)        -56.5908                                         !
 ! D96   D(21,17,23,11)       -125.1291                                         !
 ! D97   D(21,17,23,25)         56.7712                                         !
 ! D98   D(10,18,24,12)          2.7743                                         !
 ! D99   D(10,18,24,26)       -175.6171                                         !
 ! D100  D(20,18,24,12)       -121.5021                                         !
 ! D101  D(20,18,24,26)         60.1065                                         !
 ! D102  D(22,18,24,12)        125.8011                                         !
 ! D103  D(22,18,24,26)        -52.5903                                         !
 ! D104  D(17,19,56,52)       -146.0116                                         !
 ! D105  D(11,23,25,1)        -173.892                                          !
 ! D106  D(11,23,25,43)          6.7958                                         !
 ! D107  D(17,23,25,1)           4.0802                                         !
 ! D108  D(17,23,25,43)       -175.2321                                         !
 ! D109  D(12,24,26,2)        -174.8143                                         !
 ! D110  D(12,24,26,44)          5.4084                                         !
 ! D111  D(18,24,26,2)           3.4746                                         !
 ! D112  D(18,24,26,44)       -176.3027                                         !
 ! D113  D(1,25,43,45)        -125.9716                                         !
 ! D114  D(1,25,43,47)         113.0344                                         !
 ! D115  D(1,25,43,49)          -6.0326                                         !
 ! D116  D(23,25,43,45)         53.3491                                         !
 ! D117  D(23,25,43,47)        -67.6448                                         !
 ! D118  D(23,25,43,49)        173.2882                                         !
 ! D119  D(2,26,44,46)         116.7753                                         !
 ! D120  D(2,26,44,48)        -122.4317                                         !
 ! D121  D(2,26,44,50)          -2.7159                                         !
 ! D122  D(24,26,44,46)        -63.4468                                         !
 ! D123  D(24,26,44,48)         57.3462                                         !
 ! D124  D(24,26,44,50)        177.0619                                         !
 ! D125  D(13,27,33,32)         71.5165                                         !
 ! D126  D(29,27,33,32)       -166.003                                          !
 ! D127  D(31,27,33,32)        -50.4228                                         !
 ! D128  D(14,28,32,33)         39.172                                          !
 ! D129  D(30,28,32,33)        160.4737                                         !
 ! D130  D(34,28,32,33)        -81.7888                                         !
 ! D131  D(28,32,33,27)       -129.8144                                         !
 ! D132  D(12,52,56,19)         42.209                                          !
 ! D133  D(54,52,56,19)        165.3511                                         !
 ! D134  D(58,52,56,19)        -78.386                                          !
 --------------------------------------------------------------------------------
 NAtoms=     58 NQM=       58 NQMF=       0 NMMI=      0 NMMIF=      0
                NMic=       0 NMicF=      0.
                    Isotopes and Nuclear Properties:
 (Nuclear quadrupole moments (NQMom) in fm**2, nuclear magnetic moments (NMagM)
  in nuclear magnetons)

  Atom         1           2           3           4           5           6           7           8           9          10
 IAtWgt=          16          16          16          16          14          14           1           1          12          12
 AtmWgt=  15.9949146  15.9949146  15.9949146  15.9949146  14.0030740  14.0030740   1.0078250   1.0078250  12.0000000  12.0000000
 NucSpn=           0           0           0           0           2           2           1           1           0           0
 AtZEff=   5.6000000   5.6000000   5.6000000   5.6000000   4.5500000   4.5500000   1.0000000   1.0000000   3.6000000   3.6000000
 NQMom=    0.0000000   0.0000000   0.0000000   0.0000000   2.0440000   2.0440000   0.0000000   0.0000000   0.0000000   0.0000000
 NMagM=    0.0000000   0.0000000   0.0000000   0.0000000   0.4037610   0.4037610   2.7928460   2.7928460   0.0000000   0.0000000
 AtZNuc=   8.0000000   8.0000000   8.0000000   8.0000000   7.0000000   7.0000000   1.0000000   1.0000000   6.0000000   6.0000000

  Atom        11          12          13          14          15          16          17          18          19          20
 IAtWgt=          12          12          12          12          12          12          12          12           1           1
 AtmWgt=  12.0000000  12.0000000  12.0000000  12.0000000  12.0000000  12.0000000  12.0000000  12.0000000   1.0078250   1.0078250
 NucSpn=           0           0           0           0           0           0           0           0           1           1
 AtZEff=   3.6000000   3.6000000   3.6000000   3.6000000   3.6000000   3.6000000   3.6000000   3.6000000   1.0000000   1.0000000
 NQMom=    0.0000000   0.0000000   0.0000000   0.0000000   0.0000000   0.0000000   0.0000000   0.0000000   0.0000000   0.0000000
 NMagM=    0.0000000   0.0000000   0.0000000   0.0000000   0.0000000   0.0000000   0.0000000   0.0000000   2.7928460   2.7928460
 AtZNuc=   6.0000000   6.0000000   6.0000000   6.0000000   6.0000000   6.0000000   6.0000000   6.0000000   1.0000000   1.0000000

  Atom        21          22          23          24          25          26          27          28          29          30
 IAtWgt=           1           1          12          12          12          12          12          12           1           1
 AtmWgt=   1.0078250   1.0078250  12.0000000  12.0000000  12.0000000  12.0000000  12.0000000  12.0000000   1.0078250   1.0078250
 NucSpn=           1           1           0           0           0           0           0           0           1           1
 AtZEff=   1.0000000   1.0000000   3.6000000   3.6000000   3.6000000   3.6000000   3.6000000   3.6000000   1.0000000   1.0000000
 NQMom=    0.0000000   0.0000000   0.0000000   0.0000000   0.0000000   0.0000000   0.0000000   0.0000000   0.0000000   0.0000000
 NMagM=    2.7928460   2.7928460   0.0000000   0.0000000   0.0000000   0.0000000   0.0000000   0.0000000   2.7928460   2.7928460
 AtZNuc=   1.0000000   1.0000000   6.0000000   6.0000000   6.0000000   6.0000000   6.0000000   6.0000000   1.0000000   1.0000000

  Atom        31          32          33          34          35          36          37          38          39          40
 IAtWgt=           1           1           1           1          12          12           1           1           1           1
 AtmWgt=   1.0078250   1.0078250   1.0078250   1.0078250  12.0000000  12.0000000   1.0078250   1.0078250   1.0078250   1.0078250
 NucSpn=           1           1           1           1           0           0           1           1           1           1
 AtZEff=   1.0000000   1.0000000   1.0000000   1.0000000   3.6000000   3.6000000   1.0000000   1.0000000   1.0000000   1.0000000
 NQMom=    0.0000000   0.0000000   0.0000000   0.0000000   0.0000000   0.0000000   0.0000000   0.0000000   0.0000000   0.0000000
 NMagM=    2.7928460   2.7928460   2.7928460   2.7928460   0.0000000   0.0000000   2.7928460   2.7928460   2.7928460   2.7928460
 AtZNuc=   1.0000000   1.0000000   1.0000000   1.0000000   6.0000000   6.0000000   1.0000000   1.0000000   1.0000000   1.0000000

  Atom        41          42          43          44          45          46          47          48          49          50
 IAtWgt=           1           1          12          12           1           1           1           1           1           1
 AtmWgt=   1.0078250   1.0078250  12.0000000  12.0000000   1.0078250   1.0078250   1.0078250   1.0078250   1.0078250   1.0078250
 NucSpn=           1           1           0           0           1           1           1           1           1           1
 AtZEff=   1.0000000   1.0000000   3.6000000   3.6000000   1.0000000   1.0000000   1.0000000   1.0000000   1.0000000   1.0000000
 NQMom=    0.0000000   0.0000000   0.0000000   0.0000000   0.0000000   0.0000000   0.0000000   0.0000000   0.0000000   0.0000000
 NMagM=    2.7928460   2.7928460   0.0000000   0.0000000   2.7928460   2.7928460   2.7928460   2.7928460   2.7928460   2.7928460
 AtZNuc=   1.0000000   1.0000000   6.0000000   6.0000000   1.0000000   1.0000000   1.0000000   1.0000000   1.0000000   1.0000000

  Atom        51          52          53          54          55          56          57          58
 IAtWgt=          12          12           1           1           1           1           1           1
 AtmWgt=  12.0000000  12.0000000   1.0078250   1.0078250   1.0078250   1.0078250   1.0078250   1.0078250
 NucSpn=           0           0           1           1           1           1           1           1
 AtZEff=   3.6000000   3.6000000   1.0000000   1.0000000   1.0000000   1.0000000   1.0000000   1.0000000
 NQMom=    0.0000000   0.0000000   0.0000000   0.0000000   0.0000000   0.0000000   0.0000000   0.0000000
 NMagM=    0.0000000   0.0000000   2.7928460   2.7928460   2.7928460   2.7928460   2.7928460   2.7928460
 AtZNuc=   6.0000000   6.0000000   1.0000000   1.0000000   1.0000000   1.0000000   1.0000000   1.0000000
 Leave Link  101 at Sun Feb  8 13:30:58 2026, MaxMem=  2147483648 cpu:              10.7 elap:               0.4
 (Enter /data/home/wyx/g16/l202.exe)
 Symmetry turned off by external request.
 Stoichiometry    C22H30N2O4
 Framework group  C1[X(C22H30N2O4)]
 Deg. of freedom   168
 Full point group                 C1      NOp   1
                          Input orientation:                          
 ---------------------------------------------------------------------
 Center     Atomic      Atomic             Coordinates (Angstroms)
 Number     Number       Type             X           Y           Z
 ---------------------------------------------------------------------
      1          8           0       -1.861912    4.181521    0.175565
      2          8           0       -2.341191    1.078048    3.307877
      3          8           0       -8.011285    4.243591   -1.209364
      4          8           0       -8.516376    1.057370    2.183447
      5          7           0       -5.237918    1.084335   -0.671557
      6          7           0       -5.769031    4.197459    2.810894
      7          1           0       -5.545125    0.129297   -0.754694
      8          1           0       -6.069590    5.155251    2.740445
      9          6           0       -5.828733    3.384264   -0.783151
     10          6           0       -6.370957    1.922982    2.711311
     11          6           0       -3.927127    1.297930   -0.384371
     12          6           0       -4.428956    3.969985    3.031201
     13          6           0       -6.194786    2.068940   -0.890192
     14          6           0       -6.723694    3.226196    2.628203
     15          6           0       -6.749103    4.433489   -0.939083
     16          6           0       -7.346778    0.857960    2.501238
     17          6           0       -4.398019    3.753931   -0.468678
     18          6           0       -4.943821    1.533104    3.015257
     19          1           0       -4.364532    4.359753    0.437503
     20          1           0       -4.893647    0.941206    3.934658
     21          1           0       -3.998375    4.402189   -1.253553
     22          1           0       -4.566523    0.863227    2.240689
     23          6           0       -3.463556    2.578116   -0.292176
     24          6           0       -3.985899    2.696423    3.135702
     25          6           0       -2.105418    2.980433    0.014708
     26          6           0       -2.598065    2.280970    3.328584
     27          6           0       -7.545858    1.526709   -1.193784
     28          6           0       -8.085656    3.770129    2.341325
     29          1           0       -7.521541    0.873478   -2.070762
     30          1           0       -8.097039    4.852646    2.466218
     31          1           0       -8.255159    2.328792   -1.404636
     32          1           0       -8.384211    3.535623    1.321165
     33          1           0       -7.943259    0.953882   -0.351948
     34          1           0       -8.829892    3.325387    2.996133
     35          6           0       -6.450375    5.903197   -0.790315
     36          6           0       -6.867490   -0.561121    2.682706
     37          1           0       -6.717049    6.444573   -1.700740
     38          1           0       -7.699468   -1.242187    2.525842
     39          1           0       -5.392477    6.042009   -0.589203
     40          1           0       -6.071092   -0.793741    1.973995
     41          1           0       -7.031400    6.329404    0.031588
     42          1           0       -6.454492   -0.710960    3.681451
     43          6           0       -0.952324    2.013315    0.137141
     44          6           0       -1.462278    3.244163    3.556657
     45          1           0       -0.858546    1.377085   -0.740872
     46          1           0       -1.314962    3.893258    2.694674
     47          1           0       -1.065230    1.368590    1.007881
     48          1           0       -1.639416    3.874274    4.426938
     49          1           0       -0.041990    2.596305    0.251958
     50          1           0       -0.559202    2.661404    3.719083
     51          6           0       -3.154311    0.027861   -0.177122
     52          6           0       -3.629065    5.237783    3.087715
     53          1           0       -2.671103    0.015063    0.796896
     54          1           0       -3.113506    5.348971    4.037894
     55          1           0       -2.390412   -0.107834   -0.939751
     56          1           0       -2.890822    5.263143    2.288378
     57          1           0       -3.823258   -0.829743   -0.224086
     58          1           0       -4.281608    6.100093    2.964120
 ---------------------------------------------------------------------
 Rotational constants (GHZ):           0.2310920           0.1729089           0.1579698
 Leave Link  202 at Sun Feb  8 13:30:59 2026, MaxMem=  2147483648 cpu:               0.4 elap:               0.0
 (Enter /data/home/wyx/g16/l301.exe)
 Standard basis: TZVP (5D, 7F)
 Ernie: Thresh=  0.10000D-02 Tol=  0.10000D-05 Strict=F.
   712 basis functions,  1220 primitive gaussians,   740 cartesian basis functions
   104 alpha electrons      104 beta electrons
       nuclear repulsion energy      2970.9541703630 Hartrees.
 IExCor=20419 DFT=T Ex+Corr=CAM-B3LYP ExCW=0 ScaHFX=  1.000000
 ScaDFX=  1.000000  1.000000  1.000000  0.810000 ScalE2=  1.000000  1.000000
 IRadAn=      5 IRanWt=     -1 IRanGd=            0 ICorTp=0 IEmpDi=141
 HFx  wShort=  0.000000 wLong=  0.330000 cFull=  0.190000 cShort=  0.000000 cLong=  0.460000
 DFx  wShort=  0.000000 wLong=  0.330000 cFull=  0.190000 cShort=  0.000000 cLong=  0.460000
 NAtoms=   58 NActive=   58 NUniq=   58 SFac= 1.00D+00 NAtFMM=   60 NAOKFM=F Big=F
 Integral buffers will be    131072 words long.
 Raffenetti 1 integral format.
 Two-electron integral symmetry is turned off.
 R6Disp:  Grimme-D3(BJ) Dispersion energy=       -0.0745821593 Hartrees.
 Nuclear repulsion after empirical dispersion term =     2970.8795882037 Hartrees.
 ------------------------------------------------------------------------------
 Polarizable Continuum Model (PCM)
 =================================
 Model                : PCM.
 Atomic radii         : UFF (Universal Force Field).
 Polarization charges : Total charges.
 Charge compensation  : None.
 Solution method      : On-the-fly selection.
 Cavity type          : Scaled VdW (van der Waals Surface) (Alpha=1.100).
 Cavity algorithm     : GePol (No added spheres)
                        Default sphere list used, NSphG=   58.
                        Lebedev-Laikov grids with approx.  5.0 points / Ang**2.
                        Smoothing algorithm: York/Karplus (Gamma=1.0000).
                        Polarization charges: spherical gaussians, with
                                              point-specific exponents (IZeta= 3).
                        Self-potential: point-specific (ISelfS= 7).
                        Self-field    : sphere-specific E.n sum rule (ISelfD= 2).
 Solvent              : Water, Eps=  78.355300 Eps(inf)=   1.777849
 ------------------------------------------------------------------------------
 GePol: Number of generator spheres                  =      58
 GePol: Total number of spheres                      =      58
 GePol: Number of exposed spheres                    =      58 (100.00%)
 GePol: Number of points                             =    3390
 GePol: Average weight of points                     =       0.12
 GePol: Minimum weight of points                     =   0.96D-11
 GePol: Maximum weight of points                     =    0.20577
 GePol: Number of points with low weight             =     258
 GePol: Fraction of low-weight points (<1% of avg)   =       7.61%
 GePol: Cavity surface area                          =    417.867 Ang**2
 GePol: Cavity volume                                =    546.104 Ang**3
 Leave Link  301 at Sun Feb  8 13:30:59 2026, MaxMem=  2147483648 cpu:               3.9 elap:               0.2
 (Enter /data/home/wyx/g16/l302.exe)
 NPDir=0 NMtPBC=     1 NCelOv=     1 NCel=       1 NClECP=     1 NCelD=      1
         NCelK=      1 NCelE2=     1 NClLst=     1 CellRange=     0.0.
 One-electron integrals computed using PRISM.
 NBasis=   712 RedAO= T EigKep=  1.89D-05  NBF=   712
 NBsUse=   712 1.00D-06 EigRej= -1.00D+00 NBFU=   712
 Precomputing XC quadrature grid using
 IXCGrd= 4 IRadAn=           5 IRanWt=          -1 IRanGd=           0 AccXCQ= 0.00D+00.
 Generated NRdTot=       0 NPtTot=           0 NUsed=           0 NTot=          32
 NSgBfM=   713   712   713   713   713 MxSgAt=    58 MxSgA2=    58.
 Leave Link  302 at Sun Feb  8 13:31:00 2026, MaxMem=  2147483648 cpu:              27.1 elap:               0.9
 (Enter /data/home/wyx/g16/l303.exe)
 DipDrv:  MaxL=1.
 Leave Link  303 at Sun Feb  8 13:31:00 2026, MaxMem=  2147483648 cpu:               5.2 elap:               0.2
 (Enter /data/home/wyx/g16/l308.exe)
 Leave Link  308 at Sun Feb  8 13:31:01 2026, MaxMem=  2147483648 cpu:               5.7 elap:               0.2
 (Enter /data/home/wyx/g16/l401.exe)
 Initial guess from the checkpoint file:  "DDL-DDL-S3-TD-Neq.chk"
 B after Tr=     0.000000    0.000000    0.000000
         Rot=    1.000000    0.000000    0.000000    0.000000 Ang=   0.00 deg.
 Guess basis will be translated and rotated to current coordinates.
 JPrj=2 DoOrth=T DoCkMO=T.
 Leave Link  401 at Sun Feb  8 13:31:02 2026, MaxMem=  2147483648 cpu:              23.8 elap:               0.8
 (Enter /data/home/wyx/g16/l502.exe)
 Two-electron integral symmetry not used.
 Closed shell SCF:
 Using DIIS extrapolation, IDIIS=  1040.
 NGot=  2147483648 LenX=  2146359098 LenY=  2145810758
 Requested convergence on RMS density matrix=1.00D-08 within 128 cycles.
 Requested convergence on MAX density matrix=1.00D-06.
 Requested convergence on             energy=1.00D-06.
 No special actions if energy rises.
 Fock matrices will be formed incrementally for  20 cycles.

 Cycle   1  Pass 1  IDiag  1:
 FoFJK:  IHMeth= 1 ICntrl=       0 DoSepK=T KAlg= 0 I1Cent=           0 FoldK=F
 IRaf=         1 NMat=       1 IRICut=       1 DoRegI=T DoRafI=F ISym2E= 0 IDoP0=0 IntGTp=1.
 FoFCou: FMM=F IPFlag=           0 FMFlag=      100000 FMFlg1=           0
         NFxFlg=           0 DoJE=T BraDBF=F KetDBF=F FulRan=T
         wScrn=  0.000000 ICntrl=       500 IOpCl=  0 I1Cent=           0 NGrid=           0
         NMat0=    1 NMatS0=      1 NMatT0=    0 NMatD0=    1 NMtDS0=    0 NMtDT0=    0
 Symmetry not used in FoFCou.
 Inv3:  Mode=1 IEnd=    34476300.
 Iteration    1 A*A^-1 deviation from unit magnitude is 3.11D-15 for    339.
 Iteration    1 A*A^-1 deviation from orthogonality  is 2.22D-15 for   2447   1541.
 Iteration    1 A^-1*A deviation from unit magnitude is 3.11D-15 for    988.
 Iteration    1 A^-1*A deviation from orthogonality  is 2.44D-15 for   3140    238.
 E= -1266.67070684211    
 DIIS: error= 1.31D-08 at cycle   1 NSaved=   1.
 NSaved= 1 IEnMin= 1 EnMin= -1266.67070684211     IErMin= 1 ErrMin= 1.31D-08
 ErrMax= 1.31D-08  0.00D+00 EMaxC= 1.00D-01 BMatC= 1.84D-13 BMatP= 1.84D-13
 IDIUse=1 WtCom= 1.00D+00 WtEn= 0.00D+00
 Coeff-Com:  0.100D+01
 Coeff:      0.100D+01
 Gap=     0.216 Goal=   None    Shift=    0.000
 RMSDP=3.17D-09 MaxDP=3.51D-07              OVMax= 2.25D-07

 Error on total polarization charges =  0.01907
 SCF Done:  E(RCAM-B3LYP) =  -1266.67070684     A.U. after    1 cycles
            NFock=  1  Conv=0.32D-08     -V/T= 2.0043
 KE= 1.261308770333D+03 PE=-8.893297505062D+03 EE= 3.394438439683D+03
 Leave Link  502 at Sun Feb  8 13:31:37 2026, MaxMem=  2147483648 cpu:            1086.2 elap:              35.2
 (Enter /data/home/wyx/g16/l801.exe)
 DoSCS=F DFT=T ScalE2(SS,OS)=  1.000000  1.000000
 ExpMin= 9.52D-02 ExpMax= 2.70D+04 ExpMxC= 9.22D+02 IAcc=3 IRadAn=         5 AccDes= 0.00D+00
 HarFok:  IExCor=  205 AccDes= 0.00D+00 IRadAn=         5 IDoV=-2 UseB2=F ITyADJ=14
 ICtDFT= 12500011 ScaDFX=  1.000000  1.000000  1.000000  1.000000
 GSVD:  LWork=       -1008 too small for GESVD, short by        4340 words or        4340 for optimal perf.
 Largest valence mixing into a core orbital is  5.70D-05
 Largest core mixing into a valence orbital is  1.30D-05
 Range of M.O.s used for correlation:    29   712
 NBasis=   712 NAE=   104 NBE=   104 NFC=    28 NFV=     0
 NROrb=    684 NOA=    76 NOB=    76 NVA=   608 NVB=   608

 **** Warning!!: The largest alpha MO coefficient is  0.41729889D+02

 Leave Link  801 at Sun Feb  8 13:31:38 2026, MaxMem=  2147483648 cpu:               5.1 elap:               0.2
 (Enter /data/home/wyx/g16/l914.exe)
 RHF ground state
 Two-electron integral symmetry not used.
 MDV=  2147483648 DFT=T DoStab=F Mixed=T DoRPA=T DoScal=F NonHer=T
 NEqPCM:  Using non-equilibrium solvation (IEInf=1, Eps=  78.3553, EpsInf=   1.7778)
 Inv3:  Mode=1 IEnd=    34476300.
 Iteration    1 A*A^-1 deviation from unit magnitude is 3.11D-15 for    858.
 Iteration    1 A*A^-1 deviation from orthogonality  is 3.89D-15 for   2998     71.
 Iteration    1 A^-1*A deviation from unit magnitude is 3.22D-15 for    996.
 Iteration    1 A^-1*A deviation from orthogonality  is 2.66D-15 for   2910   1385.
 Making orbital integer symmetry assigments:
    24 initial guesses have been made.
 Convergence on wavefunction:    0.001000000000000
 Davidson Disk Diagonalization:  ConvIn= 1.00D-03 SkipCon=T Conv= 1.00D-03.
 Max sub-space:  2000 roots to seek:    24 dimension of matrix:        92416
 Iteration     1 Dimension    24 NMult     0 NNew     24
 CISAX will form    24 AO SS matrices at one time.
 NMat=    24 NSing=    24 JSym2X= 0.
 FoFJK:  IHMeth= 1 ICntrl=       0 DoSepK=T KAlg= 0 I1Cent=           0 FoldK=F
 IRaf=         1 NMat=      48 IRICut=       1 DoRegI=T DoRafI=F ISym2E= 0 IDoP0=3 IntGTp=3.
 New state      1 was old state      5
 New state      2 was old state      1
 New state      3 was old state      2
 New state      4 was old state      3
 New state      5 was old state      4
 New state      6 was old state     14
 Excitation Energies [eV] at current iteration:
 Root      1 :     3.564425024110456
 Root      2 :     3.652754153948028
 Root      3 :     3.878479994207805
 Root      4 :     4.059396966449840
 Root      5 :     4.478305353677950
 Root      6 :     4.953434378713609
 Root      7 :     5.123438377367378
 Root      8 :     5.164774011406459
 Root      9 :     5.240758551755192
 Root     10 :     5.363362233116245
 Root     11 :     5.565061397271277
 Root     12 :     5.587062904167255
 Root     13 :     5.761358342474765
 Root     14 :     5.839465664969786
 Root     15 :     5.866535348317685
 Root     16 :     5.965978435736607
 Root     17 :     6.138025677529570
 Root     18 :     6.197066763208808
 Root     19 :     6.322411443659059
 Root     20 :     6.532873649449536
 Root     21 :     6.573030292773926
 Root     22 :     6.612653043252015
 Root     23 :     6.736665593886223
 Root     24 :     6.892367773229424
 Iteration     2 Dimension    36 NMult    24 NNew     12
 CISAX will form    12 AO SS matrices at one time.
 NMat=    12 NSing=    12 JSym2X= 0.
 New state      1 was old state      2
 Root      1 not converged, maximum delta is    0.177140826417413
 New state      2 was old state      1
 Root      2 not converged, maximum delta is    0.109135888845264
 Root      3 not converged, maximum delta is    0.268640187233111
 Root      4 not converged, maximum delta is    0.242712117409073
 New state      5 was old state      6
 Root      5 not converged, maximum delta is    0.229998945643673
 New state      6 was old state      5
 Root      6 not converged, maximum delta is    0.073229543615648
 Excitation Energies [eV] at current iteration:
 Root      1 :     3.193210296824999   Change is   -0.459543857123029
 Root      2 :     3.327952573679994   Change is   -0.236472450430462
 Root      3 :     3.453209666365017   Change is   -0.425270327842788
 Root      4 :     3.923344184153792   Change is   -0.136052782296047
 Root      5 :     4.165547984088229   Change is   -0.787886394625380
 Root      6 :     4.405341424147633   Change is   -0.072963929530317
 Iteration     3 Dimension    48 NMult    36 NNew     12
 CISAX will form    12 AO SS matrices at one time.
 NMat=    12 NSing=    12 JSym2X= 0.
 Root      1 not converged, maximum delta is    0.010307476256463
 Root      2 not converged, maximum delta is    0.008280458127138
 Root      3 not converged, maximum delta is    0.010058221226182
 Root      4 not converged, maximum delta is    0.005384974888803
 Root      5 not converged, maximum delta is    0.031045952165683
 Root      6 not converged, maximum delta is    0.009753766772613
 Excitation Energies [eV] at current iteration:
 Root      1 :     3.168674686972873   Change is   -0.024535609852127
 Root      2 :     3.318176779224854   Change is   -0.009775794455140
 Root      3 :     3.432541155269395   Change is   -0.020668511095622
 Root      4 :     3.919013450333026   Change is   -0.004330733820766
 Root      5 :     4.101192058608780   Change is   -0.064355925479448
 Root      6 :     4.400668693147749   Change is   -0.004672730999884
 Iteration     4 Dimension    60 NMult    48 NNew     12
 CISAX will form    12 AO SS matrices at one time.
 NMat=    12 NSing=    12 JSym2X= 0.
 Root      1 not converged, maximum delta is    0.008087724943299
 Root      2 not converged, maximum delta is    0.004607906879156
 Root      3 not converged, maximum delta is    0.006004712083120
 Root      4 not converged, maximum delta is    0.002821603633298
 Root      5 not converged, maximum delta is    0.021455079205873
 Root      6 not converged, maximum delta is    0.012484545571831
 Excitation Energies [eV] at current iteration:
 Root      1 :     3.163244855471115   Change is   -0.005429831501757
 Root      2 :     3.317039973457748   Change is   -0.001136805767107
 Root      3 :     3.427561843796394   Change is   -0.004979311473001
 Root      4 :     3.918268607836543   Change is   -0.000744842496483
 Root      5 :     4.093770480775950   Change is   -0.007421577832830
 Root      6 :     4.399325598567406   Change is   -0.001343094580343
 Iteration     5 Dimension    72 NMult    60 NNew     12
 CISAX will form    12 AO SS matrices at one time.
 NMat=    12 NSing=    12 JSym2X= 0.
 Root      1 has converged.
 Root      2 not converged, maximum delta is    0.003431363123110
 Root      3 has converged.
 Root      4 not converged, maximum delta is    0.004615145341915
 Root      5 not converged, maximum delta is    0.048179372578951
 Root      6 not converged, maximum delta is    0.584906617198137
 Excitation Energies [eV] at current iteration:
 Root      1 :     3.162965701153065   Change is   -0.000279154318050
 Root      2 :     3.316831245748868   Change is   -0.000208727708879
 Root      3 :     3.427300883372052   Change is   -0.000260960424342
 Root      4 :     3.918127883748556   Change is   -0.000140724087987
 Root      5 :     4.088664319003197   Change is   -0.005106161772753
 Root      6 :     4.267842889270317   Change is   -0.131482709297088
 Iteration     6 Dimension    80 NMult    72 NNew      8
 CISAX will form     8 AO SS matrices at one time.
 NMat=     8 NSing=     8 JSym2X= 0.
 Root      1 has converged.
 Root      2 has converged.
 Root      3 has converged.
 Root      4 not converged, maximum delta is    0.001808052961941
 Root      5 not converged, maximum delta is    0.015941075333943
 Root      6 not converged, maximum delta is    0.201892791736823
 Excitation Energies [eV] at current iteration:
 Root      1 :     3.162957152515384   Change is   -0.000008548637681
 Root      2 :     3.316812275369576   Change is   -0.000018970379293
 Root      3 :     3.427296485186114   Change is   -0.000004398185938
 Root      4 :     3.918093815328711   Change is   -0.000034068419845
 Root      5 :     4.087395532808114   Change is   -0.001268786195083
 Root      6 :     4.202982595962886   Change is   -0.064860293307432
 Iteration     7 Dimension    86 NMult    80 NNew      6
 CISAX will form     6 AO SS matrices at one time.
 NMat=     6 NSing=     6 JSym2X= 0.
 Root      1 has converged.
 Root      2 has converged.
 Root      3 has converged.
 Root      4 has converged.
 Root      5 not converged, maximum delta is    0.002001151561290
 Root      6 not converged, maximum delta is    0.020489355581680
 Excitation Energies [eV] at current iteration:
 Root      1 :     3.162956390147628   Change is   -0.000000762367756
 Root      2 :     3.316811693707304   Change is   -0.000000581662272
 Root      3 :     3.427295633939010   Change is   -0.000000851247104
 Root      4 :     3.918091419722344   Change is   -0.000002395606366
 Root      5 :     4.087268536289484   Change is   -0.000126996518630
 Root      6 :     4.196626958900482   Change is   -0.006355637062404
 Iteration     8 Dimension    90 NMult    86 NNew      4
 CISAX will form     4 AO SS matrices at one time.
 NMat=     4 NSing=     4 JSym2X= 0.
 Root      1 has converged.
 Root      2 has converged.
 Root      3 has converged.
 Root      4 has converged.
 Root      5 has converged.
 Root      6 not converged, maximum delta is    0.001861233144622
 Excitation Energies [eV] at current iteration:
 Root      1 :     3.162956195672549   Change is   -0.000000194475079
 Root      2 :     3.316811610200668   Change is   -0.000000083506636
 Root      3 :     3.427294945119769   Change is   -0.000000688819241
 Root      4 :     3.918091271859922   Change is   -0.000000147862422
 Root      5 :     4.087258590115390   Change is   -0.000009946174095
 Root      6 :     4.196146522984344   Change is   -0.000480435916137
 Iteration     9 Dimension    92 NMult    90 NNew      2
 CISAX will form     2 AO SS matrices at one time.
 NMat=     2 NSing=     2 JSym2X= 0.
 Root      1 has converged.
 Root      2 has converged.
 Root      3 has converged.
 Root      4 has converged.
 Root      5 has converged.
 Root      6 has converged.
 Excitation Energies [eV] at current iteration:
 Root      1 :     3.162956179241058   Change is   -0.000000016431491
 Root      2 :     3.316811597290653   Change is   -0.000000012910015
 Root      3 :     3.427294559501407   Change is   -0.000000385618362
 Root      4 :     3.918091256368929   Change is   -0.000000015490993
 Root      5 :     4.087258550160419   Change is   -0.000000039954971
 Root      6 :     4.196111559492186   Change is   -0.000034963492159
 Convergence achieved on expansion vectors.
 ***********************************************************************
 Excited states from <AA,BB:AA,BB> singles matrix:
 ***********************************************************************
 
 1PDM for each excited state written to RWF  633
 Ground to excited state transition densities written to RWF  633
 Ground to excited state transition electric dipole moments (Au):
       state          X           Y           Z        Dip. S.      Osc.
         1        -1.2974      0.4369     -0.3668      2.0088      0.1557
         2         0.0722     -0.0236     -0.0161      0.0060      0.0005
         3         1.1977      0.2768      0.1866      1.5460      0.1298
         4        -0.5865     -0.0215      0.3706      0.4818      0.0463
         5         0.0538     -0.0041      0.0132      0.0031      0.0003
         6         0.0100     -0.0039     -0.0203      0.0005      0.0001
 Ground to excited state transition velocity dipole moments (Au):
       state          X           Y           Z        Dip. S.      Osc.
         1         0.1472     -0.0498      0.0416      0.0259      0.1484
         2        -0.0080      0.0027      0.0008      0.0001      0.0004
         3        -0.1443     -0.0368     -0.0227      0.0227      0.1201
         4         0.0824      0.0023     -0.0527      0.0096      0.0443
         5        -0.0078      0.0005      0.0003      0.0001      0.0003
         6         0.0006      0.0014      0.0014      0.0000      0.0000
 Ground to excited state transition magnetic dipole moments (Au):
       state          X           Y           Z
         1        -0.1912      0.0157      0.9316
         2         0.7576      0.0496      0.0505
         3        -0.0582     -1.3238      2.5482
         4        -0.2345     -0.2699     -0.3338
         5         0.8396      0.0460      0.3604
         6        -0.2896     -0.8942     -0.1740
 Ground to excited state transition velocity quadrupole moments (Au):
       state          XX          YY          ZZ          XY          XZ          YZ
         1        -2.6213     -0.7369      0.0271      1.6756     -0.5625      0.4326
         2         0.1426      0.0338     -0.0124     -0.1069     -0.0044      0.0218
         3         2.7416     -0.1139     -0.3316      0.1494     -0.6605     -0.3079
         4        -1.4298     -0.0548     -0.2701      0.3350      0.7059     -0.2198
         5         0.1494      0.0171     -0.0476     -0.0303     -0.0619      0.0776
         6        -0.0406      0.0130      0.0170     -0.0326      0.0863     -0.0039
 <0|del|b> * <b|rxdel|0> + <0|del|b> * <b|delr+rdel|0>
 Rotatory Strengths (R) in cgs (10**-40 erg-esu-cm/Gauss)
       state          XX          YY          ZZ    R(velocity)    E-M Angle
         1       242.3714     13.9438   -196.5091     19.9354       86.32
         2         0.2920    -17.8329    -16.8277    -11.4562      155.93
         3      -103.0789     -4.2858    103.9520     -1.1376       90.08
         4        -5.7109     -5.4731     -0.4989     -3.8943       92.85
         5         0.3697    -16.5945    -14.0390    -10.0879      153.68
         6        -3.8830     -0.8785     -3.0790     -2.6135      148.71
 1/2[<0|r|b>*<b|rxdel|0> + (<0|rxdel|b>*<b|r|0>)*]
 Rotatory Strengths (R) in cgs (10**-40 erg-esu-cm/Gauss)
       state          XX          YY          ZZ     R(length)
         1      -175.4365     -4.8416    241.6768     20.4663
         2       -38.6901      0.8284      0.5766    -12.4284
         3        49.3075    259.1579   -336.2220     -9.2522
         4       -97.2761     -4.0956     87.4658     -4.6353
         5       -31.9557      0.1340     -3.3570    -11.7262
         6         2.0499     -2.4505     -2.5032     -0.9679
  1/2[<0|del|b>*<b|r|0> + (<0|r|b>*<b|del|0>)*] (Au)
       state          X           Y           Z        Dip. S.   Osc.(frdel)
         1        -0.1910     -0.0218     -0.0153      0.2280      0.1520
         2        -0.0006     -0.0001     -0.0000      0.0007      0.0004
         3        -0.1729     -0.0102     -0.0042      0.1873      0.1249
         4        -0.0483     -0.0000     -0.0195      0.0679      0.0453
         5        -0.0004     -0.0000      0.0000      0.0004      0.0003
         6         0.0000     -0.0000     -0.0000      0.0000      0.0000

 Excitation energies and oscillator strengths:
 
 Excited state symmetry could not be determined.
 Excited State   1:      Singlet-?Sym    3.1630 eV  391.99 nm  f=0.1557  <S**2>=0.000
     103 ->105         0.47112
     104 ->105         0.51146
 This state for optimization and/or second-order correction.
 Total Energy, E(TD-HF/TD-DFT) =  -1266.55447034    
 Copying the excited state density for this state as the 1-particle RhoCI density.
 
 Excited state symmetry could not be determined.
 Excited State   2:      Singlet-?Sym    3.3168 eV  373.81 nm  f=0.0005  <S**2>=0.000
     102 ->105         0.63045
     102 ->107         0.25847
 
 Excited state symmetry could not be determined.
 Excited State   3:      Singlet-?Sym    3.4273 eV  361.76 nm  f=0.1298  <S**2>=0.000
     103 ->105         0.15369
     103 ->106        -0.28783
     104 ->105        -0.18754
     104 ->106         0.58873
 
 Excited state symmetry could not be determined.
 Excited State   4:      Singlet-?Sym    3.9181 eV  316.44 nm  f=0.0463  <S**2>=0.000
     103 ->105         0.48987
     103 ->106         0.13339
     104 ->105        -0.44292
     104 ->106        -0.20225
 
 Excited state symmetry could not be determined.
 Excited State   5:      Singlet-?Sym    4.0873 eV  303.34 nm  f=0.0003  <S**2>=0.000
      98 ->108        -0.11426
     101 ->105        -0.13618
     101 ->106         0.55487
     101 ->107         0.15139
     101 ->108         0.30642
 
 Excited state symmetry could not be determined.
 Excited State   6:      Singlet-?Sym    4.1961 eV  295.47 nm  f=0.0001  <S**2>=0.000
      98 ->105         0.29392
      98 ->107        -0.23459
      99 ->105         0.40030
      99 ->106         0.11165
      99 ->107        -0.32656
     100 ->105         0.12108
 SavETr:  write IOETrn=   770 NScale= 10 NData=  16 NLR=1 NState=    6 LETran=     118.
 Leave Link  914 at Sun Feb  8 13:46:12 2026, MaxMem=  2147483648 cpu:           27857.5 elap:             874.1
 (Enter /data/home/wyx/g16/l601.exe)
 Copying SCF densities to generalized density rwf, IOpCl= 0 IROHF=0.

 **********************************************************************

            Population analysis using the SCF density.

 **********************************************************************

 Alpha  occ. eigenvalues --  -19.18023 -19.17899 -19.17536 -19.16356 -14.44796
 Alpha  occ. eigenvalues --  -14.44147 -10.33496 -10.33442 -10.33426 -10.33190
 Alpha  occ. eigenvalues --  -10.32912 -10.32510 -10.32062 -10.31560 -10.25646
 Alpha  occ. eigenvalues --  -10.25469 -10.25370 -10.25291 -10.25232 -10.25147
 Alpha  occ. eigenvalues --  -10.25022 -10.24530 -10.24464 -10.24177 -10.23981
 Alpha  occ. eigenvalues --  -10.23948 -10.23911 -10.23852  -1.12129  -1.11764
 Alpha  occ. eigenvalues --   -1.11665  -1.08356  -1.07488  -1.07410  -0.91569
 Alpha  occ. eigenvalues --   -0.91260  -0.90727  -0.90323  -0.84005  -0.83847
 Alpha  occ. eigenvalues --   -0.82504  -0.82430  -0.81530  -0.81293  -0.78823
 Alpha  occ. eigenvalues --   -0.78440  -0.74465  -0.74202  -0.71707  -0.71132
 Alpha  occ. eigenvalues --   -0.69401  -0.68537  -0.62177  -0.61727  -0.58472
 Alpha  occ. eigenvalues --   -0.58188  -0.57003  -0.56897  -0.56771  -0.54836
 Alpha  occ. eigenvalues --   -0.54633  -0.54204  -0.53945  -0.53528  -0.53274
 Alpha  occ. eigenvalues --   -0.52411  -0.52245  -0.52033  -0.50372  -0.50198
 Alpha  occ. eigenvalues --   -0.49965  -0.49618  -0.49533  -0.49471  -0.49174
 Alpha  occ. eigenvalues --   -0.48973  -0.48555  -0.48271  -0.47873  -0.47358
 Alpha  occ. eigenvalues --   -0.46662  -0.46484  -0.45871  -0.45523  -0.44833
 Alpha  occ. eigenvalues --   -0.44431  -0.44194  -0.43433  -0.43056  -0.43010
 Alpha  occ. eigenvalues --   -0.42887  -0.42152  -0.41907  -0.41801  -0.41499
 Alpha  occ. eigenvalues --   -0.40263  -0.33942  -0.32545  -0.32308  -0.31963
 Alpha  occ. eigenvalues --   -0.31444  -0.30509  -0.26804  -0.25640
 Alpha virt. eigenvalues --   -0.04063  -0.02419   0.01355   0.02675   0.05779
 Alpha virt. eigenvalues --    0.06866   0.08269   0.08840   0.09591   0.09954
 Alpha virt. eigenvalues --    0.10102   0.10886   0.11165   0.11571   0.12033
 Alpha virt. eigenvalues --    0.12508   0.12849   0.13034   0.13696   0.14302
 Alpha virt. eigenvalues --    0.14557   0.15278   0.15454   0.15601   0.15965
 Alpha virt. eigenvalues --    0.16582   0.16765   0.17297   0.17498   0.17620
 Alpha virt. eigenvalues --    0.17972   0.18106   0.18440   0.18897   0.19164
 Alpha virt. eigenvalues --    0.19502   0.19729   0.20325   0.20592   0.20761
 Alpha virt. eigenvalues --    0.21526   0.21713   0.22285   0.22561   0.23295
 Alpha virt. eigenvalues --    0.23440   0.24238   0.24704   0.25159   0.25228
 Alpha virt. eigenvalues --    0.25931   0.26287   0.26296   0.26703   0.27203
 Alpha virt. eigenvalues --    0.27574   0.27726   0.27924   0.28704   0.29103
 Alpha virt. eigenvalues --    0.29276   0.30121   0.30407   0.30721   0.31357
 Alpha virt. eigenvalues --    0.31500   0.31560   0.32236   0.33187   0.33346
 Alpha virt. eigenvalues --    0.33676   0.34257   0.34610   0.34909   0.35217
 Alpha virt. eigenvalues --    0.35842   0.36150   0.36385   0.36514   0.37176
 Alpha virt. eigenvalues --    0.37630   0.38007   0.38624   0.39345   0.39677
 Alpha virt. eigenvalues --    0.39895   0.40586   0.40818   0.41619   0.42011
 Alpha virt. eigenvalues --    0.42806   0.42901   0.43370   0.44311   0.45083
 Alpha virt. eigenvalues --    0.45246   0.45420   0.45863   0.45958   0.46122
 Alpha virt. eigenvalues --    0.46451   0.46781   0.47050   0.47700   0.47925
 Alpha virt. eigenvalues --    0.48171   0.48290   0.48571   0.49018   0.49279
 Alpha virt. eigenvalues --    0.49497   0.49770   0.50063   0.50509   0.51027
 Alpha virt. eigenvalues --    0.51256   0.51283   0.51870   0.51933   0.52229
 Alpha virt. eigenvalues --    0.52765   0.53188   0.53303   0.54021   0.54339
 Alpha virt. eigenvalues --    0.54866   0.55084   0.55531   0.55679   0.56043
 Alpha virt. eigenvalues --    0.56635   0.57033   0.57085   0.57629   0.57897
 Alpha virt. eigenvalues --    0.58191   0.58400   0.59312   0.59654   0.59882
 Alpha virt. eigenvalues --    0.60407   0.60586   0.60997   0.61446   0.62008
 Alpha virt. eigenvalues --    0.62363   0.62534   0.63337   0.63527   0.63784
 Alpha virt. eigenvalues --    0.64370   0.65356   0.65641   0.66413   0.66773
 Alpha virt. eigenvalues --    0.66925   0.67327   0.67628   0.68185   0.68765
 Alpha virt. eigenvalues --    0.68862   0.70216   0.70545   0.71244   0.71559
 Alpha virt. eigenvalues --    0.72112   0.72794   0.73045   0.73805   0.74445
 Alpha virt. eigenvalues --    0.74862   0.75148   0.75548   0.76122   0.76438
 Alpha virt. eigenvalues --    0.76980   0.77412   0.78187   0.78557   0.78740
 Alpha virt. eigenvalues --    0.79611   0.79721   0.80312   0.81126   0.81899
 Alpha virt. eigenvalues --    0.82267   0.82724   0.83715   0.83925   0.84425
 Alpha virt. eigenvalues --    0.85258   0.85834   0.89317   0.90267   0.90706
 Alpha virt. eigenvalues --    0.91276   0.91731   0.92791   0.95273   0.96207
 Alpha virt. eigenvalues --    0.96797   0.99971   1.00727   1.02345   1.04837
 Alpha virt. eigenvalues --    1.05640   1.06869   1.08726   1.19998   1.22939
 Alpha virt. eigenvalues --    1.24525   1.25364   1.25521   1.26776   1.28554
 Alpha virt. eigenvalues --    1.30971   1.31650   1.32215   1.33483   1.34265
 Alpha virt. eigenvalues --    1.34674   1.35565   1.36312   1.36679   1.37464
 Alpha virt. eigenvalues --    1.37854   1.38108   1.38179   1.38539   1.39259
 Alpha virt. eigenvalues --    1.39707   1.40036   1.40571   1.40940   1.41032
 Alpha virt. eigenvalues --    1.41341   1.41858   1.42191   1.42508   1.42773
 Alpha virt. eigenvalues --    1.43019   1.43449   1.43842   1.44052   1.44455
 Alpha virt. eigenvalues --    1.45102   1.45449   1.46305   1.46529   1.46752
 Alpha virt. eigenvalues --    1.47495   1.47921   1.48457   1.48523   1.49233
 Alpha virt. eigenvalues --    1.49709   1.49892   1.50287   1.51113   1.51583
 Alpha virt. eigenvalues --    1.52417   1.52919   1.53458   1.53960   1.54893
 Alpha virt. eigenvalues --    1.55541   1.56221   1.56466   1.57318   1.58172
 Alpha virt. eigenvalues --    1.58583   1.58848   1.59057   1.60065   1.60200
 Alpha virt. eigenvalues --    1.60555   1.61212   1.61494   1.61818   1.61916
 Alpha virt. eigenvalues --    1.62583   1.62975   1.63469   1.63663   1.64346
 Alpha virt. eigenvalues --    1.64429   1.64717   1.65111   1.65205   1.65928
 Alpha virt. eigenvalues --    1.66080   1.66414   1.66742   1.67620   1.67916
 Alpha virt. eigenvalues --    1.68182   1.68537   1.68836   1.69119   1.69443
 Alpha virt. eigenvalues --    1.69642   1.70144   1.70279   1.71085   1.71364
 Alpha virt. eigenvalues --    1.71744   1.72437   1.72871   1.73567   1.73947
 Alpha virt. eigenvalues --    1.74179   1.74932   1.75208   1.75428   1.76220
 Alpha virt. eigenvalues --    1.77041   1.77742   1.78531   1.79692   1.80754
 Alpha virt. eigenvalues --    1.80865   1.82171   1.82580   1.82691   1.83821
 Alpha virt. eigenvalues --    1.84552   1.84663   1.85085   1.85678   1.86456
 Alpha virt. eigenvalues --    1.87203   1.87511   1.88289   1.88366   1.89309
 Alpha virt. eigenvalues --    1.90000   1.90672   1.91681   1.91897   1.92194
 Alpha virt. eigenvalues --    1.93120   1.93880   1.94247   1.94731   1.95004
 Alpha virt. eigenvalues --    1.96025   1.96192   1.96923   1.98530   1.99116
 Alpha virt. eigenvalues --    1.99439   2.00330   2.01444   2.02004   2.02917
 Alpha virt. eigenvalues --    2.03578   2.04462   2.05149   2.06139   2.06877
 Alpha virt. eigenvalues --    2.07531   2.07913   2.08488   2.08950   2.10761
 Alpha virt. eigenvalues --    2.11481   2.12712   2.12928   2.13986   2.14449
 Alpha virt. eigenvalues --    2.15798   2.16060   2.16456   2.17894   2.18383
 Alpha virt. eigenvalues --    2.19746   2.20375   2.20714   2.22227   2.22675
 Alpha virt. eigenvalues --    2.23308   2.23492   2.24634   2.25224   2.25597
 Alpha virt. eigenvalues --    2.26733   2.27649   2.28050   2.28496   2.29157
 Alpha virt. eigenvalues --    2.29923   2.30723   2.31082   2.31504   2.32088
 Alpha virt. eigenvalues --    2.32866   2.33412   2.34449   2.34714   2.35389
 Alpha virt. eigenvalues --    2.35683   2.36590   2.37843   2.38284   2.38774
 Alpha virt. eigenvalues --    2.39987   2.40765   2.41464   2.41679   2.42193
 Alpha virt. eigenvalues --    2.42477   2.43429   2.43507   2.44032   2.45683
 Alpha virt. eigenvalues --    2.45809   2.46837   2.47466   2.48015   2.48882
 Alpha virt. eigenvalues --    2.49372   2.49971   2.50620   2.51446   2.51609
 Alpha virt. eigenvalues --    2.52619   2.52809   2.53993   2.54798   2.55134
 Alpha virt. eigenvalues --    2.56229   2.56555   2.57056   2.57474   2.57954
 Alpha virt. eigenvalues --    2.58658   2.59014   2.59933   2.60858   2.61545
 Alpha virt. eigenvalues --    2.61835   2.62478   2.62731   2.63962   2.64257
 Alpha virt. eigenvalues --    2.65024   2.65684   2.66535   2.66838   2.67316
 Alpha virt. eigenvalues --    2.67844   2.68289   2.69252   2.69831   2.70951
 Alpha virt. eigenvalues --    2.71282   2.71909   2.72617   2.74187   2.74622
 Alpha virt. eigenvalues --    2.75032   2.75114   2.75397   2.76510   2.77320
 Alpha virt. eigenvalues --    2.78158   2.78417   2.79259   2.79498   2.80146
 Alpha virt. eigenvalues --    2.80317   2.80649   2.80866   2.81412   2.81922
 Alpha virt. eigenvalues --    2.83494   2.83908   2.84179   2.84305   2.85032
 Alpha virt. eigenvalues --    2.85318   2.85887   2.86980   2.87882   2.88189
 Alpha virt. eigenvalues --    2.88688   2.89120   2.89785   2.91023   2.91775
 Alpha virt. eigenvalues --    2.92294   2.93038   2.93325   2.94214   2.95205
 Alpha virt. eigenvalues --    2.95759   2.96902   2.97062   2.98525   3.00493
 Alpha virt. eigenvalues --    3.00996   3.01624   3.02537   3.02860   3.03232
 Alpha virt. eigenvalues --    3.04965   3.09685   3.09801   3.12809   3.14130
 Alpha virt. eigenvalues --    3.14288   3.15485   3.16739   3.18113   3.18841
 Alpha virt. eigenvalues --    3.19731   3.22000   3.23626   3.24056   3.24362
 Alpha virt. eigenvalues --    3.25174   3.25742   3.26391   3.27405   3.28021
 Alpha virt. eigenvalues --    3.28626   3.29368   3.29776   3.30895   3.32224
 Alpha virt. eigenvalues --    3.32978   3.33430   3.34013   3.36051   3.36369
 Alpha virt. eigenvalues --    3.37306   3.38162   3.39331   3.39640   3.40400
 Alpha virt. eigenvalues --    3.41017   3.41301   3.41564   3.41656   3.42173
 Alpha virt. eigenvalues --    3.42765   3.42911   3.43417   3.43698   3.43719
 Alpha virt. eigenvalues --    3.44678   3.44835   3.46058   3.47320   3.48255
 Alpha virt. eigenvalues --    3.49723   3.51184   3.51921   3.52344   3.52997
 Alpha virt. eigenvalues --    3.56096   3.56469   3.57239   3.57624   3.58623
 Alpha virt. eigenvalues --    3.59095   3.60137   3.63467   3.63806   3.66422
 Alpha virt. eigenvalues --    3.66470   3.67301   3.94503   3.95766   4.01502
 Alpha virt. eigenvalues --    4.02749   4.29228   4.37604   4.38395   4.38834
 Alpha virt. eigenvalues --   21.76279  21.89083  21.98065  22.08057  22.11358
 Alpha virt. eigenvalues --   22.14942  22.16935  22.18721  22.19278  22.20001
 Alpha virt. eigenvalues --   22.20749  22.22797  22.23518  22.25825  22.31183
 Alpha virt. eigenvalues --   22.32141  22.35151  22.37218  22.39135  22.41169
 Alpha virt. eigenvalues --   22.42215  22.43559  32.03158  32.07894  43.71693
 Alpha virt. eigenvalues --   43.74890  43.78452  43.79619
          Condensed to atoms (all electrons):
 Mulliken charges:
               1
     1  O   -0.375822
     2  O   -0.369048
     3  O   -0.446179
     4  O   -0.379939
     5  N   -0.204435
     6  N   -0.229081
     7  H    0.298834
     8  H    0.288265
     9  C   -0.133794
    10  C   -0.073972
    11  C    0.172912
    12  C    0.181524
    13  C    0.308060
    14  C    0.195227
    15  C    0.226138
    16  C    0.103788
    17  C   -0.345484
    18  C   -0.237850
    19  H    0.168971
    20  H    0.165950
    21  H    0.184024
    22  H    0.144179
    23  C   -0.049578
    24  C   -0.065092
    25  C    0.097770
    26  C    0.099418
    27  C   -0.525177
    28  C   -0.430728
    29  H    0.156873
    30  H    0.134828
    31  H    0.199254
    32  H    0.173147
    33  H    0.170612
    34  H    0.166771
    35  C   -0.468112
    36  C   -0.414526
    37  H    0.167724
    38  H    0.154899
    39  H    0.154848
    40  H    0.149481
    41  H    0.167307
    42  H    0.159502
    43  C   -0.476539
    44  C   -0.469222
    45  H    0.165805
    46  H    0.165405
    47  H    0.168199
    48  H    0.170376
    49  H    0.161742
    50  H    0.160472
    51  C   -0.468701
    52  C   -0.479815
    53  H    0.184548
    54  H    0.180571
    55  H    0.188925
    56  H    0.192776
    57  H    0.157318
    58  H    0.156652
 Sum of Mulliken charges =  -0.00000
 Mulliken charges with hydrogens summed into heavy atoms:
               1
     1  O   -0.375822
     2  O   -0.369048
     3  O   -0.446179
     4  O   -0.379939
     5  N    0.094399
     6  N    0.059184
     9  C   -0.133794
    10  C   -0.073972
    11  C    0.172912
    12  C    0.181524
    13  C    0.308060
    14  C    0.195227
    15  C    0.226138
    16  C    0.103788
    17  C    0.007511
    18  C    0.072279
    23  C   -0.049578
    24  C   -0.065092
    25  C    0.097770
    26  C    0.099418
    27  C    0.001562
    28  C    0.044018
    35  C    0.021767
    36  C    0.049356
    43  C    0.019207
    44  C    0.027030
    51  C    0.062090
    52  C    0.050184
 Electronic spatial extent (au):  <R**2>=          33087.1312
 Charge=              0.0000 electrons
 Dipole moment (field-independent basis, Debye):
    X=              3.3798    Y=             -0.4468    Z=              0.7160  Tot=              3.4835
 Quadrupole moment (field-independent basis, Debye-Ang):
   XX=           -242.9599   YY=           -153.8558   ZZ=           -167.4346
   XY=              7.5591   XZ=             -9.6345   YZ=             29.5956
 Traceless Quadrupole moment (field-independent basis, Debye-Ang):
   XX=            -54.8765   YY=             34.2276   ZZ=             20.6488
   XY=              7.5591   XZ=             -9.6345   YZ=             29.5956
 Octapole moment (field-independent basis, Debye-Ang**2):
  XXX=           3472.1911  YYY=          -1208.2320  ZZZ=           -583.1390  XYY=            739.6392
  XXY=           -624.0936  XXZ=           -145.2199  XZZ=            829.9583  YZZ=           -379.9064
  YYZ=            -33.2663  XYZ=           -158.8112
 Hexadecapole moment (field-independent basis, Debye-Ang**3):
 XXXX=         -40491.3149 YYYY=          -9158.7651 ZZZZ=          -4751.4498 XXXY=           8956.3691
 XXXZ=           2554.5885 YYYX=           5723.9686 YYYZ=           -623.6790 ZZZX=           2604.7157
 ZZZY=          -1201.3054 XXYY=          -6571.6068 XXZZ=          -5890.5780 YYZZ=          -2064.8517
 XXYZ=            550.5854 YYXZ=            -16.4799 ZZXY=           1998.7465
 N-N= 2.970879588204D+03 E-N=-8.893297503329D+03  KE= 1.261308770333D+03
 Leave Link  601 at Sun Feb  8 13:46:15 2026, MaxMem=  2147483648 cpu:               4.9 elap:               0.3
 (Enter /data/home/wyx/g16/l9999.exe)
 Electronic transition elements 
                 1             2             3             4             5 
      1  -0.126655D+04 -0.126655D+04 -0.126654D+04 -0.126653D+04 -0.126652D+04
      2  -0.129743D+01  0.722149D-01  0.119771D+01 -0.586538D+00  0.538203D-01
      3   0.436911D+00 -0.236056D-01  0.276827D+00 -0.214595D-01 -0.411931D-02
      4  -0.366833D+00 -0.161471D-01  0.186580D+00  0.370589D+00  0.131710D-01
      5   0.147211D+00 -0.804915D-02 -0.144324D+00  0.824326D-01 -0.781617D-02
      6  -0.497981D-01  0.269766D-02 -0.368209D-01  0.231524D-02  0.515305D-03
      7   0.416032D-01  0.800027D-03 -0.226645D-01 -0.526695D-01  0.307332D-03
      8  -0.191211D+00  0.757622D+00 -0.582156D-01 -0.234525D+00  0.839616D+00
      9   0.156701D-01  0.496257D-01 -0.132384D+01 -0.269882D+00  0.459904D-01
     10   0.931635D+00  0.504998D-01  0.254824D+01 -0.333752D+00  0.360419D+00
     11  -0.262129D+01  0.142602D+00  0.274161D+01 -0.142984D+01  0.149399D+00
     12  -0.736926D+00  0.338212D-01 -0.113914D+00 -0.548213D-01  0.171093D-01
     13   0.270694D-01 -0.124261D-01 -0.331614D+00 -0.270105D+00 -0.475638D-01
     14   0.167557D+01 -0.106885D+00  0.149435D+00  0.335015D+00 -0.302586D-01
     15  -0.562488D+00 -0.440597D-02 -0.660533D+00  0.705873D+00 -0.618862D-01
     16   0.432593D+00  0.217697D-01 -0.307912D+00 -0.219815D+00  0.776484D-01
                 6 
      1  -0.126652D+04
      2   0.100106D-01
      3  -0.387537D-02
      4  -0.203470D-01
      5   0.640067D-03
      6   0.143596D-02
      7   0.138174D-02
      8  -0.289568D+00
      9  -0.894164D+00
     10  -0.173973D+00
     11  -0.406393D-01
     12   0.129503D-01
     13   0.169878D-01
     14  -0.326461D-01
     15   0.863457D-01
     16  -0.393733D-02
 1\1\GINC-CN006\SP\RCAM-B3LYP TD-FC\TZVP\C22H30N2O4\WYX\08-Feb-2026\0\\
 #p CAM-B3LYP/TZVP em=gd3bj TD=NStates=6 SCRF=(Solvent=Water) Geom=Chec
 k Guess=Read NoSymm\\Title Card Required\\0,1\O,0,-1.8619119703,4.1815
 209196,0.1755649578\O,0,-2.3411907131,1.0780477288,3.307877361\O,0,-8.
 0112848442,4.2435913163,-1.209364379\O,0,-8.5163757722,1.0573702145,2.
 1834472241\N,0,-5.2379184538,1.0843354811,-0.6715567849\N,0,-5.7690308
 874,4.1974593855,2.8108941307\H,0,-5.5451246995,0.1292967408,-0.754694
 2673\H,0,-6.0695895998,5.1552510208,2.7404445974\C,0,-5.8287327206,3.3
 842642232,-0.7831508463\C,0,-6.3709569725,1.9229822942,2.7113105284\C,
 0,-3.9271270287,1.2979297908,-0.3843713553\C,0,-4.4289563448,3.9699849
 762,3.0312012301\C,0,-6.19478588,2.068940384,-0.8901918873\C,0,-6.7236
 939065,3.2261960016,2.6282026181\C,0,-6.7491031113,4.4334887496,-0.939
 0827242\C,0,-7.3467782772,0.8579603061,2.5012378893\C,0,-4.3980192832,
 3.7539307155,-0.4686782482\C,0,-4.9438211133,1.5331040754,3.015257295\
 H,0,-4.3645323026,4.3597530293,0.437502696\H,0,-4.8936468647,0.9412056
 661,3.9346584821\H,0,-3.9983747754,4.4021892407,-1.2535533232\H,0,-4.5
 665232991,0.8632265498,2.2406887802\C,0,-3.4635564509,2.5781158235,-0.
 2921762014\C,0,-3.9858988194,2.6964231413,3.1357018537\C,0,-2.10541784
 66,2.9804329961,0.014707669\C,0,-2.5980650835,2.280969897,3.328583984\
 C,0,-7.5458582897,1.5267090734,-1.1937843687\C,0,-8.0856555135,3.77012
 89247,2.3413251577\H,0,-7.5215412554,0.8734784889,-2.0707616299\H,0,-8
 .0970393323,4.8526460459,2.4662181868\H,0,-8.2551591624,2.3287924152,-
 1.4046355895\H,0,-8.3842106371,3.535622954,1.3211654464\H,0,-7.9432585
 292,0.9538820266,-0.3519478548\H,0,-8.8298924181,3.3253867207,2.996132
 7142\C,0,-6.4503753978,5.9031968813,-0.790315165\C,0,-6.8674900492,-0.
 561120587,2.6827064463\H,0,-6.7170485738,6.4445727679,-1.7007400443\H,
 0,-7.6994675108,-1.2421869118,2.5258420573\H,0,-5.3924767892,6.0420091
 783,-0.5892032528\H,0,-6.0710924244,-0.7937406336,1.9739953177\H,0,-7.
 0313997745,6.3294041736,0.0315880756\H,0,-6.45449211,-0.7109603128,3.6
 814506859\C,0,-0.9523240704,2.0133148394,0.1371406766\C,0,-1.462278008
 7,3.2441634192,3.5566565297\H,0,-0.8585457943,1.3770851694,-0.74087183
 34\H,0,-1.3149620169,3.89325822,2.6946741308\H,0,-1.0652295253,1.36858
 9706,1.0078806072\H,0,-1.6394155498,3.8742742968,4.4269382573\H,0,-0.0
 419899213,2.5963054689,0.2519576494\H,0,-0.5592022519,2.6614044854,3.7
 190826815\C,0,-3.1543114913,0.02786098,-0.1771222295\C,0,-3.6290652503
 ,5.2377831318,3.0877146131\H,0,-2.6711026284,0.0150629083,0.7968958675
 \H,0,-3.113506042,5.3489711046,4.0378935609\H,0,-2.3904117488,-0.10783
 37984,-0.9397509669\H,0,-2.8908215192,5.2631425466,2.2883784433\H,0,-3
 .8232578684,-0.8297427387,-0.2240858941\H,0,-4.2816082249,6.1000930478
 ,2.9641204436\\Version=ES64L-G16RevA.03\HF=-1266.6707068\RMSD=3.166e-0
 9\PG=C01 [X(C22H30N2O4)]\\@


 THERE'S NOTHING WRONG WITH FOLLOWING A TRAIN OF THOUGHT...
 AS LONG AS IT ULTIMATELY PULLS INTO THE STATION.
 Job cpu time:       0 days  8 hours  4 minutes 46.9 seconds.
 Elapsed time:       0 days  0 hours 15 minutes 14.4 seconds.
 File lengths (MBytes):  RWF=   2841 Int=      0 D2E=      0 Chk=    164 Scr=      1
 Normal termination of Gaussian 16 at Sun Feb  8 13:46:20 2026.
