 Entering Gaussian System, Link 0=g16
 Input=DDL-DDL-S0min-S2-cLR.gjf
 Output=DDL-DDL-S0min-S2-cLR.log
 Initial command:
 /data/home/wyx/g16/l1.exe "/scr/tmp/wyx/13078/Gau-1937212.inp" -scrdir="/scr/tmp/wyx/13078/"
 Entering Link 1 = /data/home/wyx/g16/l1.exe PID=   1937213.
  
 Copyright (c) 1988,1990,1992,1993,1995,1998,2003,2009,2016,
            Gaussian, Inc.  All Rights Reserved.
  
 This is part of the Gaussian(R) 16 program.  It is based on
 the Gaussian(R) 09 system (copyright 2009, Gaussian, Inc.),
 the Gaussian(R) 03 system (copyright 2003, Gaussian, Inc.),
 the Gaussian(R) 98 system (copyright 1998, Gaussian, Inc.),
 the Gaussian(R) 94 system (copyright 1995, Gaussian, Inc.),
 the Gaussian 92(TM) system (copyright 1992, Gaussian, Inc.),
 the Gaussian 90(TM) system (copyright 1990, Gaussian, Inc.),
 the Gaussian 88(TM) system (copyright 1988, Gaussian, Inc.),
 the Gaussian 86(TM) system (copyright 1986, Carnegie Mellon
 University), and the Gaussian 82(TM) system (copyright 1983,
 Carnegie Mellon University). Gaussian is a federally registered
 trademark of Gaussian, Inc.
  
 This software contains proprietary and confidential information,
 including trade secrets, belonging to Gaussian, Inc.
  
 This software is provided under written license and may be
 used, copied, transmitted, or stored only in accord with that
 written license.
  
 The following legend is applicable only to US Government
 contracts under FAR:
  
                    RESTRICTED RIGHTS LEGEND
  
 Use, reproduction and disclosure by the US Government is
 subject to restrictions as set forth in subparagraphs (a)
 and (c) of the Commercial Computer Software - Restricted
 Rights clause in FAR 52.227-19.
  
 Gaussian, Inc.
 340 Quinnipiac St., Bldg. 40, Wallingford CT 06492
  
  
 ---------------------------------------------------------------
 Warning -- This program may not be used in any manner that
 competes with the business of Gaussian, Inc. or will provide
 assistance to any competitor of Gaussian, Inc.  The licensee
 of this program is prohibited from giving any competitor of
 Gaussian, Inc. access to this program.  By using this program,
 the user acknowledges that Gaussian, Inc. is engaged in the
 business of creating and licensing software in the field of
 computational chemistry and represents and warrants to the
 licensee that it is not a competitor of Gaussian, Inc. and that
 it will not use this program in any manner prohibited above.
 ---------------------------------------------------------------
  

 Cite this work as:
 Gaussian 16, Revision A.03,
 M. J. Frisch, G. W. Trucks, H. B. Schlegel, G. E. Scuseria, 
 M. A. Robb, J. R. Cheeseman, G. Scalmani, V. Barone, 
 G. A. Petersson, H. Nakatsuji, X. Li, M. Caricato, A. V. Marenich, 
 J. Bloino, B. G. Janesko, R. Gomperts, B. Mennucci, H. P. Hratchian, 
 J. V. Ortiz, A. F. Izmaylov, J. L. Sonnenberg, D. Williams-Young, 
 F. Ding, F. Lipparini, F. Egidi, J. Goings, B. Peng, A. Petrone, 
 T. Henderson, D. Ranasinghe, V. G. Zakrzewski, J. Gao, N. Rega, 
 G. Zheng, W. Liang, M. Hada, M. Ehara, K. Toyota, R. Fukuda, 
 J. Hasegawa, M. Ishida, T. Nakajima, Y. Honda, O. Kitao, H. Nakai, 
 T. Vreven, K. Throssell, J. A. Montgomery, Jr., J. E. Peralta, 
 F. Ogliaro, M. J. Bearpark, J. J. Heyd, E. N. Brothers, K. N. Kudin, 
 V. N. Staroverov, T. A. Keith, R. Kobayashi, J. Normand, 
 K. Raghavachari, A. P. Rendell, J. C. Burant, S. S. Iyengar, 
 J. Tomasi, M. Cossi, J. M. Millam, M. Klene, C. Adamo, R. Cammi, 
 J. W. Ochterski, R. L. Martin, K. Morokuma, O. Farkas, 
 J. B. Foresman, and D. J. Fox, Gaussian, Inc., Wallingford CT, 2016.
 
 ******************************************
 Gaussian 16:  ES64L-G16RevA.03 25-Dec-2016
                22-Jan-2026 
 ******************************************
 %nprocshared=32
 Will use up to   32 processors via shared memory.
 %mem=16GB
 %oldchk=DDL-DDL-S0-opt-freq.chk
 %chk=DDL-DDL-S0min-S2-cLR.chk
 Copying data from "DDL-DDL-S0-opt-freq.chk" to current chk file "DDL-DDL-S0min-S2-cLR.chk"
 IOpt=  2 FromEx=T IUOpen= 4 IOptOp= 5 NList=   0 IFRang= 0 IUIn= 4 IUOut= 2.
 ----------------------------------------------------------------------
 #p CAM-B3LYP/TZVP em=gd3bj TD=(NStates=6,Root=2) SCRF=(Solvent=Water,C
 orrectedLR) Geom=Check Guess=Read
 ----------------------------------------------------------------------
 1/29=2,30=1,38=1,172=1/1;
 2/12=2,40=1/2;
 3/5=19,7=101,11=9,14=-4,25=1,30=1,70=2201,71=1,72=1,74=-40,116=-2,124=41/1,2,3,8;
 4/5=1/1;
 5/5=2,38=6,53=1/2;
 8/6=1,10=1,107=2,108=6/1;
 9/8=2,15=1,41=6,42=1,70=2,73=21/14;
 10/5=4,13=10,28=2,74=10/2;
 6/7=2,8=2,9=2,10=2,22=-1/1;
 99/5=1,9=1/99;
 Leave Link    1 at Thu Jan 22 20:26:51 2026, MaxMem=  2147483648 cpu:               1.9 elap:               0.1
 (Enter /data/home/wyx/g16/l101.exe)
 -------------------
 Title Card Required
 -------------------
 Structure from the checkpoint file:  "DDL-DDL-S0min-S2-cLR.chk"
 Charge =  0 Multiplicity = 1
 Redundant internal coordinates found in file.  (old form).
 O,0,-1.7969550178,4.1907943091,0.1694242807
 O,0,-2.337746604,1.1004923771,3.2158130728
 O,0,-7.9655407418,4.3847922166,-0.9653334272
 O,0,-8.5179637352,0.8981289916,2.1480460863
 N,0,-5.2453330621,1.1669380007,-0.6593028104
 N,0,-5.8638940573,4.1196732297,2.8003918715
 H,0,-5.5690751968,0.2171440516,-0.7369738739
 H,0,-6.1958510098,5.0690105781,2.7616087928
 C,0,-5.7916556053,3.4562036093,-0.7515557188
 C,0,-6.4054516008,1.8296646223,2.6987990774
 C,0,-3.911214333,1.3594018725,-0.3815141581
 C,0,-4.5157636211,3.9290313437,3.0010479048
 C,0,-6.1766735116,2.1623512789,-0.8367811392
 C,0,-6.7978810288,3.1229854803,2.6453302764
 C,0,-6.7501836322,4.5487441457,-0.9019275195
 C,0,-7.3554833629,0.7358213378,2.5089840661
 C,0,-4.345337512,3.8096200597,-0.4953025173
 C,0,-4.9592271724,1.4782042452,2.9582934359
 H,0,-4.2669131936,4.4502159157,0.384859421
 H,0,-4.8687099918,0.8661149159,3.860759422
 H,0,-3.949271988,4.4219495362,-1.3110784406
 H,0,-4.5805244177,0.8380407272,2.1595606848
 C,0,-3.4314511005,2.6213293751,-0.2995118892
 C,0,-4.0355729618,2.6677479135,3.0902403218
 C,0,-2.0523628074,2.9990092052,0.0030933052
 C,0,-2.6363693002,2.2919534141,3.2828722706
 C,0,-7.5528226588,1.6462668223,-1.1067663033
 C,0,-8.1832258065,3.6372196628,2.4230323118
 H,0,-7.5097475927,0.6011859816,-1.413579216
 H,0,-8.2503890586,4.6820305772,2.7264148682
 H,0,-8.0482205285,2.2302713847,-1.8752641277
 H,0,-8.4447305893,3.5725345739,1.3669735453
 H,0,-8.1635292991,1.7112482816,-0.2064220454
 H,0,-8.9130019783,3.0518497685,2.9724027162
 C,0,-6.1937026295,5.9491535799,-0.967876124
 C,0,-6.8544284837,-0.6638326775,2.7640907571
 H,0,-7.0097549088,6.6507504783,-1.1178697332
 H,0,-7.6711242432,-1.3665145604,2.6229353597
 H,0,-5.4713255813,6.047003472,-1.7796720296
 H,0,-6.0413757801,-0.9132113952,2.0800088625
 H,0,-5.6678051205,6.1991643036,-0.044753549
 H,0,-6.457338245,-0.7606393012,3.7757116557
 C,0,-0.9202632306,2.010384292,0.1093164033
 C,0,-1.538510269,3.2821712359,3.573538045
 H,0,-0.8705196804,1.3509041617,-0.7546135562
 H,0,-1.3334648571,3.9038229448,2.7021724916
 H,0,-1.0264039333,1.3908050988,0.9996618228
 H,0,-1.7899922285,3.9395722046,4.4032503558
 H,0,0.0068355252,2.5727945068,0.1849394627
 H,0,-0.6408288981,2.7210525689,3.8202060998
 C,0,-3.1687659807,0.0700975663,-0.1871745129
 C,0,-3.7534581212,5.2192988893,3.0746451601
 H,0,-2.6401257802,0.0575494213,0.7620474667
 H,0,-3.3507295724,5.3882545966,4.0714178228
 H,0,-2.4493368885,-0.0998419055,-0.985888656
 H,0,-2.9320535732,5.2339161129,2.363405541
 H,0,-3.8642579733,-0.7672559386,-0.1872091062
 H,0,-4.4081021688,6.0561551995,2.8380754158
 Recover connectivity data from disk.
 ITRead=  0  0  0  0  0  0  0  0  0  0  0  0  0  0  0  0  0  0  0  0
 ITRead=  0  0  0  0  0  0  0  0  0  0  0  0  0  0  0  0  0  0  0  0
 ITRead=  0  0  0  0  0  0  0  0  0  0  0  0  0  0  0  0  0  0
 MicOpt= -1 -1 -1 -1 -1 -1 -1 -1 -1 -1 -1 -1 -1 -1 -1 -1 -1 -1 -1 -1
 MicOpt= -1 -1 -1 -1 -1 -1 -1 -1 -1 -1 -1 -1 -1 -1 -1 -1 -1 -1 -1 -1
 MicOpt= -1 -1 -1 -1 -1 -1 -1 -1 -1 -1 -1 -1 -1 -1 -1 -1 -1 -1
                           ----------------------------
                           !    Current Parameters    !
                           ! (Angstroms and Degrees)  !
 --------------------------                            --------------------------
 ! Name  Definition              Value                                          !
 --------------------------------------------------------------------------------
 ! R1    R(1,25)                 1.2301                                         !
 ! R2    R(2,26)                 1.2301                                         !
 ! R3    R(3,15)                 1.228                                          !
 ! R4    R(4,16)                 1.228                                          !
 ! R5    R(5,7)                  1.0065                                         !
 ! R6    R(5,11)                 1.3763                                         !
 ! R7    R(5,13)                 1.3747                                         !
 ! R8    R(6,8)                  1.0064                                         !
 ! R9    R(6,12)                 1.3762                                         !
 ! R10   R(6,14)                 1.3747                                         !
 ! R11   R(9,13)                 1.3526                                         !
 ! R12   R(9,15)                 1.4612                                         !
 ! R13   R(9,17)                 1.5108                                         !
 ! R14   R(10,14)                1.3526                                         !
 ! R15   R(10,16)                1.4612                                         !
 ! R16   R(10,18)                1.5108                                         !
 ! R17   R(11,23)                1.3525                                         !
 ! R18   R(11,51)                1.5004                                         !
 ! R19   R(12,24)                1.3525                                         !
 ! R20   R(12,52)                1.5004                                         !
 ! R21   R(13,27)                1.4943                                         !
 ! R22   R(14,28)                1.4943                                         !
 ! R23   R(15,35)                1.5084                                         !
 ! R24   R(16,36)                1.5084                                         !
 ! R25   R(17,19)                1.0914                                         !
 ! R26   R(17,21)                1.0942                                         !
 ! R27   R(17,23)                1.5118                                         !
 ! R28   R(18,20)                1.0942                                         !
 ! R29   R(18,22)                1.0914                                         !
 ! R30   R(18,24)                1.5118                                         !
 ! R31   R(19,56)                2.5121                                         !
 ! R32   R(23,25)                1.4615                                         !
 ! R33   R(24,26)                1.4615                                         !
 ! R34   R(25,43)                1.5068                                         !
 ! R35   R(26,44)                1.5068                                         !
 ! R36   R(27,29)                1.09                                           !
 ! R37   R(27,31)                1.0849                                         !
 ! R38   R(27,33)                1.0899                                         !
 ! R39   R(28,30)                1.09                                           !
 ! R40   R(28,32)                1.0899                                         !
 ! R41   R(28,34)                1.0849                                         !
 ! R42   R(32,33)                2.4534                                         !
 ! R43   R(35,37)                1.0866                                         !
 ! R44   R(35,39)                1.0911                                         !
 ! R45   R(35,41)                1.0914                                         !
 ! R46   R(36,38)                1.0866                                         !
 ! R47   R(36,40)                1.0914                                         !
 ! R48   R(36,42)                1.0911                                         !
 ! R49   R(43,45)                1.088                                          !
 ! R50   R(43,47)                1.0899                                         !
 ! R51   R(43,49)                1.087                                          !
 ! R52   R(44,46)                1.0898                                         !
 ! R53   R(44,48)                1.088                                          !
 ! R54   R(44,50)                1.087                                          !
 ! R55   R(51,53)                1.0866                                         !
 ! R56   R(51,55)                1.0883                                         !
 ! R57   R(51,57)                1.0885                                         !
 ! R58   R(52,54)                1.0883                                         !
 ! R59   R(52,56)                1.0866                                         !
 ! R60   R(52,58)                1.0885                                         !
 ! A1    A(7,5,11)             117.3463                                         !
 ! A2    A(7,5,13)             117.0939                                         !
 ! A3    A(11,5,13)            125.5596                                         !
 ! A4    A(8,6,12)             117.3465                                         !
 ! A5    A(8,6,14)             117.0937                                         !
 ! A6    A(12,6,14)            125.5596                                         !
 ! A7    A(13,9,15)            121.4678                                         !
 ! A8    A(13,9,17)            120.4618                                         !
 ! A9    A(15,9,17)            118.0704                                         !
 ! A10   A(14,10,16)           121.4676                                         !
 ! A11   A(14,10,18)           120.4618                                         !
 ! A12   A(16,10,18)           118.0706                                         !
 ! A13   A(5,11,23)            119.1152                                         !
 ! A14   A(5,11,51)            112.6839                                         !
 ! A15   A(23,11,51)           128.1956                                         !
 ! A16   A(6,12,24)            119.115                                          !
 ! A17   A(6,12,52)            112.6876                                         !
 ! A18   A(24,12,52)           128.1919                                         !
 ! A19   A(5,13,9)             119.4503                                         !
 ! A20   A(5,13,27)            113.401                                          !
 ! A21   A(9,13,27)            127.1482                                         !
 ! A22   A(6,14,10)            119.4507                                         !
 ! A23   A(6,14,28)            113.3999                                         !
 ! A24   A(10,14,28)           127.1489                                         !
 ! A25   A(3,15,9)             123.692                                          !
 ! A26   A(3,15,35)            119.1323                                         !
 ! A27   A(9,15,35)            117.1731                                         !
 ! A28   A(4,16,10)            123.6917                                         !
 ! A29   A(4,16,36)            119.1316                                         !
 ! A30   A(10,16,36)           117.174                                          !
 ! A31   A(9,17,19)            110.0525                                         !
 ! A32   A(9,17,21)            110.5471                                         !
 ! A33   A(9,17,23)            114.6332                                         !
 ! A34   A(19,17,21)           104.2861                                         !
 ! A35   A(19,17,23)           108.2679                                         !
 ! A36   A(21,17,23)           108.5179                                         !
 ! A37   A(10,18,20)           110.5478                                         !
 ! A38   A(10,18,22)           110.0541                                         !
 ! A39   A(10,18,24)           114.6329                                         !
 ! A40   A(20,18,22)           104.2869                                         !
 ! A41   A(20,18,24)           108.5193                                         !
 ! A42   A(22,18,24)           108.2638                                         !
 ! A43   A(17,19,56)           148.9194                                         !
 ! A44   A(11,23,17)           120.7354                                         !
 ! A45   A(11,23,25)           126.0404                                         !
 ! A46   A(17,23,25)           113.2097                                         !
 ! A47   A(12,24,18)           120.7359                                         !
 ! A48   A(12,24,26)           126.04                                           !
 ! A49   A(18,24,26)           113.2094                                         !
 ! A50   A(1,25,23)            118.3113                                         !
 ! A51   A(1,25,43)            118.0433                                         !
 ! A52   A(23,25,43)           123.6424                                         !
 ! A53   A(2,26,24)            118.3107                                         !
 ! A54   A(2,26,44)            118.0446                                         !
 ! A55   A(24,26,44)           123.6416                                         !
 ! A56   A(13,27,29)           110.2172                                         !
 ! A57   A(13,27,31)           111.2587                                         !
 ! A58   A(13,27,33)           110.2543                                         !
 ! A59   A(29,27,31)           109.5577                                         !
 ! A60   A(29,27,33)           108.1697                                         !
 ! A61   A(31,27,33)           107.2897                                         !
 ! A62   A(14,28,30)           110.2162                                         !
 ! A63   A(14,28,32)           110.2527                                         !
 ! A64   A(14,28,34)           111.2598                                         !
 ! A65   A(30,28,32)           108.1672                                         !
 ! A66   A(30,28,34)           109.5595                                         !
 ! A67   A(32,28,34)           107.2919                                         !
 ! A68   A(28,32,33)           129.7133                                         !
 ! A69   A(27,33,32)           129.7366                                         !
 ! A70   A(15,35,37)           109.1738                                         !
 ! A71   A(15,35,39)           111.1038                                         !
 ! A72   A(15,35,41)           110.6989                                         !
 ! A73   A(37,35,39)           109.6714                                         !
 ! A74   A(37,35,41)           109.3125                                         !
 ! A75   A(39,35,41)           106.8423                                         !
 ! A76   A(16,36,38)           109.1736                                         !
 ! A77   A(16,36,40)           110.7                                            !
 ! A78   A(16,36,42)           111.1028                                         !
 ! A79   A(38,36,40)           109.3129                                         !
 ! A80   A(38,36,42)           109.6709                                         !
 ! A81   A(40,36,42)           106.8427                                         !
 ! A82   A(25,43,45)           112.0908                                         !
 ! A83   A(25,43,47)           110.9415                                         !
 ! A84   A(25,43,49)           107.8336                                         !
 ! A85   A(45,43,47)           107.9716                                         !
 ! A86   A(45,43,49)           109.2606                                         !
 ! A87   A(47,43,49)           108.6848                                         !
 ! A88   A(26,44,46)           110.9595                                         !
 ! A89   A(26,44,48)           112.072                                          !
 ! A90   A(26,44,50)           107.8339                                         !
 ! A91   A(46,44,48)           107.9715                                         !
 ! A92   A(46,44,50)           108.6938                                         !
 ! A93   A(48,44,50)           109.2524                                         !
 ! A94   A(11,51,53)           111.3346                                         !
 ! A95   A(11,51,55)           111.4831                                         !
 ! A96   A(11,51,57)           110.1728                                         !
 ! A97   A(53,51,55)           108.5249                                         !
 ! A98   A(53,51,57)           107.5777                                         !
 ! A99   A(55,51,57)           107.5915                                         !
 ! A100  A(12,52,54)           111.4969                                         !
 ! A101  A(12,52,56)           111.3158                                         !
 ! A102  A(12,52,58)           110.1762                                         !
 ! A103  A(54,52,56)           108.5229                                         !
 ! A104  A(54,52,58)           107.5939                                         !
 ! A105  A(56,52,58)           107.5791                                         !
 ! A106  A(19,56,52)            96.2949                                         !
 ! D1    D(7,5,11,23)          178.5067                                         !
 ! D2    D(7,5,11,51)           -2.2546                                         !
 ! D3    D(13,5,11,23)          -1.6743                                         !
 ! D4    D(13,5,11,51)         177.5644                                         !
 ! D5    D(7,5,13,9)          -179.5628                                         !
 ! D6    D(7,5,13,27)            0.6859                                         !
 ! D7    D(11,5,13,9)            0.6177                                         !
 ! D8    D(11,5,13,27)        -179.1335                                         !
 ! D9    D(8,6,12,24)          178.4765                                         !
 ! D10   D(8,6,12,52)           -2.3058                                         !
 ! D11   D(14,6,12,24)          -1.6631                                         !
 ! D12   D(14,6,12,52)         177.5546                                         !
 ! D13   D(8,6,14,10)         -179.5305                                         !
 ! D14   D(8,6,14,28)            0.7128                                         !
 ! D15   D(12,6,14,10)           0.6088                                         !
 ! D16   D(12,6,14,28)        -179.1479                                         !
 ! D17   D(15,9,13,5)         -178.5651                                         !
 ! D18   D(15,9,13,27)           1.1485                                         !
 ! D19   D(17,9,13,5)            1.4056                                         !
 ! D20   D(17,9,13,27)        -178.8808                                         !
 ! D21   D(13,9,15,3)            8.2859                                         !
 ! D22   D(13,9,15,35)        -172.3038                                         !
 ! D23   D(17,9,15,3)         -171.6855                                         !
 ! D24   D(17,9,15,35)           7.7248                                         !
 ! D25   D(13,9,17,19)        -124.5216                                         !
 ! D26   D(13,9,17,21)         120.8112                                         !
 ! D27   D(13,9,17,23)          -2.2138                                         !
 ! D28   D(15,9,17,19)          55.4501                                         !
 ! D29   D(15,9,17,21)         -59.2171                                         !
 ! D30   D(15,9,17,23)         177.7579                                         !
 ! D31   D(16,10,14,6)        -178.5677                                         !
 ! D32   D(16,10,14,28)          1.1521                                         !
 ! D33   D(18,10,14,6)           1.4045                                         !
 ! D34   D(18,10,14,28)       -178.8757                                         !
 ! D35   D(14,10,16,4)           8.3086                                         !
 ! D36   D(14,10,16,36)       -172.2816                                         !
 ! D37   D(18,10,16,4)        -171.6643                                         !
 ! D38   D(18,10,16,36)          7.7455                                         !
 ! D39   D(14,10,18,20)        120.8209                                         !
 ! D40   D(14,10,18,22)       -124.5094                                         !
 ! D41   D(14,10,18,24)         -2.2062                                         !
 ! D42   D(16,10,18,20)        -59.2059                                         !
 ! D43   D(16,10,18,22)         55.4637                                         !
 ! D44   D(16,10,18,24)        177.767                                          !
 ! D45   D(5,11,23,17)           0.6171                                         !
 ! D46   D(5,11,23,25)         179.1397                                         !
 ! D47   D(51,11,23,17)       -178.4892                                         !
 ! D48   D(51,11,23,25)          0.0335                                         !
 ! D49   D(5,11,51,53)        -126.0726                                         !
 ! D50   D(5,11,51,55)         112.5765                                         !
 ! D51   D(5,11,51,57)          -6.8043                                         !
 ! D52   D(23,11,51,53)         53.0811                                         !
 ! D53   D(23,11,51,55)        -68.2698                                         !
 ! D54   D(23,11,51,57)        172.3494                                         !
 ! D55   D(6,12,24,18)           0.6139                                         !
 ! D56   D(6,12,24,26)         179.1238                                         !
 ! D57   D(52,12,24,18)       -178.4678                                         !
 ! D58   D(52,12,24,26)          0.0421                                         !
 ! D59   D(6,12,52,54)         112.8393                                         !
 ! D60   D(6,12,52,56)        -125.8159                                         !
 ! D61   D(6,12,52,58)          -6.5556                                         !
 ! D62   D(24,12,52,54)        -68.0302                                         !
 ! D63   D(24,12,52,56)         53.3145                                         !
 ! D64   D(24,12,52,58)        172.5748                                         !
 ! D65   D(5,13,27,29)         -17.371                                          !
 ! D66   D(5,13,27,31)        -139.1105                                         !
 ! D67   D(5,13,27,33)         101.9762                                         !
 ! D68   D(9,13,27,29)         162.9007                                         !
 ! D69   D(9,13,27,31)          41.1612                                         !
 ! D70   D(9,13,27,33)         -77.7521                                         !
 ! D71   D(6,14,28,30)         -17.4203                                         !
 ! D72   D(6,14,28,32)         101.9223                                         !
 ! D73   D(6,14,28,34)        -139.1621                                         !
 ! D74   D(10,14,28,30)        162.8456                                         !
 ! D75   D(10,14,28,32)        -77.8119                                         !
 ! D76   D(10,14,28,34)         41.1038                                         !
 ! D77   D(3,15,35,37)          -2.7383                                         !
 ! D78   D(3,15,35,39)        -123.8174                                         !
 ! D79   D(3,15,35,41)         117.639                                          !
 ! D80   D(9,15,35,37)         177.8234                                         !
 ! D81   D(9,15,35,39)          56.7444                                         !
 ! D82   D(9,15,35,41)         -61.7992                                         !
 ! D83   D(4,16,36,38)          -2.7363                                         !
 ! D84   D(4,16,36,40)         117.642                                          !
 ! D85   D(4,16,36,42)        -123.8139                                         !
 ! D86   D(10,16,36,38)        177.8259                                         !
 ! D87   D(10,16,36,40)        -61.7957                                         !
 ! D88   D(10,16,36,42)         56.7483                                         !
 ! D89   D(9,17,19,56)         150.39                                           !
 ! D90   D(21,17,19,56)        -91.0229                                         !
 ! D91   D(23,17,19,56)         24.393                                          !
 ! D92   D(9,17,23,11)           1.1859                                         !
 ! D93   D(9,17,23,25)        -177.5144                                         !
 ! D94   D(19,17,23,11)        124.4562                                         !
 ! D95   D(19,17,23,25)        -54.244                                          !
 ! D96   D(21,17,23,11)       -122.924                                          !
 ! D97   D(21,17,23,25)         58.3758                                         !
 ! D98   D(10,18,24,12)          1.1804                                         !
 ! D99   D(10,18,24,26)       -177.5086                                         !
 ! D100  D(20,18,24,12)       -122.9312                                         !
 ! D101  D(20,18,24,26)         58.3797                                         !
 ! D102  D(22,18,24,12)        124.4494                                         !
 ! D103  D(22,18,24,26)        -54.2396                                         !
 ! D104  D(17,19,56,52)       -136.4206                                         !
 ! D105  D(11,23,25,1)        -173.1006                                         !
 ! D106  D(11,23,25,43)          7.5475                                         !
 ! D107  D(17,23,25,1)           5.5178                                         !
 ! D108  D(17,23,25,43)       -173.8342                                         !
 ! D109  D(12,24,26,2)        -173.1233                                         !
 ! D110  D(12,24,26,44)          7.5241                                         !
 ! D111  D(18,24,26,2)           5.4831                                         !
 ! D112  D(18,24,26,44)       -173.8695                                         !
 ! D113  D(1,25,43,45)        -128.429                                          !
 ! D114  D(1,25,43,47)         110.7828                                         !
 ! D115  D(1,25,43,49)          -8.1281                                         !
 ! D116  D(23,25,43,45)         50.9245                                         !
 ! D117  D(23,25,43,47)        -69.8636                                         !
 ! D118  D(23,25,43,49)        171.2255                                         !
 ! D119  D(2,26,44,46)         110.9752                                         !
 ! D120  D(2,26,44,48)        -128.237                                          !
 ! D121  D(2,26,44,50)          -7.9574                                         !
 ! D122  D(24,26,44,46)        -69.6706                                         !
 ! D123  D(24,26,44,48)         51.1172                                         !
 ! D124  D(24,26,44,50)        171.3967                                         !
 ! D125  D(13,27,33,32)         46.8248                                         !
 ! D126  D(29,27,33,32)        167.4083                                         !
 ! D127  D(31,27,33,32)        -74.4825                                         !
 ! D128  D(14,28,32,33)         46.9007                                         !
 ! D129  D(30,28,32,33)        167.4805                                         !
 ! D130  D(34,28,32,33)        -74.4082                                         !
 ! D131  D(28,32,33,27)       -116.1933                                         !
 ! D132  D(12,52,56,19)         48.2387                                         !
 ! D133  D(54,52,56,19)        171.3032                                         !
 ! D134  D(58,52,56,19)        -72.5582                                         !
 --------------------------------------------------------------------------------
 NAtoms=     58 NQM=       58 NQMF=       0 NMMI=      0 NMMIF=      0
                NMic=       0 NMicF=      0.
                    Isotopes and Nuclear Properties:
 (Nuclear quadrupole moments (NQMom) in fm**2, nuclear magnetic moments (NMagM)
  in nuclear magnetons)

  Atom         1           2           3           4           5           6           7           8           9          10
 IAtWgt=          16          16          16          16          14          14           1           1          12          12
 AtmWgt=  15.9949146  15.9949146  15.9949146  15.9949146  14.0030740  14.0030740   1.0078250   1.0078250  12.0000000  12.0000000
 NucSpn=           0           0           0           0           2           2           1           1           0           0
 AtZEff=   5.6000000   5.6000000   5.6000000   5.6000000   4.5500000   4.5500000   1.0000000   1.0000000   3.6000000   3.6000000
 NQMom=    0.0000000   0.0000000   0.0000000   0.0000000   2.0440000   2.0440000   0.0000000   0.0000000   0.0000000   0.0000000
 NMagM=    0.0000000   0.0000000   0.0000000   0.0000000   0.4037610   0.4037610   2.7928460   2.7928460   0.0000000   0.0000000
 AtZNuc=   8.0000000   8.0000000   8.0000000   8.0000000   7.0000000   7.0000000   1.0000000   1.0000000   6.0000000   6.0000000

  Atom        11          12          13          14          15          16          17          18          19          20
 IAtWgt=          12          12          12          12          12          12          12          12           1           1
 AtmWgt=  12.0000000  12.0000000  12.0000000  12.0000000  12.0000000  12.0000000  12.0000000  12.0000000   1.0078250   1.0078250
 NucSpn=           0           0           0           0           0           0           0           0           1           1
 AtZEff=   3.6000000   3.6000000   3.6000000   3.6000000   3.6000000   3.6000000   3.6000000   3.6000000   1.0000000   1.0000000
 NQMom=    0.0000000   0.0000000   0.0000000   0.0000000   0.0000000   0.0000000   0.0000000   0.0000000   0.0000000   0.0000000
 NMagM=    0.0000000   0.0000000   0.0000000   0.0000000   0.0000000   0.0000000   0.0000000   0.0000000   2.7928460   2.7928460
 AtZNuc=   6.0000000   6.0000000   6.0000000   6.0000000   6.0000000   6.0000000   6.0000000   6.0000000   1.0000000   1.0000000

  Atom        21          22          23          24          25          26          27          28          29          30
 IAtWgt=           1           1          12          12          12          12          12          12           1           1
 AtmWgt=   1.0078250   1.0078250  12.0000000  12.0000000  12.0000000  12.0000000  12.0000000  12.0000000   1.0078250   1.0078250
 NucSpn=           1           1           0           0           0           0           0           0           1           1
 AtZEff=   1.0000000   1.0000000   3.6000000   3.6000000   3.6000000   3.6000000   3.6000000   3.6000000   1.0000000   1.0000000
 NQMom=    0.0000000   0.0000000   0.0000000   0.0000000   0.0000000   0.0000000   0.0000000   0.0000000   0.0000000   0.0000000
 NMagM=    2.7928460   2.7928460   0.0000000   0.0000000   0.0000000   0.0000000   0.0000000   0.0000000   2.7928460   2.7928460
 AtZNuc=   1.0000000   1.0000000   6.0000000   6.0000000   6.0000000   6.0000000   6.0000000   6.0000000   1.0000000   1.0000000

  Atom        31          32          33          34          35          36          37          38          39          40
 IAtWgt=           1           1           1           1          12          12           1           1           1           1
 AtmWgt=   1.0078250   1.0078250   1.0078250   1.0078250  12.0000000  12.0000000   1.0078250   1.0078250   1.0078250   1.0078250
 NucSpn=           1           1           1           1           0           0           1           1           1           1
 AtZEff=   1.0000000   1.0000000   1.0000000   1.0000000   3.6000000   3.6000000   1.0000000   1.0000000   1.0000000   1.0000000
 NQMom=    0.0000000   0.0000000   0.0000000   0.0000000   0.0000000   0.0000000   0.0000000   0.0000000   0.0000000   0.0000000
 NMagM=    2.7928460   2.7928460   2.7928460   2.7928460   0.0000000   0.0000000   2.7928460   2.7928460   2.7928460   2.7928460
 AtZNuc=   1.0000000   1.0000000   1.0000000   1.0000000   6.0000000   6.0000000   1.0000000   1.0000000   1.0000000   1.0000000

  Atom        41          42          43          44          45          46          47          48          49          50
 IAtWgt=           1           1          12          12           1           1           1           1           1           1
 AtmWgt=   1.0078250   1.0078250  12.0000000  12.0000000   1.0078250   1.0078250   1.0078250   1.0078250   1.0078250   1.0078250
 NucSpn=           1           1           0           0           1           1           1           1           1           1
 AtZEff=   1.0000000   1.0000000   3.6000000   3.6000000   1.0000000   1.0000000   1.0000000   1.0000000   1.0000000   1.0000000
 NQMom=    0.0000000   0.0000000   0.0000000   0.0000000   0.0000000   0.0000000   0.0000000   0.0000000   0.0000000   0.0000000
 NMagM=    2.7928460   2.7928460   0.0000000   0.0000000   2.7928460   2.7928460   2.7928460   2.7928460   2.7928460   2.7928460
 AtZNuc=   1.0000000   1.0000000   6.0000000   6.0000000   1.0000000   1.0000000   1.0000000   1.0000000   1.0000000   1.0000000

  Atom        51          52          53          54          55          56          57          58
 IAtWgt=          12          12           1           1           1           1           1           1
 AtmWgt=  12.0000000  12.0000000   1.0078250   1.0078250   1.0078250   1.0078250   1.0078250   1.0078250
 NucSpn=           0           0           1           1           1           1           1           1
 AtZEff=   3.6000000   3.6000000   1.0000000   1.0000000   1.0000000   1.0000000   1.0000000   1.0000000
 NQMom=    0.0000000   0.0000000   0.0000000   0.0000000   0.0000000   0.0000000   0.0000000   0.0000000
 NMagM=    0.0000000   0.0000000   2.7928460   2.7928460   2.7928460   2.7928460   2.7928460   2.7928460
 AtZNuc=   6.0000000   6.0000000   1.0000000   1.0000000   1.0000000   1.0000000   1.0000000   1.0000000
 Leave Link  101 at Thu Jan 22 20:26:54 2026, MaxMem=  2147483648 cpu:               6.3 elap:               0.2
 (Enter /data/home/wyx/g16/l202.exe)
 Stoichiometry    C22H30N2O4
 Framework group  C1[X(C22H30N2O4)]
 Deg. of freedom   168
 Full point group                 C1      NOp   1
 RotChk:  IX=3 Diff= 4.52D-15
 Largest Abelian subgroup         C1      NOp   1
 Largest concise Abelian subgroup C1      NOp   1
                         Standard orientation:                         
 ---------------------------------------------------------------------
 Center     Atomic      Atomic             Coordinates (Angstroms)
 Number     Number       Type             X           Y           Z
 ---------------------------------------------------------------------
      1          8           0       -2.925279    2.180403   -0.162902
      2          8           0       -2.925820   -2.180421    0.162856
      3          8           0        3.346592    2.335279   -0.291002
      4          8           0        3.345998   -2.335530    0.290949
      5          7           0        0.617022    0.369780    2.265174
      6          7           0        0.616505   -0.369767   -2.265148
      7          1           0        0.949995   -0.234483    2.997940
      8          1           0        0.949492    0.234106   -2.998223
      9          6           0        1.169555    1.858766    0.525823
     10          6           0        1.168988   -1.858918   -0.525913
     11          6           0       -0.745272    0.464967    2.094366
     12          6           0       -0.745787   -0.464930   -2.094368
     13          6           0        1.564404    1.027679    1.517259
     14          6           0        1.563861   -1.027827   -1.517327
     15          6           0        2.138878    2.556150   -0.316258
     16          6           0        2.138306   -2.556510    0.316031
     17          6           0       -0.299519    2.089864    0.259702
     18          6           0       -0.300101   -2.089840   -0.259682
     19          1           0       -0.531703    1.860906   -0.781868
     20          1           0       -0.547286   -3.150608   -0.364379
     21          1           0       -0.546579    3.150655    0.364529
     22          1           0       -0.532240   -1.860716    0.781861
     23          6           0       -1.232807    1.290220    1.140099
     24          6           0       -1.233352   -1.290152   -1.140081
     25          6           0       -2.643851    1.493613    0.818102
     26          6           0       -2.644394   -1.493268   -0.817894
     27          6           0        2.966917    0.710084    1.923598
     28          6           0        2.966378   -0.710461   -1.923847
     29          1           0        2.979073    0.263432    2.917850
     30          1           0        2.978539   -0.264621   -2.918463
     31          1           0        3.589184    1.598797    1.917055
     32          1           0        3.409308    0.001006   -1.227100
     33          1           0        3.409989   -0.000711    1.226272
     34          1           0        3.588727   -1.599093   -1.916510
     35          6           0        1.601708    3.592322   -1.271749
     36          6           0        1.601156   -3.593038    1.271148
     37          1           0        2.430959    4.053434   -1.801273
     38          1           0        2.430409   -4.054216    1.800613
     39          1           0        1.033045    4.358005   -0.741872
     40          1           0        0.921028   -3.137056    1.992757
     41          1           0        0.921716    3.136018   -1.993293
     42          1           0        1.032657   -4.358631    0.740955
     43          6           0       -3.776364    0.919977    1.629686
     44          6           0       -3.776884   -0.918906   -1.628997
     45          1           0       -3.673195    1.141515    2.689893
     46          1           0       -3.826136    0.164109   -1.517525
     47          1           0       -3.827814   -0.162728    1.515833
     48          1           0       -3.675440   -1.143032   -2.688864
     49          1           0       -4.702705    1.353270    1.261329
     50          1           0       -4.703564   -1.349758   -1.258643
     51          6           0       -1.509466   -0.422210    3.032571
     52          6           0       -1.510016    0.422575   -3.032241
     53          1           0       -2.196569   -1.068825    2.493666
     54          1           0       -2.081633   -0.157905   -3.753759
     55          1           0       -2.077348    0.158714    3.756753
     56          1           0       -2.193771    1.072066   -2.492406
     57          1           0       -0.824226   -1.060456    3.587511
     58          1           0       -0.824551    1.057929   -3.590197
 ---------------------------------------------------------------------
 Rotational constants (GHZ):           0.2286805           0.1762202           0.1567906
 Leave Link  202 at Thu Jan 22 20:26:54 2026, MaxMem=  2147483648 cpu:               0.1 elap:               0.0
 (Enter /data/home/wyx/g16/l301.exe)
 Standard basis: TZVP (5D, 7F)
 Ernie: Thresh=  0.10000D-02 Tol=  0.10000D-05 Strict=F.
 There are   740 symmetry adapted cartesian basis functions of A   symmetry.
 There are   712 symmetry adapted basis functions of A   symmetry.
   712 basis functions,  1220 primitive gaussians,   740 cartesian basis functions
   104 alpha electrons      104 beta electrons
       nuclear repulsion energy      2973.2108032490 Hartrees.
 IExCor=20419 DFT=T Ex+Corr=CAM-B3LYP ExCW=0 ScaHFX=  1.000000
 ScaDFX=  1.000000  1.000000  1.000000  0.810000 ScalE2=  1.000000  1.000000
 IRadAn=      5 IRanWt=     -1 IRanGd=            0 ICorTp=0 IEmpDi=141
 HFx  wShort=  0.000000 wLong=  0.330000 cFull=  0.190000 cShort=  0.000000 cLong=  0.460000
 DFx  wShort=  0.000000 wLong=  0.330000 cFull=  0.190000 cShort=  0.000000 cLong=  0.460000
 NAtoms=   58 NActive=   58 NUniq=   58 SFac= 1.00D+00 NAtFMM=   60 NAOKFM=F Big=F
 Integral buffers will be    131072 words long.
 Raffenetti 1 integral format.
 Two-electron integral symmetry is turned on.
 R6Disp:  Grimme-D3(BJ) Dispersion energy=       -0.0745663082 Hartrees.
 Nuclear repulsion after empirical dispersion term =     2973.1362369409 Hartrees.
 ------------------------------------------------------------------------------
 Polarizable Continuum Model (PCM)
 =================================
 Model                : PCM.
 Atomic radii         : UFF (Universal Force Field).
 Polarization charges : Total charges.
 Charge compensation  : None.
 Solution method      : On-the-fly selection.
 Cavity type          : Scaled VdW (van der Waals Surface) (Alpha=1.100).
 Cavity algorithm     : GePol (No added spheres)
                        Default sphere list used, NSphG=   58.
                        Lebedev-Laikov grids with approx.  5.0 points / Ang**2.
                        Smoothing algorithm: York/Karplus (Gamma=1.0000).
                        Polarization charges: spherical gaussians, with
                                              point-specific exponents (IZeta= 3).
                        Self-potential: point-specific (ISelfS= 7).
                        Self-field    : sphere-specific E.n sum rule (ISelfD= 2).
 1st derivatives      : Analytical E(r).r(x)/FMM algorithm (CHGder, D1EAlg=3).
                        Cavity 1st derivative terms included.
 Solvent              : Water, Eps=  78.355300 Eps(inf)=   1.777849
 ------------------------------------------------------------------------------
 GePol: Number of generator spheres                  =      58
 GePol: Total number of spheres                      =      58
 GePol: Number of exposed spheres                    =      58 (100.00%)
 GePol: Number of points                             =    3389
 GePol: Average weight of points                     =       0.12
 GePol: Minimum weight of points                     =   0.11D-11
 GePol: Maximum weight of points                     =    0.20577
 GePol: Number of points with low weight             =     309
 GePol: Fraction of low-weight points (<1% of avg)   =       9.12%
 GePol: Cavity surface area                          =    419.181 Ang**2
 GePol: Cavity volume                                =    545.935 Ang**3
 Leave Link  301 at Thu Jan 22 20:26:54 2026, MaxMem=  2147483648 cpu:               1.2 elap:               0.0
 (Enter /data/home/wyx/g16/l302.exe)
 NPDir=0 NMtPBC=     1 NCelOv=     1 NCel=       1 NClECP=     1 NCelD=      1
         NCelK=      1 NCelE2=     1 NClLst=     1 CellRange=     0.0.
 One-electron integrals computed using PRISM.
 One-electron integral symmetry used in STVInt
 NBasis=   712 RedAO= T EigKep=  1.91D-05  NBF=   712
 NBsUse=   712 1.00D-06 EigRej= -1.00D+00 NBFU=   712
 Precomputing XC quadrature grid using
 IXCGrd= 4 IRadAn=           5 IRanWt=          -1 IRanGd=           0 AccXCQ= 0.00D+00.
 Generated NRdTot=       0 NPtTot=           0 NUsed=           0 NTot=          32
 NSgBfM=   718   717   718   718   718 MxSgAt=    58 MxSgA2=    58.
 Leave Link  302 at Thu Jan 22 20:26:55 2026, MaxMem=  2147483648 cpu:              21.0 elap:               0.7
 (Enter /data/home/wyx/g16/l303.exe)
 DipDrv:  MaxL=1.
 Leave Link  303 at Thu Jan 22 20:26:56 2026, MaxMem=  2147483648 cpu:               3.1 elap:               0.1
 (Enter /data/home/wyx/g16/l308.exe)
 Leave Link  308 at Thu Jan 22 20:26:56 2026, MaxMem=  2147483648 cpu:               4.1 elap:               0.2
 (Enter /data/home/wyx/g16/l401.exe)
 Initial guess from the checkpoint file:  "DDL-DDL-S0min-S2-cLR.chk"
 B after Tr=     0.000000    0.000000    0.000000
         Rot=    1.000000    0.000000    0.000000    0.000000 Ang=   0.00 deg.
 Guess basis will be translated and rotated to current coordinates.
 JPrj=2 DoOrth=T DoCkMO=T.
 Leave Link  401 at Thu Jan 22 20:26:57 2026, MaxMem=  2147483648 cpu:              18.4 elap:               0.6
 (Enter /data/home/wyx/g16/l502.exe)
 Integral symmetry usage will be decided dynamically.
 Closed shell SCF:
 Using DIIS extrapolation, IDIIS=  1040.
 NGot=  2147483648 LenX=  2146357274 LenY=  2145808934
 Requested convergence on RMS density matrix=1.00D-08 within 128 cycles.
 Requested convergence on MAX density matrix=1.00D-06.
 Requested convergence on             energy=1.00D-06.
 No special actions if energy rises.
 Fock matrices will be formed incrementally for  20 cycles.

 Cycle   1  Pass 1  IDiag  1:
 FoFJK:  IHMeth= 1 ICntrl=       0 DoSepK=T KAlg= 0 I1Cent=           0 FoldK=F
 IRaf=         1 NMat=       1 IRICut=       1 DoRegI=T DoRafI=F ISym2E= 0 IDoP0=0 IntGTp=1.
 FoFCou: FMM=F IPFlag=           0 FMFlag=      100000 FMFlg1=           0
         NFxFlg=           0 DoJE=T BraDBF=F KetDBF=F FulRan=T
         wScrn=  0.000000 ICntrl=       500 IOpCl=  0 I1Cent=           0 NGrid=           0
         NMat0=    1 NMatS0=      1 NMatT0=    0 NMatD0=    1 NMtDS0=    0 NMtDT0=    0
 Symmetry not used in FoFCou.
 Inv3:  Mode=1 IEnd=    34455963.
 Iteration    1 A*A^-1 deviation from unit magnitude is 3.22D-15 for     88.
 Iteration    1 A*A^-1 deviation from orthogonality  is 2.28D-15 for   3314   2296.
 Iteration    1 A^-1*A deviation from unit magnitude is 3.22D-15 for     88.
 Iteration    1 A^-1*A deviation from orthogonality  is 4.00D-15 for   2497   1536.
 E= -1266.68754911055    
 DIIS: error= 1.42D-08 at cycle   1 NSaved=   1.
 NSaved= 1 IEnMin= 1 EnMin= -1266.68754911055     IErMin= 1 ErrMin= 1.42D-08
 ErrMax= 1.42D-08  0.00D+00 EMaxC= 1.00D-01 BMatC= 1.54D-13 BMatP= 1.54D-13
 IDIUse=1 WtCom= 1.00D+00 WtEn= 0.00D+00
 Coeff-Com:  0.100D+01
 Coeff:      0.100D+01
 Gap=     0.229 Goal=   None    Shift=    0.000
 RMSDP=2.76D-09 MaxDP=3.34D-07              OVMax= 2.24D-07

 Error on total polarization charges =  0.01923
 SCF Done:  E(RCAM-B3LYP) =  -1266.68754911     A.U. after    1 cycles
            NFock=  1  Conv=0.28D-08     -V/T= 2.0041
 KE= 1.261468984468D+03 PE=-8.898090254184D+03 EE= 3.396797483664D+03
 Leave Link  502 at Thu Jan 22 20:27:28 2026, MaxMem=  2147483648 cpu:             951.8 elap:              30.8
 (Enter /data/home/wyx/g16/l801.exe)
 DoSCS=F DFT=T ScalE2(SS,OS)=  1.000000  1.000000
 ExpMin= 9.52D-02 ExpMax= 2.70D+04 ExpMxC= 9.22D+02 IAcc=3 IRadAn=         5 AccDes= 0.00D+00
 HarFok:  IExCor=  205 AccDes= 0.00D+00 IRadAn=         5 IDoV=-2 UseB2=F ITyADJ=14
 ICtDFT= 12500011 ScaDFX=  1.000000  1.000000  1.000000  1.000000
 GSVD:  LWork=       -1008 too small for GESVD, short by        4340 words or        4340 for optimal perf.
 Largest valence mixing into a core orbital is  5.68D-05
 Largest core mixing into a valence orbital is  1.35D-05
 Range of M.O.s used for correlation:    29   712
 NBasis=   712 NAE=   104 NBE=   104 NFC=    28 NFV=     0
 NROrb=    684 NOA=    76 NOB=    76 NVA=   608 NVB=   608

 **** Warning!!: The largest alpha MO coefficient is  0.48145547D+02

 Leave Link  801 at Thu Jan 22 20:27:28 2026, MaxMem=  2147483648 cpu:               2.6 elap:               0.1
 (Enter /data/home/wyx/g16/l914.exe)
 RHF ground state
 Two-electron integrals replicated using symmetry.
 MDV=  2147483648 DFT=T DoStab=F Mixed=T DoRPA=T DoScal=F NonHer=T
 NEqPCM:  Using non-equilibrium solvation (IEInf=1, Eps=  78.3553, EpsInf=   1.7778)
 Inv3:  Mode=1 IEnd=    34455963.
 Iteration    1 A*A^-1 deviation from unit magnitude is 3.77D-15 for   1529.
 Iteration    1 A*A^-1 deviation from orthogonality  is 2.18D-15 for   2912   2654.
 Iteration    1 A^-1*A deviation from unit magnitude is 3.77D-15 for   1529.
 Iteration    1 A^-1*A deviation from orthogonality  is 1.64D-15 for   1577    837.
 Making orbital integer symmetry assigments:
 Orbital symmetries:
       Occupied  (A) (A) (A) (A) (A) (A) (A) (A) (A) (A) (A) (A)
                 (A) (A) (A) (A) (A) (A) (A) (A) (A) (A) (A) (A)
                 (A) (A) (A) (A) (A) (A) (A) (A) (A) (A) (A) (A)
                 (A) (A) (A) (A) (A) (A) (A) (A) (A) (A) (A) (A)
                 (A) (A) (A) (A) (A) (A) (A) (A) (A) (A) (A) (A)
                 (A) (A) (A) (A) (A) (A) (A) (A) (A) (A) (A) (A)
                 (A) (A) (A) (A) (A) (A) (A) (A) (A) (A) (A) (A)
                 (A) (A) (A) (A) (A) (A) (A) (A) (A) (A) (A) (A)
                 (A) (A) (A) (A) (A) (A) (A) (A)
       Virtual   (A) (A) (A) (A) (A) (A) (A) (A) (A) (A) (A) (A)
                 (A) (A) (A) (A) (A) (A) (A) (A) (A) (A) (A) (A)
                 (A) (A) (A) (A) (A) (A) (A) (A) (A) (A) (A) (A)
                 (A) (A) (A) (A) (A) (A) (A) (A) (A) (A) (A) (A)
                 (A) (A) (A) (A) (A) (A) (A) (A) (A) (A) (A) (A)
                 (A) (A) (A) (A) (A) (A) (A) (A) (A) (A) (A) (A)
                 (A) (A) (A) (A) (A) (A) (A) (A) (A) (A) (A) (A)
                 (A) (A) (A) (A) (A) (A) (A) (A) (A) (A) (A) (A)
                 (A) (A) (A) (A) (A) (A) (A) (A) (A) (A) (A) (A)
                 (A) (A) (A) (A) (A) (A) (A) (A) (A) (A) (A) (A)
                 (A) (A) (A) (A) (A) (A) (A) (A) (A) (A) (A) (A)
                 (A) (A) (A) (A) (A) (A) (A) (A) (A) (A) (A) (A)
                 (A) (A) (A) (A) (A) (A) (A) (A) (A) (A) (A) (A)
                 (A) (A) (A) (A) (A) (A) (A) (A) (A) (A) (A) (A)
                 (A) (A) (A) (A) (A) (A) (A) (A) (A) (A) (A) (A)
                 (A) (A) (A) (A) (A) (A) (A) (A) (A) (A) (A) (A)
                 (A) (A) (A) (A) (A) (A) (A) (A) (A) (A) (A) (A)
                 (A) (A) (A) (A) (A) (A) (A) (A) (A) (A) (A) (A)
                 (A) (A) (A) (A) (A) (A) (A) (A) (A) (A) (A) (A)
                 (A) (A) (A) (A) (A) (A) (A) (A) (A) (A) (A) (A)
                 (A) (A) (A) (A) (A) (A) (A) (A) (A) (A) (A) (A)
                 (A) (A) (A) (A) (A) (A) (A) (A) (A) (A) (A) (A)
                 (A) (A) (A) (A) (A) (A) (A) (A) (A) (A) (A) (A)
                 (A) (A) (A) (A) (A) (A) (A) (A) (A) (A) (A) (A)
                 (A) (A) (A) (A) (A) (A) (A) (A) (A) (A) (A) (A)
                 (A) (A) (A) (A) (A) (A) (A) (A) (A) (A) (A) (A)
                 (A) (A) (A) (A) (A) (A) (A) (A) (A) (A) (A) (A)
                 (A) (A) (A) (A) (A) (A) (A) (A) (A) (A) (A) (A)
                 (A) (A) (A) (A) (A) (A) (A) (A) (A) (A) (A) (A)
                 (A) (A) (A) (A) (A) (A) (A) (A) (A) (A) (A) (A)
                 (A) (A) (A) (A) (A) (A) (A) (A) (A) (A) (A) (A)
                 (A) (A) (A) (A) (A) (A) (A) (A) (A) (A) (A) (A)
                 (A) (A) (A) (A) (A) (A) (A) (A) (A) (A) (A) (A)
                 (A) (A) (A) (A) (A) (A) (A) (A) (A) (A) (A) (A)
                 (A) (A) (A) (A) (A) (A) (A) (A) (A) (A) (A) (A)
                 (A) (A) (A) (A) (A) (A) (A) (A) (A) (A) (A) (A)
                 (A) (A) (A) (A) (A) (A) (A) (A) (A) (A) (A) (A)
                 (A) (A) (A) (A) (A) (A) (A) (A) (A) (A) (A) (A)
                 (A) (A) (A) (A) (A) (A) (A) (A) (A) (A) (A) (A)
                 (A) (A) (A) (A) (A) (A) (A) (A) (A) (A) (A) (A)
                 (A) (A) (A) (A) (A) (A) (A) (A) (A) (A) (A) (A)
                 (A) (A) (A) (A) (A) (A) (A) (A) (A) (A) (A) (A)
                 (A) (A) (A) (A) (A) (A) (A) (A) (A) (A) (A) (A)
                 (A) (A) (A) (A) (A) (A) (A) (A) (A) (A) (A) (A)
                 (A) (A) (A) (A) (A) (A) (A) (A) (A) (A) (A) (A)
                 (A) (A) (A) (A) (A) (A) (A) (A) (A) (A) (A) (A)
                 (A) (A) (A) (A) (A) (A) (A) (A) (A) (A) (A) (A)
                 (A) (A) (A) (A) (A) (A) (A) (A) (A) (A) (A) (A)
                 (A) (A) (A) (A) (A) (A) (A) (A) (A) (A) (A) (A)
                 (A) (A) (A) (A) (A) (A) (A) (A) (A) (A) (A) (A)
                 (A) (A) (A) (A) (A) (A) (A) (A)
 PCM Corrected Linear-Response:
 Compute the excitation energies in the ground state reaction field.
    24 initial guesses have been made.
 Convergence on wavefunction:    0.000001000000000
 Davidson Disk Diagonalization:  ConvIn= 1.00D-06 SkipCon=T Conv= 1.00D-06.
 Max sub-space:  2000 roots to seek:    24 dimension of matrix:        92416
 Iteration     1 Dimension    24 NMult     0 NNew     24
 CISAX will form    24 AO SS matrices at one time.
 NMat=    24 NSing=    24 JSym2X= 0.
 FoFJK:  IHMeth= 1 ICntrl=       0 DoSepK=T KAlg= 0 I1Cent=           0 FoldK=F
 IRaf=         1 NMat=      48 IRICut=       1 DoRegI=T DoRafI=F ISym2E= 0 IDoP0=3 IntGTp=3.
 New state      1 was old state      2
 New state      2 was old state      1
 New state      5 was old state      9
 New state      6 was old state      8
 Excitation Energies [eV] at current iteration:
 Root      1 :     3.963623582964972
 Root      2 :     3.993793260813463
 Root      3 :     4.367485541202116
 Root      4 :     4.401187399309631
 Root      5 :     4.990170120378289
 Root      6 :     4.997353878805193
 Root      7 :     5.180002563709631
 Root      8 :     5.191419675332584
 Root      9 :     5.428998602362125
 Root     10 :     5.582907137546926
 Root     11 :     5.623037890726942
 Root     12 :     5.729946764132278
 Root     13 :     6.047828332067493
 Root     14 :     6.075231532919487
 Root     15 :     6.169131362906400
 Root     16 :     6.240073030468285
 Root     17 :     6.245788471152788
 Root     18 :     6.252289894070633
 Root     19 :     6.283718673372664
 Root     20 :     6.524019266827866
 Root     21 :     6.620248857481666
 Root     22 :     6.864865641177742
 Root     23 :     6.893697456453547
 Root     24 :     7.122417754066105
 Iteration     2 Dimension    36 NMult    24 NNew     12
 CISAX will form    12 AO SS matrices at one time.
 NMat=    12 NSing=    12 JSym2X= 0.
 Root      1 not converged, maximum delta is    0.069613764084543
 Root      2 not converged, maximum delta is    0.215609804750409
 New state      3 was old state      5
 Root      3 not converged, maximum delta is    0.181515713430205
 New state      4 was old state      6
 Root      4 not converged, maximum delta is    0.193524576723584
 New state      5 was old state      4
 Root      5 not converged, maximum delta is    0.172936456144088
 New state      6 was old state      3
 Root      6 not converged, maximum delta is    0.046169653803669
 Excitation Energies [eV] at current iteration:
 Root      1 :     3.477808071107721   Change is   -0.485815511857250
 Root      2 :     3.519643966669881   Change is   -0.474149294143582
 Root      3 :     4.194130595219725   Change is   -0.796039525158563
 Root      4 :     4.196209496310887   Change is   -0.801144382494306
 Root      5 :     4.293411856098996   Change is   -0.107775543210635
 Root      6 :     4.299173331853607   Change is   -0.068312209348509
 Iteration     3 Dimension    48 NMult    36 NNew     12
 CISAX will form    12 AO SS matrices at one time.
 NMat=    12 NSing=    12 JSym2X= 0.
 Root      1 not converged, maximum delta is    0.009937853516894
 Root      2 not converged, maximum delta is    0.009784166757627
 Root      3 not converged, maximum delta is    0.027011586396824
 Root      4 not converged, maximum delta is    0.028412375273070
 Root      5 not converged, maximum delta is    0.016308859557355
 Root      6 not converged, maximum delta is    0.007667964935083
 Excitation Energies [eV] at current iteration:
 Root      1 :     3.454881475052719   Change is   -0.022926596055002
 Root      2 :     3.496250600220437   Change is   -0.023393366449444
 Root      3 :     4.129541405032715   Change is   -0.064589190187011
 Root      4 :     4.131086127205302   Change is   -0.065123369105585
 Root      5 :     4.288134962771317   Change is   -0.005276893327679
 Root      6 :     4.295096464139085   Change is   -0.004076867714522
 Iteration     4 Dimension    60 NMult    48 NNew     12
 CISAX will form    12 AO SS matrices at one time.
 NMat=    12 NSing=    12 JSym2X= 0.
 Root      1 not converged, maximum delta is    0.007006636541692
 Root      2 not converged, maximum delta is    0.005418388787940
 Root      3 not converged, maximum delta is    0.023918936350680
 Root      4 not converged, maximum delta is    0.018762192405498
 Root      5 not converged, maximum delta is    0.003230092357440
 Root      6 not converged, maximum delta is    0.010176388015540
 Excitation Energies [eV] at current iteration:
 Root      1 :     3.450605284337858   Change is   -0.004276190714861
 Root      2 :     3.491434859028808   Change is   -0.004815741191630
 Root      3 :     4.120665179956521   Change is   -0.008876225076194
 Root      4 :     4.123139313307827   Change is   -0.007946813897475
 Root      5 :     4.287031286561350   Change is   -0.001103676209967
 Root      6 :     4.294438719928948   Change is   -0.000657744210138
 Iteration     5 Dimension    72 NMult    60 NNew     12
 CISAX will form    12 AO SS matrices at one time.
 NMat=    12 NSing=    12 JSym2X= 0.
 Root      1 not converged, maximum delta is    0.000605903184354
 Root      2 not converged, maximum delta is    0.001064078092595
 Root      3 not converged, maximum delta is    0.059623635926547
 Root      4 not converged, maximum delta is    0.051716164570892
 Root      5 not converged, maximum delta is    0.021245434443401
 Root      6 not converged, maximum delta is    0.147865868242589
 Excitation Energies [eV] at current iteration:
 Root      1 :     3.450401571457397   Change is   -0.000203712880461
 Root      2 :     3.491100770991079   Change is   -0.000334088037728
 Root      3 :     4.113690976825341   Change is   -0.006974203131180
 Root      4 :     4.116656934413985   Change is   -0.006482378893842
 Root      5 :     4.286700479687052   Change is   -0.000330806874297
 Root      6 :     4.289444166055167   Change is   -0.004994553873781
 Iteration     6 Dimension    84 NMult    72 NNew     12
 CISAX will form    12 AO SS matrices at one time.
 NMat=    12 NSing=    12 JSym2X= 0.
 Root      1 not converged, maximum delta is    0.000151702986745
 Root      2 not converged, maximum delta is    0.000147474028898
 Root      3 not converged, maximum delta is    0.017739529387795
 Root      4 not converged, maximum delta is    0.026925598986576
 New state      5 was old state      6
 Root      5 not converged, maximum delta is    0.218016659266705
 New state      6 was old state      5
 Root      6 not converged, maximum delta is    0.173072533080887
 Excitation Energies [eV] at current iteration:
 Root      1 :     3.450390801721821   Change is   -0.000010769735576
 Root      2 :     3.491076752184627   Change is   -0.000024018806452
 Root      3 :     4.111938914855096   Change is   -0.001752061970245
 Root      4 :     4.113918199301253   Change is   -0.002738735112732
 Root      5 :     4.274571573586919   Change is   -0.014872592468247
 Root      6 :     4.284557133402448   Change is   -0.002143346284604
 Iteration     7 Dimension    96 NMult    84 NNew     12
 CISAX will form    12 AO SS matrices at one time.
 NMat=    12 NSing=    12 JSym2X= 0.
 Root      1 not converged, maximum delta is    0.000047983586289
 Root      2 not converged, maximum delta is    0.000050028908273
 Root      3 not converged, maximum delta is    0.002082750271384
 Root      4 not converged, maximum delta is    0.002749810190375
 Root      5 not converged, maximum delta is    0.027379777890188
 Root      6 not converged, maximum delta is    0.119107161494314
 Excitation Energies [eV] at current iteration:
 Root      1 :     3.450389943906133   Change is   -0.000000857815688
 Root      2 :     3.491075103897028   Change is   -0.000001648287599
 Root      3 :     4.111742815256868   Change is   -0.000196099598228
 Root      4 :     4.113663189933435   Change is   -0.000255009367818
 Root      5 :     4.271778951536253   Change is   -0.002792622050666
 Root      6 :     4.282339626281208   Change is   -0.002217507121241
 Iteration     8 Dimension   108 NMult    96 NNew     12
 CISAX will form    12 AO SS matrices at one time.
 NMat=    12 NSing=    12 JSym2X= 0.
 Root      1 not converged, maximum delta is    0.000009278916800
 Root      2 not converged, maximum delta is    0.000019608412934
 Root      3 not converged, maximum delta is    0.000249696849688
 Root      4 not converged, maximum delta is    0.000298541346585
 Root      5 not converged, maximum delta is    0.002418274365775
 Root      6 not converged, maximum delta is    0.013438260727037
 Excitation Energies [eV] at current iteration:
 Root      1 :     3.450389892426195   Change is   -0.000000051479938
 Root      2 :     3.491074997439830   Change is   -0.000000106457198
 Root      3 :     4.111725974649296   Change is   -0.000016840607572
 Root      4 :     4.113640367086040   Change is   -0.000022822847395
 Root      5 :     4.271526244603690   Change is   -0.000252706932563
 Root      6 :     4.282060179238266   Change is   -0.000279447042941
 Iteration     9 Dimension   120 NMult   108 NNew     12
 CISAX will form    12 AO SS matrices at one time.
 NMat=    12 NSing=    12 JSym2X= 0.
 Root      1 not converged, maximum delta is    0.000001499283555
 Root      2 not converged, maximum delta is    0.000003272824908
 Root      3 not converged, maximum delta is    0.000060354322845
 Root      4 not converged, maximum delta is    0.000078459368080
 Root      5 not converged, maximum delta is    0.000224860549742
 Root      6 not converged, maximum delta is    0.000935346374354
 Excitation Energies [eV] at current iteration:
 Root      1 :     3.450389889880122   Change is   -0.000000002546072
 Root      2 :     3.491074991012593   Change is   -0.000000006427237
 Root      3 :     4.111725029132692   Change is   -0.000000945516604
 Root      4 :     4.113638826439077   Change is   -0.000001540646963
 Root      5 :     4.271511975012988   Change is   -0.000014269590702
 Root      6 :     4.282040199636657   Change is   -0.000019979601610
 Iteration    10 Dimension   132 NMult   120 NNew     12
 CISAX will form    12 AO SS matrices at one time.
 NMat=    12 NSing=    12 JSym2X= 0.
 Root      1 has converged.
 Root      2 has converged.
 Root      3 not converged, maximum delta is    0.000014912872586
 Root      4 not converged, maximum delta is    0.000014670396195
 Root      5 not converged, maximum delta is    0.000057201039444
 Root      6 not converged, maximum delta is    0.000050009890328
 Excitation Energies [eV] at current iteration:
 Root      1 :     3.450389889702860   Change is   -0.000000000177262
 Root      2 :     3.491074990632812   Change is   -0.000000000379781
 Root      3 :     4.111724973095686   Change is   -0.000000056037006
 Root      4 :     4.113638733130229   Change is   -0.000000093308848
 Root      5 :     4.271511107176156   Change is   -0.000000867836832
 Root      6 :     4.282038948180709   Change is   -0.000001251455948
 Iteration    11 Dimension   140 NMult   132 NNew      8
 CISAX will form     8 AO SS matrices at one time.
 NMat=     8 NSing=     8 JSym2X= 0.
 Root      1 has converged.
 Root      2 has converged.
 Root      3 not converged, maximum delta is    0.000003245391174
 Root      4 not converged, maximum delta is    0.000002267399530
 Root      5 not converged, maximum delta is    0.000012758153148
 Root      6 not converged, maximum delta is    0.000008294808269
 Excitation Energies [eV] at current iteration:
 Root      1 :     3.450389889701287   Change is   -0.000000000001573
 Root      2 :     3.491074990630009   Change is   -0.000000000002802
 Root      3 :     4.111724968837164   Change is   -0.000000004258522
 Root      4 :     4.113638727671723   Change is   -0.000000005458507
 Root      5 :     4.271511038266267   Change is   -0.000000068909889
 Root      6 :     4.282038875336067   Change is   -0.000000072844642
 Iteration    12 Dimension   148 NMult   140 NNew      8
 CISAX will form     8 AO SS matrices at one time.
 NMat=     8 NSing=     8 JSym2X= 0.
 Root      1 has converged.
 Root      2 has converged.
 Root      3 has converged.
 Root      4 has converged.
 Root      5 not converged, maximum delta is    0.000002968986236
 Root      6 not converged, maximum delta is    0.000002637297924
 Excitation Energies [eV] at current iteration:
 Root      1 :     3.450389889700835   Change is   -0.000000000000452
 Root      2 :     3.491074990629421   Change is   -0.000000000000588
 Root      3 :     4.111724968541761   Change is   -0.000000000295403
 Root      4 :     4.113638727295441   Change is   -0.000000000376282
 Root      5 :     4.271511033591796   Change is   -0.000000004674471
 Root      6 :     4.282038870512168   Change is   -0.000000004823898
 Iteration    13 Dimension   152 NMult   148 NNew      4
 CISAX will form     4 AO SS matrices at one time.
 NMat=     4 NSing=     4 JSym2X= 0.
 Root      1 has converged.
 Root      2 has converged.
 Root      3 has converged.
 Root      4 has converged.
 Root      5 has converged.
 Root      6 has converged.
 Excitation Energies [eV] at current iteration:
 Root      1 :     3.450389889700215   Change is   -0.000000000000619
 Root      2 :     3.491074990629115   Change is   -0.000000000000307
 Root      3 :     4.111724968528285   Change is   -0.000000000013476
 Root      4 :     4.113638727271140   Change is   -0.000000000024301
 Root      5 :     4.271511033355345   Change is   -0.000000000236451
 Root      6 :     4.282038870144733   Change is   -0.000000000367435
 Convergence achieved on expansion vectors.
 PCM Corrected Linear-Response:
 The state of interest is root number   2
 Excitation energy =    3.4911 eV, Total energy =  -1266.55925447    
 Recompute the excitation energies using the linear response reaction field.
 Convergence on wavefunction:    0.000001000000000
 Davidson Disk Diagonalization:  ConvIn= 1.00D-06 SkipCon=T Conv= 1.00D-06.
 Max sub-space:  2000 roots to seek:     6 dimension of matrix:        92416
 Iteration     1 Dimension     6 NMult     0 NNew      6
 CISAX will form     6 AO SS matrices at one time.
 NMat=     6 NSing=     6 JSym2X= 0.
 Excitation Energies [eV] at current iteration:
 Root      1 :     3.611520955860244
 Root      2 :     3.659359187714923
 Root      3 :     4.142296245105407
 Root      4 :     4.144390321417288
 Root      5 :     4.298254960917936
 Root      6 :     4.309847299269665
 Iteration     2 Dimension    18 NMult     6 NNew     12
 CISAX will form    12 AO SS matrices at one time.
 NMat=    12 NSing=    12 JSym2X= 0.
 Root      1 not converged, maximum delta is    0.014384142304292
 Root      2 not converged, maximum delta is    0.025594563048024
 Root      3 not converged, maximum delta is    0.011888337329250
 Root      4 not converged, maximum delta is    0.017775275194385
 Root      5 not converged, maximum delta is    0.009281490057282
 Root      6 not converged, maximum delta is    0.030667304590107
 Excitation Energies [eV] at current iteration:
 Root      1 :     3.426945505832771   Change is   -0.184575450027473
 Root      2 :     3.453099493958461   Change is   -0.206259693756463
 Root      3 :     4.110306105390877   Change is   -0.031990139714530
 Root      4 :     4.112218108212543   Change is   -0.032172213204744
 Root      5 :     4.269553816854956   Change is   -0.028701144062979
 Root      6 :     4.279657734454395   Change is   -0.030189564815270
 Iteration     3 Dimension    30 NMult    18 NNew     12
 CISAX will form    12 AO SS matrices at one time.
 NMat=    12 NSing=    12 JSym2X= 0.
 Root      1 not converged, maximum delta is    0.003790350190179
 Root      2 not converged, maximum delta is    0.002832758626114
 Root      3 not converged, maximum delta is    0.000346292176065
 Root      4 not converged, maximum delta is    0.000700556376859
 Root      5 not converged, maximum delta is    0.000991936092301
 Root      6 not converged, maximum delta is    0.001420940160841
 Excitation Energies [eV] at current iteration:
 Root      1 :     3.425168872117892   Change is   -0.001776633714879
 Root      2 :     3.450973308763687   Change is   -0.002126185194774
 Root      3 :     4.110155998967263   Change is   -0.000150106423614
 Root      4 :     4.112064307536615   Change is   -0.000153800675929
 Root      5 :     4.269327387918595   Change is   -0.000226428936362
 Root      6 :     4.279343177605009   Change is   -0.000314556849386
 Iteration     4 Dimension    42 NMult    30 NNew     12
 CISAX will form    12 AO SS matrices at one time.
 NMat=    12 NSing=    12 JSym2X= 0.
 Root      1 not converged, maximum delta is    0.001082894386235
 Root      2 not converged, maximum delta is    0.001059609172070
 Root      3 not converged, maximum delta is    0.000160748292852
 Root      4 not converged, maximum delta is    0.000516078161637
 Root      5 not converged, maximum delta is    0.001507176501248
 Root      6 not converged, maximum delta is    0.001927615951703
 Excitation Energies [eV] at current iteration:
 Root      1 :     3.425059623484877   Change is   -0.000109248633015
 Root      2 :     3.450790737124942   Change is   -0.000182571638745
 Root      3 :     4.110149263345972   Change is   -0.000006735621291
 Root      4 :     4.112052303964577   Change is   -0.000012003572038
 Root      5 :     4.269296732833782   Change is   -0.000030655084813
 Root      6 :     4.279302384770782   Change is   -0.000040792834228
 Iteration     5 Dimension    54 NMult    42 NNew     12
 CISAX will form    12 AO SS matrices at one time.
 NMat=    12 NSing=    12 JSym2X= 0.
 Root      1 not converged, maximum delta is    0.000340515508562
 Root      2 not converged, maximum delta is    0.000467684414030
 Root      3 not converged, maximum delta is    0.000162662975469
 Root      4 not converged, maximum delta is    0.000697209978149
 Root      5 not converged, maximum delta is    0.005779937764771
 Root      6 not converged, maximum delta is    0.007053361712941
 Excitation Energies [eV] at current iteration:
 Root      1 :     3.425044210985080   Change is   -0.000015412499797
 Root      2 :     3.450764570886365   Change is   -0.000026166238576
 Root      3 :     4.110148521968908   Change is   -0.000000741377065
 Root      4 :     4.112049740896625   Change is   -0.000002563067952
 Root      5 :     4.269271202090137   Change is   -0.000025530743644
 Root      6 :     4.279268340613789   Change is   -0.000034044156993
 Iteration     6 Dimension    66 NMult    54 NNew     12
 CISAX will form    12 AO SS matrices at one time.
 NMat=    12 NSing=    12 JSym2X= 0.
 Root      1 not converged, maximum delta is    0.000208789429423
 Root      2 not converged, maximum delta is    0.000137655632533
 Root      3 not converged, maximum delta is    0.000081126600242
 Root      4 not converged, maximum delta is    0.000178009253949
 Root      5 not converged, maximum delta is    0.013805510736121
 Root      6 not converged, maximum delta is    0.023189509501084
 Excitation Energies [eV] at current iteration:
 Root      1 :     3.425042328464407   Change is   -0.000001882520673
 Root      2 :     3.450762105909291   Change is   -0.000002464977074
 Root      3 :     4.110148386191899   Change is   -0.000000135777009
 Root      4 :     4.112049410563619   Change is   -0.000000330333006
 Root      5 :     4.269223646187208   Change is   -0.000047555902930
 Root      6 :     4.279194231537654   Change is   -0.000074109076134
 Iteration     7 Dimension    78 NMult    66 NNew     12
 CISAX will form    12 AO SS matrices at one time.
 NMat=    12 NSing=    12 JSym2X= 0.
 Root      1 not converged, maximum delta is    0.000077545563429
 Root      2 not converged, maximum delta is    0.000048178315736
 Root      3 not converged, maximum delta is    0.000018042253213
 Root      4 not converged, maximum delta is    0.000023640285297
 Root      5 not converged, maximum delta is    0.005833445662259
 Root      6 not converged, maximum delta is    0.025038643311188
 Excitation Energies [eV] at current iteration:
 Root      1 :     3.425042071538363   Change is   -0.000000256926044
 Root      2 :     3.450761934916133   Change is   -0.000000170993158
 Root      3 :     4.110148369541037   Change is   -0.000000016650861
 Root      4 :     4.112049371538249   Change is   -0.000000039025370
 Root      5 :     4.269205028492582   Change is   -0.000018617694626
 Root      6 :     4.279117339168255   Change is   -0.000076892369400
 Iteration     8 Dimension    90 NMult    78 NNew     12
 CISAX will form    12 AO SS matrices at one time.
 NMat=    12 NSing=    12 JSym2X= 0.
 Root      1 not converged, maximum delta is    0.000016255056303
 Root      2 not converged, maximum delta is    0.000015822286740
 Root      3 not converged, maximum delta is    0.000003345424181
 Root      4 not converged, maximum delta is    0.000004496233766
 Root      5 not converged, maximum delta is    0.000741872211196
 Root      6 not converged, maximum delta is    0.005352209939516
 Excitation Energies [eV] at current iteration:
 Root      1 :     3.425042052604897   Change is   -0.000000018933466
 Root      2 :     3.450761921482461   Change is   -0.000000013433672
 Root      3 :     4.110148368253526   Change is   -0.000000001287512
 Root      4 :     4.112049368114983   Change is   -0.000000003423267
 Root      5 :     4.269202738747807   Change is   -0.000002289744775
 Root      6 :     4.279100837508503   Change is   -0.000016501659752
 Iteration     9 Dimension   102 NMult    90 NNew     12
 CISAX will form    12 AO SS matrices at one time.
 NMat=    12 NSing=    12 JSym2X= 0.
 Root      1 not converged, maximum delta is    0.000002021715951
 Root      2 not converged, maximum delta is    0.000003227523729
 Root      3 not converged, maximum delta is    0.000001157375426
 Root      4 has converged.
 Root      5 not converged, maximum delta is    0.000049356561042
 Root      6 not converged, maximum delta is    0.000451589156549
 Excitation Energies [eV] at current iteration:
 Root      1 :     3.425042051627779   Change is   -0.000000000977118
 Root      2 :     3.450761920519868   Change is   -0.000000000962592
 Root      3 :     4.110148368118558   Change is   -0.000000000134967
 Root      4 :     4.112049367868304   Change is   -0.000000000246679
 Root      5 :     4.269202577366824   Change is   -0.000000161380983
 Root      6 :     4.279099412239201   Change is   -0.000001425269301
 Iteration    10 Dimension   112 NMult   102 NNew     10
 CISAX will form    10 AO SS matrices at one time.
 NMat=    10 NSing=    10 JSym2X= 0.
 Root      1 has converged.
 Root      2 has converged.
 Root      3 has converged.
 Root      4 has converged.
 Root      5 not converged, maximum delta is    0.000006964120615
 Root      6 not converged, maximum delta is    0.000040325495466
[...]
 Alpha  occ. eigenvalues --  -10.24477 -10.24476 -10.24313 -10.24312 -10.23936
 Alpha  occ. eigenvalues --  -10.23935 -10.23865 -10.23865  -1.12135  -1.12020
 Alpha  occ. eigenvalues --   -1.11692  -1.11665  -1.07391  -1.07296  -0.91270
 Alpha  occ. eigenvalues --   -0.91083  -0.90263  -0.90177  -0.83887  -0.83711
 Alpha  occ. eigenvalues --   -0.82443  -0.82399  -0.81418  -0.81216  -0.78444
 Alpha  occ. eigenvalues --   -0.78333  -0.74124  -0.74097  -0.71084  -0.70987
 Alpha  occ. eigenvalues --   -0.68561  -0.68349  -0.61761  -0.61567  -0.58138
 Alpha  occ. eigenvalues --   -0.58109  -0.56877  -0.56837  -0.56617  -0.54656
 Alpha  occ. eigenvalues --   -0.54465  -0.54161  -0.53798  -0.53316  -0.53311
 Alpha  occ. eigenvalues --   -0.52390  -0.52372  -0.52086  -0.50248  -0.50213
 Alpha  occ. eigenvalues --   -0.50005  -0.49753  -0.49581  -0.49496  -0.49233
 Alpha  occ. eigenvalues --   -0.49182  -0.48409  -0.48387  -0.47865  -0.47232
 Alpha  occ. eigenvalues --   -0.46613  -0.46485  -0.45489  -0.45442  -0.44864
 Alpha  occ. eigenvalues --   -0.44762  -0.43869  -0.43314  -0.43059  -0.42981
 Alpha  occ. eigenvalues --   -0.42873  -0.42302  -0.41978  -0.41784  -0.41642
 Alpha  occ. eigenvalues --   -0.41513  -0.33933  -0.32530  -0.32313  -0.31977
 Alpha  occ. eigenvalues --   -0.31405  -0.31394  -0.26425  -0.25412
 Alpha virt. eigenvalues --   -0.02514  -0.02190   0.02213   0.02929   0.05820
 Alpha virt. eigenvalues --    0.06892   0.08411   0.08812   0.09749   0.09807
 Alpha virt. eigenvalues --    0.10091   0.10932   0.11415   0.11660   0.12433
 Alpha virt. eigenvalues --    0.12504   0.13115   0.13503   0.14044   0.14333
 Alpha virt. eigenvalues --    0.14422   0.15029   0.15245   0.15604   0.16265
 Alpha virt. eigenvalues --    0.16549   0.16993   0.17016   0.17412   0.17639
 Alpha virt. eigenvalues --    0.17880   0.18152   0.18367   0.19044   0.19202
 Alpha virt. eigenvalues --    0.19929   0.19986   0.20600   0.20844   0.20891
 Alpha virt. eigenvalues --    0.21129   0.22371   0.22575   0.22922   0.23159
 Alpha virt. eigenvalues --    0.24113   0.24448   0.24628   0.25142   0.25814
 Alpha virt. eigenvalues --    0.25867   0.26357   0.26659   0.26857   0.27351
 Alpha virt. eigenvalues --    0.27677   0.27695   0.28165   0.28784   0.29452
 Alpha virt. eigenvalues --    0.29787   0.30300   0.30690   0.30700   0.31014
 Alpha virt. eigenvalues --    0.31214   0.31366   0.32183   0.32314   0.33174
 Alpha virt. eigenvalues --    0.33797   0.34217   0.34717   0.34792   0.35179
 Alpha virt. eigenvalues --    0.36036   0.36075   0.36662   0.36723   0.37307
 Alpha virt. eigenvalues --    0.37422   0.38128   0.39204   0.39348   0.39550
 Alpha virt. eigenvalues --    0.40159   0.40712   0.41519   0.41775   0.42641
 Alpha virt. eigenvalues --    0.42693   0.43387   0.43438   0.44199   0.45121
 Alpha virt. eigenvalues --    0.45131   0.45608   0.45640   0.45823   0.45831
 Alpha virt. eigenvalues --    0.46447   0.46835   0.46850   0.47504   0.47875
 Alpha virt. eigenvalues --    0.48088   0.48360   0.48539   0.49070   0.49306
 Alpha virt. eigenvalues --    0.49377   0.50437   0.50595   0.50692   0.50776
 Alpha virt. eigenvalues --    0.51171   0.51353   0.51600   0.52079   0.52480
 Alpha virt. eigenvalues --    0.52972   0.53615   0.53844   0.53876   0.54661
 Alpha virt. eigenvalues --    0.54805   0.55036   0.55487   0.55766   0.56408
 Alpha virt. eigenvalues --    0.56626   0.56878   0.56974   0.57933   0.58292
 Alpha virt. eigenvalues --    0.58765   0.58979   0.59389   0.59910   0.60193
 Alpha virt. eigenvalues --    0.60469   0.60668   0.61003   0.62258   0.62347
 Alpha virt. eigenvalues --    0.62499   0.62583   0.63654   0.64546   0.65280
 Alpha virt. eigenvalues --    0.65614   0.66311   0.66375   0.66893   0.67363
 Alpha virt. eigenvalues --    0.67929   0.68017   0.68347   0.68426   0.68906
 Alpha virt. eigenvalues --    0.69950   0.70789   0.71376   0.71608   0.71930
 Alpha virt. eigenvalues --    0.72609   0.72999   0.73859   0.74103   0.74449
 Alpha virt. eigenvalues --    0.75043   0.75389   0.75944   0.76189   0.76531
 Alpha virt. eigenvalues --    0.77045   0.77605   0.77768   0.78247   0.78601
 Alpha virt. eigenvalues --    0.78958   0.80053   0.80361   0.81294   0.82288
 Alpha virt. eigenvalues --    0.82324   0.82941   0.83657   0.84144   0.85166
 Alpha virt. eigenvalues --    0.85242   0.85942   0.89325   0.89965   0.90224
 Alpha virt. eigenvalues --    0.91339   0.92190   0.92654   0.93468   0.95091
 Alpha virt. eigenvalues --    0.95668   0.98586   1.00534   1.01343   1.03307
 Alpha virt. eigenvalues --    1.05269   1.05715   1.09571   1.21091   1.24256
 Alpha virt. eigenvalues --    1.25736   1.26088   1.27047   1.28470   1.29584
 Alpha virt. eigenvalues --    1.30448   1.30781   1.31810   1.33376   1.34021
 Alpha virt. eigenvalues --    1.34109   1.34339   1.36318   1.36729   1.37622
 Alpha virt. eigenvalues --    1.37764   1.37849   1.38101   1.38574   1.38736
 Alpha virt. eigenvalues --    1.39398   1.40006   1.40309   1.40444   1.40981
 Alpha virt. eigenvalues --    1.41448   1.41776   1.42268   1.42283   1.42662
 Alpha virt. eigenvalues --    1.42779   1.43104   1.43354   1.44156   1.44789
 Alpha virt. eigenvalues --    1.44932   1.45486   1.46102   1.47147   1.47219
 Alpha virt. eigenvalues --    1.47343   1.47844   1.48253   1.48510   1.49417
 Alpha virt. eigenvalues --    1.50174   1.50185   1.50637   1.51144   1.52393
 Alpha virt. eigenvalues --    1.53046   1.53547   1.53765   1.54460   1.55149
 Alpha virt. eigenvalues --    1.55424   1.56423   1.56469   1.57646   1.57817
 Alpha virt. eigenvalues --    1.58880   1.59243   1.59491   1.60010   1.60272
 Alpha virt. eigenvalues --    1.60822   1.61033   1.61671   1.61683   1.61986
 Alpha virt. eigenvalues --    1.62837   1.63634   1.63925   1.64558   1.64602
 Alpha virt. eigenvalues --    1.65063   1.65330   1.65533   1.65751   1.66254
 Alpha virt. eigenvalues --    1.66573   1.66683   1.67037   1.67447   1.67673
 Alpha virt. eigenvalues --    1.68256   1.68839   1.69314   1.69752   1.69950
 Alpha virt. eigenvalues --    1.70120   1.70242   1.71587   1.71658   1.71758
 Alpha virt. eigenvalues --    1.72488   1.72788   1.73666   1.73674   1.74625
 Alpha virt. eigenvalues --    1.74652   1.75208   1.75807   1.76182   1.76446
 Alpha virt. eigenvalues --    1.77163   1.77169   1.78563   1.78964   1.79483
 Alpha virt. eigenvalues --    1.80085   1.81355   1.82589   1.83228   1.84230
 Alpha virt. eigenvalues --    1.84724   1.85116   1.85246   1.85600   1.86532
 Alpha virt. eigenvalues --    1.87740   1.88072   1.88603   1.89169   1.90129
 Alpha virt. eigenvalues --    1.90433   1.90887   1.91478   1.91922   1.92336
 Alpha virt. eigenvalues --    1.92990   1.93953   1.94261   1.94846   1.95300
 Alpha virt. eigenvalues --    1.96366   1.96761   1.97294   1.98743   1.99026
 Alpha virt. eigenvalues --    1.99741   2.00140   2.01201   2.01947   2.02568
 Alpha virt. eigenvalues --    2.03112   2.03780   2.03927   2.04979   2.07028
 Alpha virt. eigenvalues --    2.07467   2.07496   2.08340   2.09051   2.09174
 Alpha virt. eigenvalues --    2.12031   2.12783   2.12876   2.14466   2.14750
 Alpha virt. eigenvalues --    2.14823   2.15368   2.16472   2.17018   2.18368
 Alpha virt. eigenvalues --    2.19063   2.20188   2.21757   2.22605   2.22741
 Alpha virt. eigenvalues --    2.22851   2.23512   2.23993   2.24709   2.24852
 Alpha virt. eigenvalues --    2.25911   2.27047   2.27080   2.28300   2.28750
 Alpha virt. eigenvalues --    2.30161   2.30256   2.30897   2.31893   2.32240
 Alpha virt. eigenvalues --    2.32627   2.33537   2.33945   2.34377   2.34860
 Alpha virt. eigenvalues --    2.35661   2.36029   2.37636   2.38200   2.39026
 Alpha virt. eigenvalues --    2.39253   2.41139   2.41690   2.42057   2.42153
 Alpha virt. eigenvalues --    2.42937   2.43346   2.43936   2.44508   2.45339
 Alpha virt. eigenvalues --    2.45919   2.46362   2.47369   2.48475   2.49298
 Alpha virt. eigenvalues --    2.49378   2.50644   2.51124   2.51457   2.52058
 Alpha virt. eigenvalues --    2.52930   2.53103   2.53236   2.53681   2.55631
 Alpha virt. eigenvalues --    2.56090   2.56327   2.56590   2.57687   2.58837
 Alpha virt. eigenvalues --    2.58872   2.59885   2.59967   2.61123   2.61437
 Alpha virt. eigenvalues --    2.62120   2.62304   2.63225   2.63759   2.64445
 Alpha virt. eigenvalues --    2.65001   2.66535   2.66704   2.67053   2.67669
 Alpha virt. eigenvalues --    2.68146   2.68772   2.70276   2.70537   2.71759
 Alpha virt. eigenvalues --    2.72254   2.73411   2.73484   2.73661   2.75066
 Alpha virt. eigenvalues --    2.75106   2.75320   2.76190   2.76942   2.77554
 Alpha virt. eigenvalues --    2.77991   2.78554   2.79053   2.79327   2.80203
 Alpha virt. eigenvalues --    2.80714   2.81155   2.81196   2.81572   2.81657
 Alpha virt. eigenvalues --    2.82588   2.82960   2.83809   2.84126   2.84668
 Alpha virt. eigenvalues --    2.85514   2.85956   2.87052   2.87657   2.87777
 Alpha virt. eigenvalues --    2.88847   2.89708   2.90570   2.90795   2.91203
 Alpha virt. eigenvalues --    2.92464   2.93035   2.94175   2.94270   2.95337
 Alpha virt. eigenvalues --    2.96412   2.97474   2.98126   2.99438   3.00028
 Alpha virt. eigenvalues --    3.01219   3.02121   3.02712   3.02793   3.03825
 Alpha virt. eigenvalues --    3.04129   3.12374   3.12701   3.13772   3.14277
 Alpha virt. eigenvalues --    3.14888   3.16966   3.17799   3.18987   3.20314
 Alpha virt. eigenvalues --    3.21969   3.22222   3.22575   3.24330   3.25079
 Alpha virt. eigenvalues --    3.25390   3.26130   3.27441   3.28116   3.28174
 Alpha virt. eigenvalues --    3.28813   3.29563   3.30504   3.31356   3.32267
 Alpha virt. eigenvalues --    3.32664   3.33516   3.35631   3.36221   3.36569
 Alpha virt. eigenvalues --    3.36756   3.37235   3.37440   3.39813   3.39860
 Alpha virt. eigenvalues --    3.40374   3.40461   3.41541   3.41597   3.42357
 Alpha virt. eigenvalues --    3.42843   3.43213   3.43426   3.43917   3.44382
 Alpha virt. eigenvalues --    3.44957   3.45238   3.46565   3.47894   3.48152
 Alpha virt. eigenvalues --    3.48595   3.51028   3.51897   3.52366   3.54254
 Alpha virt. eigenvalues --    3.56471   3.56538   3.57926   3.57969   3.59447
 Alpha virt. eigenvalues --    3.59767   3.63315   3.63604   3.65958   3.66141
 Alpha virt. eigenvalues --    3.66766   3.66944   3.95643   3.95867   4.02304
 Alpha virt. eigenvalues --    4.02740   4.38036   4.38173   4.38466   4.38782
 Alpha virt. eigenvalues --   21.76278  21.92512  21.98778  22.10372  22.15335
 Alpha virt. eigenvalues --   22.16599  22.17136  22.17819  22.18993  22.21082
 Alpha virt. eigenvalues --   22.21702  22.22615  22.24588  22.25623  22.31537
 Alpha virt. eigenvalues --   22.31976  22.36603  22.38667  22.38938  22.40887
 Alpha virt. eigenvalues --   22.43541  22.45380  32.03425  32.08572  43.70784
 Alpha virt. eigenvalues --   43.73208  43.75098  43.80162
          Condensed to atoms (all electrons):
 Mulliken charges:
               1
     1  O   -0.381026
     2  O   -0.381164
     3  O   -0.385280
     4  O   -0.385407
     5  N   -0.181942
     6  N   -0.181272
     7  H    0.294408
     8  H    0.294488
     9  C   -0.040904
    10  C   -0.040524
    11  C    0.131323
    12  C    0.130919
    13  C    0.171535
    14  C    0.171073
    15  C    0.115690
    16  C    0.115539
    17  C   -0.266644
    18  C   -0.266987
    19  H    0.173684
    20  H    0.190315
    21  H    0.189980
    22  H    0.174112
    23  C   -0.050594
    24  C   -0.050329
    25  C    0.100520
    26  C    0.099847
    27  C   -0.440122
    28  C   -0.440199
    29  H    0.131507
    30  H    0.131481
    31  H    0.165413
    32  H    0.172615
    33  H    0.172656
    34  H    0.165409
    35  C   -0.424187
    36  C   -0.424193
    37  H    0.153794
    38  H    0.153763
    39  H    0.160400
    40  H    0.145044
    41  H    0.145126
    42  H    0.160374
    43  C   -0.474255
    44  C   -0.473611
    45  H    0.158931
    46  H    0.171224
    47  H    0.171670
    48  H    0.159037
    49  H    0.157688
    50  H    0.157690
    51  C   -0.470414
    52  C   -0.470148
    53  H    0.176728
    54  H    0.187371
    55  H    0.187858
    56  H    0.176850
    57  H    0.156589
    58  H    0.156553
 Sum of Mulliken charges =  -0.00000
 Mulliken charges with hydrogens summed into heavy atoms:
               1
     1  O   -0.381026
     2  O   -0.381164
     3  O   -0.385280
     4  O   -0.385407
     5  N    0.112466
     6  N    0.113216
     9  C   -0.040904
    10  C   -0.040524
    11  C    0.131323
    12  C    0.130919
    13  C    0.171535
    14  C    0.171073
    15  C    0.115690
    16  C    0.115539
    17  C    0.097020
    18  C    0.097440
    23  C   -0.050594
    24  C   -0.050329
    25  C    0.100520
    26  C    0.099847
    27  C    0.029453
    28  C    0.029307
    35  C    0.035132
    36  C    0.034988
    43  C    0.014034
    44  C    0.014340
    51  C    0.050761
    52  C    0.050625
 Electronic spatial extent (au):  <R**2>=           8676.9776
 Charge=              0.0000 electrons
 Dipole moment (field-independent basis, Debye):
    X=             -2.4315    Y=              0.0034    Z=             -0.0002  Tot=              2.4315
 Quadrupole moment (field-independent basis, Debye-Ang):
   XX=           -215.4895   YY=           -185.5816   ZZ=           -132.9382
   XY=             -0.0003   XZ=             -0.0129   YZ=             -0.4720
 Traceless Quadrupole moment (field-independent basis, Debye-Ang):
   XX=            -37.4864   YY=             -7.5785   ZZ=             45.0649
   XY=             -0.0003   XZ=             -0.0129   YZ=             -0.4720
 Octapole moment (field-independent basis, Debye-Ang**2):
  XXX=           -100.9702  YYY=              0.0393  ZZZ=              0.0138  XYY=             12.1360
  XXY=              0.0877  XXZ=              0.0367  XZZ=              1.0660  YZZ=              0.0122
  YYZ=             -0.0114  XYZ=            -14.0766
 Hexadecapole moment (field-independent basis, Debye-Ang**3):
 XXXX=          -5956.4835 YYYY=          -3575.2886 ZZZZ=          -2437.3635 XXXY=             -0.1602
 XXXZ=             -0.0032 YYYX=              0.0549 YYYZ=            -21.3250 ZZZX=             -0.1733
 ZZZY=            -68.3732 XXYY=          -1868.7236 XXZZ=          -1228.8407 YYZZ=          -1054.1858
 XXYZ=             95.2944 YYXZ=             -0.0328 ZZXY=              0.0192
 N-N= 2.973136236941D+03 E-N=-8.897541335908D+03  KE= 1.261537596685D+03
 No NMR shielding tensors so no spin-rotation constants.
 Leave Link  601 at Thu Jan 22 21:35:37 2026, MaxMem=  2147483648 cpu:               9.6 elap:               0.4
 (Enter /data/home/wyx/g16/l9999.exe)
 Electronic transition elements 
                 1             2             3             4             5 
      1  -0.126656D+04 -0.126656D+04 -0.126654D+04 -0.126654D+04 -0.126653D+04
      2  -0.160548D-01 -0.177459D+01  0.345597D-02 -0.145501D+00  0.671409D-01
      3  -0.444020D+00 -0.296185D-02  0.105026D-01 -0.222841D-04 -0.476951D-01
      4   0.131125D+00 -0.315995D+00 -0.139579D-01 -0.261042D-01 -0.359109D+00
      5   0.194830D-02  0.215285D+00  0.200654D-03  0.203210D-01 -0.100832D-01
      6   0.579400D-01  0.373017D-03 -0.250588D-02 -0.807456D-05  0.910791D-02
      7  -0.159046D-01  0.383345D-01 -0.186135D-02  0.361646D-02  0.540048D-01
      8   0.344239D+00 -0.333881D+00  0.782610D-01 -0.116303D+01  0.365242D-01
      9   0.109382D+01  0.376742D-02 -0.152737D+00 -0.176422D-02 -0.106488D+01
     10  -0.192636D+01 -0.671056D-01 -0.386326D+00 -0.210910D+00 -0.230057D+00
     11  -0.256482D+00  0.233452D+00 -0.367804D-01  0.453098D-01 -0.543981D-01
     12   0.707377D-03 -0.434657D+00  0.216999D-03 -0.473218D-01  0.352809D-03
     13   0.256488D+00  0.329410D-01  0.361978D-01  0.565466D-01  0.535728D-01
     14  -0.701793D+00 -0.588467D-01 -0.494607D-01  0.175130D-01 -0.469316D-01
     15   0.696602D+00  0.398275D-01  0.993241D-01 -0.106038D-02  0.144727D+00
     16  -0.125786D+00  0.316929D+00 -0.793758D-02 -0.100078D+00 -0.862211D-02
                 6 
      1  -0.126653D+04
      2   0.445033D+00
      3   0.726305D-03
      4   0.804568D-01
      5  -0.662230D-01
      6  -0.126804D-03
      7  -0.119614D-01
      8  -0.494937D+00
      9   0.971840D-02
     10  -0.870291D-01
     11  -0.197640D+00
     12   0.682963D-01
     13   0.397150D-01
     14   0.625181D-02
     15  -0.449251D-01
     16  -0.341772D-01
 1\1\GINC-CN012\SP\RCAM-B3LYP TD-FC\TZVP\C22H30N2O4\WYX\22-Jan-2026\0\\
 #p CAM-B3LYP/TZVP em=gd3bj TD=(NStates=6,Root=2) SCRF=(Solvent=Water,C
 orrectedLR) Geom=Check Guess=Read\\Title Card Required\\0,1\O,0,-1.796
 9550178,4.1907943091,0.1694242807\O,0,-2.337746604,1.1004923771,3.2158
 130728\O,0,-7.9655407418,4.3847922166,-0.9653334272\O,0,-8.5179637352,
 0.8981289916,2.1480460863\N,0,-5.2453330621,1.1669380007,-0.6593028104
 \N,0,-5.8638940573,4.1196732297,2.8003918715\H,0,-5.5690751968,0.21714
 40516,-0.7369738739\H,0,-6.1958510098,5.0690105781,2.7616087928\C,0,-5
 .7916556053,3.4562036093,-0.7515557188\C,0,-6.4054516008,1.8296646223,
 2.6987990774\C,0,-3.911214333,1.3594018725,-0.3815141581\C,0,-4.515763
 6211,3.9290313437,3.0010479048\C,0,-6.1766735116,2.1623512789,-0.83678
 11392\C,0,-6.7978810288,3.1229854803,2.6453302764\C,0,-6.7501836322,4.
 5487441457,-0.9019275195\C,0,-7.3554833629,0.7358213378,2.5089840661\C
 ,0,-4.345337512,3.8096200597,-0.4953025173\C,0,-4.9592271724,1.4782042
 452,2.9582934359\H,0,-4.2669131936,4.4502159157,0.384859421\H,0,-4.868
 7099918,0.8661149159,3.860759422\H,0,-3.949271988,4.4219495362,-1.3110
 784406\H,0,-4.5805244177,0.8380407272,2.1595606848\C,0,-3.4314511005,2
 .6213293751,-0.2995118892\C,0,-4.0355729618,2.6677479135,3.0902403218\
 C,0,-2.0523628074,2.9990092052,0.0030933052\C,0,-2.6363693002,2.291953
 4141,3.2828722706\C,0,-7.5528226588,1.6462668223,-1.1067663033\C,0,-8.
 1832258065,3.6372196628,2.4230323118\H,0,-7.5097475927,0.6011859816,-1
 .413579216\H,0,-8.2503890586,4.6820305772,2.7264148682\H,0,-8.04822052
 85,2.2302713847,-1.8752641277\H,0,-8.4447305893,3.5725345739,1.3669735
 453\H,0,-8.1635292991,1.7112482816,-0.2064220454\H,0,-8.9130019783,3.0
 518497685,2.9724027162\C,0,-6.1937026295,5.9491535799,-0.967876124\C,0
 ,-6.8544284837,-0.6638326775,2.7640907571\H,0,-7.0097549088,6.65075047
 83,-1.1178697332\H,0,-7.6711242432,-1.3665145604,2.6229353597\H,0,-5.4
 713255813,6.047003472,-1.7796720296\H,0,-6.0413757801,-0.9132113952,2.
 0800088625\H,0,-5.6678051205,6.1991643036,-0.044753549\H,0,-6.45733824
 5,-0.7606393012,3.7757116557\C,0,-0.9202632306,2.010384292,0.109316403
 3\C,0,-1.538510269,3.2821712359,3.573538045\H,0,-0.8705196804,1.350904
 1617,-0.7546135562\H,0,-1.3334648571,3.9038229448,2.7021724916\H,0,-1.
 0264039333,1.3908050988,0.9996618228\H,0,-1.7899922285,3.9395722046,4.
 4032503558\H,0,0.0068355252,2.5727945068,0.1849394627\H,0,-0.640828898
 1,2.7210525689,3.8202060998\C,0,-3.1687659807,0.0700975663,-0.18717451
 29\C,0,-3.7534581212,5.2192988893,3.0746451601\H,0,-2.6401257802,0.057
 5494213,0.7620474667\H,0,-3.3507295724,5.3882545966,4.0714178228\H,0,-
 2.4493368885,-0.0998419055,-0.985888656\H,0,-2.9320535732,5.2339161129
 ,2.363405541\H,0,-3.8642579733,-0.7672559386,-0.1872091062\H,0,-4.4081
 021688,6.0561551995,2.8380754158\\Version=ES64L-G16RevA.03\State=1-A\H
 F=-1266.6875491\RMSD=2.764e-09\Dipole=0.941937,0.0015511,0.167036\Quad
 rupole=-26.6755702,17.2128248,9.4627454,-3.4246158,-6.6783014,18.98997
 75\PG=C01 [X(C22H30N2O4)]\\@


 HE WHO LAUGHS LAST PROBABLY DIDN'T GET THE JOKE.
 Job cpu time:       1 days 12 hours 28 minutes 21.5 seconds.
 Elapsed time:       0 days  1 hours  8 minutes 38.3 seconds.
 File lengths (MBytes):  RWF=   2841 Int=      0 D2E=      0 Chk=    158 Scr=      1
 Normal termination of Gaussian 16 at Thu Jan 22 21:35:42 2026.
