 Entering Gaussian System, Link 0=g16
 Input=DDL-DDL-S2-TD-Neq.gjf
 Output=DDL-DDL-S2-TD-Neq.log
 Initial command:
 /data/home/wyx/g16/l1.exe "/scr/tmp/wyx/13078/Gau-2111311.inp" -scrdir="/scr/tmp/wyx/13078/"
 Entering Link 1 = /data/home/wyx/g16/l1.exe PID=   2111312.
  
 Copyright (c) 1988,1990,1992,1993,1995,1998,2003,2009,2016,
            Gaussian, Inc.  All Rights Reserved.
  
 This is part of the Gaussian(R) 16 program.  It is based on
 the Gaussian(R) 09 system (copyright 2009, Gaussian, Inc.),
 the Gaussian(R) 03 system (copyright 2003, Gaussian, Inc.),
 the Gaussian(R) 98 system (copyright 1998, Gaussian, Inc.),
 the Gaussian(R) 94 system (copyright 1995, Gaussian, Inc.),
 the Gaussian 92(TM) system (copyright 1992, Gaussian, Inc.),
 the Gaussian 90(TM) system (copyright 1990, Gaussian, Inc.),
 the Gaussian 88(TM) system (copyright 1988, Gaussian, Inc.),
 the Gaussian 86(TM) system (copyright 1986, Carnegie Mellon
 University), and the Gaussian 82(TM) system (copyright 1983,
 Carnegie Mellon University). Gaussian is a federally registered
 trademark of Gaussian, Inc.
  
 This software contains proprietary and confidential information,
 including trade secrets, belonging to Gaussian, Inc.
  
 This software is provided under written license and may be
 used, copied, transmitted, or stored only in accord with that
 written license.
  
 The following legend is applicable only to US Government
 contracts under FAR:
  
                    RESTRICTED RIGHTS LEGEND
  
 Use, reproduction and disclosure by the US Government is
 subject to restrictions as set forth in subparagraphs (a)
 and (c) of the Commercial Computer Software - Restricted
 Rights clause in FAR 52.227-19.
  
 Gaussian, Inc.
 340 Quinnipiac St., Bldg. 40, Wallingford CT 06492
  
  
 ---------------------------------------------------------------
 Warning -- This program may not be used in any manner that
 competes with the business of Gaussian, Inc. or will provide
 assistance to any competitor of Gaussian, Inc.  The licensee
 of this program is prohibited from giving any competitor of
 Gaussian, Inc. access to this program.  By using this program,
 the user acknowledges that Gaussian, Inc. is engaged in the
 business of creating and licensing software in the field of
 computational chemistry and represents and warrants to the
 licensee that it is not a competitor of Gaussian, Inc. and that
 it will not use this program in any manner prohibited above.
 ---------------------------------------------------------------
  

 Cite this work as:
 Gaussian 16, Revision A.03,
 M. J. Frisch, G. W. Trucks, H. B. Schlegel, G. E. Scuseria, 
 M. A. Robb, J. R. Cheeseman, G. Scalmani, V. Barone, 
 G. A. Petersson, H. Nakatsuji, X. Li, M. Caricato, A. V. Marenich, 
 J. Bloino, B. G. Janesko, R. Gomperts, B. Mennucci, H. P. Hratchian, 
 J. V. Ortiz, A. F. Izmaylov, J. L. Sonnenberg, D. Williams-Young, 
 F. Ding, F. Lipparini, F. Egidi, J. Goings, B. Peng, A. Petrone, 
 T. Henderson, D. Ranasinghe, V. G. Zakrzewski, J. Gao, N. Rega, 
 G. Zheng, W. Liang, M. Hada, M. Ehara, K. Toyota, R. Fukuda, 
 J. Hasegawa, M. Ishida, T. Nakajima, Y. Honda, O. Kitao, H. Nakai, 
 T. Vreven, K. Throssell, J. A. Montgomery, Jr., J. E. Peralta, 
 F. Ogliaro, M. J. Bearpark, J. J. Heyd, E. N. Brothers, K. N. Kudin, 
 V. N. Staroverov, T. A. Keith, R. Kobayashi, J. Normand, 
 K. Raghavachari, A. P. Rendell, J. C. Burant, S. S. Iyengar, 
 J. Tomasi, M. Cossi, J. M. Millam, M. Klene, C. Adamo, R. Cammi, 
 J. W. Ochterski, R. L. Martin, K. Morokuma, O. Farkas, 
 J. B. Foresman, and D. J. Fox, Gaussian, Inc., Wallingford CT, 2016.
 
 ******************************************
 Gaussian 16:  ES64L-G16RevA.03 25-Dec-2016
                26-Jan-2026 
 ******************************************
 %nprocshared=32
 Will use up to   32 processors via shared memory.
 %mem=16GB
 %oldchk=DDL-DDL-S2-opt-freq.chk
 %chk=DDL-DDL-S2-TD-Neq.chk
 Copying data from "DDL-DDL-S2-opt-freq.chk" to current chk file "DDL-DDL-S2-TD-Neq.chk"
 IOpt=  2 FromEx=T IUOpen= 4 IOptOp= 5 NList=   0 IFRang= 0 IUIn= 4 IUOut= 2.
 ----------------------------------------------------------------------
 #p CAM-B3LYP/TZVP em=gd3bj TD=NStates=6 SCRF=(Solvent=Water) Geom=Chec
 k Guess=Read NoSymm
 ----------------------------------------------------------------------
 1/29=2,38=1,172=1/1;
 2/12=2,15=1,40=1/2;
 3/5=19,7=101,11=9,14=-4,25=1,30=1,70=2201,72=1,74=-40,116=-2,124=41/1,2,3,8;
 4/5=1/1;
 5/5=2,38=6,53=1/2;
 8/6=1,10=1,108=6/1;
 9/41=6,42=1,70=2/14;
 6/7=2,8=2,9=2,10=2/1;
 99/5=1,9=1/99;
 Leave Link    1 at Mon Jan 26 21:54:15 2026, MaxMem=  2147483648 cpu:               3.3 elap:               0.3
 (Enter /data/home/wyx/g16/l101.exe)
 -------------------
 Title Card Required
 -------------------
 Structure from the checkpoint file:  "DDL-DDL-S2-TD-Neq.chk"
 Charge =  0 Multiplicity = 1
 Redundant internal coordinates found in file.  (old form).
 O,0,-2.1548959642,4.7825292528,0.0804768164
 O,0,-2.7450321902,0.5093772344,3.239802894
 O,0,-8.2081067359,3.6321798941,-1.0714199704
 O,0,-8.8063051222,1.6452864631,2.1198210195
 N,0,-4.9205408331,1.0573169159,-0.4521109666
 N,0,-5.5210183763,4.2283798306,2.7217779466
 H,0,-5.0308456705,0.0560961613,-0.5222868623
 H,0,-5.6524593587,5.2287427238,2.7526107259
 C,0,-5.9341541887,3.1759217063,-0.6118346503
 C,0,-6.5204536876,2.1077046778,2.5136657353
 C,0,-3.6433113415,1.5113847216,-0.2762186559
 C,0,-4.2631929683,3.7757826813,3.0106195173
 C,0,-6.0550901095,1.7977859491,-0.6175278089
 C,0,-6.6383007998,3.4828291988,2.4734823558
 C,0,-7.0624728903,4.0508380216,-0.8886798912
 C,0,-7.673371299,1.2305107162,2.3715887446
 C,0,-4.5993217697,3.7986039834,-0.3938223084
 C,0,-5.1944697222,1.4857776476,2.7899568453
 H,0,-4.6408192557,4.4559840075,0.4863486748
 H,0,-5.2726587902,0.7935129328,3.6357942918
 H,0,-4.3763173527,4.5021785897,-1.204199344
 H,0,-4.9213995973,0.8200266379,1.9594606306
 C,0,-3.4375341175,2.873344073,-0.2324509209
 C,0,-4.0510586332,2.4167248129,3.0385219706
 C,0,-2.1685897955,3.5503129646,-0.0315601592
 C,0,-2.7878736367,1.7440432353,3.2887906685
 C,0,-7.2827229289,1.0069197087,-0.9286592093
 C,0,-7.8982298772,4.2705120863,2.3246659981
 H,0,-7.0927966726,-0.0583807038,-0.7940990721
 H,0,-7.6770444852,5.3373952763,2.2817528156
 H,0,-7.5913814038,1.1734476744,-1.9615728578
 H,0,-8.4453505055,3.9843679832,1.4315551055
 H,0,-8.1179773021,1.3012696566,-0.3008493292
 H,0,-8.5613746098,4.0906119411,3.171626003
 C,0,-6.8117693267,5.5378442773,-0.9880147389
 C,0,-7.4721777987,-0.2533348001,2.5726997429
 H,0,-7.7669670407,6.0537931093,-0.9312630075
 H,0,-8.3559550498,-0.7746060463,2.2138451585
 H,0,-6.3500365595,5.7704772224,-1.9509245759
 H,0,-6.5909403289,-0.6393782587,2.0632863114
 H,0,-6.1474471221,5.9179909121,-0.214217821
 H,0,-7.3486101906,-0.4700831247,3.6366459784
 C,0,-0.8478156702,2.8235933394,0.032637485
 C,0,-1.5094549713,2.4789780804,3.6078271271
 H,0,-0.6013784645,2.382473576,-0.9341434771
 H,0,-1.296009026,3.2827932344,2.9084520311
 H,0,-0.8402188913,2.025229164,0.7702775125
 H,0,-1.5543843947,2.9134234096,4.6076465844
 H,0,-0.0797665307,3.5493435689,0.2880324696
 H,0,-0.6955515489,1.7586549244,3.582624074
 C,0,-2.6415141291,0.4066616999,-0.1460294115
 C,0,-3.285776533,4.8840311251,3.2484011216
 H,0,-2.2931065128,0.3079034886,0.8836862191
 H,0,-2.6760661797,4.7102622151,4.1284741446
 H,0,-1.7820610823,0.5561608542,-0.7915494411
 H,0,-2.6284696667,5.0188284624,2.3865974968
 H,0,-3.0959629503,-0.54354602,-0.4240056416
 H,0,-3.8169947397,5.8227115902,3.400987905
 Recover connectivity data from disk.
 ITRead=  0  0  0  0  0  0  0  0  0  0  0  0  0  0  0  0  0  0  0  0
 ITRead=  0  0  0  0  0  0  0  0  0  0  0  0  0  0  0  0  0  0  0  0
 ITRead=  0  0  0  0  0  0  0  0  0  0  0  0  0  0  0  0  0  0
 MicOpt= -1 -1 -1 -1 -1 -1 -1 -1 -1 -1 -1 -1 -1 -1 -1 -1 -1 -1 -1 -1
 MicOpt= -1 -1 -1 -1 -1 -1 -1 -1 -1 -1 -1 -1 -1 -1 -1 -1 -1 -1 -1 -1
 MicOpt= -1 -1 -1 -1 -1 -1 -1 -1 -1 -1 -1 -1 -1 -1 -1 -1 -1 -1
                           ----------------------------
                           !    Current Parameters    !
                           ! (Angstroms and Degrees)  !
 --------------------------                            --------------------------
 ! Name  Definition              Value                                          !
 --------------------------------------------------------------------------------
 ! R1    R(1,25)                 1.2374                                         !
 ! R2    R(2,26)                 1.2364                                         !
 ! R3    R(3,15)                 1.2333                                         !
 ! R4    R(4,16)                 1.2325                                         !
 ! R5    R(5,7)                  1.0097                                         !
 ! R6    R(5,11)                 1.3669                                         !
 ! R7    R(5,13)                 1.3649                                         !
 ! R8    R(6,8)                  1.0094                                         !
 ! R9    R(6,12)                 1.3676                                         !
 ! R10   R(6,14)                 1.3659                                         !
 ! R11   R(9,13)                 1.3834                                         !
 ! R12   R(9,15)                 1.4544                                         !
 ! R13   R(9,17)                 1.489                                          !
 ! R14   R(10,14)                1.3807                                         !
 ! R15   R(10,16)                1.4556                                         !
 ! R16   R(10,18)                1.4904                                         !
 ! R17   R(11,23)                1.3781                                         !
 ! R18   R(11,51)                1.497                                          !
 ! R19   R(12,24)                1.3758                                         !
 ! R20   R(12,52)                1.4967                                         !
 ! R21   R(13,27)                1.4931                                         !
 ! R22   R(14,28)                1.4933                                         !
 ! R23   R(15,35)                1.5113                                         !
 ! R24   R(16,36)                1.5109                                         !
 ! R25   R(17,19)                1.0994                                         !
 ! R26   R(17,21)                1.0961                                         !
 ! R27   R(17,23)                1.494                                          !
 ! R28   R(18,20)                1.0958                                         !
 ! R29   R(18,22)                1.0989                                         !
 ! R30   R(18,24)                1.4953                                         !
 ! R31   R(19,56)                2.8244                                         !
 ! R32   R(23,25)                1.4522                                         !
 ! R33   R(24,26)                1.4528                                         !
 ! R34   R(25,43)                1.5089                                         !
 ! R35   R(26,44)                1.5087                                         !
 ! R36   R(27,29)                1.0904                                         !
 ! R37   R(27,31)                1.0908                                         !
 ! R38   R(27,33)                1.0856                                         !
 ! R39   R(28,30)                1.0904                                         !
 ! R40   R(28,32)                1.0858                                         !
 ! R41   R(28,34)                1.0906                                         !
 ! R42   R(32,33)                3.2105                                         !
 ! R43   R(35,37)                1.0871                                         !
 ! R44   R(35,39)                1.0929                                         !
 ! R45   R(35,41)                1.0884                                         !
 ! R46   R(36,38)                1.087                                          !
 ! R47   R(36,40)                1.0886                                         !
 ! R48   R(36,42)                1.0928                                         !
 ! R49   R(43,45)                1.0909                                         !
 ! R50   R(43,47)                1.087                                          !
 ! R51   R(43,49)                1.0871                                         !
 ! R52   R(44,46)                1.0866                                         !
 ! R53   R(44,48)                1.0911                                         !
 ! R54   R(44,50)                1.0872                                         !
 ! R55   R(51,53)                1.0915                                         !
 ! R56   R(51,55)                1.0852                                         !
 ! R57   R(51,57)                1.0894                                         !
 ! R58   R(52,54)                1.0847                                         !
 ! R59   R(52,56)                1.0922                                         !
 ! R60   R(52,58)                1.0893                                         !
 ! A1    A(7,5,11)             116.13                                           !
 ! A2    A(7,5,13)             116.0224                                         !
 ! A3    A(11,5,13)            127.7412                                         !
 ! A4    A(8,6,12)             116.185                                          !
 ! A5    A(8,6,14)             116.1008                                         !
 ! A6    A(12,6,14)            127.5928                                         !
 ! A7    A(13,9,15)            122.0503                                         !
 ! A8    A(13,9,17)            119.7068                                         !
 ! A9    A(15,9,17)            118.1505                                         !
 ! A10   A(14,10,16)           121.9868                                         !
 ! A11   A(14,10,18)           119.7958                                         !
 ! A12   A(16,10,18)           118.1176                                         !
 ! A13   A(5,11,23)            118.1578                                         !
 ! A14   A(5,11,51)            113.0389                                         !
 ! A15   A(23,11,51)           128.8019                                         !
 ! A16   A(6,12,24)            118.2295                                         !
 ! A17   A(6,12,52)            112.9002                                         !
 ! A18   A(24,12,52)           128.8687                                         !
 ! A19   A(5,13,9)             117.8576                                         !
 ! A20   A(5,13,27)            114.9199                                         !
 ! A21   A(9,13,27)            126.8971                                         !
 ! A22   A(6,14,10)            117.936                                          !
 ! A23   A(6,14,28)            114.8554                                         !
 ! A24   A(10,14,28)           126.8865                                         !
 ! A25   A(3,15,9)             122.9996                                         !
 ! A26   A(3,15,35)            118.578                                          !
 ! A27   A(9,15,35)            118.407                                          !
 ! A28   A(4,16,10)            123.0388                                         !
 ! A29   A(4,16,36)            118.6936                                         !
 ! A30   A(10,16,36)           118.2538                                         !
 ! A31   A(9,17,19)            109.4787                                         !
 ! A32   A(9,17,21)            110.0337                                         !
 ! A33   A(9,17,23)            116.9985                                         !
 ! A34   A(19,17,21)           102.4609                                         !
 ! A35   A(19,17,23)           108.2533                                         !
 ! A36   A(21,17,23)           108.6136                                         !
 ! A37   A(10,18,20)           110.0734                                         !
 ! A38   A(10,18,22)           109.499                                          !
 ! A39   A(10,18,24)           116.8294                                         !
 ! A40   A(20,18,22)           102.6129                                         !
 ! A41   A(20,18,24)           108.6368                                         !
 ! A42   A(22,18,24)           108.2286                                         !
 ! A43   A(17,19,56)           129.1186                                         !
 ! A44   A(11,23,17)           119.5069                                         !
 ! A45   A(11,23,25)           126.5537                                         !
 ! A46   A(17,23,25)           113.9385                                         !
 ! A47   A(12,24,18)           119.5868                                         !
 ! A48   A(12,24,26)           126.5076                                         !
 ! A49   A(18,24,26)           113.9054                                         !
 ! A50   A(1,25,23)            119.1057                                         !
 ! A51   A(1,25,43)            117.7804                                         !
 ! A52   A(23,25,43)           123.1099                                         !
 ! A53   A(2,26,24)            119.0563                                         !
 ! A54   A(2,26,44)            117.7402                                         !
 ! A55   A(24,26,44)           123.2035                                         !
 ! A56   A(13,27,29)           110.3987                                         !
 ! A57   A(13,27,31)           110.4324                                         !
 ! A58   A(13,27,33)           111.6224                                         !
 ! A59   A(29,27,31)           108.3775                                         !
 ! A60   A(29,27,33)           109.1201                                         !
 ! A61   A(31,27,33)           106.769                                          !
 ! A62   A(14,28,30)           110.418                                          !
 ! A63   A(14,28,32)           111.5993                                         !
 ! A64   A(14,28,34)           110.4024                                         !
 ! A65   A(30,28,32)           109.1292                                         !
 ! A66   A(30,28,34)           108.3784                                         !
 ! A67   A(32,28,34)           106.7936                                         !
 ! A68   A(28,32,33)           127.787                                          !
 ! A69   A(27,33,32)           128.107                                          !
 ! A70   A(15,35,37)           108.5296                                         !
 ! A71   A(15,35,39)           109.7203                                         !
 ! A72   A(15,35,41)           113.4652                                         !
 ! A73   A(37,35,39)           108.4319                                         !
 ! A74   A(37,35,41)           109.4766                                         !
 ! A75   A(39,35,41)           107.1075                                         !
 ! A76   A(16,36,38)           108.5881                                         !
 ! A77   A(16,36,40)           113.1899                                         !
 ! A78   A(16,36,42)           109.843                                          !
 ! A79   A(38,36,40)           109.4884                                         !
 ! A80   A(38,36,42)           108.5562                                         !
 ! A81   A(40,36,42)           107.0805                                         !
 ! A82   A(25,43,45)           110.7813                                         !
 ! A83   A(25,43,47)           112.8758                                         !
 ! A84   A(25,43,49)           107.8718                                         !
 ! A85   A(45,43,47)           107.6279                                         !
 ! A86   A(45,43,49)           108.5757                                         !
 ! A87   A(47,43,49)           109.0239                                         !
 ! A88   A(26,44,46)           112.9966                                         !
 ! A89   A(26,44,48)           110.6617                                         !
 ! A90   A(26,44,50)           107.861                                          !
 ! A91   A(46,44,48)           107.6577                                         !
 ! A92   A(46,44,50)           109.156                                          !
 ! A93   A(48,44,50)           108.4151                                         !
 ! A94   A(11,51,53)           111.2486                                         !
 ! A95   A(11,51,55)           112.123                                          !
 ! A96   A(11,51,57)           110.0192                                         !
 ! A97   A(53,51,55)           108.7123                                         !
 ! A98   A(53,51,57)           107.1552                                         !
 ! A99   A(55,51,57)           107.3833                                         !
 ! A100  A(12,52,54)           112.1711                                         !
 ! A101  A(12,52,56)           111.0414                                         !
 ! A102  A(12,52,58)           109.9901                                         !
 ! A103  A(54,52,56)           108.7657                                         !
 ! A104  A(54,52,58)           107.3691                                         !
 ! A105  A(56,52,58)           107.317                                          !
 ! A106  A(19,56,52)            94.4442                                         !
 ! D1    D(7,5,11,23)          177.2759                                         !
 ! D2    D(7,5,11,51)           -3.1246                                         !
 ! D3    D(13,5,11,23)           1.2032                                         !
 ! D4    D(13,5,11,51)        -179.1973                                         !
 ! D5    D(7,5,13,9)          -176.0646                                         !
 ! D6    D(7,5,13,27)           -2.1595                                         !
 ! D7    D(11,5,13,9)            0.0118                                         !
 ! D8    D(11,5,13,27)         173.9168                                         !
 ! D9    D(8,6,12,24)          177.1946                                         !
 ! D10   D(8,6,12,52)           -3.2242                                         !
 ! D11   D(14,6,12,24)           1.3856                                         !
 ! D12   D(14,6,12,52)        -179.0332                                         !
 ! D13   D(8,6,14,10)         -175.6511                                         !
 ! D14   D(8,6,14,28)           -1.7156                                         !
 ! D15   D(12,6,14,10)           0.161                                          !
 ! D16   D(12,6,14,28)         174.0964                                         !
 ! D17   D(15,9,13,5)          174.875                                          !
 ! D18   D(15,9,13,27)           1.7905                                         !
 ! D19   D(17,9,13,5)           -1.5635                                         !
 ! D20   D(17,9,13,27)        -174.6479                                         !
 ! D21   D(13,9,15,3)            4.1605                                         !
 ! D22   D(13,9,15,35)        -174.3892                                         !
 ! D23   D(17,9,15,3)         -179.3478                                         !
 ! D24   D(17,9,15,35)           2.1024                                         !
 ! D25   D(13,9,17,19)        -121.7112                                         !
 ! D26   D(13,9,17,21)         126.4137                                         !
 ! D27   D(13,9,17,23)           1.8672                                         !
 ! D28   D(15,9,17,19)          61.7123                                         !
 ! D29   D(15,9,17,21)         -50.1628                                         !
 ! D30   D(15,9,17,23)        -174.7093                                         !
 ! D31   D(16,10,14,6)         174.8768                                         !
 ! D32   D(16,10,14,28)          1.7605                                         !
 ! D33   D(18,10,14,6)          -1.4204                                         !
 ! D34   D(18,10,14,28)       -174.5366                                         !
 ! D35   D(14,10,16,4)           4.9388                                         !
 ! D36   D(14,10,16,36)       -173.6905                                         !
 ! D37   D(18,10,16,4)        -178.7044                                         !
 ! D38   D(18,10,16,36)          2.6663                                         !
 ! D39   D(14,10,18,20)        125.6441                                         !
 ! D40   D(14,10,18,22)       -122.2682                                         !
 ! D41   D(14,10,18,24)          1.1653                                         !
 ! D42   D(16,10,18,20)        -50.7952                                         !
 ! D43   D(16,10,18,22)         61.2925                                         !
 ! D44   D(16,10,18,24)       -175.274                                          !
 ! D45   D(5,11,23,17)          -0.76                                           !
 ! D46   D(5,11,23,25)         178.8591                                         !
 ! D47   D(51,11,23,17)        179.7131                                         !
 ! D48   D(51,11,23,25)         -0.6679                                         !
 ! D49   D(5,11,51,53)        -106.7899                                         !
 ! D50   D(5,11,51,55)         131.2282                                         !
 ! D51   D(5,11,51,57)          11.7979                                         !
 ! D52   D(23,11,51,53)         72.7569                                         !
 ! D53   D(23,11,51,55)        -49.225                                          !
 ! D54   D(23,11,51,57)       -168.6552                                         !
 ! D55   D(6,12,24,18)          -1.5347                                         !
 ! D56   D(6,12,24,26)         178.268                                          !
 ! D57   D(52,12,24,18)        178.9608                                         !
 ! D58   D(52,12,24,26)         -1.2365                                         !
 ! D59   D(6,12,52,54)         134.1812                                         !
 ! D60   D(6,12,52,56)        -103.8832                                         !
 ! D61   D(6,12,52,58)          14.7573                                         !
 ! D62   D(24,12,52,54)        -46.2928                                         !
 ! D63   D(24,12,52,56)         75.6429                                         !
 ! D64   D(24,12,52,58)       -165.7167                                         !
 ! D65   D(5,13,27,29)          10.1898                                         !
 ! D66   D(5,13,27,31)        -109.6443                                         !
 ! D67   D(5,13,27,33)         131.7449                                         !
 ! D68   D(9,13,27,29)        -176.5512                                         !
 ! D69   D(9,13,27,31)          63.6147                                         !
 ! D70   D(9,13,27,33)         -54.9961                                         !
 ! D71   D(6,14,28,30)           9.1952                                         !
 ! D72   D(6,14,28,32)         130.7596                                         !
 ! D73   D(6,14,28,34)        -110.6333                                         !
 ! D74   D(10,14,28,30)       -177.5063                                         !
 ! D75   D(10,14,28,32)        -55.942                                          !
 ! D76   D(10,14,28,34)         62.6652                                         !
 ! D77   D(3,15,35,37)          16.2586                                         !
 ! D78   D(3,15,35,39)        -102.0605                                         !
 ! D79   D(3,15,35,41)         138.1862                                         !
 ! D80   D(9,15,35,37)        -165.1265                                         !
 ! D81   D(9,15,35,39)          76.5544                                         !
 ! D82   D(9,15,35,41)         -43.1988                                         !
 ! D83   D(4,16,36,38)          14.0741                                         !
 ! D84   D(4,16,36,40)         135.8761                                         !
 ! D85   D(4,16,36,42)        -104.5006                                         !
 ! D86   D(10,16,36,38)       -167.2358                                         !
 ! D87   D(10,16,36,40)        -45.4339                                         !
 ! D88   D(10,16,36,42)         74.1895                                         !
 ! D89   D(9,17,19,56)         146.5359                                         !
 ! D90   D(21,17,19,56)        -96.7015                                         !
 ! D91   D(23,17,19,56)         17.9493                                         !
 ! D92   D(9,17,23,11)          -0.6763                                         !
 ! D93   D(9,17,23,25)         179.6586                                         !
 ! D94   D(19,17,23,11)        123.5255                                         !
 ! D95   D(19,17,23,25)        -56.1397                                         !
 ! D96   D(21,17,23,11)       -125.9365                                         !
 ! D97   D(21,17,23,25)         54.3983                                         !
 ! D98   D(10,18,24,12)          0.3487                                         !
 ! D99   D(10,18,24,26)       -179.4778                                         !
 ! D100  D(20,18,24,12)       -124.8551                                         !
 ! D101  D(20,18,24,26)         55.3183                                         !
 ! D102  D(22,18,24,12)        124.4316                                         !
 ! D103  D(22,18,24,26)        -55.3949                                         !
 ! D104  D(17,19,56,52)       -133.4296                                         !
 ! D105  D(11,23,25,1)        -174.8113                                         !
 ! D106  D(11,23,25,43)          5.9299                                         !
 ! D107  D(17,23,25,1)           4.8259                                         !
 ! D108  D(17,23,25,43)       -174.4329                                         !
 ! D109  D(12,24,26,2)        -177.7277                                         !
 ! D110  D(12,24,26,44)          2.2105                                         !
 ! D111  D(18,24,26,2)           2.0846                                         !
 ! D112  D(18,24,26,44)       -177.9771                                         !
 ! D113  D(1,25,43,45)        -112.3891                                         !
 ! D114  D(1,25,43,47)         126.8357                                         !
 ! D115  D(1,25,43,49)           6.3202                                         !
 ! D116  D(23,25,43,45)         66.879                                          !
 ! D117  D(23,25,43,47)        -53.8963                                         !
 ! D118  D(23,25,43,49)       -174.4118                                         !
 ! D119  D(2,26,44,46)         130.0775                                         !
 ! D120  D(2,26,44,48)        -109.1111                                         !
 ! D121  D(2,26,44,50)           9.3283                                         !
 ! D122  D(24,26,44,46)        -49.8615                                         !
 ! D123  D(24,26,44,48)         70.9499                                         !
 ! D124  D(24,26,44,50)       -170.6107                                         !
 ! D125  D(13,27,33,32)         17.2274                                         !
 ! D126  D(29,27,33,32)        139.5198                                         !
 ! D127  D(31,27,33,32)       -103.546                                          !
 ! D128  D(14,28,32,33)         18.0523                                         !
 ! D129  D(30,28,32,33)        140.3601                                         !
 ! D130  D(34,28,32,33)       -102.6866                                         !
 ! D131  D(28,32,33,27)        -69.4115                                         !
 ! D132  D(12,52,56,19)         36.546                                          !
 ! D133  D(54,52,56,19)        160.4456                                         !
 ! D134  D(58,52,56,19)        -83.6934                                         !
 --------------------------------------------------------------------------------
 NAtoms=     58 NQM=       58 NQMF=       0 NMMI=      0 NMMIF=      0
                NMic=       0 NMicF=      0.
                    Isotopes and Nuclear Properties:
 (Nuclear quadrupole moments (NQMom) in fm**2, nuclear magnetic moments (NMagM)
  in nuclear magnetons)

  Atom         1           2           3           4           5           6           7           8           9          10
 IAtWgt=          16          16          16          16          14          14           1           1          12          12
 AtmWgt=  15.9949146  15.9949146  15.9949146  15.9949146  14.0030740  14.0030740   1.0078250   1.0078250  12.0000000  12.0000000
 NucSpn=           0           0           0           0           2           2           1           1           0           0
 AtZEff=   5.6000000   5.6000000   5.6000000   5.6000000   4.5500000   4.5500000   1.0000000   1.0000000   3.6000000   3.6000000
 NQMom=    0.0000000   0.0000000   0.0000000   0.0000000   2.0440000   2.0440000   0.0000000   0.0000000   0.0000000   0.0000000
 NMagM=    0.0000000   0.0000000   0.0000000   0.0000000   0.4037610   0.4037610   2.7928460   2.7928460   0.0000000   0.0000000
 AtZNuc=   8.0000000   8.0000000   8.0000000   8.0000000   7.0000000   7.0000000   1.0000000   1.0000000   6.0000000   6.0000000

  Atom        11          12          13          14          15          16          17          18          19          20
 IAtWgt=          12          12          12          12          12          12          12          12           1           1
 AtmWgt=  12.0000000  12.0000000  12.0000000  12.0000000  12.0000000  12.0000000  12.0000000  12.0000000   1.0078250   1.0078250
 NucSpn=           0           0           0           0           0           0           0           0           1           1
 AtZEff=   3.6000000   3.6000000   3.6000000   3.6000000   3.6000000   3.6000000   3.6000000   3.6000000   1.0000000   1.0000000
 NQMom=    0.0000000   0.0000000   0.0000000   0.0000000   0.0000000   0.0000000   0.0000000   0.0000000   0.0000000   0.0000000
 NMagM=    0.0000000   0.0000000   0.0000000   0.0000000   0.0000000   0.0000000   0.0000000   0.0000000   2.7928460   2.7928460
 AtZNuc=   6.0000000   6.0000000   6.0000000   6.0000000   6.0000000   6.0000000   6.0000000   6.0000000   1.0000000   1.0000000

  Atom        21          22          23          24          25          26          27          28          29          30
 IAtWgt=           1           1          12          12          12          12          12          12           1           1
 AtmWgt=   1.0078250   1.0078250  12.0000000  12.0000000  12.0000000  12.0000000  12.0000000  12.0000000   1.0078250   1.0078250
 NucSpn=           1           1           0           0           0           0           0           0           1           1
 AtZEff=   1.0000000   1.0000000   3.6000000   3.6000000   3.6000000   3.6000000   3.6000000   3.6000000   1.0000000   1.0000000
 NQMom=    0.0000000   0.0000000   0.0000000   0.0000000   0.0000000   0.0000000   0.0000000   0.0000000   0.0000000   0.0000000
 NMagM=    2.7928460   2.7928460   0.0000000   0.0000000   0.0000000   0.0000000   0.0000000   0.0000000   2.7928460   2.7928460
 AtZNuc=   1.0000000   1.0000000   6.0000000   6.0000000   6.0000000   6.0000000   6.0000000   6.0000000   1.0000000   1.0000000

  Atom        31          32          33          34          35          36          37          38          39          40
 IAtWgt=           1           1           1           1          12          12           1           1           1           1
 AtmWgt=   1.0078250   1.0078250   1.0078250   1.0078250  12.0000000  12.0000000   1.0078250   1.0078250   1.0078250   1.0078250
 NucSpn=           1           1           1           1           0           0           1           1           1           1
 AtZEff=   1.0000000   1.0000000   1.0000000   1.0000000   3.6000000   3.6000000   1.0000000   1.0000000   1.0000000   1.0000000
 NQMom=    0.0000000   0.0000000   0.0000000   0.0000000   0.0000000   0.0000000   0.0000000   0.0000000   0.0000000   0.0000000
 NMagM=    2.7928460   2.7928460   2.7928460   2.7928460   0.0000000   0.0000000   2.7928460   2.7928460   2.7928460   2.7928460
 AtZNuc=   1.0000000   1.0000000   1.0000000   1.0000000   6.0000000   6.0000000   1.0000000   1.0000000   1.0000000   1.0000000

  Atom        41          42          43          44          45          46          47          48          49          50
 IAtWgt=           1           1          12          12           1           1           1           1           1           1
 AtmWgt=   1.0078250   1.0078250  12.0000000  12.0000000   1.0078250   1.0078250   1.0078250   1.0078250   1.0078250   1.0078250
 NucSpn=           1           1           0           0           1           1           1           1           1           1
 AtZEff=   1.0000000   1.0000000   3.6000000   3.6000000   1.0000000   1.0000000   1.0000000   1.0000000   1.0000000   1.0000000
 NQMom=    0.0000000   0.0000000   0.0000000   0.0000000   0.0000000   0.0000000   0.0000000   0.0000000   0.0000000   0.0000000
 NMagM=    2.7928460   2.7928460   0.0000000   0.0000000   2.7928460   2.7928460   2.7928460   2.7928460   2.7928460   2.7928460
 AtZNuc=   1.0000000   1.0000000   6.0000000   6.0000000   1.0000000   1.0000000   1.0000000   1.0000000   1.0000000   1.0000000

  Atom        51          52          53          54          55          56          57          58
 IAtWgt=          12          12           1           1           1           1           1           1
 AtmWgt=  12.0000000  12.0000000   1.0078250   1.0078250   1.0078250   1.0078250   1.0078250   1.0078250
 NucSpn=           0           0           1           1           1           1           1           1
 AtZEff=   3.6000000   3.6000000   1.0000000   1.0000000   1.0000000   1.0000000   1.0000000   1.0000000
 NQMom=    0.0000000   0.0000000   0.0000000   0.0000000   0.0000000   0.0000000   0.0000000   0.0000000
 NMagM=    0.0000000   0.0000000   2.7928460   2.7928460   2.7928460   2.7928460   2.7928460   2.7928460
 AtZNuc=   6.0000000   6.0000000   1.0000000   1.0000000   1.0000000   1.0000000   1.0000000   1.0000000
 Leave Link  101 at Mon Jan 26 21:54:21 2026, MaxMem=  2147483648 cpu:               6.3 elap:               0.2
 (Enter /data/home/wyx/g16/l202.exe)
 Symmetry turned off by external request.
 Stoichiometry    C22H30N2O4
 Framework group  C1[X(C22H30N2O4)]
 Deg. of freedom   168
 Full point group                 C1      NOp   1
                          Input orientation:                          
 ---------------------------------------------------------------------
 Center     Atomic      Atomic             Coordinates (Angstroms)
 Number     Number       Type             X           Y           Z
 ---------------------------------------------------------------------
      1          8           0       -2.154896    4.782529    0.080477
      2          8           0       -2.745032    0.509377    3.239803
      3          8           0       -8.208107    3.632180   -1.071420
      4          8           0       -8.806305    1.645286    2.119821
      5          7           0       -4.920541    1.057317   -0.452111
      6          7           0       -5.521018    4.228380    2.721778
      7          1           0       -5.030846    0.056096   -0.522287
      8          1           0       -5.652459    5.228743    2.752611
      9          6           0       -5.934154    3.175922   -0.611835
     10          6           0       -6.520454    2.107705    2.513666
     11          6           0       -3.643311    1.511385   -0.276219
     12          6           0       -4.263193    3.775783    3.010620
     13          6           0       -6.055090    1.797786   -0.617528
     14          6           0       -6.638301    3.482829    2.473482
     15          6           0       -7.062473    4.050838   -0.888680
     16          6           0       -7.673371    1.230511    2.371589
     17          6           0       -4.599322    3.798604   -0.393822
     18          6           0       -5.194470    1.485778    2.789957
     19          1           0       -4.640819    4.455984    0.486349
     20          1           0       -5.272659    0.793513    3.635794
     21          1           0       -4.376317    4.502179   -1.204199
     22          1           0       -4.921400    0.820027    1.959461
     23          6           0       -3.437534    2.873344   -0.232451
     24          6           0       -4.051059    2.416725    3.038522
     25          6           0       -2.168590    3.550313   -0.031560
     26          6           0       -2.787874    1.744043    3.288791
     27          6           0       -7.282723    1.006920   -0.928659
     28          6           0       -7.898230    4.270512    2.324666
     29          1           0       -7.092797   -0.058381   -0.794099
     30          1           0       -7.677044    5.337395    2.281753
     31          1           0       -7.591381    1.173448   -1.961573
     32          1           0       -8.445351    3.984368    1.431555
     33          1           0       -8.117977    1.301270   -0.300849
     34          1           0       -8.561375    4.090612    3.171626
     35          6           0       -6.811769    5.537844   -0.988015
     36          6           0       -7.472178   -0.253335    2.572700
     37          1           0       -7.766967    6.053793   -0.931263
     38          1           0       -8.355955   -0.774606    2.213845
     39          1           0       -6.350037    5.770477   -1.950925
     40          1           0       -6.590940   -0.639378    2.063286
     41          1           0       -6.147447    5.917991   -0.214218
     42          1           0       -7.348610   -0.470083    3.636646
     43          6           0       -0.847816    2.823593    0.032637
     44          6           0       -1.509455    2.478978    3.607827
     45          1           0       -0.601378    2.382474   -0.934143
     46          1           0       -1.296009    3.282793    2.908452
     47          1           0       -0.840219    2.025229    0.770278
     48          1           0       -1.554384    2.913423    4.607647
     49          1           0       -0.079767    3.549344    0.288032
     50          1           0       -0.695552    1.758655    3.582624
     51          6           0       -2.641514    0.406662   -0.146029
     52          6           0       -3.285777    4.884031    3.248401
     53          1           0       -2.293107    0.307903    0.883686
     54          1           0       -2.676066    4.710262    4.128474
     55          1           0       -1.782061    0.556161   -0.791549
     56          1           0       -2.628470    5.018828    2.386597
     57          1           0       -3.095963   -0.543546   -0.424006
     58          1           0       -3.816995    5.822712    3.400988
 ---------------------------------------------------------------------
 Rotational constants (GHZ):           0.2475073           0.1746368           0.1565267
 Leave Link  202 at Mon Jan 26 21:54:21 2026, MaxMem=  2147483648 cpu:               0.1 elap:               0.0
 (Enter /data/home/wyx/g16/l301.exe)
 Standard basis: TZVP (5D, 7F)
 Ernie: Thresh=  0.10000D-02 Tol=  0.10000D-05 Strict=F.
   712 basis functions,  1220 primitive gaussians,   740 cartesian basis functions
   104 alpha electrons      104 beta electrons
       nuclear repulsion energy      2998.3506927206 Hartrees.
 IExCor=20419 DFT=T Ex+Corr=CAM-B3LYP ExCW=0 ScaHFX=  1.000000
 ScaDFX=  1.000000  1.000000  1.000000  0.810000 ScalE2=  1.000000  1.000000
 IRadAn=      5 IRanWt=     -1 IRanGd=            0 ICorTp=0 IEmpDi=141
 HFx  wShort=  0.000000 wLong=  0.330000 cFull=  0.190000 cShort=  0.000000 cLong=  0.460000
 DFx  wShort=  0.000000 wLong=  0.330000 cFull=  0.190000 cShort=  0.000000 cLong=  0.460000
 NAtoms=   58 NActive=   58 NUniq=   58 SFac= 1.00D+00 NAtFMM=   60 NAOKFM=F Big=F
 Integral buffers will be    131072 words long.
 Raffenetti 1 integral format.
 Two-electron integral symmetry is turned off.
 R6Disp:  Grimme-D3(BJ) Dispersion energy=       -0.0769547519 Hartrees.
 Nuclear repulsion after empirical dispersion term =     2998.2737379688 Hartrees.
 ------------------------------------------------------------------------------
 Polarizable Continuum Model (PCM)
 =================================
 Model                : PCM.
 Atomic radii         : UFF (Universal Force Field).
 Polarization charges : Total charges.
 Charge compensation  : None.
 Solution method      : On-the-fly selection.
 Cavity type          : Scaled VdW (van der Waals Surface) (Alpha=1.100).
 Cavity algorithm     : GePol (No added spheres)
                        Default sphere list used, NSphG=   58.
                        Lebedev-Laikov grids with approx.  5.0 points / Ang**2.
                        Smoothing algorithm: York/Karplus (Gamma=1.0000).
                        Polarization charges: spherical gaussians, with
                                              point-specific exponents (IZeta= 3).
                        Self-potential: point-specific (ISelfS= 7).
                        Self-field    : sphere-specific E.n sum rule (ISelfD= 2).
 Solvent              : Water, Eps=  78.355300 Eps(inf)=   1.777849
 ------------------------------------------------------------------------------
 GePol: Number of generator spheres                  =      58
 GePol: Total number of spheres                      =      58
 GePol: Number of exposed spheres                    =      58 (100.00%)
 GePol: Number of points                             =    3297
 GePol: Average weight of points                     =       0.13
 GePol: Minimum weight of points                     =   0.16D-11
 GePol: Maximum weight of points                     =    0.20577
 GePol: Number of points with low weight             =     238
 GePol: Fraction of low-weight points (<1% of avg)   =       7.22%
 GePol: Cavity surface area                          =    412.614 Ang**2
 GePol: Cavity volume                                =    540.433 Ang**3
 Leave Link  301 at Mon Jan 26 21:54:21 2026, MaxMem=  2147483648 cpu:               1.2 elap:               0.0
 (Enter /data/home/wyx/g16/l302.exe)
 NPDir=0 NMtPBC=     1 NCelOv=     1 NCel=       1 NClECP=     1 NCelD=      1
         NCelK=      1 NCelE2=     1 NClLst=     1 CellRange=     0.0.
 One-electron integrals computed using PRISM.
 NBasis=   712 RedAO= T EigKep=  1.64D-05  NBF=   712
 NBsUse=   712 1.00D-06 EigRej= -1.00D+00 NBFU=   712
 Precomputing XC quadrature grid using
 IXCGrd= 4 IRadAn=           5 IRanWt=          -1 IRanGd=           0 AccXCQ= 0.00D+00.
 Generated NRdTot=       0 NPtTot=           0 NUsed=           0 NTot=          32
 NSgBfM=   718   717   717   718   718 MxSgAt=    58 MxSgA2=    58.
 Leave Link  302 at Mon Jan 26 21:54:22 2026, MaxMem=  2147483648 cpu:              20.7 elap:               0.7
 (Enter /data/home/wyx/g16/l303.exe)
 DipDrv:  MaxL=1.
 Leave Link  303 at Mon Jan 26 21:54:22 2026, MaxMem=  2147483648 cpu:               3.1 elap:               0.1
 (Enter /data/home/wyx/g16/l308.exe)
 Leave Link  308 at Mon Jan 26 21:54:23 2026, MaxMem=  2147483648 cpu:               4.1 elap:               0.2
 (Enter /data/home/wyx/g16/l401.exe)
 Initial guess from the checkpoint file:  "DDL-DDL-S2-TD-Neq.chk"
 B after Tr=     0.000000    0.000000    0.000000
         Rot=    1.000000    0.000000    0.000000    0.000000 Ang=   0.00 deg.
 Guess basis will be translated and rotated to current coordinates.
 JPrj=2 DoOrth=T DoCkMO=T.
 Leave Link  401 at Mon Jan 26 21:54:23 2026, MaxMem=  2147483648 cpu:              18.3 elap:               0.6
 (Enter /data/home/wyx/g16/l502.exe)
 Two-electron integral symmetry not used.
 Closed shell SCF:
 Using DIIS extrapolation, IDIIS=  1040.
 NGot=  2147483648 LenX=  2146359098 LenY=  2145810758
 Requested convergence on RMS density matrix=1.00D-08 within 128 cycles.
 Requested convergence on MAX density matrix=1.00D-06.
 Requested convergence on             energy=1.00D-06.
 No special actions if energy rises.
 Fock matrices will be formed incrementally for  20 cycles.

 Cycle   1  Pass 1  IDiag  1:
 FoFJK:  IHMeth= 1 ICntrl=       0 DoSepK=T KAlg= 0 I1Cent=           0 FoldK=F
 IRaf=         1 NMat=       1 IRICut=       1 DoRegI=T DoRafI=F ISym2E= 0 IDoP0=0 IntGTp=1.
 FoFCou: FMM=F IPFlag=           0 FMFlag=      100000 FMFlg1=           0
         NFxFlg=           0 DoJE=T BraDBF=F KetDBF=F FulRan=T
         wScrn=  0.000000 ICntrl=       500 IOpCl=  0 I1Cent=           0 NGrid=           0
         NMat0=    1 NMatS0=      1 NMatT0=    0 NMatD0=    1 NMtDS0=    0 NMtDT0=    0
 Symmetry not used in FoFCou.
 Inv3:  Mode=1 IEnd=    32610627.
 Iteration    1 A*A^-1 deviation from unit magnitude is 3.44D-15 for     78.
 Iteration    1 A*A^-1 deviation from orthogonality  is 2.45D-15 for   2658   2467.
 Iteration    1 A^-1*A deviation from unit magnitude is 3.22D-15 for     78.
 Iteration    1 A^-1*A deviation from orthogonality  is 1.35D-12 for   2336   2292.
 E= -1266.67033936083    
 DIIS: error= 1.67D-08 at cycle   1 NSaved=   1.
 NSaved= 1 IEnMin= 1 EnMin= -1266.67033936083     IErMin= 1 ErrMin= 1.67D-08
 ErrMax= 1.67D-08  0.00D+00 EMaxC= 1.00D-01 BMatC= 2.08D-13 BMatP= 2.08D-13
 IDIUse=1 WtCom= 1.00D+00 WtEn= 0.00D+00
 Coeff-Com:  0.100D+01
 Coeff:      0.100D+01
 Gap=     0.194 Goal=   None    Shift=    0.000
 RMSDP=4.54D-09 MaxDP=4.72D-07              OVMax= 1.87D-07

 Error on total polarization charges =  0.01859
 SCF Done:  E(RCAM-B3LYP) =  -1266.67033936     A.U. after    1 cycles
            NFock=  1  Conv=0.45D-08     -V/T= 2.0042
 KE= 1.261387572414D+03 PE=-8.948315570327D+03 EE= 3.421983920584D+03
 Leave Link  502 at Mon Jan 26 21:54:53 2026, MaxMem=  2147483648 cpu:             894.3 elap:              29.0
 (Enter /data/home/wyx/g16/l801.exe)
 DoSCS=F DFT=T ScalE2(SS,OS)=  1.000000  1.000000
 ExpMin= 9.52D-02 ExpMax= 2.70D+04 ExpMxC= 9.22D+02 IAcc=3 IRadAn=         5 AccDes= 0.00D+00
 HarFok:  IExCor=  205 AccDes= 0.00D+00 IRadAn=         5 IDoV=-2 UseB2=F ITyADJ=14
 ICtDFT= 12500011 ScaDFX=  1.000000  1.000000  1.000000  1.000000
 GSVD:  LWork=       -1008 too small for GESVD, short by        4340 words or        4340 for optimal perf.
 Largest valence mixing into a core orbital is  5.64D-05
 Largest core mixing into a valence orbital is  1.33D-05
 Range of M.O.s used for correlation:    29   712
 NBasis=   712 NAE=   104 NBE=   104 NFC=    28 NFV=     0
 NROrb=    684 NOA=    76 NOB=    76 NVA=   608 NVB=   608

 **** Warning!!: The largest alpha MO coefficient is  0.52089981D+02

 Leave Link  801 at Mon Jan 26 21:54:53 2026, MaxMem=  2147483648 cpu:               2.6 elap:               0.1
 (Enter /data/home/wyx/g16/l914.exe)
 RHF ground state
 Two-electron integral symmetry not used.
 MDV=  2147483648 DFT=T DoStab=F Mixed=T DoRPA=T DoScal=F NonHer=T
 NEqPCM:  Using non-equilibrium solvation (IEInf=1, Eps=  78.3553, EpsInf=   1.7778)
 Inv3:  Mode=1 IEnd=    32610627.
 Iteration    1 A*A^-1 deviation from unit magnitude is 4.44D-15 for   1115.
 Iteration    1 A*A^-1 deviation from orthogonality  is 2.11D-15 for   2595    381.
 Iteration    1 A^-1*A deviation from unit magnitude is 3.89D-15 for   1115.
 Iteration    1 A^-1*A deviation from orthogonality  is 7.83D-15 for   3244   3238.
 Making orbital integer symmetry assigments:
    24 initial guesses have been made.
 Convergence on wavefunction:    0.001000000000000
 Davidson Disk Diagonalization:  ConvIn= 1.00D-03 SkipCon=T Conv= 1.00D-03.
 Max sub-space:  2000 roots to seek:    24 dimension of matrix:        92416
 Iteration     1 Dimension    24 NMult     0 NNew     24
 CISAX will form    24 AO SS matrices at one time.
 NMat=    24 NSing=    24 JSym2X= 0.
 FoFJK:  IHMeth= 1 ICntrl=       0 DoSepK=T KAlg= 0 I1Cent=           0 FoldK=F
 IRaf=         1 NMat=      48 IRICut=       1 DoRegI=T DoRafI=F ISym2E= 0 IDoP0=3 IntGTp=3.
 New state      5 was old state      8
 New state      6 was old state      9
 Excitation Energies [eV] at current iteration:
 Root      1 :     2.977550321584809
 Root      2 :     3.620694370483310
 Root      3 :     3.953842155444825
 Root      4 :     4.600532920777670
 Root      5 :     4.660275718875216
 Root      6 :     4.688568920369168
 Root      7 :     4.839544086725378
 Root      8 :     4.931774141341259
 Root      9 :     4.940316008168979
 Root     10 :     5.024598515332219
 Root     11 :     5.077406826981066
 Root     12 :     5.516881848993505
 Root     13 :     5.842306474422996
 Root     14 :     5.866816698003992
 Root     15 :     5.871696669487525
 Root     16 :     6.017320088067102
 Root     17 :     6.113714196145568
 Root     18 :     6.142360444420969
 Root     19 :     6.152737742295782
 Root     20 :     6.168512075159868
 Root     21 :     6.681492973912388
 Root     22 :     6.732394117168903
 Root     23 :     6.844637901846664
 Root     24 :     6.918546063280624
 Iteration     2 Dimension    36 NMult    24 NNew     12
 CISAX will form    12 AO SS matrices at one time.
 NMat=    12 NSing=    12 JSym2X= 0.
 Root      1 not converged, maximum delta is    0.113797011498958
 Root      2 not converged, maximum delta is    0.151213735448573
 Root      3 not converged, maximum delta is    0.117030598394562
 New state      4 was old state      5
 Root      4 not converged, maximum delta is    0.176988572296737
 New state      5 was old state      6
 Root      5 not converged, maximum delta is    0.170437266741919
 New state      6 was old state      4
 Root      6 not converged, maximum delta is    0.074954803216742
 Excitation Energies [eV] at current iteration:
 Root      1 :     2.640315574964749   Change is   -0.337234746620060
 Root      2 :     3.148145076959564   Change is   -0.472549293523746
 Root      3 :     3.869379008657964   Change is   -0.084463146786861
 Root      4 :     3.994416113139644   Change is   -0.665859605735572
 Root      5 :     4.012558982853362   Change is   -0.676009937515807
 Root      6 :     4.377817017967896   Change is   -0.222715902809774
 Iteration     3 Dimension    48 NMult    36 NNew     12
 CISAX will form    12 AO SS matrices at one time.
 NMat=    12 NSing=    12 JSym2X= 0.
 Root      1 not converged, maximum delta is    0.005059616833688
 Root      2 not converged, maximum delta is    0.011628888035537
 Root      3 not converged, maximum delta is    0.009161961588897
 Root      4 not converged, maximum delta is    0.036963842408392
 Root      5 not converged, maximum delta is    0.038026782972158
 Root      6 not converged, maximum delta is    0.060078718560879
 Excitation Energies [eV] at current iteration:
 Root      1 :     2.626719000050172   Change is   -0.013596574914577
 Root      2 :     3.127960402956706   Change is   -0.020184674002858
 Root      3 :     3.865124792549552   Change is   -0.004254216108412
 Root      4 :     3.932871758081131   Change is   -0.061544355058513
 Root      5 :     3.951232110869838   Change is   -0.061326871983524
 Root      6 :     4.358614310284016   Change is   -0.019202707683880
 Iteration     4 Dimension    60 NMult    48 NNew     12
 CISAX will form    12 AO SS matrices at one time.
 NMat=    12 NSing=    12 JSym2X= 0.
 Root      1 not converged, maximum delta is    0.003492119613899
 Root      2 not converged, maximum delta is    0.007020748851634
 Root      3 not converged, maximum delta is    0.001608041946394
 Root      4 not converged, maximum delta is    0.023071284309888
 Root      5 not converged, maximum delta is    0.012340192378231
 Root      6 not converged, maximum delta is    0.492772759318813
 Excitation Energies [eV] at current iteration:
 Root      1 :     2.624731677673095   Change is   -0.001987322377077
 Root      2 :     3.122553256812290   Change is   -0.005407146144416
 Root      3 :     3.864795104505636   Change is   -0.000329688043917
 Root      4 :     3.926757362985173   Change is   -0.006114395095958
 Root      5 :     3.945483993223544   Change is   -0.005748117646293
 Root      6 :     4.248451061595826   Change is   -0.110163248688190
 Iteration     5 Dimension    72 NMult    60 NNew     12
 CISAX will form    12 AO SS matrices at one time.
 NMat=    12 NSing=    12 JSym2X= 0.
 Root      1 has converged.
 Root      2 has converged.
 Root      3 not converged, maximum delta is    0.001956213339480
 Root      4 not converged, maximum delta is    0.011169225367616
 Root      5 not converged, maximum delta is    0.018095938822672
 Root      6 not converged, maximum delta is    0.106464488062305
 Excitation Energies [eV] at current iteration:
 Root      1 :     2.624602380711570   Change is   -0.000129296961525
 Root      2 :     3.122253451505740   Change is   -0.000299805306550
 Root      3 :     3.864753035662784   Change is   -0.000042068842852
 Root      4 :     3.925462821536347   Change is   -0.001294541448826
 Root      5 :     3.943434872665321   Change is   -0.002049120558223
 Root      6 :     4.163071378390832   Change is   -0.085379683204993
 Iteration     6 Dimension    80 NMult    72 NNew      8
 CISAX will form     8 AO SS matrices at one time.
 NMat=     8 NSing=     8 JSym2X= 0.
 Root      1 has converged.
 Root      2 has converged.
 Root      3 not converged, maximum delta is    0.001273883563013
 Root      4 not converged, maximum delta is    0.007536436921746
 Root      5 not converged, maximum delta is    0.016407027494170
 Root      6 not converged, maximum delta is    0.043792193007482
 Excitation Energies [eV] at current iteration:
 Root      1 :     2.624601139687904   Change is   -0.000001241023666
 Root      2 :     3.122242783367037   Change is   -0.000010668138703
 Root      3 :     3.864741004366099   Change is   -0.000012031296685
 Root      4 :     3.925224700576180   Change is   -0.000238120960167
 Root      5 :     3.942349767058265   Change is   -0.001085105607056
 Root      6 :     4.154148762685980   Change is   -0.008922615704852
 Iteration     7 Dimension    88 NMult    80 NNew      8
 CISAX will form     8 AO SS matrices at one time.
 NMat=     8 NSing=     8 JSym2X= 0.
 Root      1 has converged.
 Root      2 has converged.
 Root      3 has converged.
 Root      4 not converged, maximum delta is    0.001068671621059
 Root      5 not converged, maximum delta is    0.002933828801125
 Root      6 not converged, maximum delta is    0.065807104152229
 Excitation Energies [eV] at current iteration:
 Root      1 :     2.624600987958657   Change is   -0.000000151729247
 Root      2 :     3.122242137836782   Change is   -0.000000645530255
 Root      3 :     3.864739711755698   Change is   -0.000001292610402
 Root      4 :     3.925196360488136   Change is   -0.000028340088044
 Root      5 :     3.942201456939804   Change is   -0.000148310118461
 Root      6 :     4.152756259545886   Change is   -0.001392503140094
 Iteration     8 Dimension    94 NMult    88 NNew      6
 CISAX will form     6 AO SS matrices at one time.
 NMat=     6 NSing=     6 JSym2X= 0.
 Root      1 has converged.
 Root      2 has converged.
 Root      3 has converged.
 Root      4 has converged.
 Root      5 has converged.
 Root      6 not converged, maximum delta is    0.025293631042905
 Excitation Energies [eV] at current iteration:
 Root      1 :     2.624600573105345   Change is   -0.000000414853312
 Root      2 :     3.122242054529980   Change is   -0.000000083306802
 Root      3 :     3.864739631036944   Change is   -0.000000080718754
 Root      4 :     3.925194237944774   Change is   -0.000002122543362
 Root      5 :     3.942189129011647   Change is   -0.000012327928157
 Root      6 :     4.152466223579169   Change is   -0.000290035966717
 Iteration     9 Dimension    96 NMult    94 NNew      2
 CISAX will form     2 AO SS matrices at one time.
 NMat=     2 NSing=     2 JSym2X= 0.
 Root      1 has converged.
 Root      2 has converged.
 Root      3 has converged.
 Root      4 has converged.
 Root      5 has converged.
 Root      6 not converged, maximum delta is    0.003304077003906
 Excitation Energies [eV] at current iteration:
 Root      1 :     2.624600237974835   Change is   -0.000000335130510
 Root      2 :     3.122241875135802   Change is   -0.000000179394178
 Root      3 :     3.864739626129091   Change is   -0.000000004907853
 Root      4 :     3.925194177307804   Change is   -0.000000060636970
 Root      5 :     3.942188700977938   Change is   -0.000000428033709
 Root      6 :     4.152439599088376   Change is   -0.000026624490793
 Iteration    10 Dimension    98 NMult    96 NNew      2
 CISAX will form     2 AO SS matrices at one time.
 NMat=     2 NSing=     2 JSym2X= 0.
 Root      1 has converged.
 Root      2 has converged.
 Root      3 has converged.
 Root      4 has converged.
 Root      5 has converged.
 Root      6 has converged.
 Excitation Energies [eV] at current iteration:
 Root      1 :     2.624600153403836   Change is   -0.000000084570999
 Root      2 :     3.122241862478089   Change is   -0.000000012657713
 Root      3 :     3.864739625912954   Change is   -0.000000000216136
 Root      4 :     3.925194175919770   Change is   -0.000000001388034
 Root      5 :     3.942188695561072   Change is   -0.000000005416866
 Root      6 :     4.152437228238068   Change is   -0.000002370850307
 Convergence achieved on expansion vectors.
 ***********************************************************************
 Excited states from <AA,BB:AA,BB> singles matrix:
 ***********************************************************************
 
 1PDM for each excited state written to RWF  633
 Ground to excited state transition densities written to RWF  633
 Ground to excited state transition electric dipole moments (Au):
       state          X           Y           Z        Dip. S.      Osc.
         1         1.5757     -0.0014      0.2879      2.5656      0.1650
         2         0.0542      0.1257     -0.0901      0.0269      0.0021
         3         0.1119      0.0725     -0.5123      0.2803      0.0265
         4         0.0161     -0.0007     -0.0088      0.0003      0.0000
         5        -0.0034     -0.0015     -0.0263      0.0007      0.0001
         6        -0.0097     -0.0122     -0.0290      0.0011      0.0001
 Ground to excited state transition velocity dipole moments (Au):
       state          X           Y           Z        Dip. S.      Osc.
         1        -0.1466      0.0002     -0.0268      0.0222      0.1535
         2        -0.0059     -0.0190      0.0098      0.0005      0.0029
         3        -0.0157     -0.0069      0.0719      0.0055      0.0256
         4        -0.0014      0.0000     -0.0002      0.0000      0.0000
         5         0.0006      0.0001      0.0010      0.0000      0.0000
         6         0.0022      0.0030      0.0028      0.0000      0.0001
 Ground to excited state transition magnetic dipole moments (Au):
       state          X           Y           Z
         1         0.0009     -0.5517      0.7033
         2        -0.2457     -0.9025      2.0836
         3         0.4879      0.7640     -0.4244
         4         1.0168      0.0437      0.1751
         5        -0.5679      0.0811     -0.1605
         6        -0.2523     -0.6076     -0.1969
 Ground to excited state transition velocity quadrupole moments (Au):
       state          XX          YY          ZZ          XY          XZ          YZ
         1         2.7919      0.0685     -0.1472     -0.7310     -0.0428     -0.2396
         2         0.3750     -0.1867     -0.2153      0.8654     -0.7889      0.1350
         3         0.2716     -0.0695      0.3420     -0.1112     -0.6501      0.3261
         4         0.0375     -0.0002     -0.0431     -0.0240      0.0084      0.0755
         5        -0.0153     -0.0013      0.0295      0.0049     -0.0111     -0.0397
         6        -0.0557      0.0382      0.0102     -0.0379      0.0673     -0.0202
 <0|del|b> * <b|rxdel|0> + <0|del|b> * <b|delr+rdel|0>
 Rotatory Strengths (R) in cgs (10**-40 erg-esu-cm/Gauss)
       state          XX          YY          ZZ    R(velocity)    E-M Angle
         1         2.3909    -12.4488   -129.5942    -46.5507       98.22
         2        96.1653     38.9969    106.1915     80.4513       39.56
         3      -120.2534    -87.8932     -8.3053    -72.1506      126.01
         4        -0.0739     -3.8471     -3.2206     -2.3805      175.51
         5        -0.3523     -1.3032     -0.7684     -0.8079      135.63
         6        -6.2106     -2.4370     -4.9241     -4.5239      155.93
 1/2[<0|r|b>*<b|rxdel|0> + (<0|rxdel|b>*<b|r|0>)*]
 Rotatory Strengths (R) in cgs (10**-40 erg-esu-cm/Gauss)
       state          XX          YY          ZZ     R(length)
         1        -1.0157     -0.5356   -143.1742    -48.2418
         2         9.4146     80.2355    132.6988     74.1163
         3       -38.6272    -39.1622   -153.7449    -77.1781
         4       -11.5569      0.0208      1.0844     -3.4839
         5        -1.3478      0.0888     -2.9796     -1.4129
         6        -1.7280     -5.2231     -4.0426     -3.6646
  1/2[<0|del|b>*<b|r|0> + (<0|r|b>*<b|del|0>)*] (Au)
       state          X           Y           Z        Dip. S.   Osc.(frdel)
         1        -0.2310     -0.0000     -0.0077      0.2387      0.1591
         2        -0.0003     -0.0024     -0.0009      0.0036      0.0024
         3        -0.0018     -0.0005     -0.0368      0.0391      0.0261
         4        -0.0000     -0.0000      0.0000      0.0000      0.0000
         5        -0.0000     -0.0000     -0.0000      0.0000      0.0000
         6        -0.0000     -0.0000     -0.0001      0.0001      0.0001

 Excitation energies and oscillator strengths:
 
 Excited state symmetry could not be determined.
 Excited State   1:      Singlet-?Sym    2.6246 eV  472.39 nm  f=0.1650  <S**2>=0.000
     103 ->106        -0.12797
     104 ->105         0.69060
 This state for optimization and/or second-order correction.
 Total Energy, E(TD-HF/TD-DFT) =  -1266.57388708    
 Copying the excited state density for this state as the 1-particle RhoCI density.
 
 Excited state symmetry could not be determined.
 Excited State   2:      Singlet-?Sym    3.1222 eV  397.10 nm  f=0.0021  <S**2>=0.000
     103 ->105        -0.39914
     104 ->106         0.57618
 
 Excited state symmetry could not be determined.
 Excited State   3:      Singlet-?Sym    3.8647 eV  320.81 nm  f=0.0265  <S**2>=0.000
     103 ->105         0.57742
     104 ->106         0.40123
 
 Excited state symmetry could not be determined.
 Excited State   4:      Singlet-?Sym    3.9252 eV  315.87 nm  f=0.0000  <S**2>=0.000
     100 ->105         0.24483
     100 ->106        -0.28784
     100 ->107        -0.11539
     100 ->108         0.20601
     101 ->105         0.42944
     101 ->106        -0.16313
     101 ->107        -0.20001
     101 ->108         0.11704
 
 Excited state symmetry could not be determined.
 Excited State   5:      Singlet-?Sym    3.9422 eV  314.51 nm  f=0.0001  <S**2>=0.000
     100 ->105         0.41592
     100 ->106         0.17203
     100 ->107        -0.19408
     100 ->108        -0.12143
     101 ->105        -0.23734
     101 ->106        -0.30343
     101 ->107         0.10962
     101 ->108         0.21509
 
 Excited state symmetry could not be determined.
 Excited State   6:      Singlet-?Sym    4.1524 eV  298.58 nm  f=0.0001  <S**2>=0.000
      98 ->105        -0.31264
      98 ->106         0.33057
      98 ->107        -0.16166
      98 ->108         0.18729
      99 ->105         0.35752
      99 ->106        -0.11885
      99 ->107         0.18337
 SavETr:  write IOETrn=   770 NScale= 10 NData=  16 NLR=1 NState=    6 LETran=     118.
 Leave Link  914 at Mon Jan 26 22:16:39 2026, MaxMem=  2147483648 cpu:           41582.8 elap:            1305.3
 (Enter /data/home/wyx/g16/l601.exe)
 Copying SCF densities to generalized density rwf, IOpCl= 0 IROHF=0.

 **********************************************************************

            Population analysis using the SCF density.

 **********************************************************************

 Alpha  occ. eigenvalues --  -19.18133 -19.18099 -19.17187 -19.17160 -14.44579
 Alpha  occ. eigenvalues --  -14.44521 -10.33617 -10.33587 -10.32995 -10.32993
 Alpha  occ. eigenvalues --  -10.32610 -10.32541 -10.32056 -10.32001 -10.25484
 Alpha  occ. eigenvalues --  -10.25427 -10.25399 -10.25393 -10.24731 -10.24720
 Alpha  occ. eigenvalues --  -10.24600 -10.24584 -10.24520 -10.24496 -10.24301
 Alpha  occ. eigenvalues --  -10.24299 -10.23892 -10.23883  -1.11900  -1.11848
 Alpha  occ. eigenvalues --   -1.11214  -1.11109  -1.08204  -1.08054  -0.91483
 Alpha  occ. eigenvalues --   -0.91158  -0.90549  -0.90379  -0.84056  -0.84008
 Alpha  occ. eigenvalues --   -0.82610  -0.82403  -0.81649  -0.81434  -0.78702
 Alpha  occ. eigenvalues --   -0.78360  -0.74028  -0.73962  -0.71781  -0.71683
 Alpha  occ. eigenvalues --   -0.68770  -0.68657  -0.61736  -0.61668  -0.58239
 Alpha  occ. eigenvalues --   -0.58187  -0.57308  -0.57120  -0.57058  -0.54728
 Alpha  occ. eigenvalues --   -0.54546  -0.54135  -0.54079  -0.53565  -0.53065
 Alpha  occ. eigenvalues --   -0.52489  -0.52445  -0.52217  -0.50507  -0.50439
 Alpha  occ. eigenvalues --   -0.50099  -0.49972  -0.49565  -0.49505  -0.49372
 Alpha  occ. eigenvalues --   -0.48805  -0.48603  -0.48573  -0.47989  -0.47310
 Alpha  occ. eigenvalues --   -0.47077  -0.46996  -0.45365  -0.45354  -0.44987
 Alpha  occ. eigenvalues --   -0.44879  -0.44783  -0.43669  -0.43119  -0.43028
 Alpha  occ. eigenvalues --   -0.42295  -0.42231  -0.42037  -0.41834  -0.41322
 Alpha  occ. eigenvalues --   -0.41274  -0.34595  -0.32641  -0.32563  -0.31412
 Alpha  occ. eigenvalues --   -0.31273  -0.30919  -0.27365  -0.23749
 Alpha virt. eigenvalues --   -0.04358  -0.02041   0.01821   0.02599   0.05934
 Alpha virt. eigenvalues --    0.06961   0.07826   0.09113   0.09217   0.09554
 Alpha virt. eigenvalues --    0.10167   0.11040   0.11061   0.11215   0.11839
 Alpha virt. eigenvalues --    0.12568   0.12763   0.13103   0.13883   0.14455
 Alpha virt. eigenvalues --    0.14619   0.14893   0.15286   0.15459   0.15880
 Alpha virt. eigenvalues --    0.16681   0.16749   0.16974   0.17483   0.17677
 Alpha virt. eigenvalues --    0.18034   0.18234   0.18856   0.18983   0.19287
 Alpha virt. eigenvalues --    0.19461   0.19844   0.20379   0.20666   0.21198
 Alpha virt. eigenvalues --    0.21319   0.22047   0.23071   0.23349   0.23827
 Alpha virt. eigenvalues --    0.24177   0.24402   0.24784   0.25314   0.25506
 Alpha virt. eigenvalues --    0.25925   0.26191   0.26281   0.26693   0.27366
 Alpha virt. eigenvalues --    0.27489   0.27828   0.28146   0.28447   0.29203
 Alpha virt. eigenvalues --    0.29857   0.30172   0.30703   0.31327   0.31844
 Alpha virt. eigenvalues --    0.31890   0.32158   0.32682   0.33377   0.33842
 Alpha virt. eigenvalues --    0.34078   0.34540   0.35081   0.35170   0.35466
 Alpha virt. eigenvalues --    0.35881   0.35913   0.36171   0.37203   0.37872
 Alpha virt. eigenvalues --    0.38012   0.38535   0.39030   0.39147   0.39919
 Alpha virt. eigenvalues --    0.39997   0.41155   0.41197   0.41934   0.42096
 Alpha virt. eigenvalues --    0.43132   0.43545   0.44147   0.44388   0.45118
 Alpha virt. eigenvalues --    0.45296   0.45404   0.45738   0.45882   0.46254
 Alpha virt. eigenvalues --    0.46658   0.46915   0.47177   0.47239   0.47936
 Alpha virt. eigenvalues --    0.48212   0.48399   0.48690   0.48955   0.49077
 Alpha virt. eigenvalues --    0.49336   0.50031   0.50209   0.50436   0.50932
 Alpha virt. eigenvalues --    0.51515   0.51975   0.52237   0.52338   0.52650
 Alpha virt. eigenvalues --    0.52733   0.53089   0.53262   0.53519   0.54088
 Alpha virt. eigenvalues --    0.54537   0.54937   0.55034   0.55491   0.55671
 Alpha virt. eigenvalues --    0.55747   0.55889   0.56989   0.57448   0.58235
 Alpha virt. eigenvalues --    0.58332   0.58635   0.59156   0.59458   0.60134
 Alpha virt. eigenvalues --    0.60905   0.61147   0.61648   0.61869   0.62437
 Alpha virt. eigenvalues --    0.62839   0.63255   0.63513   0.63818   0.64121
 Alpha virt. eigenvalues --    0.64831   0.65203   0.66207   0.66255   0.67217
 Alpha virt. eigenvalues --    0.67877   0.68104   0.68230   0.68474   0.68877
 Alpha virt. eigenvalues --    0.69191   0.69901   0.70364   0.71483   0.71768
 Alpha virt. eigenvalues --    0.72315   0.73023   0.73955   0.74153   0.75013
 Alpha virt. eigenvalues --    0.75345   0.75553   0.76594   0.76683   0.77299
 Alpha virt. eigenvalues --    0.77878   0.78323   0.78762   0.79401   0.79643
 Alpha virt. eigenvalues --    0.80085   0.80415   0.81317   0.81819   0.83563
 Alpha virt. eigenvalues --    0.84606   0.84718   0.85015   0.85754   0.86196
 Alpha virt. eigenvalues --    0.87745   0.88197   0.89008   0.89971   0.91590
 Alpha virt. eigenvalues --    0.92224   0.92607   0.93482   0.94375   0.95854
 Alpha virt. eigenvalues --    0.98112   0.99491   0.99829   1.02383   1.05210
 Alpha virt. eigenvalues --    1.06061   1.06380   1.11429   1.21667   1.24501
 Alpha virt. eigenvalues --    1.26258   1.27031   1.28212   1.29146   1.30080
 Alpha virt. eigenvalues --    1.30796   1.31497   1.32815   1.32893   1.33729
 Alpha virt. eigenvalues --    1.34319   1.34888   1.36105   1.36844   1.37235
 Alpha virt. eigenvalues --    1.37508   1.38025   1.38353   1.38447   1.39018
 Alpha virt. eigenvalues --    1.39658   1.39905   1.40669   1.40975   1.41245
 Alpha virt. eigenvalues --    1.41387   1.41965   1.42158   1.42976   1.43295
 Alpha virt. eigenvalues --    1.43934   1.44032   1.44185   1.44858   1.45213
 Alpha virt. eigenvalues --    1.45465   1.46073   1.46706   1.46943   1.47007
 Alpha virt. eigenvalues --    1.48037   1.48369   1.48675   1.49083   1.49731
 Alpha virt. eigenvalues --    1.50195   1.50709   1.51319   1.51709   1.51911
 Alpha virt. eigenvalues --    1.53122   1.54262   1.54312   1.56087   1.56614
 Alpha virt. eigenvalues --    1.56665   1.57213   1.58056   1.58549   1.58994
 Alpha virt. eigenvalues --    1.59939   1.60091   1.61346   1.61416   1.61605
 Alpha virt. eigenvalues --    1.62357   1.62881   1.63194   1.63413   1.63605
 Alpha virt. eigenvalues --    1.63965   1.64933   1.65022   1.65322   1.65677
 Alpha virt. eigenvalues --    1.65924   1.66569   1.66625   1.66892   1.67669
 Alpha virt. eigenvalues --    1.67817   1.68327   1.68371   1.68548   1.68888
 Alpha virt. eigenvalues --    1.69497   1.69775   1.70102   1.71126   1.71160
 Alpha virt. eigenvalues --    1.71732   1.72382   1.72492   1.72595   1.73579
 Alpha virt. eigenvalues --    1.73810   1.74130   1.74772   1.74863   1.75839
 Alpha virt. eigenvalues --    1.75999   1.76257   1.76535   1.76697   1.77776
 Alpha virt. eigenvalues --    1.78317   1.78903   1.79451   1.80623   1.80954
 Alpha virt. eigenvalues --    1.81447   1.83123   1.84242   1.84810   1.85439
 Alpha virt. eigenvalues --    1.87169   1.87705   1.87823   1.88401   1.88604
 Alpha virt. eigenvalues --    1.89397   1.89731   1.89941   1.90345   1.90958
 Alpha virt. eigenvalues --    1.91196   1.91843   1.92159   1.92723   1.92827
 Alpha virt. eigenvalues --    1.93366   1.93757   1.93990   1.95600   1.96014
 Alpha virt. eigenvalues --    1.96982   1.97488   1.98254   1.98772   1.99046
 Alpha virt. eigenvalues --    2.00314   2.01861   2.01987   2.02208   2.02898
 Alpha virt. eigenvalues --    2.03662   2.03832   2.05507   2.06565   2.07733
 Alpha virt. eigenvalues --    2.07957   2.08250   2.09148   2.09496   2.10145
 Alpha virt. eigenvalues --    2.10882   2.12500   2.12986   2.14556   2.15223
 Alpha virt. eigenvalues --    2.15755   2.16497   2.17867   2.18307   2.19650
 Alpha virt. eigenvalues --    2.20517   2.20776   2.21580   2.22699   2.23278
 Alpha virt. eigenvalues --    2.23771   2.24781   2.25862   2.26185   2.26227
 Alpha virt. eigenvalues --    2.27630   2.28066   2.28620   2.28763   2.29041
 Alpha virt. eigenvalues --    2.29581   2.30389   2.31705   2.32777   2.33255
 Alpha virt. eigenvalues --    2.34310   2.34578   2.35057   2.35817   2.36599
 Alpha virt. eigenvalues --    2.36971   2.37057   2.38648   2.39133   2.39742
 Alpha virt. eigenvalues --    2.40065   2.40425   2.40629   2.41145   2.42183
 Alpha virt. eigenvalues --    2.42667   2.43580   2.44082   2.45407   2.45579
 Alpha virt. eigenvalues --    2.45789   2.46953   2.47695   2.48202   2.49606
 Alpha virt. eigenvalues --    2.49801   2.50539   2.50566   2.51361   2.52109
 Alpha virt. eigenvalues --    2.53794   2.53974   2.54470   2.55946   2.55971
 Alpha virt. eigenvalues --    2.56387   2.56879   2.57532   2.58343   2.59140
 Alpha virt. eigenvalues --    2.59317   2.60120   2.60383   2.60611   2.61609
 Alpha virt. eigenvalues --    2.62257   2.62977   2.63080   2.64802   2.65363
 Alpha virt. eigenvalues --    2.66680   2.66799   2.67503   2.67741   2.67828
 Alpha virt. eigenvalues --    2.68239   2.68999   2.69643   2.70397   2.70946
 Alpha virt. eigenvalues --    2.72255   2.72585   2.74332   2.74531   2.75447
 Alpha virt. eigenvalues --    2.75709   2.76792   2.76915   2.77840   2.77967
 Alpha virt. eigenvalues --    2.78192   2.79296   2.79744   2.79859   2.80551
 Alpha virt. eigenvalues --    2.81107   2.81717   2.81917   2.82535   2.82971
 Alpha virt. eigenvalues --    2.83089   2.83666   2.84841   2.85346   2.86490
 Alpha virt. eigenvalues --    2.86980   2.88010   2.89221   2.89352   2.89839
 Alpha virt. eigenvalues --    2.89991   2.90736   2.91003   2.91886   2.92095
 Alpha virt. eigenvalues --    2.92571   2.92710   2.94242   2.94696   2.94991
 Alpha virt. eigenvalues --    2.96310   2.96980   2.97547   2.98852   3.00341
 Alpha virt. eigenvalues --    3.01370   3.02767   3.02952   3.03647   3.04532
 Alpha virt. eigenvalues --    3.05158   3.10973   3.14315   3.14387   3.15088
 Alpha virt. eigenvalues --    3.15579   3.16224   3.19105   3.19349   3.20102
 Alpha virt. eigenvalues --    3.21907   3.22781   3.23196   3.24158   3.25317
 Alpha virt. eigenvalues --    3.26333   3.26389   3.27085   3.28032   3.28112
 Alpha virt. eigenvalues --    3.28198   3.28331   3.30104   3.30501   3.31687
 Alpha virt. eigenvalues --    3.33111   3.33808   3.36155   3.36414   3.36813
 Alpha virt. eigenvalues --    3.38600   3.38684   3.38884   3.39264   3.40652
 Alpha virt. eigenvalues --    3.40964   3.41720   3.41979   3.42152   3.43201
 Alpha virt. eigenvalues --    3.43778   3.44168   3.44807   3.45172   3.45465
 Alpha virt. eigenvalues --    3.45522   3.46062   3.47032   3.47721   3.47730
 Alpha virt. eigenvalues --    3.49318   3.50526   3.50540   3.51577   3.52636
 Alpha virt. eigenvalues --    3.52818   3.53193   3.56509   3.56667   3.58990
 Alpha virt. eigenvalues --    3.59507   3.59832   3.61325   3.62159   3.63455
 Alpha virt. eigenvalues --    3.65192   3.69685   3.94666   3.95764   4.01844
 Alpha virt. eigenvalues --    4.02391   4.36481   4.37171   4.37998   4.40171
 Alpha virt. eigenvalues --   21.80854  21.97884  22.06708  22.14550  22.16186
 Alpha virt. eigenvalues --   22.17565  22.18003  22.19478  22.21096  22.21497
 Alpha virt. eigenvalues --   22.23311  22.25841  22.26292  22.29312  22.30173
 Alpha virt. eigenvalues --   22.31424  22.35666  22.36129  22.39970  22.41546
 Alpha virt. eigenvalues --   22.45503  22.46391  32.07452  32.07982  43.73651
 Alpha virt. eigenvalues --   43.73859  43.75369  43.78666
          Condensed to atoms (all electrons):
 Mulliken charges:
               1
     1  O   -0.375028
     2  O   -0.372866
     3  O   -0.376731
     4  O   -0.376029
     5  N   -0.235238
     6  N   -0.236057
     7  H    0.292817
     8  H    0.292951
     9  C   -0.013334
    10  C   -0.015629
    11  C    0.256611
    12  C    0.262897
    13  C    0.187009
    14  C    0.185832
    15  C    0.086880
    16  C    0.088110
    17  C   -0.360332
    18  C   -0.356621
    19  H    0.165731
    20  H    0.167854
    21  H    0.169325
    22  H    0.166295
    23  C   -0.043668
    24  C   -0.051340
    25  C    0.102922
    26  C    0.108318
    27  C   -0.413673
    28  C   -0.414387
    29  H    0.132865
    30  H    0.133049
    31  H    0.173458
    32  H    0.175444
    33  H    0.175158
    34  H    0.173214
    35  C   -0.429215
    36  C   -0.426862
    37  H    0.152147
    38  H    0.152276
    39  H    0.176594
    40  H    0.148077
    41  H    0.148743
    42  H    0.175009
    43  C   -0.511406
    44  C   -0.521443
    45  H    0.191261
    46  H    0.174615
    47  H    0.172115
    48  H    0.191473
    49  H    0.161068
    50  H    0.162484
    51  C   -0.540503
    52  C   -0.546875
    53  H    0.213359
    54  H    0.186801
    55  H    0.187105
    56  H    0.217759
    57  H    0.154747
    58  H    0.154861
 Sum of Mulliken charges =  -0.00000
 Mulliken charges with hydrogens summed into heavy atoms:
               1
     1  O   -0.375028
     2  O   -0.372866
     3  O   -0.376731
     4  O   -0.376029
     5  N    0.057579
     6  N    0.056894
     9  C   -0.013334
    10  C   -0.015629
    11  C    0.256611
    12  C    0.262897
    13  C    0.187009
    14  C    0.185832
    15  C    0.086880
    16  C    0.088110
    17  C   -0.025276
    18  C   -0.022471
    23  C   -0.043668
    24  C   -0.051340
    25  C    0.102922
    26  C    0.108318
    27  C    0.067808
    28  C    0.067321
    35  C    0.048269
    36  C    0.048500
    43  C    0.013038
    44  C    0.007130
    51  C    0.014707
    52  C    0.012546
 Electronic spatial extent (au):  <R**2>=          33248.0340
 Charge=              0.0000 electrons
 Dipole moment (field-independent basis, Debye):
    X=              6.1026    Y=             -0.0210    Z=              0.9924  Tot=              6.1828
 Quadrupole moment (field-independent basis, Debye-Ang):
   XX=           -264.0730   YY=           -158.1970   ZZ=           -164.1008
   XY=             11.2270   XZ=             -5.4398   YZ=             29.0086
 Traceless Quadrupole moment (field-independent basis, Debye-Ang):
   XX=            -68.6161   YY=             37.2600   ZZ=             31.3561
   XY=             11.2270   XZ=             -5.4398   YZ=             29.0086
 Octapole moment (field-independent basis, Debye-Ang**2):
  XXX=           3682.0041  YYY=          -1254.3874  ZZZ=           -571.1157  XYY=            739.0740
  XXY=           -658.5552  XXZ=           -183.1838  XZZ=            833.5026  YZZ=           -360.9982
  YYZ=            -51.8988  XYZ=           -125.8055
 Hexadecapole moment (field-independent basis, Debye-Ang**3):
 XXXX=         -43157.2803 YYYY=          -9314.0936 ZZZZ=          -4453.8722 XXXY=           9365.5746
 XXXZ=           2948.0334 YYYX=           5675.4123 YYYZ=           -672.9028 ZZZX=           2668.1146
 ZZZY=          -1125.2557 XXYY=          -6387.8447 XXZZ=          -5950.6758 YYZZ=          -1959.1397
 XXYZ=            198.8807 YYXZ=            186.9646 ZZXY=           1947.5273
 N-N= 2.998273737969D+03 E-N=-8.948315574961D+03  KE= 1.261387572414D+03
 Leave Link  601 at Mon Jan 26 22:16:45 2026, MaxMem=  2147483648 cpu:               3.2 elap:               0.2
 (Enter /data/home/wyx/g16/l9999.exe)
 Electronic transition elements 
                 1             2             3             4             5 
      1  -0.126657D+04 -0.126656D+04 -0.126653D+04 -0.126653D+04 -0.126653D+04
      2   0.157565D+01  0.541780D-01  0.111948D+00  0.160731D-01 -0.335579D-02
      3  -0.137286D-02  0.125720D+00  0.724883D-01 -0.670958D-03 -0.154705D-02
      4   0.287879D+00 -0.900578D-01 -0.512324D+00 -0.875796D-02 -0.262516D-01
      5  -0.146580D+00 -0.593559D-02 -0.157304D-01 -0.139850D-02  0.609547D-03
      6   0.174876D-03 -0.190379D-01 -0.694516D-02  0.468819D-04  0.102503D-03
      7  -0.267563D-01  0.984837D-02  0.718514D-01 -0.210480D-03  0.988690D-03
      8   0.911565D-03 -0.245731D+00  0.487927D+00  0.101677D+01 -0.567931D+00
      9  -0.551651D+00 -0.902487D+00  0.763972D+00  0.437371D-01  0.811410D-01
     10   0.703290D+00  0.208365D+01 -0.424360D+00  0.175084D+00 -0.160503D+00
     11   0.279185D+01  0.374964D+00  0.271560D+00  0.374501D-01 -0.152923D-01
     12   0.684897D-01 -0.186687D+00 -0.694813D-01 -0.175062D-03 -0.128059D-02
     13  -0.147173D+00 -0.215300D+00  0.342032D+00 -0.431478D-01  0.295488D-01
     14  -0.730992D+00  0.865434D+00 -0.111217D+00 -0.240091D-01  0.494226D-02
     15  -0.427944D-01 -0.788887D+00 -0.650148D+00  0.840880D-02 -0.110789D-01
     16  -0.239554D+00  0.134982D+00  0.326105D+00  0.755258D-01 -0.396735D-01
                 6 
      1  -0.126652D+04
      2  -0.968669D-02
      3  -0.121561D-01
      4  -0.290377D-01
      5   0.220626D-02
      6   0.298564D-02
      7   0.283443D-02
      8  -0.252265D+00
      9  -0.607599D+00
     10  -0.196867D+00
     11  -0.557307D-01
     12   0.381935D-01
     13   0.102287D-01
     14  -0.379118D-01
     15   0.672682D-01
     16  -0.202382D-01
 1\1\GINC-CN012\SP\RCAM-B3LYP TD-FC\TZVP\C22H30N2O4\WYX\26-Jan-2026\0\\
 #p CAM-B3LYP/TZVP em=gd3bj TD=NStates=6 SCRF=(Solvent=Water) Geom=Chec
 k Guess=Read NoSymm\\Title Card Required\\0,1\O,0,-2.1548959642,4.7825
 292528,0.0804768164\O,0,-2.7450321902,0.5093772344,3.239802894\O,0,-8.
 2081067359,3.6321798941,-1.0714199704\O,0,-8.8063051222,1.6452864631,2
 .1198210195\N,0,-4.9205408331,1.0573169159,-0.4521109666\N,0,-5.521018
 3763,4.2283798306,2.7217779466\H,0,-5.0308456705,0.0560961613,-0.52228
 68623\H,0,-5.6524593587,5.2287427238,2.7526107259\C,0,-5.9341541887,3.
 1759217063,-0.6118346503\C,0,-6.5204536876,2.1077046778,2.5136657353\C
 ,0,-3.6433113415,1.5113847216,-0.2762186559\C,0,-4.2631929683,3.775782
 6813,3.0106195173\C,0,-6.0550901095,1.7977859491,-0.6175278089\C,0,-6.
 6383007998,3.4828291988,2.4734823558\C,0,-7.0624728903,4.0508380216,-0
 .8886798912\C,0,-7.673371299,1.2305107162,2.3715887446\C,0,-4.59932176
 97,3.7986039834,-0.3938223084\C,0,-5.1944697222,1.4857776476,2.7899568
 453\H,0,-4.6408192557,4.4559840075,0.4863486748\H,0,-5.2726587902,0.79
 35129328,3.6357942918\H,0,-4.3763173527,4.5021785897,-1.204199344\H,0,
 -4.9213995973,0.8200266379,1.9594606306\C,0,-3.4375341175,2.873344073,
 -0.2324509209\C,0,-4.0510586332,2.4167248129,3.0385219706\C,0,-2.16858
 97955,3.5503129646,-0.0315601592\C,0,-2.7878736367,1.7440432353,3.2887
 906685\C,0,-7.2827229289,1.0069197087,-0.9286592093\C,0,-7.8982298772,
 4.2705120863,2.3246659981\H,0,-7.0927966726,-0.0583807038,-0.794099072
 1\H,0,-7.6770444852,5.3373952763,2.2817528156\H,0,-7.5913814038,1.1734
 476744,-1.9615728578\H,0,-8.4453505055,3.9843679832,1.4315551055\H,0,-
 8.1179773021,1.3012696566,-0.3008493292\H,0,-8.5613746098,4.0906119411
 ,3.171626003\C,0,-6.8117693267,5.5378442773,-0.9880147389\C,0,-7.47217
 77987,-0.2533348001,2.5726997429\H,0,-7.7669670407,6.0537931093,-0.931
 2630075\H,0,-8.3559550498,-0.7746060463,2.2138451585\H,0,-6.3500365595
 ,5.7704772224,-1.9509245759\H,0,-6.5909403289,-0.6393782587,2.06328631
 14\H,0,-6.1474471221,5.9179909121,-0.214217821\H,0,-7.3486101906,-0.47
 00831247,3.6366459784\C,0,-0.8478156702,2.8235933394,0.032637485\C,0,-
 1.5094549713,2.4789780804,3.6078271271\H,0,-0.6013784645,2.382473576,-
 0.9341434771\H,0,-1.296009026,3.2827932344,2.9084520311\H,0,-0.8402188
 913,2.025229164,0.7702775125\H,0,-1.5543843947,2.9134234096,4.60764658
 44\H,0,-0.0797665307,3.5493435689,0.2880324696\H,0,-0.6955515489,1.758
 6549244,3.582624074\C,0,-2.6415141291,0.4066616999,-0.1460294115\C,0,-
 3.285776533,4.8840311251,3.2484011216\H,0,-2.2931065128,0.3079034886,0
 .8836862191\H,0,-2.6760661797,4.7102622151,4.1284741446\H,0,-1.7820610
 823,0.5561608542,-0.7915494411\H,0,-2.6284696667,5.0188284624,2.386597
 4968\H,0,-3.0959629503,-0.54354602,-0.4240056416\H,0,-3.8169947397,5.8
 227115902,3.400987905\\Version=ES64L-G16RevA.03\HF=-1266.6703394\RMSD=
 4.537e-09\PG=C01 [X(C22H30N2O4)]\\@


 HERE WE GO......
 SLIDING DOWN THE RAZOR BLADE OF LIFE......
                                 TOM LEHRER
 Job cpu time:       0 days 11 hours 49 minutes  2.5 seconds.
 Elapsed time:       0 days  0 hours 22 minutes 16.7 seconds.
 File lengths (MBytes):  RWF=   2894 Int=      0 D2E=      0 Chk=    163 Scr=      1
 Normal termination of Gaussian 16 at Mon Jan 26 22:16:52 2026.
