 Entering Gaussian System, Link 0=g16
 Input=DDL-DDL-S1min-S1-cLR-1.gjf
 Output=DDL-DDL-S1min-S1-cLR-1.log
 Initial command:
 /data/home/wyx/g16/l1.exe "/scr/tmp/wyx/13078/Gau-2014283.inp" -scrdir="/scr/tmp/wyx/13078/"
 Entering Link 1 = /data/home/wyx/g16/l1.exe PID=   2014284.
  
 Copyright (c) 1988,1990,1992,1993,1995,1998,2003,2009,2016,
            Gaussian, Inc.  All Rights Reserved.
  
 This is part of the Gaussian(R) 16 program.  It is based on
 the Gaussian(R) 09 system (copyright 2009, Gaussian, Inc.),
 the Gaussian(R) 03 system (copyright 2003, Gaussian, Inc.),
 the Gaussian(R) 98 system (copyright 1998, Gaussian, Inc.),
 the Gaussian(R) 94 system (copyright 1995, Gaussian, Inc.),
 the Gaussian 92(TM) system (copyright 1992, Gaussian, Inc.),
 the Gaussian 90(TM) system (copyright 1990, Gaussian, Inc.),
 the Gaussian 88(TM) system (copyright 1988, Gaussian, Inc.),
 the Gaussian 86(TM) system (copyright 1986, Carnegie Mellon
 University), and the Gaussian 82(TM) system (copyright 1983,
 Carnegie Mellon University). Gaussian is a federally registered
 trademark of Gaussian, Inc.
  
 This software contains proprietary and confidential information,
 including trade secrets, belonging to Gaussian, Inc.
  
 This software is provided under written license and may be
 used, copied, transmitted, or stored only in accord with that
 written license.
  
 The following legend is applicable only to US Government
 contracts under FAR:
  
                    RESTRICTED RIGHTS LEGEND
  
 Use, reproduction and disclosure by the US Government is
 subject to restrictions as set forth in subparagraphs (a)
 and (c) of the Commercial Computer Software - Restricted
 Rights clause in FAR 52.227-19.
  
 Gaussian, Inc.
 340 Quinnipiac St., Bldg. 40, Wallingford CT 06492
  
  
 ---------------------------------------------------------------
 Warning -- This program may not be used in any manner that
 competes with the business of Gaussian, Inc. or will provide
 assistance to any competitor of Gaussian, Inc.  The licensee
 of this program is prohibited from giving any competitor of
 Gaussian, Inc. access to this program.  By using this program,
 the user acknowledges that Gaussian, Inc. is engaged in the
 business of creating and licensing software in the field of
 computational chemistry and represents and warrants to the
 licensee that it is not a competitor of Gaussian, Inc. and that
 it will not use this program in any manner prohibited above.
 ---------------------------------------------------------------
  

 Cite this work as:
 Gaussian 16, Revision A.03,
 M. J. Frisch, G. W. Trucks, H. B. Schlegel, G. E. Scuseria, 
 M. A. Robb, J. R. Cheeseman, G. Scalmani, V. Barone, 
 G. A. Petersson, H. Nakatsuji, X. Li, M. Caricato, A. V. Marenich, 
 J. Bloino, B. G. Janesko, R. Gomperts, B. Mennucci, H. P. Hratchian, 
 J. V. Ortiz, A. F. Izmaylov, J. L. Sonnenberg, D. Williams-Young, 
 F. Ding, F. Lipparini, F. Egidi, J. Goings, B. Peng, A. Petrone, 
 T. Henderson, D. Ranasinghe, V. G. Zakrzewski, J. Gao, N. Rega, 
 G. Zheng, W. Liang, M. Hada, M. Ehara, K. Toyota, R. Fukuda, 
 J. Hasegawa, M. Ishida, T. Nakajima, Y. Honda, O. Kitao, H. Nakai, 
 T. Vreven, K. Throssell, J. A. Montgomery, Jr., J. E. Peralta, 
 F. Ogliaro, M. J. Bearpark, J. J. Heyd, E. N. Brothers, K. N. Kudin, 
 V. N. Staroverov, T. A. Keith, R. Kobayashi, J. Normand, 
 K. Raghavachari, A. P. Rendell, J. C. Burant, S. S. Iyengar, 
 J. Tomasi, M. Cossi, J. M. Millam, M. Klene, C. Adamo, R. Cammi, 
 J. W. Ochterski, R. L. Martin, K. Morokuma, O. Farkas, 
 J. B. Foresman, and D. J. Fox, Gaussian, Inc., Wallingford CT, 2016.
 
 ******************************************
 Gaussian 16:  ES64L-G16RevA.03 25-Dec-2016
                24-Jan-2026 
 ******************************************
 %nprocshared=32
 Will use up to   32 processors via shared memory.
 %mem=16GB
 %oldchk=DDL-DDL-S1min-S1-cLR.chk
 %chk=DDL-DDL-S1min-S1-cLR-1.chk
 Copying data from "DDL-DDL-S1min-S1-cLR.chk" to current chk file "DDL-DDL-S1min-S1-cLR-1.chk"
 IOpt=  2 FromEx=T IUOpen= 4 IOptOp= 5 NList=   0 IFRang= 0 IUIn= 4 IUOut= 2.
 ----------------------------------------------------------------------
 #p CAM-B3LYP/TZVP em=gd3bj SCRF=(Solvent=Water,NonEquilibrium=Read) Ge
 om=Check Guess=Read NoSymm
 ----------------------------------------------------------------------
 1/29=2,38=1,172=1/1;
 2/12=2,15=1,40=1/2;
 3/5=19,7=101,11=2,14=-4,25=1,30=1,70=6002201,72=1,74=-40,116=-2,124=41/1,2,3;
 4/5=1/1;
 5/5=2,38=6,53=1/2;
 6/7=2,8=2,9=2,10=2,28=1/1;
 99/5=1,9=1/99;
 Leave Link    1 at Sat Jan 24 16:30:06 2026, MaxMem=  2147483648 cpu:               4.7 elap:               0.2
 (Enter /data/home/wyx/g16/l101.exe)
 -------------------
 Title Card Required
 -------------------
 Structure from the checkpoint file:  "DDL-DDL-S1min-S1-cLR-1.chk"
 Charge =  0 Multiplicity = 1
 Redundant internal coordinates found in file.  (old form).
 O,0,-2.1539067978,4.7505320575,0.0281224962
 O,0,-2.7465056059,0.5357692427,3.2563212789
 O,0,-8.2165003617,3.5970010579,-1.0729733279
 O,0,-8.805993298,1.6839691345,2.1453101801
 N,0,-4.9310081021,1.0245634571,-0.4291903731
 N,0,-5.5064009064,4.2611354132,2.6971556906
 H,0,-5.0432142391,0.0227456221,-0.4848826361
 H,0,-5.6339076911,5.2622592919,2.7218559058
 C,0,-5.9430582637,3.1425399446,-0.605565786
 C,0,-6.5163774988,2.1420597669,2.520925226
 C,0,-3.6516012378,1.4794528411,-0.2699675667
 C,0,-4.2493815028,3.8066600605,2.9869127516
 C,0,-6.0656035094,1.7652145366,-0.5957657031
 C,0,-6.627546562,3.5183568658,2.459657025
 C,0,-7.0733507726,4.0164571411,-0.8786619621
 C,0,-7.6730397462,1.2679327894,2.3967289498
 C,0,-4.6049024823,3.7665194873,-0.4092129838
 C,0,-5.1927780199,1.5188404116,2.8031900607
 H,0,-4.6352415137,4.435287694,0.4621289632
 H,0,-5.2715369569,0.8411190349,3.6608364559
 H,0,-4.3892447283,4.4582752613,-1.2316338676
 H,0,-4.9263135327,0.837208942,1.983356695
 C,0,-3.4431388759,2.840398169,-0.2475151667
 C,0,-4.0434361375,2.4469022922,3.0314718717
 C,0,-2.1705112605,3.5174053948,-0.0677674621
 C,0,-2.7820145707,1.7713512905,3.2830108424
 C,0,-7.2963079674,0.9722379176,-0.8882149134
 C,0,-7.8841084592,4.3108272022,2.3080463434
 H,0,-7.1132064526,-0.0895431961,-0.7205202361
 H,0,-7.6560882597,5.3734735207,2.219307736
 H,0,-7.5986028439,1.1086571519,-1.9275624913
 H,0,-8.4537478227,3.9949507514,1.4399321766
 H,0,-8.1324379806,1.2911844407,-0.274048054
 H,0,-8.529087456,4.1700147534,3.1766654439
 C,0,-6.8252252677,5.5050617904,-0.9538416844
 C,0,-7.4777116659,-0.2140631009,2.6175040052
 H,0,-7.783109831,6.0176622123,-0.9184343837
 H,0,-8.3623659757,-0.7364317016,2.2623471513
 H,0,-6.3332796006,5.7534306293,-1.8974376617
 H,0,-6.5963989365,-0.610933266,2.1167179136
 H,0,-6.1867385299,5.874106041,-0.1530858132
 H,0,-7.3594459937,-0.4174580451,3.6847099603
 C,0,-0.8505604675,2.7890677144,-0.007231194
 C,0,-1.4963272618,2.5045724633,3.575758182
 H,0,-0.6160697474,2.3323540815,-0.9696982116
 H,0,-1.2882721605,3.2984036082,2.8635119423
 H,0,-0.8364125298,2.0023234928,0.7426952394
 H,0,-1.5263686763,2.9518953764,4.5704591794
 H,0,-0.0782839524,3.517042808,0.2282349025
 H,0,-0.6860883871,1.7801468603,3.5495888516
 C,0,-2.6508902016,0.374665021,-0.1307554965
 C,0,-3.2655068279,4.9131191684,3.2052787199
 H,0,-2.2928152301,0.2932595233,0.8970638636
 H,0,-2.6513992796,4.7473105776,4.0838726566
 H,0,-1.7975189429,0.5111057928,-0.7871113799
 H,0,-2.6126183515,5.0340327525,2.33807123
 H,0,-3.110047578,-0.5791244993,-0.3877645939
 H,0,-3.7913498884,5.8562156171,3.3490930586
 Recover connectivity data from disk.
 ITRead=  0  0  0  0  0  0  0  0  0  0  0  0  0  0  0  0  0  0  0  0
 ITRead=  0  0  0  0  0  0  0  0  0  0  0  0  0  0  0  0  0  0  0  0
 ITRead=  0  0  0  0  0  0  0  0  0  0  0  0  0  0  0  0  0  0
 MicOpt= -1 -1 -1 -1 -1 -1 -1 -1 -1 -1 -1 -1 -1 -1 -1 -1 -1 -1 -1 -1
 MicOpt= -1 -1 -1 -1 -1 -1 -1 -1 -1 -1 -1 -1 -1 -1 -1 -1 -1 -1 -1 -1
 MicOpt= -1 -1 -1 -1 -1 -1 -1 -1 -1 -1 -1 -1 -1 -1 -1 -1 -1 -1
                           ----------------------------
                           !    Current Parameters    !
                           ! (Angstroms and Degrees)  !
 --------------------------                            --------------------------
 ! Name  Definition              Value                                          !
 --------------------------------------------------------------------------------
 ! R1    R(1,25)                 1.237                                          !
 ! R2    R(2,26)                 1.2364                                         !
 ! R3    R(3,15)                 1.2331                                         !
 ! R4    R(4,16)                 1.2328                                         !
 ! R5    R(5,7)                  1.0096                                         !
 ! R6    R(5,11)                 1.3672                                         !
 ! R7    R(5,13)                 1.3651                                         !
 ! R8    R(6,8)                  1.0095                                         !
 ! R9    R(6,12)                 1.3677                                         !
 ! R10   R(6,14)                 1.3657                                         !
 ! R11   R(9,13)                 1.3828                                         !
 ! R12   R(9,15)                 1.4546                                         !
 ! R13   R(9,17)                 1.4895                                         !
 ! R14   R(10,14)                1.3821                                         !
 ! R15   R(10,16)                1.4551                                         !
 ! R16   R(10,18)                1.49                                           !
 ! R17   R(11,23)                1.377                                          !
 ! R18   R(11,51)                1.4971                                         !
 ! R19   R(12,24)                1.376                                          !
 ! R20   R(12,52)                1.4966                                         !
 ! R21   R(13,27)                1.493                                          !
 ! R22   R(14,28)                1.4933                                         !
 ! R23   R(15,35)                1.511                                          !
 ! R24   R(16,36)                1.511                                          !
 ! R25   R(17,19)                1.0988                                         !
 ! R26   R(17,21)                1.0961                                         !
 ! R27   R(17,23)                1.4945                                         !
 ! R28   R(18,20)                1.0959                                         !
 ! R29   R(18,22)                1.099                                          !
 ! R30   R(18,24)                1.4948                                         !
 ! R31   R(19,56)                2.8229                                         !
 ! R32   R(23,25)                1.4527                                         !
 ! R33   R(24,26)                1.4529                                         !
 ! R34   R(25,43)                1.5088                                         !
 ! R35   R(26,44)                1.5087                                         !
 ! R36   R(27,29)                1.0904                                         !
 ! R37   R(27,31)                1.091                                          !
 ! R38   R(27,33)                1.0854                                         !
 ! R39   R(28,30)                1.0905                                         !
 ! R40   R(28,32)                1.0853                                         !
 ! R41   R(28,34)                1.091                                          !
 ! R42   R(32,33)                3.2173                                         !
 ! R43   R(35,37)                1.087                                          !
 ! R44   R(35,39)                1.0927                                         !
 ! R45   R(35,41)                1.0886                                         !
 ! R46   R(36,38)                1.087                                          !
 ! R47   R(36,40)                1.0886                                         !
 ! R48   R(36,42)                1.0928                                         !
 ! R49   R(43,45)                1.0908                                         !
 ! R50   R(43,47)                1.087                                          !
 ! R51   R(43,49)                1.0871                                         !
 ! R52   R(44,46)                1.0866                                         !
 ! R53   R(44,48)                1.0911                                         !
 ! R54   R(44,50)                1.0872                                         !
 ! R55   R(51,53)                1.0914                                         !
 ! R56   R(51,55)                1.0852                                         !
 ! R57   R(51,57)                1.0893                                         !
 ! R58   R(52,54)                1.0847                                         !
 ! R59   R(52,56)                1.0922                                         !
 ! R60   R(52,58)                1.0893                                         !
 ! A1    A(7,5,11)             116.1408                                         !
 ! A2    A(7,5,13)             116.0562                                         !
 ! A3    A(11,5,13)            127.695                                          !
 ! A4    A(8,6,12)             116.1313                                         !
 ! A5    A(8,6,14)             116.0996                                         !
 ! A6    A(12,6,14)            127.6343                                         !
 ! A7    A(13,9,15)            122.0651                                         !
 ! A8    A(13,9,17)            119.7322                                         !
 ! A9    A(15,9,17)            118.1097                                         !
 ! A10   A(14,10,16)           122.0369                                         !
 ! A11   A(14,10,18)           119.7595                                         !
 ! A12   A(16,10,18)           118.1014                                         !
 ! A13   A(5,11,23)            118.191                                          !
 ! A14   A(5,11,51)            113.0052                                         !
 ! A15   A(23,11,51)           128.802                                          !
 ! A16   A(6,12,24)            118.2157                                         !
 ! A17   A(6,12,52)            112.9195                                         !
 ! A18   A(24,12,52)           128.8627                                         !
 ! A19   A(5,13,9)             117.879                                          !
 ! A20   A(5,13,27)            114.8883                                         !
 ! A21   A(9,13,27)            126.9201                                         !
 ! A22   A(6,14,10)            117.8948                                         !
 ! A23   A(6,14,28)            114.8231                                         !
 ! A24   A(10,14,28)           126.9146                                         !
 ! A25   A(3,15,9)             123.0647                                         !
 ! A26   A(3,15,35)            118.654                                          !
 ! A27   A(9,15,35)            118.2699                                         !
 ! A28   A(4,16,10)            123.0365                                         !
 ! A29   A(4,16,36)            118.6574                                         !
 ! A30   A(10,16,36)           118.2914                                         !
 ! A31   A(9,17,19)            109.5541                                         !
 ! A32   A(9,17,21)            110.0133                                         !
 ! A33   A(9,17,23)            116.939                                          !
 ! A34   A(19,17,21)           102.4926                                         !
 ! A35   A(19,17,23)           108.2294                                         !
 ! A36   A(21,17,23)           108.6221                                         !
 ! A37   A(10,18,20)           110.0644                                         !
 ! A38   A(10,18,22)           109.4815                                         !
 ! A39   A(10,18,24)           116.8903                                         !
 ! A40   A(20,18,22)           102.572                                          !
 ! A41   A(20,18,24)           108.6438                                         !
 ! A42   A(22,18,24)           108.2149                                         !
 ! A43   A(17,19,56)           129.5151                                         !
 ! A44   A(11,23,17)           119.5387                                         !
 ! A45   A(11,23,25)           126.5308                                         !
 ! A46   A(17,23,25)           113.9289                                         !
 ! A47   A(12,24,18)           119.5718                                         !
 ! A48   A(12,24,26)           126.5161                                         !
 ! A49   A(18,24,26)           113.9119                                         !
 ! A50   A(1,25,23)            119.0749                                         !
 ! A51   A(1,25,43)            117.7998                                         !
 ! A52   A(23,25,43)           123.1212                                         !
 ! A53   A(2,26,24)            119.0699                                         !
 ! A54   A(2,26,44)            117.735                                          !
 ! A55   A(24,26,44)           123.1951                                         !
 ! A56   A(13,27,29)           110.4043                                         !
 ! A57   A(13,27,31)           110.4022                                         !
 ! A58   A(13,27,33)           111.5991                                         !
 ! A59   A(29,27,31)           108.3485                                         !
 ! A60   A(29,27,33)           109.1762                                         !
 ! A61   A(31,27,33)           106.7907                                         !
 ! A62   A(14,28,30)           110.4542                                         !
 ! A63   A(14,28,32)           111.6177                                         !
 ! A64   A(14,28,34)           110.3728                                         !
 ! A65   A(30,28,32)           109.1648                                         !
 ! A66   A(30,28,34)           108.3114                                         !
 ! A67   A(32,28,34)           106.7968                                         !
 ! A68   A(28,32,33)           128.1915                                         !
 ! A69   A(27,33,32)           128.7067                                         !
 ! A70   A(15,35,37)           108.5574                                         !
 ! A71   A(15,35,39)           109.9263                                         !
 ! A72   A(15,35,41)           113.1844                                         !
 ! A73   A(37,35,39)           108.5219                                         !
 ! A74   A(37,35,41)           109.4525                                         !
 ! A75   A(39,35,41)           107.1026                                         !
 ! A76   A(16,36,38)           108.5648                                         !
 ! A77   A(16,36,40)           113.2667                                         !
 ! A78   A(16,36,42)           109.8289                                         !
 ! A79   A(38,36,40)           109.4738                                         !
 ! A80   A(38,36,42)           108.5237                                         !
 ! A81   A(40,36,42)           107.0844                                         !
 ! A82   A(25,43,45)           110.7795                                         !
 ! A83   A(25,43,47)           112.8587                                         !
 ! A84   A(25,43,49)           107.8736                                         !
 ! A85   A(45,43,47)           107.6313                                         !
 ! A86   A(45,43,49)           108.5885                                         !
 ! A87   A(47,43,49)           109.0259                                         !
 ! A88   A(26,44,46)           113.0175                                         !
 ! A89   A(26,44,48)           110.6512                                         !
 ! A90   A(26,44,50)           107.8537                                         !
 ! A91   A(46,44,48)           107.6578                                         !
 ! A92   A(46,44,50)           109.1666                                         !
 ! A93   A(48,44,50)           108.4002                                         !
 ! A94   A(11,51,53)           111.2168                                         !
 ! A95   A(11,51,55)           112.1238                                         !
 ! A96   A(11,51,57)           110.0261                                         !
 ! A97   A(53,51,55)           108.7207                                         !
 ! A98   A(53,51,57)           107.1674                                         !
 ! A99   A(55,51,57)           107.3886                                         !
 ! A100  A(12,52,54)           112.1701                                         !
 ! A101  A(12,52,56)           111.0364                                         !
 ! A102  A(12,52,58)           109.9975                                         !
 ! A103  A(54,52,56)           108.761                                          !
 ! A104  A(54,52,58)           107.3799                                         !
 ! A105  A(56,52,58)           107.3097                                         !
 ! A106  A(19,56,52)            94.3506                                         !
 ! D1    D(7,5,11,23)          177.2179                                         !
 ! D2    D(7,5,11,51)           -3.224                                          !
 ! D3    D(13,5,11,23)           1.1722                                         !
 ! D4    D(13,5,11,51)        -179.2697                                         !
 ! D5    D(7,5,13,9)          -176.259                                          !
 ! D6    D(7,5,13,27)           -2.2314                                         !
 ! D7    D(11,5,13,9)           -0.2105                                         !
 ! D8    D(11,5,13,27)         173.8171                                         !
 ! D9    D(8,6,12,24)          176.8001                                         !
 ! D10   D(8,6,12,52)           -3.6754                                         !
 ! D11   D(14,6,12,24)           1.2151                                         !
 ! D12   D(14,6,12,52)        -179.2604                                         !
 ! D13   D(8,6,14,10)         -175.0701                                         !
 ! D14   D(8,6,14,28)           -1.545                                          !
 ! D15   D(12,6,14,10)           0.5161                                         !
 ! D16   D(12,6,14,28)         174.0412                                         !
 ! D17   D(15,9,13,5)          175.1786                                         !
 ! D18   D(15,9,13,27)           1.9587                                         !
 ! D19   D(17,9,13,5)           -1.2489                                         !
 ! D20   D(17,9,13,27)        -174.4688                                         !
 ! D21   D(13,9,15,3)            2.5445                                         !
 ! D22   D(13,9,15,35)        -176.2089                                         !
 ! D23   D(17,9,15,3)          179.0276                                         !
 ! D24   D(17,9,15,35)           0.2742                                         !
 ! D25   D(13,9,17,19)        -121.8793                                         !
 ! D26   D(13,9,17,21)         126.1784                                         !
 ! D27   D(13,9,17,23)           1.685                                          !
 ! D28   D(15,9,17,19)          61.5528                                         !
 ! D29   D(15,9,17,21)         -50.3895                                         !
 ! D30   D(15,9,17,23)        -174.8829                                         !
 ! D31   D(16,10,14,6)         174.6504                                         !
 ! D32   D(16,10,14,28)          2.005                                          !
 ! D33   D(18,10,14,6)          -1.6035                                         !
 ! D34   D(18,10,14,28)       -174.2489                                         !
 ! D35   D(14,10,16,4)           4.7723                                         !
 ! D36   D(14,10,16,36)       -173.8125                                         !
 ! D37   D(18,10,16,4)        -178.9142                                         !
 ! D38   D(18,10,16,36)          2.501                                          !
 ! D39   D(14,10,18,20)        125.5763                                         !
 ! D40   D(14,10,18,22)       -122.3989                                         !
 ! D41   D(14,10,18,24)          1.0474                                         !
 ! D42   D(16,10,18,20)        -50.824                                          !
 ! D43   D(16,10,18,22)         61.2009                                         !
 ! D44   D(16,10,18,24)       -175.3529                                         !
 ! D45   D(5,11,23,17)          -0.5895                                         !
 ! D46   D(5,11,23,25)         178.9295                                         !
 ! D47   D(51,11,23,17)        179.9324                                         !
 ! D48   D(51,11,23,25)         -0.5485                                         !
 ! D49   D(5,11,51,53)        -106.969                                          !
 ! D50   D(5,11,51,55)         131.0606                                         !
 ! D51   D(5,11,51,57)          11.6185                                         !
 ! D52   D(23,11,51,53)         72.5312                                         !
 ! D53   D(23,11,51,55)        -49.4391                                         !
 ! D54   D(23,11,51,57)       -168.8812                                         !
 ! D55   D(6,12,24,18)          -1.7049                                         !
 ! D56   D(6,12,24,26)         178.1479                                         !
 ! D57   D(52,12,24,18)        178.8576                                         !
 ! D58   D(52,12,24,26)         -1.2896                                         !
 ! D59   D(6,12,52,54)         134.3063                                         !
 ! D60   D(6,12,52,56)        -103.7685                                         !
 ! D61   D(6,12,52,58)          14.8645                                         !
 ! D62   D(24,12,52,54)        -46.2318                                         !
 ! D63   D(24,12,52,56)         75.6934                                         !
 ! D64   D(24,12,52,58)       -165.6737                                         !
 ! D65   D(5,13,27,29)          11.4324                                         !
 ! D66   D(5,13,27,31)        -108.3498                                         !
 ! D67   D(5,13,27,33)         133.0469                                         !
 ! D68   D(9,13,27,29)        -175.1736                                         !
 ! D69   D(9,13,27,31)          65.0442                                         !
 ! D70   D(9,13,27,33)         -53.559                                          !
 ! D71   D(6,14,28,30)          11.1827                                         !
 ! D72   D(6,14,28,32)         132.8301                                         !
 ! D73   D(6,14,28,34)        -108.5664                                         !
 ! D74   D(10,14,28,30)       -175.978                                          !
 ! D75   D(10,14,28,32)        -54.3306                                         !
 ! D76   D(10,14,28,34)         64.2729                                         !
 ! D77   D(3,15,35,37)          14.8783                                         !
 ! D78   D(3,15,35,39)        -103.6849                                         !
 ! D79   D(3,15,35,41)         136.6091                                         !
 ! D80   D(9,15,35,37)        -166.3122                                         !
 ! D81   D(9,15,35,39)          75.1246                                         !
 ! D82   D(9,15,35,41)         -44.5814                                         !
 ! D83   D(4,16,36,38)          14.5824                                         !
 ! D84   D(4,16,36,40)         136.4                                            !
 ! D85   D(4,16,36,42)        -103.931                                          !
 ! D86   D(10,16,36,38)       -166.7696                                         !
 ! D87   D(10,16,36,40)        -44.952                                          !
 ! D88   D(10,16,36,42)         74.717                                          !
 ! D89   D(9,17,19,56)         146.6442                                         !
 ! D90   D(21,17,19,56)        -96.5682                                         !
 ! D91   D(23,17,19,56)         18.0975                                         !
 ! D92   D(9,17,23,11)          -0.7427                                         !
 ! D93   D(9,17,23,25)         179.6801                                         !
 ! D94   D(19,17,23,11)        123.4962                                         !
 ! D95   D(19,17,23,25)        -56.081                                          !
 ! D96   D(21,17,23,11)       -125.9366                                         !
 ! D97   D(21,17,23,25)         54.4862                                         !
 ! D98   D(10,18,24,12)          0.6477                                         !
 ! D99   D(10,18,24,26)       -179.2229                                         !
 ! D100  D(20,18,24,12)       -124.5968                                         !
 ! D101  D(20,18,24,26)         55.5326                                         !
 ! D102  D(22,18,24,12)        124.7406                                         !
 ! D103  D(22,18,24,26)        -55.1299                                         !
 ! D104  D(17,19,56,52)       -133.5998                                         !
 ! D105  D(11,23,25,1)        -174.7265                                         !
 ! D106  D(11,23,25,43)          6.02                                           !
 ! D107  D(17,23,25,1)           4.8157                                         !
 ! D108  D(17,23,25,43)       -174.4378                                         !
 ! D109  D(12,24,26,2)        -178.0664                                         !
 ! D110  D(12,24,26,44)          1.7963                                         !
 ! D111  D(18,24,26,2)           1.7935                                         !
 ! D112  D(18,24,26,44)       -178.3438                                         !
 ! D113  D(1,25,43,45)        -112.5707                                         !
 ! D114  D(1,25,43,47)         126.6629                                         !
 ! D115  D(1,25,43,49)           6.1542                                         !
 ! D116  D(23,25,43,45)         66.6918                                         !
 ! D117  D(23,25,43,47)        -54.0747                                         !
 ! D118  D(23,25,43,49)       -174.5833                                         !
 ! D119  D(2,26,44,46)         130.4437                                         !
 ! D120  D(2,26,44,48)        -108.7379                                         !
 ! D121  D(2,26,44,50)           9.673                                          !
 ! D122  D(24,26,44,46)        -49.4207                                         !
 ! D123  D(24,26,44,48)         71.3978                                         !
 ! D124  D(24,26,44,50)       -170.1913                                         !
 ! D125  D(13,27,33,32)         15.6764                                         !
 ! D126  D(29,27,33,32)        137.999                                          !
 ! D127  D(31,27,33,32)       -105.0603                                         !
 ! D128  D(14,28,32,33)         15.613                                          !
 ! D129  D(30,28,32,33)        138.0031                                         !
 ! D130  D(34,28,32,33)       -105.1025                                         !
 ! D131  D(28,32,33,27)        -65.6549                                         !
 ! D132  D(12,52,56,19)         36.0942                                         !
 ! D133  D(54,52,56,19)        159.9858                                         !
 ! D134  D(58,52,56,19)        -84.1468                                         !
 --------------------------------------------------------------------------------
 NAtoms=     58 NQM=       58 NQMF=       0 NMMI=      0 NMMIF=      0
                NMic=       0 NMicF=      0.
                    Isotopes and Nuclear Properties:
 (Nuclear quadrupole moments (NQMom) in fm**2, nuclear magnetic moments (NMagM)
  in nuclear magnetons)

  Atom         1           2           3           4           5           6           7           8           9          10
 IAtWgt=          16          16          16          16          14          14           1           1          12          12
 AtmWgt=  15.9949146  15.9949146  15.9949146  15.9949146  14.0030740  14.0030740   1.0078250   1.0078250  12.0000000  12.0000000
 NucSpn=           0           0           0           0           2           2           1           1           0           0
 AtZEff=   5.6000000   5.6000000   5.6000000   5.6000000   4.5500000   4.5500000   1.0000000   1.0000000   3.6000000   3.6000000
 NQMom=    0.0000000   0.0000000   0.0000000   0.0000000   2.0440000   2.0440000   0.0000000   0.0000000   0.0000000   0.0000000
 NMagM=    0.0000000   0.0000000   0.0000000   0.0000000   0.4037610   0.4037610   2.7928460   2.7928460   0.0000000   0.0000000
 AtZNuc=   8.0000000   8.0000000   8.0000000   8.0000000   7.0000000   7.0000000   1.0000000   1.0000000   6.0000000   6.0000000

  Atom        11          12          13          14          15          16          17          18          19          20
 IAtWgt=          12          12          12          12          12          12          12          12           1           1
 AtmWgt=  12.0000000  12.0000000  12.0000000  12.0000000  12.0000000  12.0000000  12.0000000  12.0000000   1.0078250   1.0078250
 NucSpn=           0           0           0           0           0           0           0           0           1           1
 AtZEff=   3.6000000   3.6000000   3.6000000   3.6000000   3.6000000   3.6000000   3.6000000   3.6000000   1.0000000   1.0000000
 NQMom=    0.0000000   0.0000000   0.0000000   0.0000000   0.0000000   0.0000000   0.0000000   0.0000000   0.0000000   0.0000000
 NMagM=    0.0000000   0.0000000   0.0000000   0.0000000   0.0000000   0.0000000   0.0000000   0.0000000   2.7928460   2.7928460
 AtZNuc=   6.0000000   6.0000000   6.0000000   6.0000000   6.0000000   6.0000000   6.0000000   6.0000000   1.0000000   1.0000000

  Atom        21          22          23          24          25          26          27          28          29          30
 IAtWgt=           1           1          12          12          12          12          12          12           1           1
 AtmWgt=   1.0078250   1.0078250  12.0000000  12.0000000  12.0000000  12.0000000  12.0000000  12.0000000   1.0078250   1.0078250
 NucSpn=           1           1           0           0           0           0           0           0           1           1
 AtZEff=   1.0000000   1.0000000   3.6000000   3.6000000   3.6000000   3.6000000   3.6000000   3.6000000   1.0000000   1.0000000
 NQMom=    0.0000000   0.0000000   0.0000000   0.0000000   0.0000000   0.0000000   0.0000000   0.0000000   0.0000000   0.0000000
 NMagM=    2.7928460   2.7928460   0.0000000   0.0000000   0.0000000   0.0000000   0.0000000   0.0000000   2.7928460   2.7928460
 AtZNuc=   1.0000000   1.0000000   6.0000000   6.0000000   6.0000000   6.0000000   6.0000000   6.0000000   1.0000000   1.0000000

  Atom        31          32          33          34          35          36          37          38          39          40
 IAtWgt=           1           1           1           1          12          12           1           1           1           1
 AtmWgt=   1.0078250   1.0078250   1.0078250   1.0078250  12.0000000  12.0000000   1.0078250   1.0078250   1.0078250   1.0078250
 NucSpn=           1           1           1           1           0           0           1           1           1           1
 AtZEff=   1.0000000   1.0000000   1.0000000   1.0000000   3.6000000   3.6000000   1.0000000   1.0000000   1.0000000   1.0000000
 NQMom=    0.0000000   0.0000000   0.0000000   0.0000000   0.0000000   0.0000000   0.0000000   0.0000000   0.0000000   0.0000000
 NMagM=    2.7928460   2.7928460   2.7928460   2.7928460   0.0000000   0.0000000   2.7928460   2.7928460   2.7928460   2.7928460
 AtZNuc=   1.0000000   1.0000000   1.0000000   1.0000000   6.0000000   6.0000000   1.0000000   1.0000000   1.0000000   1.0000000

  Atom        41          42          43          44          45          46          47          48          49          50
 IAtWgt=           1           1          12          12           1           1           1           1           1           1
 AtmWgt=   1.0078250   1.0078250  12.0000000  12.0000000   1.0078250   1.0078250   1.0078250   1.0078250   1.0078250   1.0078250
 NucSpn=           1           1           0           0           1           1           1           1           1           1
 AtZEff=   1.0000000   1.0000000   3.6000000   3.6000000   1.0000000   1.0000000   1.0000000   1.0000000   1.0000000   1.0000000
 NQMom=    0.0000000   0.0000000   0.0000000   0.0000000   0.0000000   0.0000000   0.0000000   0.0000000   0.0000000   0.0000000
 NMagM=    2.7928460   2.7928460   0.0000000   0.0000000   2.7928460   2.7928460   2.7928460   2.7928460   2.7928460   2.7928460
 AtZNuc=   1.0000000   1.0000000   6.0000000   6.0000000   1.0000000   1.0000000   1.0000000   1.0000000   1.0000000   1.0000000

  Atom        51          52          53          54          55          56          57          58
 IAtWgt=          12          12           1           1           1           1           1           1
 AtmWgt=  12.0000000  12.0000000   1.0078250   1.0078250   1.0078250   1.0078250   1.0078250   1.0078250
 NucSpn=           0           0           1           1           1           1           1           1
 AtZEff=   3.6000000   3.6000000   1.0000000   1.0000000   1.0000000   1.0000000   1.0000000   1.0000000
 NQMom=    0.0000000   0.0000000   0.0000000   0.0000000   0.0000000   0.0000000   0.0000000   0.0000000
 NMagM=    0.0000000   0.0000000   2.7928460   2.7928460   2.7928460   2.7928460   2.7928460   2.7928460
 AtZNuc=   6.0000000   6.0000000   1.0000000   1.0000000   1.0000000   1.0000000   1.0000000   1.0000000
 Leave Link  101 at Sat Jan 24 16:30:10 2026, MaxMem=  2147483648 cpu:               6.5 elap:               0.2
 (Enter /data/home/wyx/g16/l202.exe)
 Symmetry turned off by external request.
 Stoichiometry    C22H30N2O4
 Framework group  C1[X(C22H30N2O4)]
 Deg. of freedom   168
 Full point group                 C1      NOp   1
                          Input orientation:                          
 ---------------------------------------------------------------------
 Center     Atomic      Atomic             Coordinates (Angstroms)
 Number     Number       Type             X           Y           Z
 ---------------------------------------------------------------------
      1          8           0       -2.153907    4.750532    0.028122
      2          8           0       -2.746506    0.535769    3.256321
      3          8           0       -8.216500    3.597001   -1.072973
      4          8           0       -8.805993    1.683969    2.145310
      5          7           0       -4.931008    1.024563   -0.429190
      6          7           0       -5.506401    4.261135    2.697156
      7          1           0       -5.043214    0.022746   -0.484883
      8          1           0       -5.633908    5.262259    2.721856
      9          6           0       -5.943058    3.142540   -0.605566
     10          6           0       -6.516377    2.142060    2.520925
     11          6           0       -3.651601    1.479453   -0.269968
     12          6           0       -4.249382    3.806660    2.986913
     13          6           0       -6.065604    1.765215   -0.595766
     14          6           0       -6.627547    3.518357    2.459657
     15          6           0       -7.073351    4.016457   -0.878662
     16          6           0       -7.673040    1.267933    2.396729
     17          6           0       -4.604902    3.766519   -0.409213
     18          6           0       -5.192778    1.518840    2.803190
     19          1           0       -4.635242    4.435288    0.462129
     20          1           0       -5.271537    0.841119    3.660836
     21          1           0       -4.389245    4.458275   -1.231634
     22          1           0       -4.926314    0.837209    1.983357
     23          6           0       -3.443139    2.840398   -0.247515
     24          6           0       -4.043436    2.446902    3.031472
     25          6           0       -2.170511    3.517405   -0.067767
     26          6           0       -2.782015    1.771351    3.283011
     27          6           0       -7.296308    0.972238   -0.888215
     28          6           0       -7.884108    4.310827    2.308046
     29          1           0       -7.113206   -0.089543   -0.720520
     30          1           0       -7.656088    5.373474    2.219308
     31          1           0       -7.598603    1.108657   -1.927562
     32          1           0       -8.453748    3.994951    1.439932
     33          1           0       -8.132438    1.291184   -0.274048
     34          1           0       -8.529087    4.170015    3.176665
     35          6           0       -6.825225    5.505062   -0.953842
     36          6           0       -7.477712   -0.214063    2.617504
     37          1           0       -7.783110    6.017662   -0.918434
     38          1           0       -8.362366   -0.736432    2.262347
     39          1           0       -6.333280    5.753431   -1.897438
     40          1           0       -6.596399   -0.610933    2.116718
     41          1           0       -6.186739    5.874106   -0.153086
     42          1           0       -7.359446   -0.417458    3.684710
     43          6           0       -0.850560    2.789068   -0.007231
     44          6           0       -1.496327    2.504572    3.575758
     45          1           0       -0.616070    2.332354   -0.969698
     46          1           0       -1.288272    3.298404    2.863512
     47          1           0       -0.836413    2.002323    0.742695
     48          1           0       -1.526369    2.951895    4.570459
     49          1           0       -0.078284    3.517043    0.228235
     50          1           0       -0.686088    1.780147    3.549589
     51          6           0       -2.650890    0.374665   -0.130755
     52          6           0       -3.265507    4.913119    3.205279
     53          1           0       -2.292815    0.293260    0.897064
     54          1           0       -2.651399    4.747311    4.083873
     55          1           0       -1.797519    0.511106   -0.787111
     56          1           0       -2.612618    5.034033    2.338071
     57          1           0       -3.110048   -0.579124   -0.387765
     58          1           0       -3.791350    5.856216    3.349093
 ---------------------------------------------------------------------
 Rotational constants (GHZ):           0.2485467           0.1743257           0.1571903
 Leave Link  202 at Sat Jan 24 16:30:11 2026, MaxMem=  2147483648 cpu:               0.1 elap:               0.0
 (Enter /data/home/wyx/g16/l301.exe)
 Standard basis: TZVP (5D, 7F)
 Ernie: Thresh=  0.10000D-02 Tol=  0.10000D-05 Strict=F.
   712 basis functions,  1220 primitive gaussians,   740 cartesian basis functions
   104 alpha electrons      104 beta electrons
       nuclear repulsion energy      3000.5959229800 Hartrees.
 IExCor=20419 DFT=T Ex+Corr=CAM-B3LYP ExCW=0 ScaHFX=  1.000000
 ScaDFX=  1.000000  1.000000  1.000000  0.810000 ScalE2=  1.000000  1.000000
 IRadAn=      5 IRanWt=     -1 IRanGd=            0 ICorTp=0 IEmpDi=141
 HFx  wShort=  0.000000 wLong=  0.330000 cFull=  0.190000 cShort=  0.000000 cLong=  0.460000
 DFx  wShort=  0.000000 wLong=  0.330000 cFull=  0.190000 cShort=  0.000000 cLong=  0.460000
 NAtoms=   58 NActive=   58 NUniq=   58 SFac= 1.00D+00 NAtFMM=   60 NAOKFM=F Big=F
 Integral buffers will be    131072 words long.
 Raffenetti 2 integral format.
 Two-electron integral symmetry is turned off.
 R6Disp:  Grimme-D3(BJ) Dispersion energy=       -0.0771434375 Hartrees.
 Nuclear repulsion after empirical dispersion term =     3000.5187795425 Hartrees.
 ------------------------------------------------------------------------------
 Polarizable Continuum Model (PCM)
 =================================
 Model                : PCM.
 Atomic radii         : UFF (Universal Force Field).
 Polarization charges : Total charges.
 Charge compensation  : None.
 Solution method      : On-the-fly selection.
 Cavity type          : Scaled VdW (van der Waals Surface) (Alpha=1.100).
 Cavity algorithm     : GePol (No added spheres)
                        Default sphere list used, NSphG=   58.
                        Lebedev-Laikov grids with approx.  5.0 points / Ang**2.
                        Smoothing algorithm: York/Karplus (Gamma=1.0000).
                        Polarization charges: spherical gaussians, with
                                              point-specific exponents (IZeta= 3).
                        Self-potential: point-specific (ISelfS= 7).
                        Self-field    : sphere-specific E.n sum rule (ISelfD= 2).
 Solvent              : Water, Eps=  78.355300 Eps(inf)=   1.777849
 ------------------------------------------------------------------------------
 GePol: Number of generator spheres                  =      58
 GePol: Total number of spheres                      =      58
 GePol: Number of exposed spheres                    =      58 (100.00%)
 GePol: Number of points                             =    3282
 GePol: Average weight of points                     =       0.13
 GePol: Minimum weight of points                     =   0.21D-10
 GePol: Maximum weight of points                     =    0.20577
 GePol: Number of points with low weight             =     238
 GePol: Fraction of low-weight points (<1% of avg)   =       7.25%
 GePol: Cavity surface area                          =    411.725 Ang**2
 GePol: Cavity volume                                =    540.338 Ang**3
 Leave Link  301 at Sat Jan 24 16:30:11 2026, MaxMem=  2147483648 cpu:               1.2 elap:               0.0
 (Enter /data/home/wyx/g16/l302.exe)
 NPDir=0 NMtPBC=     1 NCelOv=     1 NCel=       1 NClECP=     1 NCelD=      1
         NCelK=      1 NCelE2=     1 NClLst=     1 CellRange=     0.0.
 One-electron integrals computed using PRISM.
 NBasis=   712 RedAO= T EigKep=  1.63D-05  NBF=   712
 NBsUse=   712 1.00D-06 EigRej= -1.00D+00 NBFU=   712
 Precomputing XC quadrature grid using
 IXCGrd= 4 IRadAn=           5 IRanWt=          -1 IRanGd=           0 AccXCQ= 0.00D+00.
 Generated NRdTot=       0 NPtTot=           0 NUsed=           0 NTot=          32
 NSgBfM=   719   717   718   718   719 MxSgAt=    58 MxSgA2=    58.
 Leave Link  302 at Sat Jan 24 16:30:11 2026, MaxMem=  2147483648 cpu:              21.2 elap:               0.7
 (Enter /data/home/wyx/g16/l303.exe)
 DipDrv:  MaxL=1.
 Leave Link  303 at Sat Jan 24 16:30:12 2026, MaxMem=  2147483648 cpu:               3.2 elap:               0.1
 (Enter /data/home/wyx/g16/l401.exe)
 Initial guess from the checkpoint file:  "DDL-DDL-S1min-S1-cLR-1.chk"
 B after Tr=     0.000000    0.000000    0.000000
         Rot=    1.000000    0.000000    0.000000    0.000000 Ang=   0.00 deg.
 Guess basis will be translated and rotated to current coordinates.
 JPrj=2 DoOrth=T DoCkMO=T.
 Leave Link  401 at Sat Jan 24 16:30:12 2026, MaxMem=  2147483648 cpu:              18.5 elap:               0.6
 (Enter /data/home/wyx/g16/l502.exe)
 Two-electron integral symmetry not used.
 Closed shell SCF:
 Using DIIS extrapolation, IDIIS=  1040.
 NGot=  2147483648 LenX=  2146359098 LenY=  2145810758
 Requested convergence on RMS density matrix=1.00D-08 within 128 cycles.
 Requested convergence on MAX density matrix=1.00D-06.
 Requested convergence on             energy=1.00D-06.
 No special actions if energy rises.
 Fock matrices will be formed incrementally for  20 cycles.

 Cycle   1  Pass 1  IDiag  1:
 FoFJK:  IHMeth= 1 ICntrl=       0 DoSepK=T KAlg= 0 I1Cent=           0 FoldK=F
 IRaf=         1 NMat=       1 IRICut=       1 DoRegI=T DoRafI=F ISym2E= 0 IDoP0=0 IntGTp=1.
 FoFCou: FMM=F IPFlag=           0 FMFlag=      100000 FMFlg1=           0
         NFxFlg=           0 DoJE=T BraDBF=F KetDBF=F FulRan=T
         wScrn=  0.000000 ICntrl=       500 IOpCl=  0 I1Cent=           0 NGrid=           0
         NMat0=    1 NMatS0=      1 NMatT0=    0 NMatD0=    1 NMtDS0=    0 NMtDT0=    0
 Symmetry not used in FoFCou.
 Inv3:  Mode=1 IEnd=    32314572.
 Iteration    1 A*A^-1 deviation from unit magnitude is 3.77D-15 for     47.
 Iteration    1 A*A^-1 deviation from orthogonality  is 2.04D-15 for   3138   2497.
 Iteration    1 A^-1*A deviation from unit magnitude is 3.33D-15 for     47.
 Iteration    1 A^-1*A deviation from orthogonality  is 1.39D-14 for   3229   3223.
 NEqPCM:  Using non-equilibrium solvation (IEInf=1, Eps=  78.3553, EpsInf=   1.7778)
 Inv3:  Mode=1 IEnd=    32314572.
 Iteration    1 A*A^-1 deviation from unit magnitude is 3.33D-15 for   2390.
 Iteration    1 A*A^-1 deviation from orthogonality  is 1.67D-15 for   3094   1068.
 Iteration    1 A^-1*A deviation from unit magnitude is 3.33D-15 for   1699.
 Iteration    1 A^-1*A deviation from orthogonality  is 8.05D-15 for   3229   3223.
 E= -1266.66968990115    
 DIIS: error= 1.55D-04 at cycle   1 NSaved=   1.
 NSaved= 1 IEnMin= 1 EnMin= -1266.66968990115     IErMin= 1 ErrMin= 1.55D-04
 ErrMax= 1.55D-04  0.00D+00 EMaxC= 1.00D-01 BMatC= 1.55D-05 BMatP= 1.55D-05
 IDIUse=3 WtCom= 9.98D-01 WtEn= 1.55D-03
 Coeff-Com:  0.100D+01
 Coeff-En:   0.100D+01
 Coeff:      0.100D+01
 Gap=     0.193 Goal=   None    Shift=    0.000
 RMSDP=1.22D-04 MaxDP=8.43D-03              OVMax= 2.38D-03

 Cycle   2  Pass 1  IDiag  1:
 RMSU=  1.22D-04    CP:  9.99D-01
 E= -1266.66971531022     Delta-E=       -0.000025409070 Rises=F Damp=F
 DIIS: error= 1.04D-04 at cycle   2 NSaved=   2.
 NSaved= 2 IEnMin= 2 EnMin= -1266.66971531022     IErMin= 2 ErrMin= 1.04D-04
 ErrMax= 1.04D-04  0.00D+00 EMaxC= 1.00D-01 BMatC= 9.28D-06 BMatP= 1.55D-05
 IDIUse=3 WtCom= 9.99D-01 WtEn= 1.04D-03
 Coeff-Com:  0.417D+00 0.583D+00
 Coeff-En:   0.000D+00 0.100D+01
 Coeff:      0.416D+00 0.584D+00
 Gap=     0.193 Goal=   None    Shift=    0.000
 RMSDP=2.82D-05 MaxDP=2.95D-03 DE=-2.54D-05 OVMax= 8.08D-04

 Cycle   3  Pass 1  IDiag  1:
 RMSU=  2.04D-05    CP:  1.00D+00  8.59D-01
 E= -1266.66972287181     Delta-E=       -0.000007561593 Rises=F Damp=F
 DIIS: error= 7.15D-05 at cycle   3 NSaved=   3.
 NSaved= 3 IEnMin= 3 EnMin= -1266.66972287181     IErMin= 3 ErrMin= 7.15D-05
 ErrMax= 7.15D-05  0.00D+00 EMaxC= 1.00D-01 BMatC= 2.31D-06 BMatP= 9.28D-06
 IDIUse=1 WtCom= 1.00D+00 WtEn= 0.00D+00
 Coeff-Com:  0.115D+00 0.321D+00 0.564D+00
 Coeff:      0.115D+00 0.321D+00 0.564D+00
 Gap=     0.193 Goal=   None    Shift=    0.000
 RMSDP=8.00D-06 MaxDP=4.78D-04 DE=-7.56D-06 OVMax= 3.94D-04

 Cycle   4  Pass 1  IDiag  1:
 RMSU=  7.69D-06    CP:  1.00D+00  8.60D-01  9.15D-01
 E= -1266.66972463482     Delta-E=       -0.000001763011 Rises=F Damp=F
 DIIS: error= 1.52D-05 at cycle   4 NSaved=   4.
 NSaved= 4 IEnMin= 4 EnMin= -1266.66972463482     IErMin= 4 ErrMin= 1.52D-05
 ErrMax= 1.52D-05  0.00D+00 EMaxC= 1.00D-01 BMatC= 1.62D-07 BMatP= 2.31D-06
 IDIUse=1 WtCom= 1.00D+00 WtEn= 0.00D+00
 Coeff-Com: -0.259D-02 0.467D-01 0.221D+00 0.735D+00
 Coeff:     -0.259D-02 0.467D-01 0.221D+00 0.735D+00
 Gap=     0.193 Goal=   None    Shift=    0.000
 RMSDP=4.24D-06 MaxDP=6.46D-04 DE=-1.76D-06 OVMax= 2.05D-04

 Cycle   5  Pass 1  IDiag  1:
 RMSU=  3.07D-06    CP:  1.00D+00  8.67D-01  9.84D-01  1.04D+00
 E= -1266.66972478786     Delta-E=       -0.000000153035 Rises=F Damp=F
 DIIS: error= 5.81D-06 at cycle   5 NSaved=   5.
 NSaved= 5 IEnMin= 5 EnMin= -1266.66972478786     IErMin= 5 ErrMin= 5.81D-06
 ErrMax= 5.81D-06  0.00D+00 EMaxC= 1.00D-01 BMatC= 2.79D-08 BMatP= 1.62D-07
 IDIUse=1 WtCom= 1.00D+00 WtEn= 0.00D+00
 Coeff-Com: -0.112D-01-0.135D-01 0.408D-01 0.331D+00 0.653D+00
 Coeff:     -0.112D-01-0.135D-01 0.408D-01 0.331D+00 0.653D+00
 Gap=     0.193 Goal=   None    Shift=    0.000
 RMSDP=1.37D-06 MaxDP=1.79D-04 DE=-1.53D-07 OVMax= 7.36D-05

 Cycle   6  Pass 1  IDiag  1:
 RMSU=  1.03D-06    CP:  1.00D+00  8.66D-01  1.02D+00  1.12D+00  9.37D-01
 E= -1266.66972482191     Delta-E=       -0.000000034050 Rises=F Damp=F
 DIIS: error= 4.67D-06 at cycle   6 NSaved=   6.
 NSaved= 6 IEnMin= 6 EnMin= -1266.66972482191     IErMin= 6 ErrMin= 4.67D-06
 ErrMax= 4.67D-06  0.00D+00 EMaxC= 1.00D-01 BMatC= 2.79D-09 BMatP= 2.79D-08
 IDIUse=1 WtCom= 1.00D+00 WtEn= 0.00D+00
 Coeff-Com: -0.254D-02-0.115D-01-0.143D-01-0.232D-02 0.198D+00 0.833D+00
 Coeff:     -0.254D-02-0.115D-01-0.143D-01-0.232D-02 0.198D+00 0.833D+00
 Gap=     0.193 Goal=   None    Shift=    0.000
 RMSDP=7.43D-07 MaxDP=7.43D-05 DE=-3.40D-08 OVMax= 8.03D-05

 Cycle   7  Pass 1  IDiag  1:
 RMSU=  4.56D-07    CP:  1.00D+00  8.65D-01  1.03D+00  1.15D+00  1.01D+00
                    CP:  1.27D+00
 E= -1266.66972482991     Delta-E=       -0.000000008008 Rises=F Damp=F
 DIIS: error= 2.56D-06 at cycle   7 NSaved=   7.
 NSaved= 7 IEnMin= 7 EnMin= -1266.66972482991     IErMin= 7 ErrMin= 2.56D-06
 ErrMax= 2.56D-06  0.00D+00 EMaxC= 1.00D-01 BMatC= 1.00D-09 BMatP= 2.79D-09
 IDIUse=1 WtCom= 1.00D+00 WtEn= 0.00D+00
 Coeff-Com:  0.106D-02-0.264D-02-0.874D-02-0.566D-01-0.633D-01 0.361D+00
 Coeff-Com:  0.769D+00
 Coeff:      0.106D-02-0.264D-02-0.874D-02-0.566D-01-0.633D-01 0.361D+00
 Coeff:      0.769D+00
 Gap=     0.193 Goal=   None    Shift=    0.000
 RMSDP=3.61D-07 MaxDP=3.50D-05 DE=-8.01D-09 OVMax= 4.37D-05

 Cycle   8  Pass 1  IDiag  1:
 RMSU=  1.87D-07    CP:  1.00D+00  8.64D-01  1.03D+00  1.17D+00  1.06D+00
                    CP:  1.47D+00  1.22D+00
 E= -1266.66972483228     Delta-E=       -0.000000002366 Rises=F Damp=F
 DIIS: error= 1.07D-06 at cycle   8 NSaved=   8.
 NSaved= 8 IEnMin= 8 EnMin= -1266.66972483228     IErMin= 8 ErrMin= 1.07D-06
 ErrMax= 1.07D-06  0.00D+00 EMaxC= 1.00D-01 BMatC= 1.93D-10 BMatP= 1.00D-09
 IDIUse=1 WtCom= 1.00D+00 WtEn= 0.00D+00
 Coeff-Com:  0.108D-02 0.847D-03-0.145D-03-0.244D-01-0.870D-01-0.124D-01
 Coeff-Com:  0.323D+00 0.799D+00
 Coeff:      0.108D-02 0.847D-03-0.145D-03-0.244D-01-0.870D-01-0.124D-01
 Coeff:      0.323D+00 0.799D+00
 Gap=     0.193 Goal=   None    Shift=    0.000
 RMSDP=2.14D-07 MaxDP=1.96D-05 DE=-2.37D-09 OVMax= 2.49D-05

 Cycle   9  Pass 1  IDiag  1:
 RMSU=  7.74D-08    CP:  1.00D+00  8.64D-01  1.03D+00  1.17D+00  1.07D+00
                    CP:  1.63D+00  1.38D+00  1.34D+00
 E= -1266.66972483287     Delta-E=       -0.000000000589 Rises=F Damp=F
 DIIS: error= 5.36D-07 at cycle   9 NSaved=   9.
 NSaved= 9 IEnMin= 9 EnMin= -1266.66972483287     IErMin= 9 ErrMin= 5.36D-07
 ErrMax= 5.36D-07  0.00D+00 EMaxC= 1.00D-01 BMatC= 2.85D-11 BMatP= 1.93D-10
 IDIUse=1 WtCom= 1.00D+00 WtEn= 0.00D+00
 Coeff-Com:  0.233D-03 0.763D-03 0.173D-02 0.337D-02-0.247D-01-0.757D-01
 Coeff-Com: -0.337D-01 0.313D+00 0.815D+00
 Coeff:      0.233D-03 0.763D-03 0.173D-02 0.337D-02-0.247D-01-0.757D-01
 Coeff:     -0.337D-01 0.313D+00 0.815D+00
 Gap=     0.193 Goal=   None    Shift=    0.000
 RMSDP=9.46D-08 MaxDP=7.50D-06 DE=-5.89D-10 OVMax= 1.17D-05

 Cycle  10  Pass 1  IDiag  1:
 RMSU=  3.35D-08    CP:  1.00D+00  8.64D-01  1.03D+00  1.17D+00  1.07D+00
                    CP:  1.68D+00  1.49D+00  1.60D+00  1.09D+00
 E= -1266.66972483297     Delta-E=       -0.000000000101 Rises=F Damp=F
 DIIS: error= 1.46D-07 at cycle  10 NSaved=  10.
 NSaved=10 IEnMin=10 EnMin= -1266.66972483297     IErMin=10 ErrMin= 1.46D-07
 ErrMax= 1.46D-07  0.00D+00 EMaxC= 1.00D-01 BMatC= 5.24D-12 BMatP= 2.85D-11
 IDIUse=1 WtCom= 1.00D+00 WtEn= 0.00D+00
 Coeff-Com: -0.336D-04 0.254D-03 0.567D-03 0.442D-02-0.585D-03-0.317D-01
 Coeff-Com: -0.521D-01 0.264D-01 0.342D+00 0.711D+00
 Coeff:     -0.336D-04 0.254D-03 0.567D-03 0.442D-02-0.585D-03-0.317D-01
 Coeff:     -0.521D-01 0.264D-01 0.342D+00 0.711D+00
 Gap=     0.193 Goal=   None    Shift=    0.000
 RMSDP=3.05D-08 MaxDP=3.42D-06 DE=-1.01D-10 OVMax= 3.38D-06

 Cycle  11  Pass 1  IDiag  1:
 RMSU=  1.02D-08    CP:  1.00D+00  8.64D-01  1.03D+00  1.17D+00  1.07D+00
                    CP:  1.69D+00  1.52D+00  1.68D+00  1.24D+00  1.07D+00
 E= -1266.66972483297     Delta-E=        0.000000000000 Rises=F Damp=F
 DIIS: error= 4.87D-08 at cycle  11 NSaved=  11.
 NSaved=11 IEnMin=10 EnMin= -1266.66972483297     IErMin=11 ErrMin= 4.87D-08
 ErrMax= 4.87D-08  0.00D+00 EMaxC= 1.00D-01 BMatC= 1.60D-12 BMatP= 5.24D-12
 IDIUse=1 WtCom= 1.00D+00 WtEn= 0.00D+00
 Coeff-Com: -0.573D-04 0.357D-04-0.879D-04 0.186D-02 0.468D-02-0.155D-02
 Coeff-Com: -0.193D-01-0.489D-01 0.249D-01 0.401D+00 0.637D+00
 Coeff:     -0.573D-04 0.357D-04-0.879D-04 0.186D-02 0.468D-02-0.155D-02
 Coeff:     -0.193D-01-0.489D-01 0.249D-01 0.401D+00 0.637D+00
 Gap=     0.193 Goal=   None    Shift=    0.000
 RMSDP=1.18D-08 MaxDP=1.01D-06 DE= 4.55D-13 OVMax= 9.70D-07

 Cycle  12  Pass 1  IDiag  1:
 RMSU=  4.59D-09    CP:  1.00D+00  8.64D-01  1.03D+00  1.17D+00  1.07D+00
                    CP:  1.69D+00  1.52D+00  1.72D+00  1.28D+00  1.21D+00
                    CP:  9.03D-01
 E= -1266.66972483297     Delta-E=       -0.000000000003 Rises=F Damp=F
 DIIS: error= 1.93D-08 at cycle  12 NSaved=  12.
 NSaved=12 IEnMin=12 EnMin= -1266.66972483297     IErMin=12 ErrMin= 1.93D-08
 ErrMax= 1.93D-08  0.00D+00 EMaxC= 1.00D-01 BMatC= 1.26D-13 BMatP= 1.60D-12
 IDIUse=1 WtCom= 1.00D+00 WtEn= 0.00D+00
 Coeff-Com: -0.190D-04-0.247D-05-0.153D-03 0.847D-04 0.170D-02 0.374D-02
 Coeff-Com:  0.178D-02-0.218D-01-0.425D-01 0.283D-01 0.196D+00 0.833D+00
 Coeff:     -0.190D-04-0.247D-05-0.153D-03 0.847D-04 0.170D-02 0.374D-02
 Coeff:      0.178D-02-0.218D-01-0.425D-01 0.283D-01 0.196D+00 0.833D+00
 Gap=     0.193 Goal=   None    Shift=    0.000
 RMSDP=4.80D-09 MaxDP=3.23D-07 DE=-3.18D-12 OVMax= 4.88D-07

 Error on total polarization charges =  0.01208
 SCF Done:  E(RCAM-B3LYP) =  -1266.66972483     A.U. after   12 cycles
            NFock= 12  Conv=0.48D-08     -V/T= 2.0042
 KE= 1.261390308347D+03 PE=-8.952748945505D+03 EE= 3.424170132783D+03
 Leave Link  502 at Sat Jan 24 16:34:51 2026, MaxMem=  2147483648 cpu:            8803.9 elap:             277.9
 (Enter /data/home/wyx/g16/l601.exe)
 Copying SCF densities to generalized density rwf, IOpCl= 0 IROHF=0.

 **********************************************************************

            Population analysis using the SCF density.

 **********************************************************************

 Alpha  occ. eigenvalues --  -19.18157 -19.18113 -19.17102 -19.17099 -14.44476
 Alpha  occ. eigenvalues --  -14.44456 -10.33638 -10.33601 -10.32916 -10.32910
 Alpha  occ. eigenvalues --  -10.32548 -10.32508 -10.31944 -10.31932 -10.25497
 Alpha  occ. eigenvalues --  -10.25418 -10.25373 -10.25348 -10.24691 -10.24669
 Alpha  occ. eigenvalues --  -10.24469 -10.24464 -10.24418 -10.24410 -10.24398
 Alpha  occ. eigenvalues --  -10.24392 -10.23823 -10.23785  -1.11929  -1.11881
 Alpha  occ. eigenvalues --   -1.11131  -1.11038  -1.08114  -1.07976  -0.91439
 Alpha  occ. eigenvalues --   -0.91113  -0.90467  -0.90277  -0.84048  -0.84004
 Alpha  occ. eigenvalues --   -0.82580  -0.82361  -0.81644  -0.81453  -0.78672
 Alpha  occ. eigenvalues --   -0.78294  -0.73936  -0.73882  -0.71730  -0.71644
 Alpha  occ. eigenvalues --   -0.68718  -0.68606  -0.61682  -0.61623  -0.58198
 Alpha  occ. eigenvalues --   -0.58149  -0.57268  -0.57097  -0.57036  -0.54654
 Alpha  occ. eigenvalues --   -0.54475  -0.54098  -0.54052  -0.53584  -0.53030
 Alpha  occ. eigenvalues --   -0.52447  -0.52416  -0.52169  -0.50509  -0.50450
 Alpha  occ. eigenvalues --   -0.50086  -0.49971  -0.49572  -0.49472  -0.49350
 Alpha  occ. eigenvalues --   -0.48766  -0.48587  -0.48509  -0.47979  -0.47226
 Alpha  occ. eigenvalues --   -0.47051  -0.46997  -0.45304  -0.45276  -0.44971
 Alpha  occ. eigenvalues --   -0.44886  -0.44766  -0.43622  -0.43088  -0.42985
 Alpha  occ. eigenvalues --   -0.42250  -0.42202  -0.41970  -0.41764  -0.41299
 Alpha  occ. eigenvalues --   -0.41252  -0.34548  -0.32665  -0.32583  -0.31342
 Alpha  occ. eigenvalues --   -0.31208  -0.30846  -0.27302  -0.23625
 Alpha virt. eigenvalues --   -0.04326  -0.01994   0.01821   0.02675   0.06033
 Alpha virt. eigenvalues --    0.07101   0.07777   0.09157   0.09211   0.09693
 Alpha virt. eigenvalues --    0.10233   0.10981   0.11093   0.11223   0.11861
 Alpha virt. eigenvalues --    0.12701   0.12868   0.13082   0.13826   0.14542
 Alpha virt. eigenvalues --    0.14625   0.14855   0.15303   0.15579   0.15855
 Alpha virt. eigenvalues --    0.16710   0.16806   0.17022   0.17568   0.17755
 Alpha virt. eigenvalues --    0.18144   0.18241   0.18903   0.19002   0.19300
 Alpha virt. eigenvalues --    0.19411   0.19952   0.20349   0.20671   0.21292
 Alpha virt. eigenvalues --    0.21353   0.22071   0.23129   0.23343   0.23972
 Alpha virt. eigenvalues --    0.24269   0.24427   0.24824   0.25435   0.25664
 Alpha virt. eigenvalues --    0.26000   0.26226   0.26380   0.26665   0.27359
 Alpha virt. eigenvalues --    0.27499   0.27902   0.28134   0.28491   0.29226
 Alpha virt. eigenvalues --    0.29932   0.30283   0.30732   0.31461   0.31826
 Alpha virt. eigenvalues --    0.31867   0.32227   0.32657   0.33434   0.33977
 Alpha virt. eigenvalues --    0.34139   0.34596   0.35133   0.35225   0.35550
 Alpha virt. eigenvalues --    0.35938   0.36054   0.36240   0.37215   0.37907
 Alpha virt. eigenvalues --    0.38159   0.38557   0.39195   0.39268   0.39989
 Alpha virt. eigenvalues --    0.40174   0.41252   0.41423   0.42019   0.42175
 Alpha virt. eigenvalues --    0.43140   0.43628   0.44287   0.44370   0.45184
 Alpha virt. eigenvalues --    0.45360   0.45492   0.45796   0.45897   0.46291
 Alpha virt. eigenvalues --    0.46727   0.46911   0.47183   0.47345   0.47905
 Alpha virt. eigenvalues --    0.48310   0.48501   0.48675   0.49044   0.49091
 Alpha virt. eigenvalues --    0.49420   0.50050   0.50234   0.50549   0.51003
 Alpha virt. eigenvalues --    0.51473   0.52093   0.52309   0.52469   0.52737
 Alpha virt. eigenvalues --    0.52789   0.53118   0.53275   0.53624   0.54232
 Alpha virt. eigenvalues --    0.54643   0.54912   0.55125   0.55440   0.55780
 Alpha virt. eigenvalues --    0.55851   0.55881   0.56989   0.57451   0.58163
 Alpha virt. eigenvalues --    0.58445   0.58741   0.59216   0.59493   0.60200
 Alpha virt. eigenvalues --    0.60857   0.61245   0.61790   0.61901   0.62527
 Alpha virt. eigenvalues --    0.62809   0.63369   0.63566   0.63940   0.64132
 Alpha virt. eigenvalues --    0.64925   0.65355   0.66217   0.66444   0.67317
 Alpha virt. eigenvalues --    0.67836   0.68138   0.68324   0.68620   0.69092
 Alpha virt. eigenvalues --    0.69802   0.69988   0.70285   0.71519   0.71857
 Alpha virt. eigenvalues --    0.72427   0.73048   0.73935   0.74293   0.75134
 Alpha virt. eigenvalues --    0.75414   0.75758   0.76657   0.76787   0.77345
 Alpha virt. eigenvalues --    0.77972   0.78606   0.78921   0.79477   0.79627
 Alpha virt. eigenvalues --    0.80127   0.80620   0.81480   0.81811   0.83570
 Alpha virt. eigenvalues --    0.84453   0.84929   0.85216   0.85716   0.86469
 Alpha virt. eigenvalues --    0.87862   0.88380   0.89184   0.90249   0.91830
 Alpha virt. eigenvalues --    0.92490   0.92630   0.93578   0.94566   0.95986
 Alpha virt. eigenvalues --    0.97938   0.99369   1.00007   1.02482   1.05124
 Alpha virt. eigenvalues --    1.06017   1.06573   1.10733   1.21770   1.24462
 Alpha virt. eigenvalues --    1.26292   1.27187   1.28294   1.29055   1.30082
 Alpha virt. eigenvalues --    1.31175   1.31575   1.32846   1.33062   1.33708
 Alpha virt. eigenvalues --    1.34302   1.34931   1.36195   1.36833   1.37214
 Alpha virt. eigenvalues --    1.37683   1.38048   1.38350   1.38504   1.39002
 Alpha virt. eigenvalues --    1.39748   1.39969   1.40736   1.40961   1.41306
 Alpha virt. eigenvalues --    1.41415   1.42027   1.42250   1.42925   1.43389
 Alpha virt. eigenvalues --    1.43894   1.44052   1.44334   1.44950   1.45235
 Alpha virt. eigenvalues --    1.45707   1.46065   1.46844   1.47031   1.47126
 Alpha virt. eigenvalues --    1.48192   1.48504   1.48766   1.49165   1.49782
 Alpha virt. eigenvalues --    1.50156   1.50773   1.51375   1.51841   1.52042
 Alpha virt. eigenvalues --    1.53151   1.54132   1.54399   1.56180   1.56655
 Alpha virt. eigenvalues --    1.56980   1.57378   1.58332   1.58646   1.59264
 Alpha virt. eigenvalues --    1.59942   1.60255   1.61331   1.61485   1.61655
 Alpha virt. eigenvalues --    1.62447   1.62956   1.63248   1.63495   1.63672
 Alpha virt. eigenvalues --    1.64083   1.65027   1.65101   1.65488   1.65791
 Alpha virt. eigenvalues --    1.65909   1.66573   1.66723   1.67164   1.67536
 Alpha virt. eigenvalues --    1.68021   1.68222   1.68343   1.68611   1.68785
 Alpha virt. eigenvalues --    1.69450   1.69768   1.70152   1.71136   1.71215
 Alpha virt. eigenvalues --    1.71832   1.72354   1.72555   1.72656   1.73650
 Alpha virt. eigenvalues --    1.73840   1.74146   1.74895   1.74986   1.75889
 Alpha virt. eigenvalues --    1.76072   1.76292   1.76702   1.76855   1.77922
 Alpha virt. eigenvalues --    1.78393   1.78935   1.79612   1.80760   1.81282
 Alpha virt. eigenvalues --    1.81495   1.83270   1.84316   1.84999   1.85412
 Alpha virt. eigenvalues --    1.87056   1.87840   1.88093   1.88339   1.88680
 Alpha virt. eigenvalues --    1.89381   1.89713   1.89921   1.90486   1.91000
 Alpha virt. eigenvalues --    1.91274   1.92021   1.92151   1.92640   1.92784
 Alpha virt. eigenvalues --    1.93224   1.93905   1.93949   1.95929   1.96240
 Alpha virt. eigenvalues --    1.96899   1.97660   1.98201   1.99076   1.99304
 Alpha virt. eigenvalues --    2.00269   2.02007   2.02237   2.02351   2.02979
 Alpha virt. eigenvalues --    2.03804   2.03955   2.05515   2.06637   2.07963
 Alpha virt. eigenvalues --    2.08048   2.08385   2.09286   2.09691   2.10480
 Alpha virt. eigenvalues --    2.10972   2.12627   2.13076   2.14624   2.15274
 Alpha virt. eigenvalues --    2.15745   2.16634   2.17909   2.18372   2.19598
 Alpha virt. eigenvalues --    2.20528   2.20929   2.21553   2.22676   2.23212
 Alpha virt. eigenvalues --    2.24019   2.24867   2.25950   2.26342   2.26388
 Alpha virt. eigenvalues --    2.27664   2.28135   2.28626   2.28876   2.29474
 Alpha virt. eigenvalues --    2.29699   2.30423   2.31884   2.32794   2.33476
 Alpha virt. eigenvalues --    2.34224   2.34510   2.35087   2.36117   2.36614
 Alpha virt. eigenvalues --    2.36986   2.37207   2.38792   2.39188   2.39744
 Alpha virt. eigenvalues --    2.40086   2.40393   2.40779   2.41163   2.42373
 Alpha virt. eigenvalues --    2.42689   2.43688   2.44232   2.45439   2.45690
 Alpha virt. eigenvalues --    2.45820   2.47023   2.47730   2.48249   2.49484
 Alpha virt. eigenvalues --    2.49870   2.50575   2.51115   2.51458   2.52228
 Alpha virt. eigenvalues --    2.53846   2.54068   2.54682   2.56021   2.56142
 Alpha virt. eigenvalues --    2.56363   2.57071   2.57693   2.58309   2.59207
 Alpha virt. eigenvalues --    2.59533   2.60196   2.60465   2.60619   2.61697
 Alpha virt. eigenvalues --    2.62298   2.63027   2.63197   2.64845   2.65383
 Alpha virt. eigenvalues --    2.66733   2.66971   2.67387   2.67774   2.67908
 Alpha virt. eigenvalues --    2.68365   2.69104   2.69738   2.70300   2.71000
 Alpha virt. eigenvalues --    2.72341   2.72806   2.74373   2.74514   2.75375
 Alpha virt. eigenvalues --    2.75763   2.76849   2.76897   2.77904   2.78075
 Alpha virt. eigenvalues --    2.78409   2.79325   2.79796   2.79875   2.80597
 Alpha virt. eigenvalues --    2.81235   2.81774   2.82054   2.82673   2.82919
 Alpha virt. eigenvalues --    2.83194   2.83852   2.84823   2.85309   2.86464
 Alpha virt. eigenvalues --    2.86988   2.88010   2.89338   2.89502   2.89912
 Alpha virt. eigenvalues --    2.90114   2.91093   2.91168   2.92004   2.92154
 Alpha virt. eigenvalues --    2.92610   2.92710   2.94253   2.94898   2.95208
 Alpha virt. eigenvalues --    2.96323   2.97239   2.97500   2.98971   3.00401
 Alpha virt. eigenvalues --    3.01429   3.03001   3.03126   3.03954   3.04571
 Alpha virt. eigenvalues --    3.05420   3.11073   3.14268   3.14465   3.15114
 Alpha virt. eigenvalues --    3.15648   3.16498   3.19079   3.19826   3.20153
 Alpha virt. eigenvalues --    3.22032   3.22859   3.23394   3.24098   3.25257
 Alpha virt. eigenvalues --    3.26346   3.26436   3.27093   3.28018   3.28172
 Alpha virt. eigenvalues --    3.28343   3.28545   3.30133   3.30474   3.31689
 Alpha virt. eigenvalues --    3.33071   3.33916   3.35906   3.36504   3.36935
 Alpha virt. eigenvalues --    3.38652   3.39006   3.39075   3.39499   3.40763
 Alpha virt. eigenvalues --    3.40908   3.41728   3.41919   3.42205   3.43348
 Alpha virt. eigenvalues --    3.43681   3.44096   3.44731   3.45104   3.45507
 Alpha virt. eigenvalues --    3.45767   3.46123   3.47058   3.47955   3.48053
 Alpha virt. eigenvalues --    3.49334   3.50503   3.50711   3.51780   3.52580
 Alpha virt. eigenvalues --    3.52977   3.53331   3.56572   3.56781   3.59275
 Alpha virt. eigenvalues --    3.59805   3.59918   3.61501   3.62490   3.63687
 Alpha virt. eigenvalues --    3.65238   3.69898   3.94752   3.95813   4.01889
 Alpha virt. eigenvalues --    4.02425   4.36542   4.37335   4.38018   4.40343
 Alpha virt. eigenvalues --   21.81000  21.98193  22.06986  22.14967  22.16293
 Alpha virt. eigenvalues --   22.17684  22.18418  22.19590  22.21216  22.21581
 Alpha virt. eigenvalues --   22.23408  22.25867  22.26316  22.29302  22.30747
 Alpha virt. eigenvalues --   22.31416  22.36201  22.36381  22.40105  22.42036
 Alpha virt. eigenvalues --   22.45721  22.46625  32.07609  32.08189  43.73636
 Alpha virt. eigenvalues --   43.73705  43.75615  43.78751
          Condensed to atoms (all electrons):
 Mulliken charges:
               1
     1  O   -0.375873
     2  O   -0.373697
     3  O   -0.376386
     4  O   -0.377740
     5  N   -0.233191
     6  N   -0.232297
     7  H    0.293775
     8  H    0.294502
     9  C   -0.016799
    10  C   -0.011101
    11  C    0.259163
    12  C    0.264577
    13  C    0.189269
    14  C    0.179471
    15  C    0.079731
    16  C    0.088156
    17  C   -0.351700
    18  C   -0.358206
    19  H    0.162957
    20  H    0.170268
    21  H    0.170294
    22  H    0.168134
    23  C   -0.041247
    24  C   -0.049096
    25  C    0.101565
    26  C    0.107193
    27  C   -0.416159
    28  C   -0.417506
    29  H    0.133283
    30  H    0.133834
    31  H    0.173286
    32  H    0.175629
    33  H    0.174369
    34  H    0.174380
    35  C   -0.422582
    36  C   -0.427549
    37  H    0.152065
    38  H    0.151260
    39  H    0.175258
    40  H    0.149424
    41  H    0.147696
    42  H    0.175620
    43  C   -0.510544
    44  C   -0.521346
    45  H    0.191179
    46  H    0.173304
    47  H    0.170967
    48  H    0.191397
    49  H    0.159873
    50  H    0.161467
    51  C   -0.540948
    52  C   -0.547163
    53  H    0.209662
    54  H    0.185802
    55  H    0.185899
    56  H    0.214572
    57  H    0.155903
    58  H    0.155948
 Sum of Mulliken charges =  -0.00000
 Mulliken charges with hydrogens summed into heavy atoms:
               1
     1  O   -0.375873
     2  O   -0.373697
     3  O   -0.376386
     4  O   -0.377740
     5  N    0.060584
     6  N    0.062205
     9  C   -0.016799
    10  C   -0.011101
    11  C    0.259163
    12  C    0.264577
    13  C    0.189269
    14  C    0.179471
    15  C    0.079731
    16  C    0.088156
    17  C   -0.018449
    18  C   -0.019804
    23  C   -0.041247
    24  C   -0.049096
    25  C    0.101565
    26  C    0.107193
    27  C    0.064779
    28  C    0.066338
    35  C    0.052436
    36  C    0.048756
    43  C    0.011474
    44  C    0.004821
    51  C    0.010515
    52  C    0.009159
 Electronic spatial extent (au):  <R**2>=          33230.9446
 Charge=              0.0000 electrons
 Dipole moment (field-independent basis, Debye):
    X=              6.0262    Y=             -0.0235    Z=              1.0205  Tot=              6.1120
 Quadrupole moment (field-independent basis, Debye-Ang):
   XX=           -264.3305   YY=           -157.1667   ZZ=           -164.7307
   XY=             11.1757   XZ=             -5.7771   YZ=             29.1400
 Traceless Quadrupole moment (field-independent basis, Debye-Ang):
   XX=            -68.9212   YY=             38.2426   ZZ=             30.6786
   XY=             11.1757   XZ=             -5.7771   YZ=             29.1400
 Octapole moment (field-independent basis, Debye-Ang**2):
  XXX=           3690.8043  YYY=          -1245.9695  ZZZ=           -573.0149  XYY=            734.7261
  XXY=           -661.0139  XXZ=           -181.6058  XZZ=            835.4273  YZZ=           -362.7311
  YYZ=            -49.3186  XYZ=           -125.5207
 Hexadecapole moment (field-independent basis, Debye-Ang**3):
 XXXX=         -43287.1937 YYYY=          -9243.9033 ZZZZ=          -4441.8050 XXXY=           9410.9320
 XXXZ=           2960.5426 YYYX=           5645.2780 YYYZ=           -666.6221 ZZZX=           2679.6373
 ZZZY=          -1144.8882 XXYY=          -6374.0503 XXZZ=          -5961.6807 YYZZ=          -1957.2994
 XXYZ=            186.4616 YYXZ=            186.7526 ZZXY=           1957.3376
 N-N= 3.000518779542D+03 E-N=-8.952748937441D+03  KE= 1.261390308347D+03
 No NMR shielding tensors so no spin-rotation constants.
 Leave Link  601 at Sat Jan 24 16:34:52 2026, MaxMem=  2147483648 cpu:               8.0 elap:               0.3
 (Enter /data/home/wyx/g16/l9999.exe)
 1\1\GINC-CN012\SP\RCAM-B3LYP\TZVP\C22H30N2O4\WYX\24-Jan-2026\0\\#p CAM
 -B3LYP/TZVP em=gd3bj SCRF=(Solvent=Water,NonEquilibrium=Read) Geom=Che
 ck Guess=Read NoSymm\\Title Card Required\\0,1\O,0,-2.1539067978,4.750
 5320575,0.0281224962\O,0,-2.7465056059,0.5357692427,3.2563212789\O,0,-
 8.2165003617,3.5970010579,-1.0729733279\O,0,-8.805993298,1.6839691345,
 2.1453101801\N,0,-4.9310081021,1.0245634571,-0.4291903731\N,0,-5.50640
 09064,4.2611354132,2.6971556906\H,0,-5.0432142391,0.0227456221,-0.4848
 826361\H,0,-5.6339076911,5.2622592919,2.7218559058\C,0,-5.9430582637,3
 .1425399446,-0.605565786\C,0,-6.5163774988,2.1420597669,2.520925226\C,
 0,-3.6516012378,1.4794528411,-0.2699675667\C,0,-4.2493815028,3.8066600
 605,2.9869127516\C,0,-6.0656035094,1.7652145366,-0.5957657031\C,0,-6.6
 27546562,3.5183568658,2.459657025\C,0,-7.0733507726,4.0164571411,-0.87
 86619621\C,0,-7.6730397462,1.2679327894,2.3967289498\C,0,-4.6049024823
 ,3.7665194873,-0.4092129838\C,0,-5.1927780199,1.5188404116,2.803190060
 7\H,0,-4.6352415137,4.435287694,0.4621289632\H,0,-5.2715369569,0.84111
 90349,3.6608364559\H,0,-4.3892447283,4.4582752613,-1.2316338676\H,0,-4
 .9263135327,0.837208942,1.983356695\C,0,-3.4431388759,2.840398169,-0.2
 475151667\C,0,-4.0434361375,2.4469022922,3.0314718717\C,0,-2.170511260
 5,3.5174053948,-0.0677674621\C,0,-2.7820145707,1.7713512905,3.28301084
 24\C,0,-7.2963079674,0.9722379176,-0.8882149134\C,0,-7.8841084592,4.31
 08272022,2.3080463434\H,0,-7.1132064526,-0.0895431961,-0.7205202361\H,
 0,-7.6560882597,5.3734735207,2.219307736\H,0,-7.5986028439,1.108657151
 9,-1.9275624913\H,0,-8.4537478227,3.9949507514,1.4399321766\H,0,-8.132
 4379806,1.2911844407,-0.274048054\H,0,-8.529087456,4.1700147534,3.1766
 654439\C,0,-6.8252252677,5.5050617904,-0.9538416844\C,0,-7.4777116659,
 -0.2140631009,2.6175040052\H,0,-7.783109831,6.0176622123,-0.9184343837
 \H,0,-8.3623659757,-0.7364317016,2.2623471513\H,0,-6.3332796006,5.7534
 306293,-1.8974376617\H,0,-6.5963989365,-0.610933266,2.1167179136\H,0,-
 6.1867385299,5.874106041,-0.1530858132\H,0,-7.3594459937,-0.4174580451
 ,3.6847099603\C,0,-0.8505604675,2.7890677144,-0.007231194\C,0,-1.49632
 72618,2.5045724633,3.575758182\H,0,-0.6160697474,2.3323540815,-0.96969
 82116\H,0,-1.2882721605,3.2984036082,2.8635119423\H,0,-0.8364125298,2.
 0023234928,0.7426952394\H,0,-1.5263686763,2.9518953764,4.5704591794\H,
 0,-0.0782839524,3.517042808,0.2282349025\H,0,-0.6860883871,1.780146860
 3,3.5495888516\C,0,-2.6508902016,0.374665021,-0.1307554965\C,0,-3.2655
 068279,4.9131191684,3.2052787199\H,0,-2.2928152301,0.2932595233,0.8970
 638636\H,0,-2.6513992796,4.7473105776,4.0838726566\H,0,-1.7975189429,0
 .5111057928,-0.7871113799\H,0,-2.6126183515,5.0340327525,2.33807123\H,
 0,-3.110047578,-0.5791244993,-0.3877645939\H,0,-3.7913498884,5.8562156
 171,3.3490930586\\Version=ES64L-G16RevA.03\HF=-1266.6697248\RMSD=4.798
 e-09\Dipole=2.3708903,-0.0092271,0.4014971\Quadrupole=-51.2412244,28.4
 324512,22.8087732,8.3088948,-4.295117,21.6648952\PG=C01 [X(C22H30N2O4)
 ]\\@


 NECESSARY EVIL: ONE WE LIKE TOO MUCH TO RELINQUISH.
 Job cpu time:       0 days  2 hours 27 minutes 48.0 seconds.
 Elapsed time:       0 days  0 hours  4 minutes 40.1 seconds.
 File lengths (MBytes):  RWF=    871 Int=      0 D2E=      0 Chk=    160 Scr=      1
 Normal termination of Gaussian 16 at Sat Jan 24 16:34:55 2026.
