 Entering Gaussian System, Link 0=g16
 Input=DDL-DDL-S2min-S1-cLR-1.gjf
 Output=DDL-DDL-S2min-S1-cLR-1.log
 Initial command:
 /data/home/wyx/g16/l1.exe "/scr/tmp/wyx/13078/Gau-2115533.inp" -scrdir="/scr/tmp/wyx/13078/"
 Entering Link 1 = /data/home/wyx/g16/l1.exe PID=   2115534.
  
 Copyright (c) 1988,1990,1992,1993,1995,1998,2003,2009,2016,
            Gaussian, Inc.  All Rights Reserved.
  
 This is part of the Gaussian(R) 16 program.  It is based on
 the Gaussian(R) 09 system (copyright 2009, Gaussian, Inc.),
 the Gaussian(R) 03 system (copyright 2003, Gaussian, Inc.),
 the Gaussian(R) 98 system (copyright 1998, Gaussian, Inc.),
 the Gaussian(R) 94 system (copyright 1995, Gaussian, Inc.),
 the Gaussian 92(TM) system (copyright 1992, Gaussian, Inc.),
 the Gaussian 90(TM) system (copyright 1990, Gaussian, Inc.),
 the Gaussian 88(TM) system (copyright 1988, Gaussian, Inc.),
 the Gaussian 86(TM) system (copyright 1986, Carnegie Mellon
 University), and the Gaussian 82(TM) system (copyright 1983,
 Carnegie Mellon University). Gaussian is a federally registered
 trademark of Gaussian, Inc.
  
 This software contains proprietary and confidential information,
 including trade secrets, belonging to Gaussian, Inc.
  
 This software is provided under written license and may be
 used, copied, transmitted, or stored only in accord with that
 written license.
  
 The following legend is applicable only to US Government
 contracts under FAR:
  
                    RESTRICTED RIGHTS LEGEND
  
 Use, reproduction and disclosure by the US Government is
 subject to restrictions as set forth in subparagraphs (a)
 and (c) of the Commercial Computer Software - Restricted
 Rights clause in FAR 52.227-19.
  
 Gaussian, Inc.
 340 Quinnipiac St., Bldg. 40, Wallingford CT 06492
  
  
 ---------------------------------------------------------------
 Warning -- This program may not be used in any manner that
 competes with the business of Gaussian, Inc. or will provide
 assistance to any competitor of Gaussian, Inc.  The licensee
 of this program is prohibited from giving any competitor of
 Gaussian, Inc. access to this program.  By using this program,
 the user acknowledges that Gaussian, Inc. is engaged in the
 business of creating and licensing software in the field of
 computational chemistry and represents and warrants to the
 licensee that it is not a competitor of Gaussian, Inc. and that
 it will not use this program in any manner prohibited above.
 ---------------------------------------------------------------
  

 Cite this work as:
 Gaussian 16, Revision A.03,
 M. J. Frisch, G. W. Trucks, H. B. Schlegel, G. E. Scuseria, 
 M. A. Robb, J. R. Cheeseman, G. Scalmani, V. Barone, 
 G. A. Petersson, H. Nakatsuji, X. Li, M. Caricato, A. V. Marenich, 
 J. Bloino, B. G. Janesko, R. Gomperts, B. Mennucci, H. P. Hratchian, 
 J. V. Ortiz, A. F. Izmaylov, J. L. Sonnenberg, D. Williams-Young, 
 F. Ding, F. Lipparini, F. Egidi, J. Goings, B. Peng, A. Petrone, 
 T. Henderson, D. Ranasinghe, V. G. Zakrzewski, J. Gao, N. Rega, 
 G. Zheng, W. Liang, M. Hada, M. Ehara, K. Toyota, R. Fukuda, 
 J. Hasegawa, M. Ishida, T. Nakajima, Y. Honda, O. Kitao, H. Nakai, 
 T. Vreven, K. Throssell, J. A. Montgomery, Jr., J. E. Peralta, 
 F. Ogliaro, M. J. Bearpark, J. J. Heyd, E. N. Brothers, K. N. Kudin, 
 V. N. Staroverov, T. A. Keith, R. Kobayashi, J. Normand, 
 K. Raghavachari, A. P. Rendell, J. C. Burant, S. S. Iyengar, 
 J. Tomasi, M. Cossi, J. M. Millam, M. Klene, C. Adamo, R. Cammi, 
 J. W. Ochterski, R. L. Martin, K. Morokuma, O. Farkas, 
 J. B. Foresman, and D. J. Fox, Gaussian, Inc., Wallingford CT, 2016.
 
 ******************************************
 Gaussian 16:  ES64L-G16RevA.03 25-Dec-2016
                26-Jan-2026 
 ******************************************
 %nprocshared=32
 Will use up to   32 processors via shared memory.
 %mem=16GB
 %oldchk=DDL-DDL-S2min-S1-cLR.chk
 %chk=DDL-DDL-S2min-S1-cLR-1.chk
 Copying data from "DDL-DDL-S2min-S1-cLR.chk" to current chk file "DDL-DDL-S2min-S1-cLR-1.chk"
 IOpt=  2 FromEx=T IUOpen= 4 IOptOp= 5 NList=   0 IFRang= 0 IUIn= 4 IUOut= 2.
 ----------------------------------------------------------------------
 #p CAM-B3LYP/TZVP em=gd3bj SCRF=(Solvent=Water,NonEquilibrium=Read) Ge
 om=Check Guess=Read NoSymm
 ----------------------------------------------------------------------
 1/29=2,38=1,172=1/1;
 2/12=2,15=1,40=1/2;
 3/5=19,7=101,11=2,14=-4,25=1,30=1,70=6002201,72=1,74=-40,116=-2,124=41/1,2,3;
 4/5=1/1;
 5/5=2,38=6,53=1/2;
 6/7=2,8=2,9=2,10=2,28=1/1;
 99/5=1,9=1/99;
 Leave Link    1 at Mon Jan 26 23:30:45 2026, MaxMem=  2147483648 cpu:               4.8 elap:               0.2
 (Enter /data/home/wyx/g16/l101.exe)
 -------------------
 Title Card Required
 -------------------
 Structure from the checkpoint file:  "DDL-DDL-S2min-S1-cLR-1.chk"
 Charge =  0 Multiplicity = 1
 Redundant internal coordinates found in file.  (old form).
 O,0,-2.1548959642,4.7825292528,0.0804768164
 O,0,-2.7450321902,0.5093772344,3.239802894
 O,0,-8.2081067359,3.6321798941,-1.0714199704
 O,0,-8.8063051222,1.6452864631,2.1198210195
 N,0,-4.9205408331,1.0573169159,-0.4521109666
 N,0,-5.5210183763,4.2283798306,2.7217779466
 H,0,-5.0308456705,0.0560961613,-0.5222868623
 H,0,-5.6524593587,5.2287427238,2.7526107259
 C,0,-5.9341541887,3.1759217063,-0.6118346503
 C,0,-6.5204536876,2.1077046778,2.5136657353
 C,0,-3.6433113415,1.5113847216,-0.2762186559
 C,0,-4.2631929683,3.7757826813,3.0106195173
 C,0,-6.0550901095,1.7977859491,-0.6175278089
 C,0,-6.6383007998,3.4828291988,2.4734823558
 C,0,-7.0624728903,4.0508380216,-0.8886798912
 C,0,-7.673371299,1.2305107162,2.3715887446
 C,0,-4.5993217697,3.7986039834,-0.3938223084
 C,0,-5.1944697222,1.4857776476,2.7899568453
 H,0,-4.6408192557,4.4559840075,0.4863486748
 H,0,-5.2726587902,0.7935129328,3.6357942918
 H,0,-4.3763173527,4.5021785897,-1.204199344
 H,0,-4.9213995973,0.8200266379,1.9594606306
 C,0,-3.4375341175,2.873344073,-0.2324509209
 C,0,-4.0510586332,2.4167248129,3.0385219706
 C,0,-2.1685897955,3.5503129646,-0.0315601592
 C,0,-2.7878736367,1.7440432353,3.2887906685
 C,0,-7.2827229289,1.0069197087,-0.9286592093
 C,0,-7.8982298772,4.2705120863,2.3246659981
 H,0,-7.0927966726,-0.0583807038,-0.7940990721
 H,0,-7.6770444852,5.3373952763,2.2817528156
 H,0,-7.5913814038,1.1734476744,-1.9615728578
 H,0,-8.4453505055,3.9843679832,1.4315551055
 H,0,-8.1179773021,1.3012696566,-0.3008493292
 H,0,-8.5613746098,4.0906119411,3.171626003
 C,0,-6.8117693267,5.5378442773,-0.9880147389
 C,0,-7.4721777987,-0.2533348001,2.5726997429
 H,0,-7.7669670407,6.0537931093,-0.9312630075
 H,0,-8.3559550498,-0.7746060463,2.2138451585
 H,0,-6.3500365595,5.7704772224,-1.9509245759
 H,0,-6.5909403289,-0.6393782587,2.0632863114
 H,0,-6.1474471221,5.9179909121,-0.214217821
 H,0,-7.3486101906,-0.4700831247,3.6366459784
 C,0,-0.8478156702,2.8235933394,0.032637485
 C,0,-1.5094549713,2.4789780804,3.6078271271
 H,0,-0.6013784645,2.382473576,-0.9341434771
 H,0,-1.296009026,3.2827932344,2.9084520311
 H,0,-0.8402188913,2.025229164,0.7702775125
 H,0,-1.5543843947,2.9134234096,4.6076465844
 H,0,-0.0797665307,3.5493435689,0.2880324696
 H,0,-0.6955515489,1.7586549244,3.582624074
 C,0,-2.6415141291,0.4066616999,-0.1460294115
 C,0,-3.285776533,4.8840311251,3.2484011216
 H,0,-2.2931065128,0.3079034886,0.8836862191
 H,0,-2.6760661797,4.7102622151,4.1284741446
 H,0,-1.7820610823,0.5561608542,-0.7915494411
 H,0,-2.6284696667,5.0188284624,2.3865974968
 H,0,-3.0959629503,-0.54354602,-0.4240056416
 H,0,-3.8169947397,5.8227115902,3.400987905
 Recover connectivity data from disk.
 ITRead=  0  0  0  0  0  0  0  0  0  0  0  0  0  0  0  0  0  0  0  0
 ITRead=  0  0  0  0  0  0  0  0  0  0  0  0  0  0  0  0  0  0  0  0
 ITRead=  0  0  0  0  0  0  0  0  0  0  0  0  0  0  0  0  0  0
 MicOpt= -1 -1 -1 -1 -1 -1 -1 -1 -1 -1 -1 -1 -1 -1 -1 -1 -1 -1 -1 -1
 MicOpt= -1 -1 -1 -1 -1 -1 -1 -1 -1 -1 -1 -1 -1 -1 -1 -1 -1 -1 -1 -1
 MicOpt= -1 -1 -1 -1 -1 -1 -1 -1 -1 -1 -1 -1 -1 -1 -1 -1 -1 -1
                           ----------------------------
                           !    Current Parameters    !
                           ! (Angstroms and Degrees)  !
 --------------------------                            --------------------------
 ! Name  Definition              Value                                          !
 --------------------------------------------------------------------------------
 ! R1    R(1,25)                 1.2374                                         !
 ! R2    R(2,26)                 1.2364                                         !
 ! R3    R(3,15)                 1.2333                                         !
 ! R4    R(4,16)                 1.2325                                         !
 ! R5    R(5,7)                  1.0097                                         !
 ! R6    R(5,11)                 1.3669                                         !
 ! R7    R(5,13)                 1.3649                                         !
 ! R8    R(6,8)                  1.0094                                         !
 ! R9    R(6,12)                 1.3676                                         !
 ! R10   R(6,14)                 1.3659                                         !
 ! R11   R(9,13)                 1.3834                                         !
 ! R12   R(9,15)                 1.4544                                         !
 ! R13   R(9,17)                 1.489                                          !
 ! R14   R(10,14)                1.3807                                         !
 ! R15   R(10,16)                1.4556                                         !
 ! R16   R(10,18)                1.4904                                         !
 ! R17   R(11,23)                1.3781                                         !
 ! R18   R(11,51)                1.497                                          !
 ! R19   R(12,24)                1.3758                                         !
 ! R20   R(12,52)                1.4967                                         !
 ! R21   R(13,27)                1.4931                                         !
 ! R22   R(14,28)                1.4933                                         !
 ! R23   R(15,35)                1.5113                                         !
 ! R24   R(16,36)                1.5109                                         !
 ! R25   R(17,19)                1.0994                                         !
 ! R26   R(17,21)                1.0961                                         !
 ! R27   R(17,23)                1.494                                          !
 ! R28   R(18,20)                1.0958                                         !
 ! R29   R(18,22)                1.0989                                         !
 ! R30   R(18,24)                1.4953                                         !
 ! R31   R(19,56)                2.8244                                         !
 ! R32   R(23,25)                1.4522                                         !
 ! R33   R(24,26)                1.4528                                         !
 ! R34   R(25,43)                1.5089                                         !
 ! R35   R(26,44)                1.5087                                         !
 ! R36   R(27,29)                1.0904                                         !
 ! R37   R(27,31)                1.0908                                         !
 ! R38   R(27,33)                1.0856                                         !
 ! R39   R(28,30)                1.0904                                         !
 ! R40   R(28,32)                1.0858                                         !
 ! R41   R(28,34)                1.0906                                         !
 ! R42   R(32,33)                3.2105                                         !
 ! R43   R(35,37)                1.0871                                         !
 ! R44   R(35,39)                1.0929                                         !
 ! R45   R(35,41)                1.0884                                         !
 ! R46   R(36,38)                1.087                                          !
 ! R47   R(36,40)                1.0886                                         !
 ! R48   R(36,42)                1.0928                                         !
 ! R49   R(43,45)                1.0909                                         !
 ! R50   R(43,47)                1.087                                          !
 ! R51   R(43,49)                1.0871                                         !
 ! R52   R(44,46)                1.0866                                         !
 ! R53   R(44,48)                1.0911                                         !
 ! R54   R(44,50)                1.0872                                         !
 ! R55   R(51,53)                1.0915                                         !
 ! R56   R(51,55)                1.0852                                         !
 ! R57   R(51,57)                1.0894                                         !
 ! R58   R(52,54)                1.0847                                         !
 ! R59   R(52,56)                1.0922                                         !
 ! R60   R(52,58)                1.0893                                         !
 ! A1    A(7,5,11)             116.13                                           !
 ! A2    A(7,5,13)             116.0224                                         !
 ! A3    A(11,5,13)            127.7412                                         !
 ! A4    A(8,6,12)             116.185                                          !
 ! A5    A(8,6,14)             116.1008                                         !
 ! A6    A(12,6,14)            127.5928                                         !
 ! A7    A(13,9,15)            122.0503                                         !
 ! A8    A(13,9,17)            119.7068                                         !
 ! A9    A(15,9,17)            118.1505                                         !
 ! A10   A(14,10,16)           121.9868                                         !
 ! A11   A(14,10,18)           119.7958                                         !
 ! A12   A(16,10,18)           118.1176                                         !
 ! A13   A(5,11,23)            118.1578                                         !
 ! A14   A(5,11,51)            113.0389                                         !
 ! A15   A(23,11,51)           128.8019                                         !
 ! A16   A(6,12,24)            118.2295                                         !
 ! A17   A(6,12,52)            112.9002                                         !
 ! A18   A(24,12,52)           128.8687                                         !
 ! A19   A(5,13,9)             117.8576                                         !
 ! A20   A(5,13,27)            114.9199                                         !
 ! A21   A(9,13,27)            126.8971                                         !
 ! A22   A(6,14,10)            117.936                                          !
 ! A23   A(6,14,28)            114.8554                                         !
 ! A24   A(10,14,28)           126.8865                                         !
 ! A25   A(3,15,9)             122.9996                                         !
 ! A26   A(3,15,35)            118.578                                          !
 ! A27   A(9,15,35)            118.407                                          !
 ! A28   A(4,16,10)            123.0388                                         !
 ! A29   A(4,16,36)            118.6936                                         !
 ! A30   A(10,16,36)           118.2538                                         !
 ! A31   A(9,17,19)            109.4787                                         !
 ! A32   A(9,17,21)            110.0337                                         !
 ! A33   A(9,17,23)            116.9985                                         !
 ! A34   A(19,17,21)           102.4609                                         !
 ! A35   A(19,17,23)           108.2533                                         !
 ! A36   A(21,17,23)           108.6136                                         !
 ! A37   A(10,18,20)           110.0734                                         !
 ! A38   A(10,18,22)           109.499                                          !
 ! A39   A(10,18,24)           116.8294                                         !
 ! A40   A(20,18,22)           102.6129                                         !
 ! A41   A(20,18,24)           108.6368                                         !
 ! A42   A(22,18,24)           108.2286                                         !
 ! A43   A(17,19,56)           129.1186                                         !
 ! A44   A(11,23,17)           119.5069                                         !
 ! A45   A(11,23,25)           126.5537                                         !
 ! A46   A(17,23,25)           113.9385                                         !
 ! A47   A(12,24,18)           119.5868                                         !
 ! A48   A(12,24,26)           126.5076                                         !
 ! A49   A(18,24,26)           113.9054                                         !
 ! A50   A(1,25,23)            119.1057                                         !
 ! A51   A(1,25,43)            117.7804                                         !
 ! A52   A(23,25,43)           123.1099                                         !
 ! A53   A(2,26,24)            119.0563                                         !
 ! A54   A(2,26,44)            117.7402                                         !
 ! A55   A(24,26,44)           123.2035                                         !
 ! A56   A(13,27,29)           110.3987                                         !
 ! A57   A(13,27,31)           110.4324                                         !
 ! A58   A(13,27,33)           111.6224                                         !
 ! A59   A(29,27,31)           108.3775                                         !
 ! A60   A(29,27,33)           109.1201                                         !
 ! A61   A(31,27,33)           106.769                                          !
 ! A62   A(14,28,30)           110.418                                          !
 ! A63   A(14,28,32)           111.5993                                         !
 ! A64   A(14,28,34)           110.4024                                         !
 ! A65   A(30,28,32)           109.1292                                         !
 ! A66   A(30,28,34)           108.3784                                         !
 ! A67   A(32,28,34)           106.7936                                         !
 ! A68   A(28,32,33)           127.787                                          !
 ! A69   A(27,33,32)           128.107                                          !
 ! A70   A(15,35,37)           108.5296                                         !
 ! A71   A(15,35,39)           109.7203                                         !
 ! A72   A(15,35,41)           113.4652                                         !
 ! A73   A(37,35,39)           108.4319                                         !
 ! A74   A(37,35,41)           109.4766                                         !
 ! A75   A(39,35,41)           107.1075                                         !
 ! A76   A(16,36,38)           108.5881                                         !
 ! A77   A(16,36,40)           113.1899                                         !
 ! A78   A(16,36,42)           109.843                                          !
 ! A79   A(38,36,40)           109.4884                                         !
 ! A80   A(38,36,42)           108.5562                                         !
 ! A81   A(40,36,42)           107.0805                                         !
 ! A82   A(25,43,45)           110.7813                                         !
 ! A83   A(25,43,47)           112.8758                                         !
 ! A84   A(25,43,49)           107.8718                                         !
 ! A85   A(45,43,47)           107.6279                                         !
 ! A86   A(45,43,49)           108.5757                                         !
 ! A87   A(47,43,49)           109.0239                                         !
 ! A88   A(26,44,46)           112.9966                                         !
 ! A89   A(26,44,48)           110.6617                                         !
 ! A90   A(26,44,50)           107.861                                          !
 ! A91   A(46,44,48)           107.6577                                         !
 ! A92   A(46,44,50)           109.156                                          !
 ! A93   A(48,44,50)           108.4151                                         !
 ! A94   A(11,51,53)           111.2486                                         !
 ! A95   A(11,51,55)           112.123                                          !
 ! A96   A(11,51,57)           110.0192                                         !
 ! A97   A(53,51,55)           108.7123                                         !
 ! A98   A(53,51,57)           107.1552                                         !
 ! A99   A(55,51,57)           107.3833                                         !
 ! A100  A(12,52,54)           112.1711                                         !
 ! A101  A(12,52,56)           111.0414                                         !
 ! A102  A(12,52,58)           109.9901                                         !
 ! A103  A(54,52,56)           108.7657                                         !
 ! A104  A(54,52,58)           107.3691                                         !
 ! A105  A(56,52,58)           107.317                                          !
 ! A106  A(19,56,52)            94.4442                                         !
 ! D1    D(7,5,11,23)          177.2759                                         !
 ! D2    D(7,5,11,51)           -3.1246                                         !
 ! D3    D(13,5,11,23)           1.2032                                         !
 ! D4    D(13,5,11,51)        -179.1973                                         !
 ! D5    D(7,5,13,9)          -176.0646                                         !
 ! D6    D(7,5,13,27)           -2.1595                                         !
 ! D7    D(11,5,13,9)            0.0118                                         !
 ! D8    D(11,5,13,27)         173.9168                                         !
 ! D9    D(8,6,12,24)          177.1946                                         !
 ! D10   D(8,6,12,52)           -3.2242                                         !
 ! D11   D(14,6,12,24)           1.3856                                         !
 ! D12   D(14,6,12,52)        -179.0332                                         !
 ! D13   D(8,6,14,10)         -175.6511                                         !
 ! D14   D(8,6,14,28)           -1.7156                                         !
 ! D15   D(12,6,14,10)           0.161                                          !
 ! D16   D(12,6,14,28)         174.0964                                         !
 ! D17   D(15,9,13,5)          174.875                                          !
 ! D18   D(15,9,13,27)           1.7905                                         !
 ! D19   D(17,9,13,5)           -1.5635                                         !
 ! D20   D(17,9,13,27)        -174.6479                                         !
 ! D21   D(13,9,15,3)            4.1605                                         !
 ! D22   D(13,9,15,35)        -174.3892                                         !
 ! D23   D(17,9,15,3)         -179.3478                                         !
 ! D24   D(17,9,15,35)           2.1024                                         !
 ! D25   D(13,9,17,19)        -121.7112                                         !
 ! D26   D(13,9,17,21)         126.4137                                         !
 ! D27   D(13,9,17,23)           1.8672                                         !
 ! D28   D(15,9,17,19)          61.7123                                         !
 ! D29   D(15,9,17,21)         -50.1628                                         !
 ! D30   D(15,9,17,23)        -174.7093                                         !
 ! D31   D(16,10,14,6)         174.8768                                         !
 ! D32   D(16,10,14,28)          1.7605                                         !
 ! D33   D(18,10,14,6)          -1.4204                                         !
 ! D34   D(18,10,14,28)       -174.5366                                         !
 ! D35   D(14,10,16,4)           4.9388                                         !
 ! D36   D(14,10,16,36)       -173.6905                                         !
 ! D37   D(18,10,16,4)        -178.7044                                         !
 ! D38   D(18,10,16,36)          2.6663                                         !
 ! D39   D(14,10,18,20)        125.6441                                         !
 ! D40   D(14,10,18,22)       -122.2682                                         !
 ! D41   D(14,10,18,24)          1.1653                                         !
 ! D42   D(16,10,18,20)        -50.7952                                         !
 ! D43   D(16,10,18,22)         61.2925                                         !
 ! D44   D(16,10,18,24)       -175.274                                          !
 ! D45   D(5,11,23,17)          -0.76                                           !
 ! D46   D(5,11,23,25)         178.8591                                         !
 ! D47   D(51,11,23,17)        179.7131                                         !
 ! D48   D(51,11,23,25)         -0.6679                                         !
 ! D49   D(5,11,51,53)        -106.7899                                         !
 ! D50   D(5,11,51,55)         131.2282                                         !
 ! D51   D(5,11,51,57)          11.7979                                         !
 ! D52   D(23,11,51,53)         72.7569                                         !
 ! D53   D(23,11,51,55)        -49.225                                          !
 ! D54   D(23,11,51,57)       -168.6552                                         !
 ! D55   D(6,12,24,18)          -1.5347                                         !
 ! D56   D(6,12,24,26)         178.268                                          !
 ! D57   D(52,12,24,18)        178.9608                                         !
 ! D58   D(52,12,24,26)         -1.2365                                         !
 ! D59   D(6,12,52,54)         134.1812                                         !
 ! D60   D(6,12,52,56)        -103.8832                                         !
 ! D61   D(6,12,52,58)          14.7573                                         !
 ! D62   D(24,12,52,54)        -46.2928                                         !
 ! D63   D(24,12,52,56)         75.6429                                         !
 ! D64   D(24,12,52,58)       -165.7167                                         !
 ! D65   D(5,13,27,29)          10.1898                                         !
 ! D66   D(5,13,27,31)        -109.6443                                         !
 ! D67   D(5,13,27,33)         131.7449                                         !
 ! D68   D(9,13,27,29)        -176.5512                                         !
 ! D69   D(9,13,27,31)          63.6147                                         !
 ! D70   D(9,13,27,33)         -54.9961                                         !
 ! D71   D(6,14,28,30)           9.1952                                         !
 ! D72   D(6,14,28,32)         130.7596                                         !
 ! D73   D(6,14,28,34)        -110.6333                                         !
 ! D74   D(10,14,28,30)       -177.5063                                         !
 ! D75   D(10,14,28,32)        -55.942                                          !
 ! D76   D(10,14,28,34)         62.6652                                         !
 ! D77   D(3,15,35,37)          16.2586                                         !
 ! D78   D(3,15,35,39)        -102.0605                                         !
 ! D79   D(3,15,35,41)         138.1862                                         !
 ! D80   D(9,15,35,37)        -165.1265                                         !
 ! D81   D(9,15,35,39)          76.5544                                         !
 ! D82   D(9,15,35,41)         -43.1988                                         !
 ! D83   D(4,16,36,38)          14.0741                                         !
 ! D84   D(4,16,36,40)         135.8761                                         !
 ! D85   D(4,16,36,42)        -104.5006                                         !
 ! D86   D(10,16,36,38)       -167.2358                                         !
 ! D87   D(10,16,36,40)        -45.4339                                         !
 ! D88   D(10,16,36,42)         74.1895                                         !
 ! D89   D(9,17,19,56)         146.5359                                         !
 ! D90   D(21,17,19,56)        -96.7015                                         !
 ! D91   D(23,17,19,56)         17.9493                                         !
 ! D92   D(9,17,23,11)          -0.6763                                         !
 ! D93   D(9,17,23,25)         179.6586                                         !
 ! D94   D(19,17,23,11)        123.5255                                         !
 ! D95   D(19,17,23,25)        -56.1397                                         !
 ! D96   D(21,17,23,11)       -125.9365                                         !
 ! D97   D(21,17,23,25)         54.3983                                         !
 ! D98   D(10,18,24,12)          0.3487                                         !
 ! D99   D(10,18,24,26)       -179.4778                                         !
 ! D100  D(20,18,24,12)       -124.8551                                         !
 ! D101  D(20,18,24,26)         55.3183                                         !
 ! D102  D(22,18,24,12)        124.4316                                         !
 ! D103  D(22,18,24,26)        -55.3949                                         !
 ! D104  D(17,19,56,52)       -133.4296                                         !
 ! D105  D(11,23,25,1)        -174.8113                                         !
 ! D106  D(11,23,25,43)          5.9299                                         !
 ! D107  D(17,23,25,1)           4.8259                                         !
 ! D108  D(17,23,25,43)       -174.4329                                         !
 ! D109  D(12,24,26,2)        -177.7277                                         !
 ! D110  D(12,24,26,44)          2.2105                                         !
 ! D111  D(18,24,26,2)           2.0846                                         !
 ! D112  D(18,24,26,44)       -177.9771                                         !
 ! D113  D(1,25,43,45)        -112.3891                                         !
 ! D114  D(1,25,43,47)         126.8357                                         !
 ! D115  D(1,25,43,49)           6.3202                                         !
 ! D116  D(23,25,43,45)         66.879                                          !
 ! D117  D(23,25,43,47)        -53.8963                                         !
 ! D118  D(23,25,43,49)       -174.4118                                         !
 ! D119  D(2,26,44,46)         130.0775                                         !
 ! D120  D(2,26,44,48)        -109.1111                                         !
 ! D121  D(2,26,44,50)           9.3283                                         !
 ! D122  D(24,26,44,46)        -49.8615                                         !
 ! D123  D(24,26,44,48)         70.9499                                         !
 ! D124  D(24,26,44,50)       -170.6107                                         !
 ! D125  D(13,27,33,32)         17.2274                                         !
 ! D126  D(29,27,33,32)        139.5198                                         !
 ! D127  D(31,27,33,32)       -103.546                                          !
 ! D128  D(14,28,32,33)         18.0523                                         !
 ! D129  D(30,28,32,33)        140.3601                                         !
 ! D130  D(34,28,32,33)       -102.6866                                         !
 ! D131  D(28,32,33,27)        -69.4115                                         !
 ! D132  D(12,52,56,19)         36.546                                          !
 ! D133  D(54,52,56,19)        160.4456                                         !
 ! D134  D(58,52,56,19)        -83.6934                                         !
 --------------------------------------------------------------------------------
 NAtoms=     58 NQM=       58 NQMF=       0 NMMI=      0 NMMIF=      0
                NMic=       0 NMicF=      0.
                    Isotopes and Nuclear Properties:
 (Nuclear quadrupole moments (NQMom) in fm**2, nuclear magnetic moments (NMagM)
  in nuclear magnetons)

  Atom         1           2           3           4           5           6           7           8           9          10
 IAtWgt=          16          16          16          16          14          14           1           1          12          12
 AtmWgt=  15.9949146  15.9949146  15.9949146  15.9949146  14.0030740  14.0030740   1.0078250   1.0078250  12.0000000  12.0000000
 NucSpn=           0           0           0           0           2           2           1           1           0           0
 AtZEff=   5.6000000   5.6000000   5.6000000   5.6000000   4.5500000   4.5500000   1.0000000   1.0000000   3.6000000   3.6000000
 NQMom=    0.0000000   0.0000000   0.0000000   0.0000000   2.0440000   2.0440000   0.0000000   0.0000000   0.0000000   0.0000000
 NMagM=    0.0000000   0.0000000   0.0000000   0.0000000   0.4037610   0.4037610   2.7928460   2.7928460   0.0000000   0.0000000
 AtZNuc=   8.0000000   8.0000000   8.0000000   8.0000000   7.0000000   7.0000000   1.0000000   1.0000000   6.0000000   6.0000000

  Atom        11          12          13          14          15          16          17          18          19          20
 IAtWgt=          12          12          12          12          12          12          12          12           1           1
 AtmWgt=  12.0000000  12.0000000  12.0000000  12.0000000  12.0000000  12.0000000  12.0000000  12.0000000   1.0078250   1.0078250
 NucSpn=           0           0           0           0           0           0           0           0           1           1
 AtZEff=   3.6000000   3.6000000   3.6000000   3.6000000   3.6000000   3.6000000   3.6000000   3.6000000   1.0000000   1.0000000
 NQMom=    0.0000000   0.0000000   0.0000000   0.0000000   0.0000000   0.0000000   0.0000000   0.0000000   0.0000000   0.0000000
 NMagM=    0.0000000   0.0000000   0.0000000   0.0000000   0.0000000   0.0000000   0.0000000   0.0000000   2.7928460   2.7928460
 AtZNuc=   6.0000000   6.0000000   6.0000000   6.0000000   6.0000000   6.0000000   6.0000000   6.0000000   1.0000000   1.0000000

  Atom        21          22          23          24          25          26          27          28          29          30
 IAtWgt=           1           1          12          12          12          12          12          12           1           1
 AtmWgt=   1.0078250   1.0078250  12.0000000  12.0000000  12.0000000  12.0000000  12.0000000  12.0000000   1.0078250   1.0078250
 NucSpn=           1           1           0           0           0           0           0           0           1           1
 AtZEff=   1.0000000   1.0000000   3.6000000   3.6000000   3.6000000   3.6000000   3.6000000   3.6000000   1.0000000   1.0000000
 NQMom=    0.0000000   0.0000000   0.0000000   0.0000000   0.0000000   0.0000000   0.0000000   0.0000000   0.0000000   0.0000000
 NMagM=    2.7928460   2.7928460   0.0000000   0.0000000   0.0000000   0.0000000   0.0000000   0.0000000   2.7928460   2.7928460
 AtZNuc=   1.0000000   1.0000000   6.0000000   6.0000000   6.0000000   6.0000000   6.0000000   6.0000000   1.0000000   1.0000000

  Atom        31          32          33          34          35          36          37          38          39          40
 IAtWgt=           1           1           1           1          12          12           1           1           1           1
 AtmWgt=   1.0078250   1.0078250   1.0078250   1.0078250  12.0000000  12.0000000   1.0078250   1.0078250   1.0078250   1.0078250
 NucSpn=           1           1           1           1           0           0           1           1           1           1
 AtZEff=   1.0000000   1.0000000   1.0000000   1.0000000   3.6000000   3.6000000   1.0000000   1.0000000   1.0000000   1.0000000
 NQMom=    0.0000000   0.0000000   0.0000000   0.0000000   0.0000000   0.0000000   0.0000000   0.0000000   0.0000000   0.0000000
 NMagM=    2.7928460   2.7928460   2.7928460   2.7928460   0.0000000   0.0000000   2.7928460   2.7928460   2.7928460   2.7928460
 AtZNuc=   1.0000000   1.0000000   1.0000000   1.0000000   6.0000000   6.0000000   1.0000000   1.0000000   1.0000000   1.0000000

  Atom        41          42          43          44          45          46          47          48          49          50
 IAtWgt=           1           1          12          12           1           1           1           1           1           1
 AtmWgt=   1.0078250   1.0078250  12.0000000  12.0000000   1.0078250   1.0078250   1.0078250   1.0078250   1.0078250   1.0078250
 NucSpn=           1           1           0           0           1           1           1           1           1           1
 AtZEff=   1.0000000   1.0000000   3.6000000   3.6000000   1.0000000   1.0000000   1.0000000   1.0000000   1.0000000   1.0000000
 NQMom=    0.0000000   0.0000000   0.0000000   0.0000000   0.0000000   0.0000000   0.0000000   0.0000000   0.0000000   0.0000000
 NMagM=    2.7928460   2.7928460   0.0000000   0.0000000   2.7928460   2.7928460   2.7928460   2.7928460   2.7928460   2.7928460
 AtZNuc=   1.0000000   1.0000000   6.0000000   6.0000000   1.0000000   1.0000000   1.0000000   1.0000000   1.0000000   1.0000000

  Atom        51          52          53          54          55          56          57          58
 IAtWgt=          12          12           1           1           1           1           1           1
 AtmWgt=  12.0000000  12.0000000   1.0078250   1.0078250   1.0078250   1.0078250   1.0078250   1.0078250
 NucSpn=           0           0           1           1           1           1           1           1
 AtZEff=   3.6000000   3.6000000   1.0000000   1.0000000   1.0000000   1.0000000   1.0000000   1.0000000
 NQMom=    0.0000000   0.0000000   0.0000000   0.0000000   0.0000000   0.0000000   0.0000000   0.0000000
 NMagM=    0.0000000   0.0000000   2.7928460   2.7928460   2.7928460   2.7928460   2.7928460   2.7928460
 AtZNuc=   6.0000000   6.0000000   1.0000000   1.0000000   1.0000000   1.0000000   1.0000000   1.0000000
 Leave Link  101 at Mon Jan 26 23:30:52 2026, MaxMem=  2147483648 cpu:               7.5 elap:               0.3
 (Enter /data/home/wyx/g16/l202.exe)
 Symmetry turned off by external request.
 Stoichiometry    C22H30N2O4
 Framework group  C1[X(C22H30N2O4)]
 Deg. of freedom   168
 Full point group                 C1      NOp   1
                          Input orientation:                          
 ---------------------------------------------------------------------
 Center     Atomic      Atomic             Coordinates (Angstroms)
 Number     Number       Type             X           Y           Z
 ---------------------------------------------------------------------
      1          8           0       -2.154896    4.782529    0.080477
      2          8           0       -2.745032    0.509377    3.239803
      3          8           0       -8.208107    3.632180   -1.071420
      4          8           0       -8.806305    1.645286    2.119821
      5          7           0       -4.920541    1.057317   -0.452111
      6          7           0       -5.521018    4.228380    2.721778
      7          1           0       -5.030846    0.056096   -0.522287
      8          1           0       -5.652459    5.228743    2.752611
      9          6           0       -5.934154    3.175922   -0.611835
     10          6           0       -6.520454    2.107705    2.513666
     11          6           0       -3.643311    1.511385   -0.276219
     12          6           0       -4.263193    3.775783    3.010620
     13          6           0       -6.055090    1.797786   -0.617528
     14          6           0       -6.638301    3.482829    2.473482
     15          6           0       -7.062473    4.050838   -0.888680
     16          6           0       -7.673371    1.230511    2.371589
     17          6           0       -4.599322    3.798604   -0.393822
     18          6           0       -5.194470    1.485778    2.789957
     19          1           0       -4.640819    4.455984    0.486349
     20          1           0       -5.272659    0.793513    3.635794
     21          1           0       -4.376317    4.502179   -1.204199
     22          1           0       -4.921400    0.820027    1.959461
     23          6           0       -3.437534    2.873344   -0.232451
     24          6           0       -4.051059    2.416725    3.038522
     25          6           0       -2.168590    3.550313   -0.031560
     26          6           0       -2.787874    1.744043    3.288791
     27          6           0       -7.282723    1.006920   -0.928659
     28          6           0       -7.898230    4.270512    2.324666
     29          1           0       -7.092797   -0.058381   -0.794099
     30          1           0       -7.677044    5.337395    2.281753
     31          1           0       -7.591381    1.173448   -1.961573
     32          1           0       -8.445351    3.984368    1.431555
     33          1           0       -8.117977    1.301270   -0.300849
     34          1           0       -8.561375    4.090612    3.171626
     35          6           0       -6.811769    5.537844   -0.988015
     36          6           0       -7.472178   -0.253335    2.572700
     37          1           0       -7.766967    6.053793   -0.931263
     38          1           0       -8.355955   -0.774606    2.213845
     39          1           0       -6.350037    5.770477   -1.950925
     40          1           0       -6.590940   -0.639378    2.063286
     41          1           0       -6.147447    5.917991   -0.214218
     42          1           0       -7.348610   -0.470083    3.636646
     43          6           0       -0.847816    2.823593    0.032637
     44          6           0       -1.509455    2.478978    3.607827
     45          1           0       -0.601378    2.382474   -0.934143
     46          1           0       -1.296009    3.282793    2.908452
     47          1           0       -0.840219    2.025229    0.770278
     48          1           0       -1.554384    2.913423    4.607647
     49          1           0       -0.079767    3.549344    0.288032
     50          1           0       -0.695552    1.758655    3.582624
     51          6           0       -2.641514    0.406662   -0.146029
     52          6           0       -3.285777    4.884031    3.248401
     53          1           0       -2.293107    0.307903    0.883686
     54          1           0       -2.676066    4.710262    4.128474
     55          1           0       -1.782061    0.556161   -0.791549
     56          1           0       -2.628470    5.018828    2.386597
     57          1           0       -3.095963   -0.543546   -0.424006
     58          1           0       -3.816995    5.822712    3.400988
 ---------------------------------------------------------------------
 Rotational constants (GHZ):           0.2475073           0.1746368           0.1565267
 Leave Link  202 at Mon Jan 26 23:30:52 2026, MaxMem=  2147483648 cpu:               0.1 elap:               0.0
 (Enter /data/home/wyx/g16/l301.exe)
 Standard basis: TZVP (5D, 7F)
 Ernie: Thresh=  0.10000D-02 Tol=  0.10000D-05 Strict=F.
   712 basis functions,  1220 primitive gaussians,   740 cartesian basis functions
   104 alpha electrons      104 beta electrons
       nuclear repulsion energy      2998.3506927206 Hartrees.
 IExCor=20419 DFT=T Ex+Corr=CAM-B3LYP ExCW=0 ScaHFX=  1.000000
 ScaDFX=  1.000000  1.000000  1.000000  0.810000 ScalE2=  1.000000  1.000000
 IRadAn=      5 IRanWt=     -1 IRanGd=            0 ICorTp=0 IEmpDi=141
 HFx  wShort=  0.000000 wLong=  0.330000 cFull=  0.190000 cShort=  0.000000 cLong=  0.460000
 DFx  wShort=  0.000000 wLong=  0.330000 cFull=  0.190000 cShort=  0.000000 cLong=  0.460000
 NAtoms=   58 NActive=   58 NUniq=   58 SFac= 1.00D+00 NAtFMM=   60 NAOKFM=F Big=F
 Integral buffers will be    131072 words long.
 Raffenetti 2 integral format.
 Two-electron integral symmetry is turned off.
 R6Disp:  Grimme-D3(BJ) Dispersion energy=       -0.0769547519 Hartrees.
 Nuclear repulsion after empirical dispersion term =     2998.2737379688 Hartrees.
 ------------------------------------------------------------------------------
 Polarizable Continuum Model (PCM)
 =================================
 Model                : PCM.
 Atomic radii         : UFF (Universal Force Field).
 Polarization charges : Total charges.
 Charge compensation  : None.
 Solution method      : On-the-fly selection.
 Cavity type          : Scaled VdW (van der Waals Surface) (Alpha=1.100).
 Cavity algorithm     : GePol (No added spheres)
                        Default sphere list used, NSphG=   58.
                        Lebedev-Laikov grids with approx.  5.0 points / Ang**2.
                        Smoothing algorithm: York/Karplus (Gamma=1.0000).
                        Polarization charges: spherical gaussians, with
                                              point-specific exponents (IZeta= 3).
                        Self-potential: point-specific (ISelfS= 7).
                        Self-field    : sphere-specific E.n sum rule (ISelfD= 2).
 Solvent              : Water, Eps=  78.355300 Eps(inf)=   1.777849
 ------------------------------------------------------------------------------
 GePol: Number of generator spheres                  =      58
 GePol: Total number of spheres                      =      58
 GePol: Number of exposed spheres                    =      58 (100.00%)
 GePol: Number of points                             =    3297
 GePol: Average weight of points                     =       0.13
 GePol: Minimum weight of points                     =   0.16D-11
 GePol: Maximum weight of points                     =    0.20577
 GePol: Number of points with low weight             =     238
 GePol: Fraction of low-weight points (<1% of avg)   =       7.22%
 GePol: Cavity surface area                          =    412.614 Ang**2
 GePol: Cavity volume                                =    540.433 Ang**3
 Leave Link  301 at Mon Jan 26 23:30:54 2026, MaxMem=  2147483648 cpu:              29.1 elap:               1.0
 (Enter /data/home/wyx/g16/l302.exe)
 NPDir=0 NMtPBC=     1 NCelOv=     1 NCel=       1 NClECP=     1 NCelD=      1
         NCelK=      1 NCelE2=     1 NClLst=     1 CellRange=     0.0.
 One-electron integrals computed using PRISM.
 NBasis=   712 RedAO= T EigKep=  1.64D-05  NBF=   712
 NBsUse=   712 1.00D-06 EigRej= -1.00D+00 NBFU=   712
 Precomputing XC quadrature grid using
 IXCGrd= 4 IRadAn=           5 IRanWt=          -1 IRanGd=           0 AccXCQ= 0.00D+00.
 Generated NRdTot=       0 NPtTot=           0 NUsed=           0 NTot=          32
 NSgBfM=   718   717   717   718   718 MxSgAt=    58 MxSgA2=    58.
 Leave Link  302 at Mon Jan 26 23:30:55 2026, MaxMem=  2147483648 cpu:              20.9 elap:               0.7
 (Enter /data/home/wyx/g16/l303.exe)
 DipDrv:  MaxL=1.
 Leave Link  303 at Mon Jan 26 23:30:56 2026, MaxMem=  2147483648 cpu:               3.2 elap:               0.1
 (Enter /data/home/wyx/g16/l401.exe)
 Initial guess from the checkpoint file:  "DDL-DDL-S2min-S1-cLR-1.chk"
 B after Tr=     0.000000    0.000000    0.000000
         Rot=    1.000000    0.000000    0.000000    0.000000 Ang=   0.00 deg.
 Guess basis will be translated and rotated to current coordinates.
 GSVD:  received Info=                   1 from GESDD.
 JPrj=2 DoOrth=T DoCkMO=T.
 Leave Link  401 at Mon Jan 26 23:30:57 2026, MaxMem=  2147483648 cpu:              24.1 elap:               0.8
 (Enter /data/home/wyx/g16/l502.exe)
 Two-electron integral symmetry not used.
 Closed shell SCF:
 Using DIIS extrapolation, IDIIS=  1040.
 NGot=  2147483648 LenX=  2146359098 LenY=  2145810758
 Requested convergence on RMS density matrix=1.00D-08 within 128 cycles.
 Requested convergence on MAX density matrix=1.00D-06.
 Requested convergence on             energy=1.00D-06.
 No special actions if energy rises.
 Fock matrices will be formed incrementally for  20 cycles.

 Cycle   1  Pass 1  IDiag  1:
 FoFJK:  IHMeth= 1 ICntrl=       0 DoSepK=T KAlg= 0 I1Cent=           0 FoldK=F
 IRaf=         1 NMat=       1 IRICut=       1 DoRegI=T DoRafI=F ISym2E= 0 IDoP0=0 IntGTp=1.
 FoFCou: FMM=F IPFlag=           0 FMFlag=      100000 FMFlg1=           0
         NFxFlg=           0 DoJE=T BraDBF=F KetDBF=F FulRan=T
         wScrn=  0.000000 ICntrl=       500 IOpCl=  0 I1Cent=           0 NGrid=           0
         NMat0=    1 NMatS0=      1 NMatT0=    0 NMatD0=    1 NMtDS0=    0 NMtDT0=    0
 Symmetry not used in FoFCou.
 Inv3:  Mode=1 IEnd=    32610627.
 Iteration    1 A*A^-1 deviation from unit magnitude is 3.44D-15 for     78.
 Iteration    1 A*A^-1 deviation from orthogonality  is 2.45D-15 for   2658   2467.
 Iteration    1 A^-1*A deviation from unit magnitude is 3.22D-15 for     78.
 Iteration    1 A^-1*A deviation from orthogonality  is 1.35D-12 for   2336   2292.
 NEqPCM:  Using non-equilibrium solvation (IEInf=1, Eps=  78.3553, EpsInf=   1.7778)
 Inv3:  Mode=1 IEnd=    32610627.
 Iteration    1 A*A^-1 deviation from unit magnitude is 4.44D-15 for   1115.
 Iteration    1 A*A^-1 deviation from orthogonality  is 2.11D-15 for   2595    381.
 Iteration    1 A^-1*A deviation from unit magnitude is 3.89D-15 for   1115.
 Iteration    1 A^-1*A deviation from orthogonality  is 7.83D-15 for   3244   3238.
 E= -1266.67008116557    
 DIIS: error= 1.72D-04 at cycle   1 NSaved=   1.
 NSaved= 1 IEnMin= 1 EnMin= -1266.67008116557     IErMin= 1 ErrMin= 1.72D-04
 ErrMax= 1.72D-04  0.00D+00 EMaxC= 1.00D-01 BMatC= 1.59D-05 BMatP= 1.59D-05
 IDIUse=3 WtCom= 9.98D-01 WtEn= 1.72D-03
 Coeff-Com:  0.100D+01
 Coeff-En:   0.100D+01
 Coeff:      0.100D+01
 Gap=     0.193 Goal=   None    Shift=    0.000
 RMSDP=1.21D-04 MaxDP=8.09D-03              OVMax= 2.43D-03

 Cycle   2  Pass 1  IDiag  1:
 RMSU=  1.20D-04    CP:  9.99D-01
 E= -1266.67010826538     Delta-E=       -0.000027099817 Rises=F Damp=F
 DIIS: error= 1.12D-04 at cycle   2 NSaved=   2.
 NSaved= 2 IEnMin= 2 EnMin= -1266.67010826538     IErMin= 2 ErrMin= 1.12D-04
 ErrMax= 1.12D-04  0.00D+00 EMaxC= 1.00D-01 BMatC= 9.22D-06 BMatP= 1.59D-05
 IDIUse=3 WtCom= 9.99D-01 WtEn= 1.12D-03
 Coeff-Com:  0.411D+00 0.589D+00
 Coeff-En:   0.000D+00 0.100D+01
 Coeff:      0.410D+00 0.590D+00
 Gap=     0.193 Goal=   None    Shift=    0.000
 RMSDP=2.79D-05 MaxDP=3.12D-03 DE=-2.71D-05 OVMax= 8.49D-04

 Cycle   3  Pass 1  IDiag  1:
 RMSU=  2.05D-05    CP:  1.00D+00  8.66D-01
 E= -1266.67011566527     Delta-E=       -0.000007399892 Rises=F Damp=F
 DIIS: error= 7.86D-05 at cycle   3 NSaved=   3.
 NSaved= 3 IEnMin= 3 EnMin= -1266.67011566527     IErMin= 3 ErrMin= 7.86D-05
 ErrMax= 7.86D-05  0.00D+00 EMaxC= 1.00D-01 BMatC= 2.56D-06 BMatP= 9.22D-06
 IDIUse=1 WtCom= 1.00D+00 WtEn= 0.00D+00
 Coeff-Com:  0.108D+00 0.332D+00 0.560D+00
 Coeff:      0.108D+00 0.332D+00 0.560D+00
 Gap=     0.193 Goal=   None    Shift=    0.000
 RMSDP=8.22D-06 MaxDP=5.13D-04 DE=-7.40D-06 OVMax= 4.12D-04

 Cycle   4  Pass 1  IDiag  1:
 RMSU=  7.88D-06    CP:  1.00D+00  8.62D-01  9.00D-01
 E= -1266.67011765686     Delta-E=       -0.000001991590 Rises=F Damp=F
 DIIS: error= 1.42D-05 at cycle   4 NSaved=   4.
 NSaved= 4 IEnMin= 4 EnMin= -1266.67011765686     IErMin= 4 ErrMin= 1.42D-05
 ErrMax= 1.42D-05  0.00D+00 EMaxC= 1.00D-01 BMatC= 1.39D-07 BMatP= 2.56D-06
 IDIUse=1 WtCom= 1.00D+00 WtEn= 0.00D+00
 Coeff-Com: -0.217D-02 0.491D-01 0.201D+00 0.752D+00
 Coeff:     -0.217D-02 0.491D-01 0.201D+00 0.752D+00
 Gap=     0.193 Goal=   None    Shift=    0.000
 RMSDP=4.16D-06 MaxDP=6.79D-04 DE=-1.99D-06 OVMax= 1.97D-04

 Cycle   5  Pass 1  IDiag  1:
 RMSU=  2.89D-06    CP:  1.00D+00  8.68D-01  9.74D-01  1.09D+00
 E= -1266.67011778565     Delta-E=       -0.000000128784 Rises=F Damp=F
 DIIS: error= 6.21D-06 at cycle   5 NSaved=   5.
 NSaved= 5 IEnMin= 5 EnMin= -1266.67011778565     IErMin= 5 ErrMin= 6.21D-06
 ErrMax= 6.21D-06  0.00D+00 EMaxC= 1.00D-01 BMatC= 3.30D-08 BMatP= 1.39D-07
 IDIUse=1 WtCom= 1.00D+00 WtEn= 0.00D+00
 Coeff-Com: -0.112D-01-0.142D-01 0.376D-01 0.366D+00 0.621D+00
 Coeff:     -0.112D-01-0.142D-01 0.376D-01 0.366D+00 0.621D+00
 Gap=     0.193 Goal=   None    Shift=    0.000
 RMSDP=1.31D-06 MaxDP=1.57D-04 DE=-1.29D-07 OVMax= 6.53D-05

 Cycle   6  Pass 1  IDiag  1:
 RMSU=  9.72D-07    CP:  1.00D+00  8.67D-01  1.00D+00  1.16D+00  9.13D-01
 E= -1266.67011782222     Delta-E=       -0.000000036574 Rises=F Damp=F
 DIIS: error= 4.14D-06 at cycle   6 NSaved=   6.
 NSaved= 6 IEnMin= 6 EnMin= -1266.67011782222     IErMin= 6 ErrMin= 4.14D-06
 ErrMax= 4.14D-06  0.00D+00 EMaxC= 1.00D-01 BMatC= 2.59D-09 BMatP= 3.30D-08
 IDIUse=1 WtCom= 1.00D+00 WtEn= 0.00D+00
 Coeff-Com: -0.227D-02-0.115D-01-0.112D-01-0.626D-03 0.171D+00 0.855D+00
 Coeff:     -0.227D-02-0.115D-01-0.112D-01-0.626D-03 0.171D+00 0.855D+00
 Gap=     0.193 Goal=   None    Shift=    0.000
 RMSDP=7.44D-07 MaxDP=7.85D-05 DE=-3.66D-08 OVMax= 7.34D-05

 Cycle   7  Pass 1  IDiag  1:
 RMSU=  3.89D-07    CP:  1.00D+00  8.65D-01  1.01D+00  1.20D+00  1.01D+00
                    CP:  1.29D+00
 E= -1266.67011782935     Delta-E=       -0.000000007131 Rises=F Damp=F
 DIIS: error= 2.43D-06 at cycle   7 NSaved=   7.
 NSaved= 7 IEnMin= 7 EnMin= -1266.67011782935     IErMin= 7 ErrMin= 2.43D-06
 ErrMax= 2.43D-06  0.00D+00 EMaxC= 1.00D-01 BMatC= 9.74D-10 BMatP= 2.59D-09
 IDIUse=1 WtCom= 1.00D+00 WtEn= 0.00D+00
 Coeff-Com:  0.884D-03-0.334D-02-0.776D-02-0.568D-01-0.465D-01 0.392D+00
 Coeff-Com:  0.722D+00
 Coeff:      0.884D-03-0.334D-02-0.776D-02-0.568D-01-0.465D-01 0.392D+00
 Coeff:      0.722D+00
 Gap=     0.193 Goal=   None    Shift=    0.000
 RMSDP=3.21D-07 MaxDP=3.11D-05 DE=-7.13D-09 OVMax= 3.80D-05

 Cycle   8  Pass 1  IDiag  1:
 RMSU=  1.70D-07    CP:  1.00D+00  8.65D-01  1.02D+00  1.21D+00  1.05D+00
                    CP:  1.45D+00  1.25D+00
 E= -1266.67011783143     Delta-E=       -0.000000002080 Rises=F Damp=F
 DIIS: error= 1.06D-06 at cycle   8 NSaved=   8.
 NSaved= 8 IEnMin= 8 EnMin= -1266.67011783143     IErMin= 8 ErrMin= 1.06D-06
 ErrMax= 1.06D-06  0.00D+00 EMaxC= 1.00D-01 BMatC= 1.73D-10 BMatP= 9.74D-10
 IDIUse=1 WtCom= 1.00D+00 WtEn= 0.00D+00
 Coeff-Com:  0.936D-03 0.799D-03 0.373D-03-0.213D-01-0.734D-01-0.458D-01
 Coeff-Com:  0.280D+00 0.858D+00
 Coeff:      0.936D-03 0.799D-03 0.373D-03-0.213D-01-0.734D-01-0.458D-01
 Coeff:      0.280D+00 0.858D+00
 Gap=     0.193 Goal=   None    Shift=    0.000
 RMSDP=2.13D-07 MaxDP=2.08D-05 DE=-2.08D-09 OVMax= 2.48D-05

 Cycle   9  Pass 1  IDiag  1:
 RMSU=  7.84D-08    CP:  1.00D+00  8.64D-01  1.02D+00  1.22D+00  1.05D+00
                    CP:  1.61D+00  1.47D+00  1.30D+00
 E= -1266.67011783200     Delta-E=       -0.000000000563 Rises=F Damp=F
 DIIS: error= 4.74D-07 at cycle   9 NSaved=   9.
 NSaved= 9 IEnMin= 9 EnMin= -1266.67011783200     IErMin= 9 ErrMin= 4.74D-07
 ErrMax= 4.74D-07  0.00D+00 EMaxC= 1.00D-01 BMatC= 2.49D-11 BMatP= 1.73D-10
 IDIUse=1 WtCom= 1.00D+00 WtEn= 0.00D+00
 Coeff-Com:  0.240D-03 0.816D-03 0.152D-02 0.270D-02-0.232D-01-0.848D-01
 Coeff-Com: -0.123D-01 0.331D+00 0.784D+00
 Coeff:      0.240D-03 0.816D-03 0.152D-02 0.270D-02-0.232D-01-0.848D-01
 Coeff:     -0.123D-01 0.331D+00 0.784D+00
 Gap=     0.193 Goal=   None    Shift=    0.000
 RMSDP=7.96D-08 MaxDP=6.35D-06 DE=-5.63D-10 OVMax= 9.83D-06

 Cycle  10  Pass 1  IDiag  1:
 RMSU=  3.17D-08    CP:  1.00D+00  8.64D-01  1.02D+00  1.22D+00  1.05D+00
                    CP:  1.65D+00  1.58D+00  1.53D+00  1.09D+00
 E= -1266.67011783200     Delta-E=       -0.000000000006 Rises=F Damp=F
 DIIS: error= 1.63D-07 at cycle  10 NSaved=  10.
 NSaved=10 IEnMin=10 EnMin= -1266.67011783200     IErMin=10 ErrMin= 1.63D-07
 ErrMax= 1.63D-07  0.00D+00 EMaxC= 1.00D-01 BMatC= 5.98D-12 BMatP= 2.49D-11
 IDIUse=1 WtCom= 1.00D+00 WtEn= 0.00D+00
 Coeff-Com: -0.355D-04 0.285D-03 0.438D-03 0.449D-02-0.931D-04-0.335D-01
 Coeff-Com: -0.462D-01 0.125D-01 0.357D+00 0.705D+00
 Coeff:     -0.355D-04 0.285D-03 0.438D-03 0.449D-02-0.931D-04-0.335D-01
 Coeff:     -0.462D-01 0.125D-01 0.357D+00 0.705D+00
 Gap=     0.193 Goal=   None    Shift=    0.000
 RMSDP=3.18D-08 MaxDP=3.21D-06 DE=-5.91D-12 OVMax= 3.58D-06

 Cycle  11  Pass 1  IDiag  1:
 RMSU=  1.05D-08    CP:  1.00D+00  8.64D-01  1.02D+00  1.22D+00  1.05D+00
                    CP:  1.67D+00  1.62D+00  1.62D+00  1.24D+00  1.07D+00
 E= -1266.67011783210     Delta-E=       -0.000000000093 Rises=F Damp=F
 DIIS: error= 5.28D-08 at cycle  11 NSaved=  11.
 NSaved=11 IEnMin=11 EnMin= -1266.67011783210     IErMin=11 ErrMin= 5.28D-08
 ErrMax= 5.28D-08  0.00D+00 EMaxC= 1.00D-01 BMatC= 1.65D-12 BMatP= 5.98D-12
 IDIUse=1 WtCom= 1.00D+00 WtEn= 0.00D+00
 Coeff-Com: -0.587D-04 0.406D-04-0.136D-03 0.194D-02 0.469D-02-0.743D-04
 Coeff-Com: -0.194D-01-0.604D-01 0.344D-01 0.391D+00 0.648D+00
 Coeff:     -0.587D-04 0.406D-04-0.136D-03 0.194D-02 0.469D-02-0.743D-04
 Coeff:     -0.194D-01-0.604D-01 0.344D-01 0.391D+00 0.648D+00
 Gap=     0.193 Goal=   None    Shift=    0.000
 RMSDP=1.19D-08 MaxDP=1.17D-06 DE=-9.32D-11 OVMax= 1.08D-06

 Cycle  12  Pass 1  IDiag  1:
 RMSU=  4.64D-09    CP:  1.00D+00  8.64D-01  1.02D+00  1.22D+00  1.05D+00
                    CP:  1.67D+00  1.62D+00  1.65D+00  1.30D+00  1.22D+00
                    CP:  8.84D-01
 E= -1266.67011783209     Delta-E=        0.000000000002 Rises=F Damp=F
 DIIS: error= 2.15D-08 at cycle  12 NSaved=  12.
 NSaved=12 IEnMin=11 EnMin= -1266.67011783210     IErMin=12 ErrMin= 2.15D-08
 ErrMax= 2.15D-08  0.00D+00 EMaxC= 1.00D-01 BMatC= 1.25D-13 BMatP= 1.65D-12
 IDIUse=1 WtCom= 1.00D+00 WtEn= 0.00D+00
 Coeff-Com: -0.165D-04-0.546D-05-0.154D-03-0.182D-04 0.147D-02 0.474D-02
 Coeff-Com:  0.224D-02-0.219D-01-0.499D-01 0.361D-02 0.165D+00 0.895D+00
 Coeff:     -0.165D-04-0.546D-05-0.154D-03-0.182D-04 0.147D-02 0.474D-02
 Coeff:      0.224D-02-0.219D-01-0.499D-01 0.361D-02 0.165D+00 0.895D+00
 Gap=     0.193 Goal=   None    Shift=    0.000
 RMSDP=5.53D-09 MaxDP=3.55D-07 DE= 2.27D-12 OVMax= 5.85D-07

 Error on total polarization charges =  0.01264
 SCF Done:  E(RCAM-B3LYP) =  -1266.67011783     A.U. after   12 cycles
            NFock= 12  Conv=0.55D-08     -V/T= 2.0042
 KE= 1.261385127391D+03 PE=-8.948228806433D+03 EE= 3.421899823241D+03
 Leave Link  502 at Mon Jan 26 23:35:30 2026, MaxMem=  2147483648 cpu:            8653.4 elap:             273.3
 (Enter /data/home/wyx/g16/l601.exe)
 Copying SCF densities to generalized density rwf, IOpCl= 0 IROHF=0.

 **********************************************************************

            Population analysis using the SCF density.

 **********************************************************************

 Alpha  occ. eigenvalues --  -19.18130 -19.18114 -19.17109 -19.17065 -14.44462
 Alpha  occ. eigenvalues --  -14.44417 -10.33616 -10.33605 -10.32908 -10.32889
 Alpha  occ. eigenvalues --  -10.32553 -10.32499 -10.31932 -10.31891 -10.25486
 Alpha  occ. eigenvalues --  -10.25414 -10.25356 -10.25336 -10.24630 -10.24629
 Alpha  occ. eigenvalues --  -10.24465 -10.24438 -10.24414 -10.24398 -10.24395
 Alpha  occ. eigenvalues --  -10.24389 -10.23781 -10.23771  -1.11916  -1.11854
 Alpha  occ. eigenvalues --   -1.11133  -1.11018  -1.08093  -1.07947  -0.91414
 Alpha  occ. eigenvalues --   -0.91090  -0.90437  -0.90265  -0.84036  -0.83965
 Alpha  occ. eigenvalues --   -0.82552  -0.82351  -0.81635  -0.81438  -0.78628
 Alpha  occ. eigenvalues --   -0.78285  -0.73920  -0.73854  -0.71709  -0.71621
 Alpha  occ. eigenvalues --   -0.68699  -0.68590  -0.61665  -0.61599  -0.58172
 Alpha  occ. eigenvalues --   -0.58128  -0.57226  -0.57080  -0.57029  -0.54633
 Alpha  occ. eigenvalues --   -0.54448  -0.54085  -0.54026  -0.53550  -0.53009
 Alpha  occ. eigenvalues --   -0.52432  -0.52405  -0.52124  -0.50503  -0.50443
 Alpha  occ. eigenvalues --   -0.50068  -0.49966  -0.49542  -0.49443  -0.49340
 Alpha  occ. eigenvalues --   -0.48754  -0.48572  -0.48486  -0.47956  -0.47239
 Alpha  occ. eigenvalues --   -0.47018  -0.46952  -0.45274  -0.45252  -0.44952
 Alpha  occ. eigenvalues --   -0.44864  -0.44746  -0.43621  -0.43074  -0.42977
 Alpha  occ. eigenvalues --   -0.42237  -0.42175  -0.41953  -0.41741  -0.41292
 Alpha  occ. eigenvalues --   -0.41202  -0.34520  -0.32653  -0.32579  -0.31331
 Alpha  occ. eigenvalues --   -0.31191  -0.30841  -0.27257  -0.23636
 Alpha virt. eigenvalues --   -0.04296  -0.01987   0.01880   0.02659   0.06036
 Alpha virt. eigenvalues --    0.07120   0.07776   0.09182   0.09211   0.09675
 Alpha virt. eigenvalues --    0.10230   0.10990   0.11154   0.11263   0.11883
 Alpha virt. eigenvalues --    0.12670   0.12838   0.13080   0.13846   0.14540
 Alpha virt. eigenvalues --    0.14613   0.14881   0.15326   0.15558   0.15870
 Alpha virt. eigenvalues --    0.16749   0.16795   0.17021   0.17536   0.17733
 Alpha virt. eigenvalues --    0.18123   0.18267   0.18936   0.19029   0.19295
 Alpha virt. eigenvalues --    0.19465   0.19892   0.20360   0.20696   0.21238
 Alpha virt. eigenvalues --    0.21352   0.22036   0.23110   0.23390   0.23911
 Alpha virt. eigenvalues --    0.24232   0.24446   0.24771   0.25391   0.25582
 Alpha virt. eigenvalues --    0.25928   0.26258   0.26358   0.26673   0.27411
 Alpha virt. eigenvalues --    0.27527   0.27882   0.28218   0.28475   0.29245
 Alpha virt. eigenvalues --    0.29920   0.30247   0.30720   0.31403   0.31849
 Alpha virt. eigenvalues --    0.31900   0.32233   0.32761   0.33474   0.33914
 Alpha virt. eigenvalues --    0.34177   0.34617   0.35129   0.35246   0.35544
 Alpha virt. eigenvalues --    0.35945   0.35984   0.36207   0.37241   0.37944
 Alpha virt. eigenvalues --    0.38109   0.38586   0.39118   0.39227   0.39985
 Alpha virt. eigenvalues --    0.40057   0.41228   0.41273   0.42008   0.42129
 Alpha virt. eigenvalues --    0.43168   0.43604   0.44208   0.44356   0.45154
 Alpha virt. eigenvalues --    0.45336   0.45473   0.45816   0.45901   0.46290
 Alpha virt. eigenvalues --    0.46687   0.46968   0.47192   0.47321   0.47977
 Alpha virt. eigenvalues --    0.48286   0.48487   0.48653   0.48995   0.49092
 Alpha virt. eigenvalues --    0.49346   0.50049   0.50258   0.50489   0.51000
 Alpha virt. eigenvalues --    0.51559   0.52019   0.52294   0.52405   0.52706
 Alpha virt. eigenvalues --    0.52803   0.53133   0.53319   0.53573   0.54138
 Alpha virt. eigenvalues --    0.54604   0.54968   0.55051   0.55487   0.55723
 Alpha virt. eigenvalues --    0.55814   0.55868   0.56990   0.57516   0.58300
 Alpha virt. eigenvalues --    0.58396   0.58704   0.59190   0.59485   0.60205
 Alpha virt. eigenvalues --    0.60924   0.61194   0.61710   0.61924   0.62483
 Alpha virt. eigenvalues --    0.62918   0.63341   0.63594   0.63843   0.64149
 Alpha virt. eigenvalues --    0.64894   0.65223   0.66265   0.66332   0.67275
 Alpha virt. eigenvalues --    0.67918   0.68177   0.68286   0.68548   0.68968
 Alpha virt. eigenvalues --    0.69267   0.69997   0.70415   0.71568   0.71825
 Alpha virt. eigenvalues --    0.72365   0.73085   0.74024   0.74247   0.75091
 Alpha virt. eigenvalues --    0.75383   0.75644   0.76666   0.76751   0.77393
 Alpha virt. eigenvalues --    0.77955   0.78401   0.78782   0.79488   0.79658
 Alpha virt. eigenvalues --    0.80144   0.80463   0.81383   0.81907   0.83633
 Alpha virt. eigenvalues --    0.84631   0.84799   0.85092   0.85857   0.86275
 Alpha virt. eigenvalues --    0.87824   0.88287   0.89074   0.90039   0.91643
 Alpha virt. eigenvalues --    0.92304   0.92652   0.93517   0.94454   0.95913
 Alpha virt. eigenvalues --    0.98136   0.99600   0.99924   1.02500   1.05256
 Alpha virt. eigenvalues --    1.06073   1.06456   1.11504   1.21707   1.24509
 Alpha virt. eigenvalues --    1.26312   1.27106   1.28267   1.29239   1.30096
 Alpha virt. eigenvalues --    1.30899   1.31528   1.32878   1.32948   1.33799
 Alpha virt. eigenvalues --    1.34328   1.34932   1.36137   1.36924   1.37248
 Alpha virt. eigenvalues --    1.37586   1.38069   1.38386   1.38479   1.39014
 Alpha virt. eigenvalues --    1.39718   1.39928   1.40744   1.41017   1.41304
 Alpha virt. eigenvalues --    1.41421   1.42043   1.42201   1.43026   1.43353
 Alpha virt. eigenvalues --    1.44015   1.44063   1.44213   1.44909   1.45266
 Alpha virt. eigenvalues --    1.45536   1.46067   1.46796   1.46998   1.47067
 Alpha virt. eigenvalues --    1.48127   1.48403   1.48707   1.49129   1.49806
 Alpha virt. eigenvalues --    1.50267   1.50757   1.51405   1.51787   1.51990
 Alpha virt. eigenvalues --    1.53147   1.54340   1.54376   1.56068   1.56705
 Alpha virt. eigenvalues --    1.56760   1.57292   1.58152   1.58647   1.59075
 Alpha virt. eigenvalues --    1.60005   1.60161   1.61414   1.61496   1.61668
 Alpha virt. eigenvalues --    1.62410   1.62932   1.63263   1.63485   1.63667
 Alpha virt. eigenvalues --    1.64030   1.65009   1.65048   1.65361   1.65770
 Alpha virt. eigenvalues --    1.65943   1.66644   1.66674   1.66943   1.67731
 Alpha virt. eigenvalues --    1.67906   1.68375   1.68449   1.68587   1.68948
 Alpha virt. eigenvalues --    1.69474   1.69833   1.70172   1.71139   1.71195
 Alpha virt. eigenvalues --    1.71742   1.72413   1.72553   1.72669   1.73614
 Alpha virt. eigenvalues --    1.73868   1.74161   1.74834   1.74923   1.75893
 Alpha virt. eigenvalues --    1.76061   1.76287   1.76604   1.76750   1.77820
 Alpha virt. eigenvalues --    1.78410   1.78986   1.79545   1.80682   1.81048
 Alpha virt. eigenvalues --    1.81457   1.83147   1.84280   1.84884   1.85422
 Alpha virt. eigenvalues --    1.87249   1.87784   1.87914   1.88469   1.88666
 Alpha virt. eigenvalues --    1.89417   1.89756   1.89986   1.90448   1.91037
 Alpha virt. eigenvalues --    1.91204   1.91932   1.92231   1.92728   1.92844
 Alpha virt. eigenvalues --    1.93376   1.93809   1.94016   1.95686   1.96119
 Alpha virt. eigenvalues --    1.97042   1.97589   1.98281   1.98865   1.99115
 Alpha virt. eigenvalues --    2.00405   2.01963   2.02066   2.02253   2.02981
 Alpha virt. eigenvalues --    2.03731   2.03867   2.05619   2.06628   2.07816
 Alpha virt. eigenvalues --    2.08027   2.08317   2.09197   2.09567   2.10237
 Alpha virt. eigenvalues --    2.10945   2.12609   2.13061   2.14606   2.15309
 Alpha virt. eigenvalues --    2.15843   2.16575   2.17912   2.18381   2.19697
 Alpha virt. eigenvalues --    2.20599   2.20849   2.21605   2.22742   2.23351
 Alpha virt. eigenvalues --    2.23876   2.24823   2.25885   2.26248   2.26309
 Alpha virt. eigenvalues --    2.27706   2.28152   2.28640   2.28847   2.29132
 Alpha virt. eigenvalues --    2.29627   2.30400   2.31725   2.32834   2.33332
 Alpha virt. eigenvalues --    2.34344   2.34576   2.35096   2.35917   2.36667
 Alpha virt. eigenvalues --    2.37024   2.37145   2.38711   2.39193   2.39832
 Alpha virt. eigenvalues --    2.40118   2.40503   2.40669   2.41229   2.42282
 Alpha virt. eigenvalues --    2.42751   2.43656   2.44158   2.45473   2.45660
 Alpha virt. eigenvalues --    2.45860   2.47000   2.47731   2.48269   2.49699
 Alpha virt. eigenvalues --    2.49880   2.50617   2.50661   2.51437   2.52180
 Alpha virt. eigenvalues --    2.53820   2.54008   2.54555   2.56008   2.56037
 Alpha virt. eigenvalues --    2.56400   2.56979   2.57576   2.58363   2.59207
 Alpha virt. eigenvalues --    2.59334   2.60159   2.60399   2.60645   2.61661
 Alpha virt. eigenvalues --    2.62346   2.63053   2.63098   2.64838   2.65443
 Alpha virt. eigenvalues --    2.66718   2.66877   2.67545   2.67805   2.67872
 Alpha virt. eigenvalues --    2.68300   2.69065   2.69687   2.70448   2.71021
 Alpha virt. eigenvalues --    2.72314   2.72668   2.74366   2.74580   2.75506
 Alpha virt. eigenvalues --    2.75775   2.76866   2.76922   2.77905   2.78035
 Alpha virt. eigenvalues --    2.78248   2.79341   2.79787   2.79931   2.80597
 Alpha virt. eigenvalues --    2.81174   2.81761   2.81952   2.82608   2.83061
 Alpha virt. eigenvalues --    2.83140   2.83726   2.84814   2.85360   2.86535
 Alpha virt. eigenvalues --    2.87027   2.88067   2.89298   2.89393   2.89855
 Alpha virt. eigenvalues --    2.90040   2.90799   2.91090   2.91944   2.92109
 Alpha virt. eigenvalues --    2.92636   2.92771   2.94278   2.94750   2.95038
 Alpha virt. eigenvalues --    2.96343   2.97040   2.97614   2.98908   3.00350
 Alpha virt. eigenvalues --    3.01393   3.02842   3.03047   3.03728   3.04600
 Alpha virt. eigenvalues --    3.05218   3.11053   3.14394   3.14454   3.15105
 Alpha virt. eigenvalues --    3.15677   3.16324   3.19136   3.19450   3.20105
 Alpha virt. eigenvalues --    3.21994   3.22784   3.23294   3.24152   3.25343
 Alpha virt. eigenvalues --    3.26367   3.26455   3.27113   3.28082   3.28131
 Alpha virt. eigenvalues --    3.28268   3.28346   3.30069   3.30559   3.31746
 Alpha virt. eigenvalues --    3.33186   3.33904   3.36226   3.36514   3.36833
 Alpha virt. eigenvalues --    3.38682   3.38782   3.38908   3.39311   3.40686
 Alpha virt. eigenvalues --    3.40998   3.41744   3.42021   3.42196   3.43294
 Alpha virt. eigenvalues --    3.43734   3.44176   3.44893   3.45179   3.45500
 Alpha virt. eigenvalues --    3.45618   3.46099   3.47000   3.47795   3.47798
 Alpha virt. eigenvalues --    3.49403   3.50535   3.50634   3.51686   3.52640
 Alpha virt. eigenvalues --    3.52911   3.53300   3.56566   3.56724   3.59077
 Alpha virt. eigenvalues --    3.59607   3.59900   3.61407   3.62232   3.63511
 Alpha virt. eigenvalues --    3.65301   3.69794   3.94768   3.95868   4.01957
 Alpha virt. eigenvalues --    4.02508   4.36484   4.37242   4.37982   4.40258
 Alpha virt. eigenvalues --   21.80922  21.97970  22.06785  22.14639  22.16215
 Alpha virt. eigenvalues --   22.17613  22.18088  22.19439  22.21109  22.21436
 Alpha virt. eigenvalues --   22.23366  22.25868  22.26313  22.29383  22.30261
 Alpha virt. eigenvalues --   22.31497  22.35783  22.36199  22.40042  22.41674
 Alpha virt. eigenvalues --   22.45615  22.46503  32.07565  32.08094  43.73636
 Alpha virt. eigenvalues --   43.73862  43.75453  43.78750
          Condensed to atoms (all electrons):
 Mulliken charges:
               1
     1  O   -0.376068
     2  O   -0.374023
     3  O   -0.378098
     4  O   -0.377501
     5  N   -0.233737
     6  N   -0.234461
     7  H    0.293872
     8  H    0.294097
     9  C   -0.012020
    10  C   -0.014475
    11  C    0.258434
    12  C    0.264548
    13  C    0.189126
    14  C    0.188022
    15  C    0.086270
    16  C    0.087413
    17  C   -0.358551
    18  C   -0.354588
    19  H    0.167956
    20  H    0.169837
    21  H    0.171431
    22  H    0.168670
    23  C   -0.043763
    24  C   -0.051552
    25  C    0.101292
    26  C    0.106314
    27  C   -0.415164
    28  C   -0.415915
    29  H    0.133556
    30  H    0.133843
    31  H    0.172920
    32  H    0.174283
    33  H    0.173797
    34  H    0.172456
    35  C   -0.429344
    36  C   -0.427214
    37  H    0.151033
    38  H    0.151183
    39  H    0.176432
    40  H    0.149875
    41  H    0.150453
    42  H    0.174822
    43  C   -0.511612
    44  C   -0.521394
    45  H    0.191058
    46  H    0.173488
    47  H    0.170818
    48  H    0.191039
    49  H    0.159900
    50  H    0.161209
    51  C   -0.541169
    52  C   -0.547587
    53  H    0.210392
    54  H    0.185233
    55  H    0.185736
    56  H    0.215239
    57  H    0.156054
    58  H    0.156131
 Sum of Mulliken charges =  -0.00000
 Mulliken charges with hydrogens summed into heavy atoms:
               1
     1  O   -0.376068
     2  O   -0.374023
     3  O   -0.378098
     4  O   -0.377501
     5  N    0.060136
     6  N    0.059636
     9  C   -0.012020
    10  C   -0.014475
    11  C    0.258434
    12  C    0.264548
    13  C    0.189126
    14  C    0.188022
    15  C    0.086270
    16  C    0.087413
    17  C   -0.019164
    18  C   -0.016081
    23  C   -0.043763
    24  C   -0.051552
    25  C    0.101292
    26  C    0.106314
    27  C    0.065109
    28  C    0.064668
    35  C    0.048574
    36  C    0.048667
    43  C    0.010165
    44  C    0.004342
    51  C    0.011013
    52  C    0.009016
 Electronic spatial extent (au):  <R**2>=          33247.8401
 Charge=             -0.0000 electrons
 Dipole moment (field-independent basis, Debye):
    X=              5.9660    Y=             -0.0140    Z=              0.9523  Tot=              6.0416
 Quadrupole moment (field-independent basis, Debye-Ang):
   XX=           -263.8993   YY=           -158.0872   ZZ=           -164.1234
   XY=             10.8245   XZ=             -5.6444   YZ=             28.9384
 Traceless Quadrupole moment (field-independent basis, Debye-Ang):
   XX=            -68.5294   YY=             37.2828   ZZ=             31.2466
   XY=             10.8245   XZ=             -5.6444   YZ=             28.9384
 Octapole moment (field-independent basis, Debye-Ang**2):
  XXX=           3687.7099  YYY=          -1253.6106  ZZZ=           -571.5179  XYY=            737.1475
  XXY=           -657.7367  XXZ=           -181.7975  XZZ=            832.2226  YZZ=           -361.0135
  YYZ=            -52.0151  XYZ=           -126.6795
 Hexadecapole moment (field-independent basis, Debye-Ang**3):
 XXXX=         -43251.7284 YYYY=          -9309.2572 ZZZZ=          -4455.5995 XXXY=           9377.1217
 XXXZ=           2943.5512 YYYX=           5665.6562 YYYZ=           -672.5108 ZZZX=           2664.0887
 ZZZY=          -1126.4898 XXYY=          -6383.3626 XXZZ=          -5943.8323 YYZZ=          -1959.1156
 XXYZ=            205.7605 YYXZ=            182.5989 ZZXY=           1943.8239
 N-N= 2.998273737969D+03 E-N=-8.948228800725D+03  KE= 1.261385127391D+03
 No NMR shielding tensors so no spin-rotation constants.
 Leave Link  601 at Mon Jan 26 23:35:31 2026, MaxMem=  2147483648 cpu:               8.0 elap:               0.3
 (Enter /data/home/wyx/g16/l9999.exe)
 1\1\GINC-CN012\SP\RCAM-B3LYP\TZVP\C22H30N2O4\WYX\26-Jan-2026\0\\#p CAM
 -B3LYP/TZVP em=gd3bj SCRF=(Solvent=Water,NonEquilibrium=Read) Geom=Che
 ck Guess=Read NoSymm\\Title Card Required\\0,1\O,0,-2.1548959642,4.782
 5292528,0.0804768164\O,0,-2.7450321902,0.5093772344,3.239802894\O,0,-8
 .2081067359,3.6321798941,-1.0714199704\O,0,-8.8063051222,1.6452864631,
 2.1198210195\N,0,-4.9205408331,1.0573169159,-0.4521109666\N,0,-5.52101
 83763,4.2283798306,2.7217779466\H,0,-5.0308456705,0.0560961613,-0.5222
 868623\H,0,-5.6524593587,5.2287427238,2.7526107259\C,0,-5.9341541887,3
 .1759217063,-0.6118346503\C,0,-6.5204536876,2.1077046778,2.5136657353\
 C,0,-3.6433113415,1.5113847216,-0.2762186559\C,0,-4.2631929683,3.77578
 26813,3.0106195173\C,0,-6.0550901095,1.7977859491,-0.6175278089\C,0,-6
 .6383007998,3.4828291988,2.4734823558\C,0,-7.0624728903,4.0508380216,-
 0.8886798912\C,0,-7.673371299,1.2305107162,2.3715887446\C,0,-4.5993217
 697,3.7986039834,-0.3938223084\C,0,-5.1944697222,1.4857776476,2.789956
 8453\H,0,-4.6408192557,4.4559840075,0.4863486748\H,0,-5.2726587902,0.7
 935129328,3.6357942918\H,0,-4.3763173527,4.5021785897,-1.204199344\H,0
 ,-4.9213995973,0.8200266379,1.9594606306\C,0,-3.4375341175,2.873344073
 ,-0.2324509209\C,0,-4.0510586332,2.4167248129,3.0385219706\C,0,-2.1685
 897955,3.5503129646,-0.0315601592\C,0,-2.7878736367,1.7440432353,3.288
 7906685\C,0,-7.2827229289,1.0069197087,-0.9286592093\C,0,-7.8982298772
 ,4.2705120863,2.3246659981\H,0,-7.0927966726,-0.0583807038,-0.79409907
 21\H,0,-7.6770444852,5.3373952763,2.2817528156\H,0,-7.5913814038,1.173
 4476744,-1.9615728578\H,0,-8.4453505055,3.9843679832,1.4315551055\H,0,
 -8.1179773021,1.3012696566,-0.3008493292\H,0,-8.5613746098,4.090611941
 1,3.171626003\C,0,-6.8117693267,5.5378442773,-0.9880147389\C,0,-7.4721
 777987,-0.2533348001,2.5726997429\H,0,-7.7669670407,6.0537931093,-0.93
 12630075\H,0,-8.3559550498,-0.7746060463,2.2138451585\H,0,-6.350036559
 5,5.7704772224,-1.9509245759\H,0,-6.5909403289,-0.6393782587,2.0632863
 114\H,0,-6.1474471221,5.9179909121,-0.214217821\H,0,-7.3486101906,-0.4
 700831247,3.6366459784\C,0,-0.8478156702,2.8235933394,0.032637485\C,0,
 -1.5094549713,2.4789780804,3.6078271271\H,0,-0.6013784645,2.382473576,
 -0.9341434771\H,0,-1.296009026,3.2827932344,2.9084520311\H,0,-0.840218
 8913,2.025229164,0.7702775125\H,0,-1.5543843947,2.9134234096,4.6076465
 844\H,0,-0.0797665307,3.5493435689,0.2880324696\H,0,-0.6955515489,1.75
 86549244,3.582624074\C,0,-2.6415141291,0.4066616999,-0.1460294115\C,0,
 -3.285776533,4.8840311251,3.2484011216\H,0,-2.2931065128,0.3079034886,
 0.8836862191\H,0,-2.6760661797,4.7102622151,4.1284741446\H,0,-1.782061
 0823,0.5561608542,-0.7915494411\H,0,-2.6284696667,5.0188284624,2.38659
 74968\H,0,-3.0959629503,-0.54354602,-0.4240056416\H,0,-3.8169947397,5.
 8227115902,3.400987905\\Version=ES64L-G16RevA.03\HF=-1266.6701178\RMSD
 =5.533e-09\Dipole=2.3472129,-0.00551,0.3746826\Quadrupole=-50.9499015,
 27.7188506,23.2310509,8.0477475,-4.196445,21.5149565\PG=C01 [X(C22H30N
 2O4)]\\@


 SIGN SEEN IN A RESTAURANT-
 WE RESERVE THE RIGHT TO SERVE REFUSE TO ANYONE.
 Job cpu time:       0 days  2 hours 25 minutes 52.3 seconds.
 Elapsed time:       0 days  0 hours  4 minutes 36.7 seconds.
 File lengths (MBytes):  RWF=    878 Int=      0 D2E=      0 Chk=    160 Scr=      1
 Normal termination of Gaussian 16 at Mon Jan 26 23:35:34 2026.
