 Entering Gaussian System, Link 0=g16
 Input=DDL-DDL-S1min-S2-cLR.gjf
 Output=DDL-DDL-S1min-S2-cLR.log
 Initial command:
 /data/home/wyx/g16/l1.exe "/scr/tmp/wyx/13078/Gau-2015000.inp" -scrdir="/scr/tmp/wyx/13078/"
 Entering Link 1 = /data/home/wyx/g16/l1.exe PID=   2015001.
  
 Copyright (c) 1988,1990,1992,1993,1995,1998,2003,2009,2016,
            Gaussian, Inc.  All Rights Reserved.
  
 This is part of the Gaussian(R) 16 program.  It is based on
 the Gaussian(R) 09 system (copyright 2009, Gaussian, Inc.),
 the Gaussian(R) 03 system (copyright 2003, Gaussian, Inc.),
 the Gaussian(R) 98 system (copyright 1998, Gaussian, Inc.),
 the Gaussian(R) 94 system (copyright 1995, Gaussian, Inc.),
 the Gaussian 92(TM) system (copyright 1992, Gaussian, Inc.),
 the Gaussian 90(TM) system (copyright 1990, Gaussian, Inc.),
 the Gaussian 88(TM) system (copyright 1988, Gaussian, Inc.),
 the Gaussian 86(TM) system (copyright 1986, Carnegie Mellon
 University), and the Gaussian 82(TM) system (copyright 1983,
 Carnegie Mellon University). Gaussian is a federally registered
 trademark of Gaussian, Inc.
  
 This software contains proprietary and confidential information,
 including trade secrets, belonging to Gaussian, Inc.
  
 This software is provided under written license and may be
 used, copied, transmitted, or stored only in accord with that
 written license.
  
 The following legend is applicable only to US Government
 contracts under FAR:
  
                    RESTRICTED RIGHTS LEGEND
  
 Use, reproduction and disclosure by the US Government is
 subject to restrictions as set forth in subparagraphs (a)
 and (c) of the Commercial Computer Software - Restricted
 Rights clause in FAR 52.227-19.
  
 Gaussian, Inc.
 340 Quinnipiac St., Bldg. 40, Wallingford CT 06492
  
  
 ---------------------------------------------------------------
 Warning -- This program may not be used in any manner that
 competes with the business of Gaussian, Inc. or will provide
 assistance to any competitor of Gaussian, Inc.  The licensee
 of this program is prohibited from giving any competitor of
 Gaussian, Inc. access to this program.  By using this program,
 the user acknowledges that Gaussian, Inc. is engaged in the
 business of creating and licensing software in the field of
 computational chemistry and represents and warrants to the
 licensee that it is not a competitor of Gaussian, Inc. and that
 it will not use this program in any manner prohibited above.
 ---------------------------------------------------------------
  

 Cite this work as:
 Gaussian 16, Revision A.03,
 M. J. Frisch, G. W. Trucks, H. B. Schlegel, G. E. Scuseria, 
 M. A. Robb, J. R. Cheeseman, G. Scalmani, V. Barone, 
 G. A. Petersson, H. Nakatsuji, X. Li, M. Caricato, A. V. Marenich, 
 J. Bloino, B. G. Janesko, R. Gomperts, B. Mennucci, H. P. Hratchian, 
 J. V. Ortiz, A. F. Izmaylov, J. L. Sonnenberg, D. Williams-Young, 
 F. Ding, F. Lipparini, F. Egidi, J. Goings, B. Peng, A. Petrone, 
 T. Henderson, D. Ranasinghe, V. G. Zakrzewski, J. Gao, N. Rega, 
 G. Zheng, W. Liang, M. Hada, M. Ehara, K. Toyota, R. Fukuda, 
 J. Hasegawa, M. Ishida, T. Nakajima, Y. Honda, O. Kitao, H. Nakai, 
 T. Vreven, K. Throssell, J. A. Montgomery, Jr., J. E. Peralta, 
 F. Ogliaro, M. J. Bearpark, J. J. Heyd, E. N. Brothers, K. N. Kudin, 
 V. N. Staroverov, T. A. Keith, R. Kobayashi, J. Normand, 
 K. Raghavachari, A. P. Rendell, J. C. Burant, S. S. Iyengar, 
 J. Tomasi, M. Cossi, J. M. Millam, M. Klene, C. Adamo, R. Cammi, 
 J. W. Ochterski, R. L. Martin, K. Morokuma, O. Farkas, 
 J. B. Foresman, and D. J. Fox, Gaussian, Inc., Wallingford CT, 2016.
 
 ******************************************
 Gaussian 16:  ES64L-G16RevA.03 25-Dec-2016
                24-Jan-2026 
 ******************************************
 %nprocshared=32
 Will use up to   32 processors via shared memory.
 %mem=16GB
 %oldchk=DDL-DDL-S1-opt-freq.chk
 %chk=DDL-DDL-S1min-S2-cLR.chk
 Copying data from "DDL-DDL-S1-opt-freq.chk" to current chk file "DDL-DDL-S1min-S2-cLR.chk"
 IOpt=  2 FromEx=T IUOpen= 4 IOptOp= 5 NList=   0 IFRang= 0 IUIn= 4 IUOut= 2.
 ----------------------------------------------------------------------
 #p CAM-B3LYP/TZVP em=gd3bj TD=(Read,NStates=6,Root=2) SCRF=(Solvent=Wa
 ter,CorrectedLR,NonEquilibrium=Save) Geom=Check Guess=Read NoSymm
 ----------------------------------------------------------------------
 1/29=2,30=1,38=1,172=1/1;
 2/12=2,15=1,40=1/2;
 3/5=19,7=101,11=9,14=-4,25=1,30=1,70=9002201,71=1,72=1,74=-40,116=-2,124=41/1,2,3,8;
 4/5=1/1;
 5/5=2,38=6,53=1/2;
 8/6=1,10=1,107=2,108=6/1;
 9/8=2,15=1,41=6,42=1,49=3,70=2,73=22/14;
 10/5=4,13=10,28=2,31=1,74=20/2;
 6/7=2,8=2,9=2,10=2,22=-1/1;
 99/5=1,9=1/99;
 Leave Link    1 at Sat Jan 24 16:34:55 2026, MaxMem=  2147483648 cpu:               3.3 elap:               0.2
 (Enter /data/home/wyx/g16/l101.exe)
 -------------------
 Title Card Required
 -------------------
 Structure from the checkpoint file:  "DDL-DDL-S1min-S2-cLR.chk"
 Charge =  0 Multiplicity = 1
 Redundant internal coordinates found in file.  (old form).
 O,0,-2.1539067978,4.7505320575,0.0281224962
 O,0,-2.7465056059,0.5357692427,3.2563212789
 O,0,-8.2165003617,3.5970010579,-1.0729733279
 O,0,-8.805993298,1.6839691345,2.1453101801
 N,0,-4.9310081021,1.0245634571,-0.4291903731
 N,0,-5.5064009064,4.2611354132,2.6971556906
 H,0,-5.0432142391,0.0227456221,-0.4848826361
 H,0,-5.6339076911,5.2622592919,2.7218559058
 C,0,-5.9430582637,3.1425399446,-0.605565786
 C,0,-6.5163774988,2.1420597669,2.520925226
 C,0,-3.6516012378,1.4794528411,-0.2699675667
 C,0,-4.2493815028,3.8066600605,2.9869127516
 C,0,-6.0656035094,1.7652145366,-0.5957657031
 C,0,-6.627546562,3.5183568658,2.459657025
 C,0,-7.0733507726,4.0164571411,-0.8786619621
 C,0,-7.6730397462,1.2679327894,2.3967289498
 C,0,-4.6049024823,3.7665194873,-0.4092129838
 C,0,-5.1927780199,1.5188404116,2.8031900607
 H,0,-4.6352415137,4.435287694,0.4621289632
 H,0,-5.2715369569,0.8411190349,3.6608364559
 H,0,-4.3892447283,4.4582752613,-1.2316338676
 H,0,-4.9263135327,0.837208942,1.983356695
 C,0,-3.4431388759,2.840398169,-0.2475151667
 C,0,-4.0434361375,2.4469022922,3.0314718717
 C,0,-2.1705112605,3.5174053948,-0.0677674621
 C,0,-2.7820145707,1.7713512905,3.2830108424
 C,0,-7.2963079674,0.9722379176,-0.8882149134
 C,0,-7.8841084592,4.3108272022,2.3080463434
 H,0,-7.1132064526,-0.0895431961,-0.7205202361
 H,0,-7.6560882597,5.3734735207,2.219307736
 H,0,-7.5986028439,1.1086571519,-1.9275624913
 H,0,-8.4537478227,3.9949507514,1.4399321766
 H,0,-8.1324379806,1.2911844407,-0.274048054
 H,0,-8.529087456,4.1700147534,3.1766654439
 C,0,-6.8252252677,5.5050617904,-0.9538416844
 C,0,-7.4777116659,-0.2140631009,2.6175040052
 H,0,-7.783109831,6.0176622123,-0.9184343837
 H,0,-8.3623659757,-0.7364317016,2.2623471513
 H,0,-6.3332796006,5.7534306293,-1.8974376617
 H,0,-6.5963989365,-0.610933266,2.1167179136
 H,0,-6.1867385299,5.874106041,-0.1530858132
 H,0,-7.3594459937,-0.4174580451,3.6847099603
 C,0,-0.8505604675,2.7890677144,-0.007231194
 C,0,-1.4963272618,2.5045724633,3.575758182
 H,0,-0.6160697474,2.3323540815,-0.9696982116
 H,0,-1.2882721605,3.2984036082,2.8635119423
 H,0,-0.8364125298,2.0023234928,0.7426952394
 H,0,-1.5263686763,2.9518953764,4.5704591794
 H,0,-0.0782839524,3.517042808,0.2282349025
 H,0,-0.6860883871,1.7801468603,3.5495888516
 C,0,-2.6508902016,0.374665021,-0.1307554965
 C,0,-3.2655068279,4.9131191684,3.2052787199
 H,0,-2.2928152301,0.2932595233,0.8970638636
 H,0,-2.6513992796,4.7473105776,4.0838726566
 H,0,-1.7975189429,0.5111057928,-0.7871113799
 H,0,-2.6126183515,5.0340327525,2.33807123
 H,0,-3.110047578,-0.5791244993,-0.3877645939
 H,0,-3.7913498884,5.8562156171,3.3490930586
 Recover connectivity data from disk.
 ITRead=  0  0  0  0  0  0  0  0  0  0  0  0  0  0  0  0  0  0  0  0
 ITRead=  0  0  0  0  0  0  0  0  0  0  0  0  0  0  0  0  0  0  0  0
 ITRead=  0  0  0  0  0  0  0  0  0  0  0  0  0  0  0  0  0  0
 MicOpt= -1 -1 -1 -1 -1 -1 -1 -1 -1 -1 -1 -1 -1 -1 -1 -1 -1 -1 -1 -1
 MicOpt= -1 -1 -1 -1 -1 -1 -1 -1 -1 -1 -1 -1 -1 -1 -1 -1 -1 -1 -1 -1
 MicOpt= -1 -1 -1 -1 -1 -1 -1 -1 -1 -1 -1 -1 -1 -1 -1 -1 -1 -1
                           ----------------------------
                           !    Current Parameters    !
                           ! (Angstroms and Degrees)  !
 --------------------------                            --------------------------
 ! Name  Definition              Value                                          !
 --------------------------------------------------------------------------------
 ! R1    R(1,25)                 1.237                                          !
 ! R2    R(2,26)                 1.2364                                         !
 ! R3    R(3,15)                 1.2331                                         !
 ! R4    R(4,16)                 1.2328                                         !
 ! R5    R(5,7)                  1.0096                                         !
 ! R6    R(5,11)                 1.3672                                         !
 ! R7    R(5,13)                 1.3651                                         !
 ! R8    R(6,8)                  1.0095                                         !
 ! R9    R(6,12)                 1.3677                                         !
 ! R10   R(6,14)                 1.3657                                         !
 ! R11   R(9,13)                 1.3828                                         !
 ! R12   R(9,15)                 1.4546                                         !
 ! R13   R(9,17)                 1.4895                                         !
 ! R14   R(10,14)                1.3821                                         !
 ! R15   R(10,16)                1.4551                                         !
 ! R16   R(10,18)                1.49                                           !
 ! R17   R(11,23)                1.377                                          !
 ! R18   R(11,51)                1.4971                                         !
 ! R19   R(12,24)                1.376                                          !
 ! R20   R(12,52)                1.4966                                         !
 ! R21   R(13,27)                1.493                                          !
 ! R22   R(14,28)                1.4933                                         !
 ! R23   R(15,35)                1.511                                          !
 ! R24   R(16,36)                1.511                                          !
 ! R25   R(17,19)                1.0988                                         !
 ! R26   R(17,21)                1.0961                                         !
 ! R27   R(17,23)                1.4945                                         !
 ! R28   R(18,20)                1.0959                                         !
 ! R29   R(18,22)                1.099                                          !
 ! R30   R(18,24)                1.4948                                         !
 ! R31   R(19,56)                2.8229                                         !
 ! R32   R(23,25)                1.4527                                         !
 ! R33   R(24,26)                1.4529                                         !
 ! R34   R(25,43)                1.5088                                         !
 ! R35   R(26,44)                1.5087                                         !
 ! R36   R(27,29)                1.0904                                         !
 ! R37   R(27,31)                1.091                                          !
 ! R38   R(27,33)                1.0854                                         !
 ! R39   R(28,30)                1.0905                                         !
 ! R40   R(28,32)                1.0853                                         !
 ! R41   R(28,34)                1.091                                          !
 ! R42   R(32,33)                3.2173                                         !
 ! R43   R(35,37)                1.087                                          !
 ! R44   R(35,39)                1.0927                                         !
 ! R45   R(35,41)                1.0886                                         !
 ! R46   R(36,38)                1.087                                          !
 ! R47   R(36,40)                1.0886                                         !
 ! R48   R(36,42)                1.0928                                         !
 ! R49   R(43,45)                1.0908                                         !
 ! R50   R(43,47)                1.087                                          !
 ! R51   R(43,49)                1.0871                                         !
 ! R52   R(44,46)                1.0866                                         !
 ! R53   R(44,48)                1.0911                                         !
 ! R54   R(44,50)                1.0872                                         !
 ! R55   R(51,53)                1.0914                                         !
 ! R56   R(51,55)                1.0852                                         !
 ! R57   R(51,57)                1.0893                                         !
 ! R58   R(52,54)                1.0847                                         !
 ! R59   R(52,56)                1.0922                                         !
 ! R60   R(52,58)                1.0893                                         !
 ! A1    A(7,5,11)             116.1408                                         !
 ! A2    A(7,5,13)             116.0562                                         !
 ! A3    A(11,5,13)            127.695                                          !
 ! A4    A(8,6,12)             116.1313                                         !
 ! A5    A(8,6,14)             116.0996                                         !
 ! A6    A(12,6,14)            127.6343                                         !
 ! A7    A(13,9,15)            122.0651                                         !
 ! A8    A(13,9,17)            119.7322                                         !
 ! A9    A(15,9,17)            118.1097                                         !
 ! A10   A(14,10,16)           122.0369                                         !
 ! A11   A(14,10,18)           119.7595                                         !
 ! A12   A(16,10,18)           118.1014                                         !
 ! A13   A(5,11,23)            118.191                                          !
 ! A14   A(5,11,51)            113.0052                                         !
 ! A15   A(23,11,51)           128.802                                          !
 ! A16   A(6,12,24)            118.2157                                         !
 ! A17   A(6,12,52)            112.9195                                         !
 ! A18   A(24,12,52)           128.8627                                         !
 ! A19   A(5,13,9)             117.879                                          !
 ! A20   A(5,13,27)            114.8883                                         !
 ! A21   A(9,13,27)            126.9201                                         !
 ! A22   A(6,14,10)            117.8948                                         !
 ! A23   A(6,14,28)            114.8231                                         !
 ! A24   A(10,14,28)           126.9146                                         !
 ! A25   A(3,15,9)             123.0647                                         !
 ! A26   A(3,15,35)            118.654                                          !
 ! A27   A(9,15,35)            118.2699                                         !
 ! A28   A(4,16,10)            123.0365                                         !
 ! A29   A(4,16,36)            118.6574                                         !
 ! A30   A(10,16,36)           118.2914                                         !
 ! A31   A(9,17,19)            109.5541                                         !
 ! A32   A(9,17,21)            110.0133                                         !
 ! A33   A(9,17,23)            116.939                                          !
 ! A34   A(19,17,21)           102.4926                                         !
 ! A35   A(19,17,23)           108.2294                                         !
 ! A36   A(21,17,23)           108.6221                                         !
 ! A37   A(10,18,20)           110.0644                                         !
 ! A38   A(10,18,22)           109.4815                                         !
 ! A39   A(10,18,24)           116.8903                                         !
 ! A40   A(20,18,22)           102.572                                          !
 ! A41   A(20,18,24)           108.6438                                         !
 ! A42   A(22,18,24)           108.2149                                         !
 ! A43   A(17,19,56)           129.5151                                         !
 ! A44   A(11,23,17)           119.5387                                         !
 ! A45   A(11,23,25)           126.5308                                         !
 ! A46   A(17,23,25)           113.9289                                         !
 ! A47   A(12,24,18)           119.5718                                         !
 ! A48   A(12,24,26)           126.5161                                         !
 ! A49   A(18,24,26)           113.9119                                         !
 ! A50   A(1,25,23)            119.0749                                         !
 ! A51   A(1,25,43)            117.7998                                         !
 ! A52   A(23,25,43)           123.1212                                         !
 ! A53   A(2,26,24)            119.0699                                         !
 ! A54   A(2,26,44)            117.735                                          !
 ! A55   A(24,26,44)           123.1951                                         !
 ! A56   A(13,27,29)           110.4043                                         !
 ! A57   A(13,27,31)           110.4022                                         !
 ! A58   A(13,27,33)           111.5991                                         !
 ! A59   A(29,27,31)           108.3485                                         !
 ! A60   A(29,27,33)           109.1762                                         !
 ! A61   A(31,27,33)           106.7907                                         !
 ! A62   A(14,28,30)           110.4542                                         !
 ! A63   A(14,28,32)           111.6177                                         !
 ! A64   A(14,28,34)           110.3728                                         !
 ! A65   A(30,28,32)           109.1648                                         !
 ! A66   A(30,28,34)           108.3114                                         !
 ! A67   A(32,28,34)           106.7968                                         !
 ! A68   A(28,32,33)           128.1915                                         !
 ! A69   A(27,33,32)           128.7067                                         !
 ! A70   A(15,35,37)           108.5574                                         !
 ! A71   A(15,35,39)           109.9263                                         !
 ! A72   A(15,35,41)           113.1844                                         !
 ! A73   A(37,35,39)           108.5219                                         !
 ! A74   A(37,35,41)           109.4525                                         !
 ! A75   A(39,35,41)           107.1026                                         !
 ! A76   A(16,36,38)           108.5648                                         !
 ! A77   A(16,36,40)           113.2667                                         !
 ! A78   A(16,36,42)           109.8289                                         !
 ! A79   A(38,36,40)           109.4738                                         !
 ! A80   A(38,36,42)           108.5237                                         !
 ! A81   A(40,36,42)           107.0844                                         !
 ! A82   A(25,43,45)           110.7795                                         !
 ! A83   A(25,43,47)           112.8587                                         !
 ! A84   A(25,43,49)           107.8736                                         !
 ! A85   A(45,43,47)           107.6313                                         !
 ! A86   A(45,43,49)           108.5885                                         !
 ! A87   A(47,43,49)           109.0259                                         !
 ! A88   A(26,44,46)           113.0175                                         !
 ! A89   A(26,44,48)           110.6512                                         !
 ! A90   A(26,44,50)           107.8537                                         !
 ! A91   A(46,44,48)           107.6578                                         !
 ! A92   A(46,44,50)           109.1666                                         !
 ! A93   A(48,44,50)           108.4002                                         !
 ! A94   A(11,51,53)           111.2168                                         !
 ! A95   A(11,51,55)           112.1238                                         !
 ! A96   A(11,51,57)           110.0261                                         !
 ! A97   A(53,51,55)           108.7207                                         !
 ! A98   A(53,51,57)           107.1674                                         !
 ! A99   A(55,51,57)           107.3886                                         !
 ! A100  A(12,52,54)           112.1701                                         !
 ! A101  A(12,52,56)           111.0364                                         !
 ! A102  A(12,52,58)           109.9975                                         !
 ! A103  A(54,52,56)           108.761                                          !
 ! A104  A(54,52,58)           107.3799                                         !
 ! A105  A(56,52,58)           107.3097                                         !
 ! A106  A(19,56,52)            94.3506                                         !
 ! D1    D(7,5,11,23)          177.2179                                         !
 ! D2    D(7,5,11,51)           -3.224                                          !
 ! D3    D(13,5,11,23)           1.1722                                         !
 ! D4    D(13,5,11,51)        -179.2697                                         !
 ! D5    D(7,5,13,9)          -176.259                                          !
 ! D6    D(7,5,13,27)           -2.2314                                         !
 ! D7    D(11,5,13,9)           -0.2105                                         !
 ! D8    D(11,5,13,27)         173.8171                                         !
 ! D9    D(8,6,12,24)          176.8001                                         !
 ! D10   D(8,6,12,52)           -3.6754                                         !
 ! D11   D(14,6,12,24)           1.2151                                         !
 ! D12   D(14,6,12,52)        -179.2604                                         !
 ! D13   D(8,6,14,10)         -175.0701                                         !
 ! D14   D(8,6,14,28)           -1.545                                          !
 ! D15   D(12,6,14,10)           0.5161                                         !
 ! D16   D(12,6,14,28)         174.0412                                         !
 ! D17   D(15,9,13,5)          175.1786                                         !
 ! D18   D(15,9,13,27)           1.9587                                         !
 ! D19   D(17,9,13,5)           -1.2489                                         !
 ! D20   D(17,9,13,27)        -174.4688                                         !
 ! D21   D(13,9,15,3)            2.5445                                         !
 ! D22   D(13,9,15,35)        -176.2089                                         !
 ! D23   D(17,9,15,3)          179.0276                                         !
 ! D24   D(17,9,15,35)           0.2742                                         !
 ! D25   D(13,9,17,19)        -121.8793                                         !
 ! D26   D(13,9,17,21)         126.1784                                         !
 ! D27   D(13,9,17,23)           1.685                                          !
 ! D28   D(15,9,17,19)          61.5528                                         !
 ! D29   D(15,9,17,21)         -50.3895                                         !
 ! D30   D(15,9,17,23)        -174.8829                                         !
 ! D31   D(16,10,14,6)         174.6504                                         !
 ! D32   D(16,10,14,28)          2.005                                          !
 ! D33   D(18,10,14,6)          -1.6035                                         !
 ! D34   D(18,10,14,28)       -174.2489                                         !
 ! D35   D(14,10,16,4)           4.7723                                         !
 ! D36   D(14,10,16,36)       -173.8125                                         !
 ! D37   D(18,10,16,4)        -178.9142                                         !
 ! D38   D(18,10,16,36)          2.501                                          !
 ! D39   D(14,10,18,20)        125.5763                                         !
 ! D40   D(14,10,18,22)       -122.3989                                         !
 ! D41   D(14,10,18,24)          1.0474                                         !
 ! D42   D(16,10,18,20)        -50.824                                          !
 ! D43   D(16,10,18,22)         61.2009                                         !
 ! D44   D(16,10,18,24)       -175.3529                                         !
 ! D45   D(5,11,23,17)          -0.5895                                         !
 ! D46   D(5,11,23,25)         178.9295                                         !
 ! D47   D(51,11,23,17)        179.9324                                         !
 ! D48   D(51,11,23,25)         -0.5485                                         !
 ! D49   D(5,11,51,53)        -106.969                                          !
 ! D50   D(5,11,51,55)         131.0606                                         !
 ! D51   D(5,11,51,57)          11.6185                                         !
 ! D52   D(23,11,51,53)         72.5312                                         !
 ! D53   D(23,11,51,55)        -49.4391                                         !
 ! D54   D(23,11,51,57)       -168.8812                                         !
 ! D55   D(6,12,24,18)          -1.7049                                         !
 ! D56   D(6,12,24,26)         178.1479                                         !
 ! D57   D(52,12,24,18)        178.8576                                         !
 ! D58   D(52,12,24,26)         -1.2896                                         !
 ! D59   D(6,12,52,54)         134.3063                                         !
 ! D60   D(6,12,52,56)        -103.7685                                         !
 ! D61   D(6,12,52,58)          14.8645                                         !
 ! D62   D(24,12,52,54)        -46.2318                                         !
 ! D63   D(24,12,52,56)         75.6934                                         !
 ! D64   D(24,12,52,58)       -165.6737                                         !
 ! D65   D(5,13,27,29)          11.4324                                         !
 ! D66   D(5,13,27,31)        -108.3498                                         !
 ! D67   D(5,13,27,33)         133.0469                                         !
 ! D68   D(9,13,27,29)        -175.1736                                         !
 ! D69   D(9,13,27,31)          65.0442                                         !
 ! D70   D(9,13,27,33)         -53.559                                          !
 ! D71   D(6,14,28,30)          11.1827                                         !
 ! D72   D(6,14,28,32)         132.8301                                         !
 ! D73   D(6,14,28,34)        -108.5664                                         !
 ! D74   D(10,14,28,30)       -175.978                                          !
 ! D75   D(10,14,28,32)        -54.3306                                         !
 ! D76   D(10,14,28,34)         64.2729                                         !
 ! D77   D(3,15,35,37)          14.8783                                         !
 ! D78   D(3,15,35,39)        -103.6849                                         !
 ! D79   D(3,15,35,41)         136.6091                                         !
 ! D80   D(9,15,35,37)        -166.3122                                         !
 ! D81   D(9,15,35,39)          75.1246                                         !
 ! D82   D(9,15,35,41)         -44.5814                                         !
 ! D83   D(4,16,36,38)          14.5824                                         !
 ! D84   D(4,16,36,40)         136.4                                            !
 ! D85   D(4,16,36,42)        -103.931                                          !
 ! D86   D(10,16,36,38)       -166.7696                                         !
 ! D87   D(10,16,36,40)        -44.952                                          !
 ! D88   D(10,16,36,42)         74.717                                          !
 ! D89   D(9,17,19,56)         146.6442                                         !
 ! D90   D(21,17,19,56)        -96.5682                                         !
 ! D91   D(23,17,19,56)         18.0975                                         !
 ! D92   D(9,17,23,11)          -0.7427                                         !
 ! D93   D(9,17,23,25)         179.6801                                         !
 ! D94   D(19,17,23,11)        123.4962                                         !
 ! D95   D(19,17,23,25)        -56.081                                          !
 ! D96   D(21,17,23,11)       -125.9366                                         !
 ! D97   D(21,17,23,25)         54.4862                                         !
 ! D98   D(10,18,24,12)          0.6477                                         !
 ! D99   D(10,18,24,26)       -179.2229                                         !
 ! D100  D(20,18,24,12)       -124.5968                                         !
 ! D101  D(20,18,24,26)         55.5326                                         !
 ! D102  D(22,18,24,12)        124.7406                                         !
 ! D103  D(22,18,24,26)        -55.1299                                         !
 ! D104  D(17,19,56,52)       -133.5998                                         !
 ! D105  D(11,23,25,1)        -174.7265                                         !
 ! D106  D(11,23,25,43)          6.02                                           !
 ! D107  D(17,23,25,1)           4.8157                                         !
 ! D108  D(17,23,25,43)       -174.4378                                         !
 ! D109  D(12,24,26,2)        -178.0664                                         !
 ! D110  D(12,24,26,44)          1.7963                                         !
 ! D111  D(18,24,26,2)           1.7935                                         !
 ! D112  D(18,24,26,44)       -178.3438                                         !
 ! D113  D(1,25,43,45)        -112.5707                                         !
 ! D114  D(1,25,43,47)         126.6629                                         !
 ! D115  D(1,25,43,49)           6.1542                                         !
 ! D116  D(23,25,43,45)         66.6918                                         !
 ! D117  D(23,25,43,47)        -54.0747                                         !
 ! D118  D(23,25,43,49)       -174.5833                                         !
 ! D119  D(2,26,44,46)         130.4437                                         !
 ! D120  D(2,26,44,48)        -108.7379                                         !
 ! D121  D(2,26,44,50)           9.673                                          !
 ! D122  D(24,26,44,46)        -49.4207                                         !
 ! D123  D(24,26,44,48)         71.3978                                         !
 ! D124  D(24,26,44,50)       -170.1913                                         !
 ! D125  D(13,27,33,32)         15.6764                                         !
 ! D126  D(29,27,33,32)        137.999                                          !
 ! D127  D(31,27,33,32)       -105.0603                                         !
 ! D128  D(14,28,32,33)         15.613                                          !
 ! D129  D(30,28,32,33)        138.0031                                         !
 ! D130  D(34,28,32,33)       -105.1025                                         !
 ! D131  D(28,32,33,27)        -65.6549                                         !
 ! D132  D(12,52,56,19)         36.0942                                         !
 ! D133  D(54,52,56,19)        159.9858                                         !
 ! D134  D(58,52,56,19)        -84.1468                                         !
 --------------------------------------------------------------------------------
 NAtoms=     58 NQM=       58 NQMF=       0 NMMI=      0 NMMIF=      0
                NMic=       0 NMicF=      0.
                    Isotopes and Nuclear Properties:
 (Nuclear quadrupole moments (NQMom) in fm**2, nuclear magnetic moments (NMagM)
  in nuclear magnetons)

  Atom         1           2           3           4           5           6           7           8           9          10
 IAtWgt=          16          16          16          16          14          14           1           1          12          12
 AtmWgt=  15.9949146  15.9949146  15.9949146  15.9949146  14.0030740  14.0030740   1.0078250   1.0078250  12.0000000  12.0000000
 NucSpn=           0           0           0           0           2           2           1           1           0           0
 AtZEff=   5.6000000   5.6000000   5.6000000   5.6000000   4.5500000   4.5500000   1.0000000   1.0000000   3.6000000   3.6000000
 NQMom=    0.0000000   0.0000000   0.0000000   0.0000000   2.0440000   2.0440000   0.0000000   0.0000000   0.0000000   0.0000000
 NMagM=    0.0000000   0.0000000   0.0000000   0.0000000   0.4037610   0.4037610   2.7928460   2.7928460   0.0000000   0.0000000
 AtZNuc=   8.0000000   8.0000000   8.0000000   8.0000000   7.0000000   7.0000000   1.0000000   1.0000000   6.0000000   6.0000000

  Atom        11          12          13          14          15          16          17          18          19          20
 IAtWgt=          12          12          12          12          12          12          12          12           1           1
 AtmWgt=  12.0000000  12.0000000  12.0000000  12.0000000  12.0000000  12.0000000  12.0000000  12.0000000   1.0078250   1.0078250
 NucSpn=           0           0           0           0           0           0           0           0           1           1
 AtZEff=   3.6000000   3.6000000   3.6000000   3.6000000   3.6000000   3.6000000   3.6000000   3.6000000   1.0000000   1.0000000
 NQMom=    0.0000000   0.0000000   0.0000000   0.0000000   0.0000000   0.0000000   0.0000000   0.0000000   0.0000000   0.0000000
 NMagM=    0.0000000   0.0000000   0.0000000   0.0000000   0.0000000   0.0000000   0.0000000   0.0000000   2.7928460   2.7928460
 AtZNuc=   6.0000000   6.0000000   6.0000000   6.0000000   6.0000000   6.0000000   6.0000000   6.0000000   1.0000000   1.0000000

  Atom        21          22          23          24          25          26          27          28          29          30
 IAtWgt=           1           1          12          12          12          12          12          12           1           1
 AtmWgt=   1.0078250   1.0078250  12.0000000  12.0000000  12.0000000  12.0000000  12.0000000  12.0000000   1.0078250   1.0078250
 NucSpn=           1           1           0           0           0           0           0           0           1           1
 AtZEff=   1.0000000   1.0000000   3.6000000   3.6000000   3.6000000   3.6000000   3.6000000   3.6000000   1.0000000   1.0000000
 NQMom=    0.0000000   0.0000000   0.0000000   0.0000000   0.0000000   0.0000000   0.0000000   0.0000000   0.0000000   0.0000000
 NMagM=    2.7928460   2.7928460   0.0000000   0.0000000   0.0000000   0.0000000   0.0000000   0.0000000   2.7928460   2.7928460
 AtZNuc=   1.0000000   1.0000000   6.0000000   6.0000000   6.0000000   6.0000000   6.0000000   6.0000000   1.0000000   1.0000000

  Atom        31          32          33          34          35          36          37          38          39          40
 IAtWgt=           1           1           1           1          12          12           1           1           1           1
 AtmWgt=   1.0078250   1.0078250   1.0078250   1.0078250  12.0000000  12.0000000   1.0078250   1.0078250   1.0078250   1.0078250
 NucSpn=           1           1           1           1           0           0           1           1           1           1
 AtZEff=   1.0000000   1.0000000   1.0000000   1.0000000   3.6000000   3.6000000   1.0000000   1.0000000   1.0000000   1.0000000
 NQMom=    0.0000000   0.0000000   0.0000000   0.0000000   0.0000000   0.0000000   0.0000000   0.0000000   0.0000000   0.0000000
 NMagM=    2.7928460   2.7928460   2.7928460   2.7928460   0.0000000   0.0000000   2.7928460   2.7928460   2.7928460   2.7928460
 AtZNuc=   1.0000000   1.0000000   1.0000000   1.0000000   6.0000000   6.0000000   1.0000000   1.0000000   1.0000000   1.0000000

  Atom        41          42          43          44          45          46          47          48          49          50
 IAtWgt=           1           1          12          12           1           1           1           1           1           1
 AtmWgt=   1.0078250   1.0078250  12.0000000  12.0000000   1.0078250   1.0078250   1.0078250   1.0078250   1.0078250   1.0078250
 NucSpn=           1           1           0           0           1           1           1           1           1           1
 AtZEff=   1.0000000   1.0000000   3.6000000   3.6000000   1.0000000   1.0000000   1.0000000   1.0000000   1.0000000   1.0000000
 NQMom=    0.0000000   0.0000000   0.0000000   0.0000000   0.0000000   0.0000000   0.0000000   0.0000000   0.0000000   0.0000000
 NMagM=    2.7928460   2.7928460   0.0000000   0.0000000   2.7928460   2.7928460   2.7928460   2.7928460   2.7928460   2.7928460
 AtZNuc=   1.0000000   1.0000000   6.0000000   6.0000000   1.0000000   1.0000000   1.0000000   1.0000000   1.0000000   1.0000000

  Atom        51          52          53          54          55          56          57          58
 IAtWgt=          12          12           1           1           1           1           1           1
 AtmWgt=  12.0000000  12.0000000   1.0078250   1.0078250   1.0078250   1.0078250   1.0078250   1.0078250
 NucSpn=           0           0           1           1           1           1           1           1
 AtZEff=   3.6000000   3.6000000   1.0000000   1.0000000   1.0000000   1.0000000   1.0000000   1.0000000
 NQMom=    0.0000000   0.0000000   0.0000000   0.0000000   0.0000000   0.0000000   0.0000000   0.0000000
 NMagM=    0.0000000   0.0000000   2.7928460   2.7928460   2.7928460   2.7928460   2.7928460   2.7928460
 AtZNuc=   6.0000000   6.0000000   1.0000000   1.0000000   1.0000000   1.0000000   1.0000000   1.0000000
 Leave Link  101 at Sat Jan 24 16:35:00 2026, MaxMem=  2147483648 cpu:               6.3 elap:               0.2
 (Enter /data/home/wyx/g16/l202.exe)
 Symmetry turned off by external request.
 Stoichiometry    C22H30N2O4
 Framework group  C1[X(C22H30N2O4)]
 Deg. of freedom   168
 Full point group                 C1      NOp   1
                          Input orientation:                          
 ---------------------------------------------------------------------
 Center     Atomic      Atomic             Coordinates (Angstroms)
 Number     Number       Type             X           Y           Z
 ---------------------------------------------------------------------
      1          8           0       -2.153907    4.750532    0.028122
      2          8           0       -2.746506    0.535769    3.256321
      3          8           0       -8.216500    3.597001   -1.072973
      4          8           0       -8.805993    1.683969    2.145310
      5          7           0       -4.931008    1.024563   -0.429190
      6          7           0       -5.506401    4.261135    2.697156
      7          1           0       -5.043214    0.022746   -0.484883
      8          1           0       -5.633908    5.262259    2.721856
      9          6           0       -5.943058    3.142540   -0.605566
     10          6           0       -6.516377    2.142060    2.520925
     11          6           0       -3.651601    1.479453   -0.269968
     12          6           0       -4.249382    3.806660    2.986913
     13          6           0       -6.065604    1.765215   -0.595766
     14          6           0       -6.627547    3.518357    2.459657
     15          6           0       -7.073351    4.016457   -0.878662
     16          6           0       -7.673040    1.267933    2.396729
     17          6           0       -4.604902    3.766519   -0.409213
     18          6           0       -5.192778    1.518840    2.803190
     19          1           0       -4.635242    4.435288    0.462129
     20          1           0       -5.271537    0.841119    3.660836
     21          1           0       -4.389245    4.458275   -1.231634
     22          1           0       -4.926314    0.837209    1.983357
     23          6           0       -3.443139    2.840398   -0.247515
     24          6           0       -4.043436    2.446902    3.031472
     25          6           0       -2.170511    3.517405   -0.067767
     26          6           0       -2.782015    1.771351    3.283011
     27          6           0       -7.296308    0.972238   -0.888215
     28          6           0       -7.884108    4.310827    2.308046
     29          1           0       -7.113206   -0.089543   -0.720520
     30          1           0       -7.656088    5.373474    2.219308
     31          1           0       -7.598603    1.108657   -1.927562
     32          1           0       -8.453748    3.994951    1.439932
     33          1           0       -8.132438    1.291184   -0.274048
     34          1           0       -8.529087    4.170015    3.176665
     35          6           0       -6.825225    5.505062   -0.953842
     36          6           0       -7.477712   -0.214063    2.617504
     37          1           0       -7.783110    6.017662   -0.918434
     38          1           0       -8.362366   -0.736432    2.262347
     39          1           0       -6.333280    5.753431   -1.897438
     40          1           0       -6.596399   -0.610933    2.116718
     41          1           0       -6.186739    5.874106   -0.153086
     42          1           0       -7.359446   -0.417458    3.684710
     43          6           0       -0.850560    2.789068   -0.007231
     44          6           0       -1.496327    2.504572    3.575758
     45          1           0       -0.616070    2.332354   -0.969698
     46          1           0       -1.288272    3.298404    2.863512
     47          1           0       -0.836413    2.002323    0.742695
     48          1           0       -1.526369    2.951895    4.570459
     49          1           0       -0.078284    3.517043    0.228235
     50          1           0       -0.686088    1.780147    3.549589
     51          6           0       -2.650890    0.374665   -0.130755
     52          6           0       -3.265507    4.913119    3.205279
     53          1           0       -2.292815    0.293260    0.897064
     54          1           0       -2.651399    4.747311    4.083873
     55          1           0       -1.797519    0.511106   -0.787111
     56          1           0       -2.612618    5.034033    2.338071
     57          1           0       -3.110048   -0.579124   -0.387765
     58          1           0       -3.791350    5.856216    3.349093
 ---------------------------------------------------------------------
 Rotational constants (GHZ):           0.2485467           0.1743257           0.1571903
 Leave Link  202 at Sat Jan 24 16:35:00 2026, MaxMem=  2147483648 cpu:               0.1 elap:               0.0
 (Enter /data/home/wyx/g16/l301.exe)
 Standard basis: TZVP (5D, 7F)
 Ernie: Thresh=  0.10000D-02 Tol=  0.10000D-05 Strict=F.
   712 basis functions,  1220 primitive gaussians,   740 cartesian basis functions
   104 alpha electrons      104 beta electrons
       nuclear repulsion energy      3000.5959229800 Hartrees.
 IExCor=20419 DFT=T Ex+Corr=CAM-B3LYP ExCW=0 ScaHFX=  1.000000
 ScaDFX=  1.000000  1.000000  1.000000  0.810000 ScalE2=  1.000000  1.000000
 IRadAn=      5 IRanWt=     -1 IRanGd=            0 ICorTp=0 IEmpDi=141
 HFx  wShort=  0.000000 wLong=  0.330000 cFull=  0.190000 cShort=  0.000000 cLong=  0.460000
 DFx  wShort=  0.000000 wLong=  0.330000 cFull=  0.190000 cShort=  0.000000 cLong=  0.460000
 NAtoms=   58 NActive=   58 NUniq=   58 SFac= 1.00D+00 NAtFMM=   60 NAOKFM=F Big=F
 Integral buffers will be    131072 words long.
 Raffenetti 1 integral format.
 Two-electron integral symmetry is turned off.
 R6Disp:  Grimme-D3(BJ) Dispersion energy=       -0.0771434375 Hartrees.
 Nuclear repulsion after empirical dispersion term =     3000.5187795425 Hartrees.
 ------------------------------------------------------------------------------
 Polarizable Continuum Model (PCM)
 =================================
 Model                : PCM.
 Atomic radii         : UFF (Universal Force Field).
 Polarization charges : Total charges.
 Charge compensation  : None.
 Solution method      : On-the-fly selection.
 Cavity type          : Scaled VdW (van der Waals Surface) (Alpha=1.100).
 Cavity algorithm     : GePol (No added spheres)
                        Default sphere list used, NSphG=   58.
                        Lebedev-Laikov grids with approx.  5.0 points / Ang**2.
                        Smoothing algorithm: York/Karplus (Gamma=1.0000).
                        Polarization charges: spherical gaussians, with
                                              point-specific exponents (IZeta= 3).
                        Self-potential: point-specific (ISelfS= 7).
                        Self-field    : sphere-specific E.n sum rule (ISelfD= 2).
 1st derivatives      : Analytical E(r).r(x)/FMM algorithm (CHGder, D1EAlg=3).
                        Cavity 1st derivative terms included.
 Solvent              : Water, Eps=  78.355300 Eps(inf)=   1.777849
 ------------------------------------------------------------------------------
 GePol: Number of generator spheres                  =      58
 GePol: Total number of spheres                      =      58
 GePol: Number of exposed spheres                    =      58 (100.00%)
 GePol: Number of points                             =    3282
 GePol: Average weight of points                     =       0.13
 GePol: Minimum weight of points                     =   0.21D-10
 GePol: Maximum weight of points                     =    0.20577
 GePol: Number of points with low weight             =     238
 GePol: Fraction of low-weight points (<1% of avg)   =       7.25%
 GePol: Cavity surface area                          =    411.725 Ang**2
 GePol: Cavity volume                                =    540.338 Ang**3
 Leave Link  301 at Sat Jan 24 16:35:00 2026, MaxMem=  2147483648 cpu:               1.2 elap:               0.0
 (Enter /data/home/wyx/g16/l302.exe)
 NPDir=0 NMtPBC=     1 NCelOv=     1 NCel=       1 NClECP=     1 NCelD=      1
         NCelK=      1 NCelE2=     1 NClLst=     1 CellRange=     0.0.
 One-electron integrals computed using PRISM.
 NBasis=   712 RedAO= T EigKep=  1.63D-05  NBF=   712
 NBsUse=   712 1.00D-06 EigRej= -1.00D+00 NBFU=   712
 Precomputing XC quadrature grid using
 IXCGrd= 4 IRadAn=           5 IRanWt=          -1 IRanGd=           0 AccXCQ= 0.00D+00.
 Generated NRdTot=       0 NPtTot=           0 NUsed=           0 NTot=          32
 NSgBfM=   719   717   718   718   719 MxSgAt=    58 MxSgA2=    58.
 Leave Link  302 at Sat Jan 24 16:35:01 2026, MaxMem=  2147483648 cpu:              20.9 elap:               0.7
 (Enter /data/home/wyx/g16/l303.exe)
 DipDrv:  MaxL=1.
 Leave Link  303 at Sat Jan 24 16:35:01 2026, MaxMem=  2147483648 cpu:               3.1 elap:               0.1
 (Enter /data/home/wyx/g16/l308.exe)
 Leave Link  308 at Sat Jan 24 16:35:02 2026, MaxMem=  2147483648 cpu:               4.0 elap:               0.2
 (Enter /data/home/wyx/g16/l401.exe)
 Initial guess from the checkpoint file:  "DDL-DDL-S1min-S2-cLR.chk"
 B after Tr=     0.000000    0.000000    0.000000
         Rot=    1.000000    0.000000    0.000000    0.000000 Ang=   0.00 deg.
 Guess basis will be translated and rotated to current coordinates.
 JPrj=2 DoOrth=T DoCkMO=T.
 Leave Link  401 at Sat Jan 24 16:35:02 2026, MaxMem=  2147483648 cpu:              18.3 elap:               0.6
 (Enter /data/home/wyx/g16/l502.exe)
 Two-electron integral symmetry not used.
 Closed shell SCF:
 Using DIIS extrapolation, IDIIS=  1040.
 NGot=  2147483648 LenX=  2146359098 LenY=  2145810758
 Requested convergence on RMS density matrix=1.00D-08 within 128 cycles.
 Requested convergence on MAX density matrix=1.00D-06.
 Requested convergence on             energy=1.00D-06.
 No special actions if energy rises.
 Fock matrices will be formed incrementally for  20 cycles.

 Cycle   1  Pass 1  IDiag  1:
 FoFJK:  IHMeth= 1 ICntrl=       0 DoSepK=T KAlg= 0 I1Cent=           0 FoldK=F
 IRaf=         1 NMat=       1 IRICut=       1 DoRegI=T DoRafI=F ISym2E= 0 IDoP0=0 IntGTp=1.
 FoFCou: FMM=F IPFlag=           0 FMFlag=      100000 FMFlg1=           0
         NFxFlg=           0 DoJE=T BraDBF=F KetDBF=F FulRan=T
         wScrn=  0.000000 ICntrl=       500 IOpCl=  0 I1Cent=           0 NGrid=           0
         NMat0=    1 NMatS0=      1 NMatT0=    0 NMatD0=    1 NMtDS0=    0 NMtDT0=    0
 Symmetry not used in FoFCou.
 Inv3:  Mode=1 IEnd=    32314572.
 Iteration    1 A*A^-1 deviation from unit magnitude is 3.33D-15 for     45.
 Iteration    1 A*A^-1 deviation from orthogonality  is 1.90D-15 for   3138   2497.
 Iteration    1 A^-1*A deviation from unit magnitude is 3.00D-15 for   1478.
 Iteration    1 A^-1*A deviation from orthogonality  is 1.03D-14 for   3229   3223.
 E= -1266.66993761674    
 DIIS: error= 9.23D-09 at cycle   1 NSaved=   1.
 NSaved= 1 IEnMin= 1 EnMin= -1266.66993761674     IErMin= 1 ErrMin= 9.23D-09
 ErrMax= 9.23D-09  0.00D+00 EMaxC= 1.00D-01 BMatC= 6.50D-14 BMatP= 6.50D-14
 IDIUse=1 WtCom= 1.00D+00 WtEn= 0.00D+00
 Coeff-Com:  0.100D+01
 Coeff:      0.100D+01
 Gap=     0.194 Goal=   None    Shift=    0.000
 RMSDP=2.31D-09 MaxDP=3.12D-07              OVMax= 9.00D-08

 Error on total polarization charges =  0.01852
 SCF Done:  E(RCAM-B3LYP) =  -1266.66993762     A.U. after    1 cycles
            NFock=  1  Conv=0.23D-08     -V/T= 2.0042
 KE= 1.261392897729D+03 PE=-8.952827813694D+03 EE= 3.424246198806D+03
 Leave Link  502 at Sat Jan 24 16:35:31 2026, MaxMem=  2147483648 cpu:             868.6 elap:              28.2
 (Enter /data/home/wyx/g16/l801.exe)
 DoSCS=F DFT=T ScalE2(SS,OS)=  1.000000  1.000000
 ExpMin= 9.52D-02 ExpMax= 2.70D+04 ExpMxC= 9.22D+02 IAcc=3 IRadAn=         5 AccDes= 0.00D+00
 HarFok:  IExCor=  205 AccDes= 0.00D+00 IRadAn=         5 IDoV=-2 UseB2=F ITyADJ=14
 ICtDFT= 12500011 ScaDFX=  1.000000  1.000000  1.000000  1.000000
 GSVD:  LWork=       -1008 too small for GESVD, short by        4340 words or        4340 for optimal perf.
 Largest valence mixing into a core orbital is  5.64D-05
 Largest core mixing into a valence orbital is  1.34D-05
 Range of M.O.s used for correlation:    29   712
 NBasis=   712 NAE=   104 NBE=   104 NFC=    28 NFV=     0
 NROrb=    684 NOA=    76 NOB=    76 NVA=   608 NVB=   608

 **** Warning!!: The largest alpha MO coefficient is  0.47574669D+02

 Leave Link  801 at Sat Jan 24 16:35:31 2026, MaxMem=  2147483648 cpu:               2.6 elap:               0.1
 (Enter /data/home/wyx/g16/l914.exe)
 RHF ground state
 Two-electron integral symmetry not used.
 MDV=  2147483648 DFT=T DoStab=F Mixed=T DoRPA=T DoScal=F NonHer=T
 NEqPCM:  Using equilibrium solvation (IEInf=0, Eps=  78.3553, EpsInf=   1.7778)
 Making orbital integer symmetry assigments:
 Generating guess from checkpoint file densities.
 PCM Corrected Linear-Response:
 Compute the excitation energies in the ground state reaction field.
 Convergence on wavefunction:    0.000001000000000
 Davidson Disk Diagonalization:  ConvIn= 1.00D-06 SkipCon=T Conv= 1.00D-06.
 Max sub-space:  2000 roots to seek:     6 dimension of matrix:        92416
 Iteration     1 Dimension    12 NMult     0 NNew     12
 CISAX will form    12 AO SS matrices at one time.
 NMat=    12 NSing=    12 JSym2X= 0.
 FoFJK:  IHMeth= 1 ICntrl=       0 DoSepK=T KAlg= 0 I1Cent=           0 FoldK=F
 IRaf=         1 NMat=      24 IRICut=       1 DoRegI=T DoRafI=F ISym2E= 0 IDoP0=3 IntGTp=3.
 FoFCou: FMM=F IPFlag=           0 FMFlag=      100000 FMFlg1=           0
         NFxFlg=           0 DoJE=F BraDBF=F KetDBF=F FulRan=T
         wScrn=  0.000000 ICntrl=       500 IOpCl=  0 I1Cent=           0 NGrid=           0
         NMat0=   12 NMatS0=     12 NMatT0=    0 NMatD0=   12 NMtDS0=    0 NMtDT0=    0
 Symmetry not used in FoFCou.
 Excitation Energies [eV] at current iteration:
 Root      1 :     2.671264427461928
 Root      2 :     3.162693830137994
 Root      3 :     3.869012318378237
 Root      4 :     3.924809704143296
 Root      5 :     3.934539872207679
 Root      6 :     4.156667632907834
 Iteration     2 Dimension    24 NMult    12 NNew     12
 CISAX will form    12 AO SS matrices at one time.
 NMat=    12 NSing=    12 JSym2X= 0.
 Root      1 not converged, maximum delta is    0.019478455367479
 Root      2 not converged, maximum delta is    0.007703746137795
 Root      3 not converged, maximum delta is    0.001762372724451
 Root      4 not converged, maximum delta is    0.000939091009024
 Root      5 not converged, maximum delta is    0.001082425272736
 Root      6 not converged, maximum delta is    0.001544403859120
 Excitation Energies [eV] at current iteration:
 Root      1 :     2.646310329713986   Change is   -0.024954097747941
 Root      2 :     3.147671102225669   Change is   -0.015022727912325
 Root      3 :     3.865292448892596   Change is   -0.003719869485641
 Root      4 :     3.924512836451994   Change is   -0.000296867691303
 Root      5 :     3.934150851407552   Change is   -0.000389020800127
 Root      6 :     4.156174702272634   Change is   -0.000492930635200
 Iteration     3 Dimension    36 NMult    24 NNew     12
 CISAX will form    12 AO SS matrices at one time.
 NMat=    12 NSing=    12 JSym2X= 0.
 Root      1 not converged, maximum delta is    0.009152444254425
 Root      2 not converged, maximum delta is    0.002907851650282
 Root      3 not converged, maximum delta is    0.000735112863165
 Root      4 not converged, maximum delta is    0.000853171739864
 Root      5 not converged, maximum delta is    0.000563085148397
 Root      6 not converged, maximum delta is    0.002561836680154
 Excitation Energies [eV] at current iteration:
 Root      1 :     2.643076380081848   Change is   -0.003233949632139
 Root      2 :     3.146096001391451   Change is   -0.001575100834218
 Root      3 :     3.864991355612576   Change is   -0.000301093280020
 Root      4 :     3.924471319406785   Change is   -0.000041517045209
 Root      5 :     3.934087920385775   Change is   -0.000062931021777
 Root      6 :     4.156062293154084   Change is   -0.000112409118549
 Iteration     4 Dimension    48 NMult    36 NNew     12
 CISAX will form    12 AO SS matrices at one time.
 NMat=    12 NSing=    12 JSym2X= 0.
 Root      1 not converged, maximum delta is    0.000959998168935
 Root      2 not converged, maximum delta is    0.000377592426650
 Root      3 not converged, maximum delta is    0.000199913770957
 Root      4 not converged, maximum delta is    0.000376493714434
 Root      5 not converged, maximum delta is    0.000168468330366
 Root      6 not converged, maximum delta is    0.002132142798697
 Excitation Energies [eV] at current iteration:
 Root      1 :     2.642809629058125   Change is   -0.000266751023723
 Root      2 :     3.145939348520759   Change is   -0.000156652870692
 Root      3 :     3.864965113430318   Change is   -0.000026242182258
 Root      4 :     3.924467653352095   Change is   -0.000003666054690
 Root      5 :     3.934081375912993   Change is   -0.000006544472782
 Root      6 :     4.156039371789486   Change is   -0.000022921364598
 Iteration     5 Dimension    60 NMult    48 NNew     12
 CISAX will form    12 AO SS matrices at one time.
 NMat=    12 NSing=    12 JSym2X= 0.
 Root      1 not converged, maximum delta is    0.000258802395174
 Root      2 not converged, maximum delta is    0.000291047935111
 Root      3 not converged, maximum delta is    0.000221803836500
 Root      4 not converged, maximum delta is    0.000242934521127
 Root      5 not converged, maximum delta is    0.000138427830998
 Root      6 not converged, maximum delta is    0.001535878724295
 Excitation Energies [eV] at current iteration:
 Root      1 :     2.642782485053877   Change is   -0.000027144004248
 Root      2 :     3.145926348613815   Change is   -0.000012999906944
 Root      3 :     3.864962901775968   Change is   -0.000002211654350
 Root      4 :     3.924467056212345   Change is   -0.000000597139750
 Root      5 :     3.934080705745656   Change is   -0.000000670167336
 Root      6 :     4.156030562321064   Change is   -0.000008809468423
 Iteration     6 Dimension    72 NMult    60 NNew     12
 CISAX will form    12 AO SS matrices at one time.
 NMat=    12 NSing=    12 JSym2X= 0.
 Root      1 not converged, maximum delta is    0.000066845393779
 Root      2 not converged, maximum delta is    0.000208400475475
 Root      3 not converged, maximum delta is    0.000157828208252
 Root      4 not converged, maximum delta is    0.000060527887603
 Root      5 not converged, maximum delta is    0.000135864971465
 Root      6 not converged, maximum delta is    0.000606582048595
 Excitation Energies [eV] at current iteration:
 Root      1 :     2.642780521111287   Change is   -0.000001963942589
 Root      2 :     3.145924497827251   Change is   -0.000001850786564
 Root      3 :     3.864962496558812   Change is   -0.000000405217157
 Root      4 :     3.924466983305931   Change is   -0.000000072906414
 Root      5 :     3.934080566811157   Change is   -0.000000138934499
 Root      6 :     4.156029034414881   Change is   -0.000001527906183
 Iteration     7 Dimension    84 NMult    72 NNew     12
 CISAX will form    12 AO SS matrices at one time.
 NMat=    12 NSing=    12 JSym2X= 0.
 Root      1 not converged, maximum delta is    0.000014481005673
 Root      2 not converged, maximum delta is    0.000143992991698
 Root      3 not converged, maximum delta is    0.000143819784999
 Root      4 not converged, maximum delta is    0.000009637545893
 Root      5 not converged, maximum delta is    0.000043108910767
 Root      6 not converged, maximum delta is    0.000410356589801
 Excitation Energies [eV] at current iteration:
 Root      1 :     2.642780276071909   Change is   -0.000000245039379
 Root      2 :     3.145924140176653   Change is   -0.000000357650598
 Root      3 :     3.864962395254750   Change is   -0.000000101304062
 Root      4 :     3.924466976633544   Change is   -0.000000006672386
 Root      5 :     3.934080548296582   Change is   -0.000000018514575
 Root      6 :     4.156028565252085   Change is   -0.000000469162795
 Iteration     8 Dimension    96 NMult    84 NNew     12
 CISAX will form    12 AO SS matrices at one time.
 NMat=    12 NSing=    12 JSym2X= 0.
 Root      1 not converged, maximum delta is    0.000002570796883
 Root      2 not converged, maximum delta is    0.000025190086490
 Root      3 not converged, maximum delta is    0.000078077579450
 Root      4 not converged, maximum delta is    0.000005270389650
 Root      5 not converged, maximum delta is    0.000031386004371
 Root      6 not converged, maximum delta is    0.001976263747564
 Excitation Energies [eV] at current iteration:
 Root      1 :     2.642780263137628   Change is   -0.000000012934280
 Root      2 :     3.145924096904849   Change is   -0.000000043271803
 Root      3 :     3.864962357111708   Change is   -0.000000038143042
 Root      4 :     3.924466976003906   Change is   -0.000000000629638
 Root      5 :     3.934080543329105   Change is   -0.000000004967477
 Root      6 :     4.156027639921960   Change is   -0.000000925330126
 Iteration     9 Dimension   108 NMult    96 NNew     12
 CISAX will form    12 AO SS matrices at one time.
 NMat=    12 NSing=    12 JSym2X= 0.
 Root      1 has converged.
 Root      2 not converged, maximum delta is    0.000004980129685
 Root      3 not converged, maximum delta is    0.000013008245011
 Root      4 not converged, maximum delta is    0.000001187342872
 Root      5 not converged, maximum delta is    0.000005935063075
 Root      6 not converged, maximum delta is    0.005957885317914
 Excitation Energies [eV] at current iteration:
 Root      1 :     2.642780262608539   Change is   -0.000000000529090
 Root      2 :     3.145924094366781   Change is   -0.000000002538068
 Root      3 :     3.864962353406144   Change is   -0.000000003705564
 Root      4 :     3.924466975943242   Change is   -0.000000000060664
 Root      5 :     3.934080542741231   Change is   -0.000000000587874
 Root      6 :     4.156025310906467   Change is   -0.000002329015492
 Iteration    10 Dimension   118 NMult   108 NNew     10
 CISAX will form    10 AO SS matrices at one time.
 NMat=    10 NSing=    10 JSym2X= 0.
 Root      1 has converged.
 Root      2 has converged.
 Root      3 not converged, maximum delta is    0.000001770110820
 Root      4 has converged.
 Root      5 not converged, maximum delta is    0.000001144983899
 Root      6 not converged, maximum delta is    0.002615603476051
 Excitation Energies [eV] at current iteration:
 Root      1 :     2.642780262607512   Change is   -0.000000000001026
 Root      2 :     3.145924094201866   Change is   -0.000000000164915
 Root      3 :     3.864962353154180   Change is   -0.000000000251963
 Root      4 :     3.924466975933272   Change is   -0.000000000009971
 Root      5 :     3.934080542684142   Change is   -0.000000000057088
 Root      6 :     4.156024327765301   Change is   -0.000000983141167
 Iteration    11 Dimension   124 NMult   118 NNew      6
 CISAX will form     6 AO SS matrices at one time.
 NMat=     6 NSing=     6 JSym2X= 0.
 Root      1 has converged.
 Root      2 has converged.
 Root      3 has converged.
 Root      4 has converged.
 Root      5 has converged.
 Root      6 not converged, maximum delta is    0.000268011492318
 Excitation Energies [eV] at current iteration:
 Root      1 :     2.642780262607450   Change is   -0.000000000000062
 Root      2 :     3.145924094195463   Change is   -0.000000000006402
 Root      3 :     3.864962353126827   Change is   -0.000000000027354
 Root      4 :     3.924466975933188   Change is   -0.000000000000084
 Root      5 :     3.934080542673715   Change is   -0.000000000010427
 Root      6 :     4.156024233547492   Change is   -0.000000094217808
 Iteration    12 Dimension   126 NMult   124 NNew      2
 CISAX will form     2 AO SS matrices at one time.
 NMat=     2 NSing=     2 JSym2X= 0.
 Root      1 has converged.
 Root      2 has converged.
 Root      3 has converged.
 Root      4 has converged.
 Root      5 has converged.
 Root      6 not converged, maximum delta is    0.000018448210279
 Excitation Energies [eV] at current iteration:
 Root      1 :     2.642780262607388   Change is   -0.000000000000062
 Root      2 :     3.145924094195281   Change is   -0.000000000000183
 Root      3 :     3.864962353126636   Change is   -0.000000000000191
 Root      4 :     3.924466975932936   Change is   -0.000000000000252
 Root      5 :     3.934080542673486   Change is   -0.000000000000230
 Root      6 :     4.156024227548495   Change is   -0.000000005998997
 Iteration    13 Dimension   128 NMult   126 NNew      2
 CISAX will form     2 AO SS matrices at one time.
 NMat=     2 NSing=     2 JSym2X= 0.
 Root      1 has converged.
 Root      2 has converged.
 Root      3 has converged.
 Root      4 has converged.
 Root      5 has converged.
 Root      6 not converged, maximum delta is    0.000001359257645
 Excitation Energies [eV] at current iteration:
 Root      1 :     2.642780262607512   Change is    0.000000000000125
 Root      2 :     3.145924094195307   Change is    0.000000000000026
 Root      3 :     3.864962353126572   Change is   -0.000000000000064
 Root      4 :     3.924466975932790   Change is   -0.000000000000147
 Root      5 :     3.934080542673486   Change is    0.000000000000000
 Root      6 :     4.156024227127055   Change is   -0.000000000421439
 Iteration    14 Dimension   130 NMult   128 NNew      2
 CISAX will form     2 AO SS matrices at one time.
 NMat=     2 NSing=     2 JSym2X= 0.
 Root      1 has converged.
 Root      2 has converged.
 Root      3 has converged.
 Root      4 has converged.
 Root      5 has converged.
 Root      6 has converged.
 Excitation Energies [eV] at current iteration:
 Root      1 :     2.642780262607481   Change is   -0.000000000000031
 Root      2 :     3.145924094195202   Change is   -0.000000000000105
 Root      3 :     3.864962353126614   Change is    0.000000000000042
 Root      4 :     3.924466975932811   Change is    0.000000000000021
 Root      5 :     3.934080542673486   Change is    0.000000000000000
 Root      6 :     4.156024227089373   Change is   -0.000000000037682
 Convergence achieved on expansion vectors.
 PCM Corrected Linear-Response:
 The state of interest is root number   2
 Excitation energy =    3.1459 eV, Total energy =  -1266.55432703    
 Recompute the excitation energies using the linear response reaction field.
 Convergence on wavefunction:    0.000001000000000
 Davidson Disk Diagonalization:  ConvIn= 1.00D-06 SkipCon=T Conv= 1.00D-06.
 Max sub-space:  2000 roots to seek:     6 dimension of matrix:        92416
 Iteration     1 Dimension    12 NMult     0 NNew     12
 CISAX will form    12 AO SS matrices at one time.
 NMat=    12 NSing=    12 JSym2X= 0.
 Excitation Energies [eV] at current iteration:
 Root      1 :     2.565906952271719
 Root      2 :     3.074070452520716
 Root      3 :     3.854543392454415
 Root      4 :     3.920133164521771
 Root      5 :     3.929725737604208
 Root      6 :     4.151269671567613
 Iteration     2 Dimension    24 NMult    12 NNew     12
 CISAX will form    12 AO SS matrices at one time.
 NMat=    12 NSing=    12 JSym2X= 0.
 Root      1 not converged, maximum delta is    0.021031052797793
 Root      2 not converged, maximum delta is    0.006733301544388
 Root      3 not converged, maximum delta is    0.001467167203666
 Root      4 not converged, maximum delta is    0.000803384451254
 Root      5 not converged, maximum delta is    0.000804811437793
 Root      6 not converged, maximum delta is    0.001068095107474
 Excitation Energies [eV] at current iteration:
 Root      1 :     2.548788772519654   Change is   -0.017118179752065
 Root      2 :     3.062496825521230   Change is   -0.011573626999486
 Root      3 :     3.852236514130310   Change is   -0.002306878324105
 Root      4 :     3.919888077409280   Change is   -0.000245087112491
 Root      5 :     3.929407166484534   Change is   -0.000318571119674
 Root      6 :     4.150921904226434   Change is   -0.000347767341180
 Iteration     3 Dimension    36 NMult    24 NNew     12
 CISAX will form    12 AO SS matrices at one time.
 NMat=    12 NSing=    12 JSym2X= 0.
 Root      1 not converged, maximum delta is    0.007616489189097
 Root      2 not converged, maximum delta is    0.003114814465295
 Root      3 not converged, maximum delta is    0.001144383772361
 Root      4 not converged, maximum delta is    0.000723437171106
 Root      5 not converged, maximum delta is    0.000568141480794
 Root      6 not converged, maximum delta is    0.001786728159674
 Excitation Energies [eV] at current iteration:
 Root      1 :     2.546276372081032   Change is   -0.002512400438623
 Root      2 :     3.061150319548169   Change is   -0.001346505973061
 Root      3 :     3.851977601690235   Change is   -0.000258912440075
 Root      4 :     3.919860373139736   Change is   -0.000027704269544
 Root      5 :     3.929368433408057   Change is   -0.000038733076477
 Root      6 :     4.150857215955840   Change is   -0.000064688270593
 Iteration     4 Dimension    48 NMult    36 NNew     12
 CISAX will form    12 AO SS matrices at one time.
 NMat=    12 NSing=    12 JSym2X= 0.
 Root      1 not converged, maximum delta is    0.001433509943301
 Root      2 not converged, maximum delta is    0.000458344947521
 Root      3 not converged, maximum delta is    0.000263229032279
 Root      4 not converged, maximum delta is    0.000487987722370
 Root      5 not converged, maximum delta is    0.000223483908736
 Root      6 not converged, maximum delta is    0.002395631976791
 Excitation Energies [eV] at current iteration:
 Root      1 :     2.546050840642489   Change is   -0.000225531438543
 Root      2 :     3.061022876943504   Change is   -0.000127442604665
 Root      3 :     3.851954451543753   Change is   -0.000023150146482
 Root      4 :     3.919857356603963   Change is   -0.000003016535773
 Root      5 :     3.929364823054917   Change is   -0.000003610353140
 Root      6 :     4.150839169087628   Change is   -0.000018046868213
 Iteration     5 Dimension    60 NMult    48 NNew     12
 CISAX will form    12 AO SS matrices at one time.
 NMat=    12 NSing=    12 JSym2X= 0.
 Root      1 not converged, maximum delta is    0.000419287283088
 Root      2 not converged, maximum delta is    0.000190842808492
 Root      3 not converged, maximum delta is    0.000204822932850
 Root      4 not converged, maximum delta is    0.000400220001148
 Root      5 not converged, maximum delta is    0.000150610445111
 Root      6 not converged, maximum delta is    0.002329843582265
 Excitation Energies [eV] at current iteration:
 Root      1 :     2.546029066582080   Change is   -0.000021774060409
 Root      2 :     3.061012399953122   Change is   -0.000010476990382
 Root      3 :     3.851952293710151   Change is   -0.000002157833602
 Root      4 :     3.919856528979289   Change is   -0.000000827624674
 Root      5 :     3.929364235055300   Change is   -0.000000587999617
 Root      6 :     4.150827653336044   Change is   -0.000011515751585
 Iteration     6 Dimension    72 NMult    60 NNew     12
 CISAX will form    12 AO SS matrices at one time.
 NMat=    12 NSing=    12 JSym2X= 0.
 Root      1 not converged, maximum delta is    0.000065658743767
 Root      2 not converged, maximum delta is    0.000164359722450
 Root      3 not converged, maximum delta is    0.000187176558292
 Root      4 not converged, maximum delta is    0.000079772027705
 Root      5 not converged, maximum delta is    0.000126674795133
 Root      6 not converged, maximum delta is    0.000888979923050
 Excitation Energies [eV] at current iteration:
 Root      1 :     2.546027919219617   Change is   -0.000001147362463
 Root      2 :     3.061011139561976   Change is   -0.000001260391145
 Root      3 :     3.851951751813183   Change is   -0.000000541896968
 Root      4 :     3.919856433888912   Change is   -0.000000095090377
 Root      5 :     3.929364100375235   Change is   -0.000000134680065
 Root      6 :     4.150825240175597   Change is   -0.000002413160446
 Iteration     7 Dimension    84 NMult    72 NNew     12
 CISAX will form    12 AO SS matrices at one time.
 NMat=    12 NSing=    12 JSym2X= 0.
 Root      1 not converged, maximum delta is    0.000012835919821
 Root      2 not converged, maximum delta is    0.000101258678006
 Root      3 not converged, maximum delta is    0.000140179558638
 Root      4 not converged, maximum delta is    0.000018658918674
 Root      5 not converged, maximum delta is    0.000035068304599
 Root      6 not converged, maximum delta is    0.000500902891771
 Excitation Energies [eV] at current iteration:
 Root      1 :     2.546027799472829   Change is   -0.000000119746788
 Root      2 :     3.061010914068889   Change is   -0.000000225493088
 Root      3 :     3.851951639941820   Change is   -0.000000111871363
 Root      4 :     3.919856422434196   Change is   -0.000000011454716
 Root      5 :     3.929364084226230   Change is   -0.000000016149005
 Root      6 :     4.150824478845436   Change is   -0.000000761330161
 Iteration     8 Dimension    96 NMult    84 NNew     12
 CISAX will form    12 AO SS matrices at one time.
 NMat=    12 NSing=    12 JSym2X= 0.
 Root      1 not converged, maximum delta is    0.000002024301336
 Root      2 not converged, maximum delta is    0.000015135428398
 Root      3 not converged, maximum delta is    0.000063938720900
 Root      4 not converged, maximum delta is    0.000004786398938
 Root      5 not converged, maximum delta is    0.000022668140079
 Root      6 not converged, maximum delta is    0.001897727747513
 Excitation Energies [eV] at current iteration:
 Root      1 :     2.546027791838624   Change is   -0.000000007634205
 Root      2 :     3.061010891477828   Change is   -0.000000022591060
 Root      3 :     3.851951608597613   Change is   -0.000000031344207
 Root      4 :     3.919856421668820   Change is   -0.000000000765376
 Root      5 :     3.929364080551943   Change is   -0.000000003674287
 Root      6 :     4.150823480859386   Change is   -0.000000997986050
 Iteration     9 Dimension   108 NMult    96 NNew     12
 CISAX will form    12 AO SS matrices at one time.
 NMat=    12 NSing=    12 JSym2X= 0.
 Root      1 not converged, maximum delta is    0.000001001506895
 Root      2 not converged, maximum delta is    0.000003497645259
 Root      3 not converged, maximum delta is    0.000013838939880
 Root      4 has converged.
 Root      5 not converged, maximum delta is    0.000005651070143
 Root      6 not converged, maximum delta is    0.005738308966616
 Excitation Energies [eV] at current iteration:
 Root      1 :     2.546027791392009   Change is   -0.000000000446615
 Root      2 :     3.061010890287448   Change is   -0.000000001190380
 Root      3 :     3.851951605199446   Change is   -0.000000003398167
 Root      4 :     3.919856421611922   Change is   -0.000000000056897
 Root      5 :     3.929364080053847   Change is   -0.000000000498095
 Root      6 :     4.150821117869423   Change is   -0.000002362989963
 Iteration    10 Dimension   118 NMult   108 NNew     10
 CISAX will form    10 AO SS matrices at one time.
 NMat=    10 NSing=    10 JSym2X= 0.
 Root      1 has converged.
 Root      2 has converged.
 Root      3 not converged, maximum delta is    0.000001286045494
 Root      4 has converged.
 Root      5 has converged.
 Root      6 not converged, maximum delta is    0.002783578834601
 Excitation Energies [eV] at current iteration:
 Root      1 :     2.546027791366985   Change is   -0.000000000025024
 Root      2 :     3.061010890209135   Change is   -0.000000000078313
 Root      3 :     3.851951604987202   Change is   -0.000000000212244
 Root      4 :     3.919856421610874   Change is   -0.000000000001048
 Root      5 :     3.929364080014327   Change is   -0.000000000039520
 Root      6 :     4.150820044773584   Change is   -0.000001073095839
 Iteration    11 Dimension   122 NMult   118 NNew      4
 CISAX will form     4 AO SS matrices at one time.
 NMat=     4 NSing=     4 JSym2X= 0.
 Root      1 has converged.
 Root      2 has converged.
 Root      3 has converged.
 Root      4 has converged.
 Root      5 has converged.
 Root      6 not converged, maximum delta is    0.000277591470462
 Excitation Energies [eV] at current iteration:
 Root      1 :     2.546027791367115   Change is    0.000000000000129
 Root      2 :     3.061010890207094   Change is   -0.000000000002041
 Root      3 :     3.851951604968464   Change is   -0.000000000018738
 Root      4 :     3.919856421610685   Change is   -0.000000000000189
 Root      5 :     3.929364080013092   Change is   -0.000000000001235
 Root      6 :     4.150819946951410   Change is   -0.000000097822175
 Iteration    12 Dimension   124 NMult   122 NNew      2
 CISAX will form     2 AO SS matrices at one time.
 NMat=     2 NSing=     2 JSym2X= 0.
 Root      1 has converged.
 Root      2 has converged.
 Root      3 has converged.
 Root      4 has converged.
 Root      5 has converged.
 Root      6 not converged, maximum delta is    0.000019423369607
 Excitation Energies [eV] at current iteration:
 Root      1 :     2.546027791367050   Change is   -0.000000000000065
 Root      2 :     3.061010890207228   Change is    0.000000000000134
 Root      3 :     3.851951604967995   Change is   -0.000000000000469
 Root      4 :     3.919856421610623   Change is   -0.000000000000063
 Root      5 :     3.929364080013008   Change is   -0.000000000000084
 Root      6 :     4.150819940637278   Change is   -0.000000006314132
 Iteration    13 Dimension   126 NMult   124 NNew      2
 CISAX will form     2 AO SS matrices at one time.
 NMat=     2 NSing=     2 JSym2X= 0.
 Root      1 has converged.
 Root      2 has converged.
 Root      3 has converged.
 Root      4 has converged.
 Root      5 has converged.
 Root      6 not converged, maximum delta is    0.000001793561161
 Excitation Energies [eV] at current iteration:
 Root      1 :     2.546027791367179   Change is    0.000000000000129
 Root      2 :     3.061010890207175   Change is   -0.000000000000054
 Root      3 :     3.851951604967931   Change is   -0.000000000000064
 Root      4 :     3.919856421610518   Change is   -0.000000000000105
 Root      5 :     3.929364080012988   Change is   -0.000000000000020
 Root      6 :     4.150819940145695   Change is   -0.000000000491583
 Iteration    14 Dimension   128 NMult   126 NNew      2
 CISAX will form     2 AO SS matrices at one time.
 NMat=     2 NSing=     2 JSym2X= 0.
 Root      1 has converged.
 Root      2 has converged.
 Root      3 has converged.
 Root      4 has converged.
 Root      5 has converged.
 Root      6 has converged.
 Excitation Energies [eV] at current iteration:
 Root      1 :     2.546027791367082   Change is   -0.000000000000097
 Root      2 :     3.061010890207148   Change is   -0.000000000000027
 Root      3 :     3.851951604967888   Change is   -0.000000000000043
 Root      4 :     3.919856421610434   Change is   -0.000000000000084
 Root      5 :     3.929364080012967   Change is   -0.000000000000021
 Root      6 :     4.150819940110758   Change is   -0.000000000034936
 Convergence achieved on expansion vectors.
 ***********************************************************************
 Excited states from <AA,BB:AA,BB> singles matrix:
 ***********************************************************************
 
 1PDM for each excited state written to RWF  633
 Ground to excited state transition densities written to RWF  633
 Ground to excited state transition electric dipole moments (Au):
       state          X           Y           Z        Dip. S.      Osc.
         1         1.9609      0.0053      0.3318      3.9553      0.2467
         2        -0.0345     -0.0999      0.0993      0.0210      0.0016
         3         0.1200      0.0838     -0.6230      0.4096      0.0387
         4         0.0169     -0.0059      0.0018      0.0003      0.0000
         5        -0.0019      0.0254      0.0262      0.0013      0.0001
[...]
 Alpha  occ. eigenvalues --  -10.24304 -10.23924 -10.23891  -1.11919  -1.11871
 Alpha  occ. eigenvalues --   -1.11212  -1.11119  -1.08214  -1.08077  -0.91503
 Alpha  occ. eigenvalues --   -0.91175  -0.90573  -0.90387  -0.84065  -0.84042
 Alpha  occ. eigenvalues --   -0.82636  -0.82409  -0.81654  -0.81450  -0.78736
 Alpha  occ. eigenvalues --   -0.78360  -0.74037  -0.73983  -0.71788  -0.71704
 Alpha  occ. eigenvalues --   -0.68782  -0.68671  -0.61747  -0.61689  -0.58253
 Alpha  occ. eigenvalues --   -0.58205  -0.57348  -0.57134  -0.57066  -0.54740
 Alpha  occ. eigenvalues --   -0.54568  -0.54140  -0.54101  -0.53597  -0.53082
 Alpha  occ. eigenvalues --   -0.52494  -0.52459  -0.52260  -0.50514  -0.50449
 Alpha  occ. eigenvalues --   -0.50109  -0.49980  -0.49591  -0.49527  -0.49381
 Alpha  occ. eigenvalues --   -0.48807  -0.48612  -0.48586  -0.48009  -0.47293
 Alpha  occ. eigenvalues --   -0.47095  -0.47026  -0.45389  -0.45367  -0.45003
 Alpha  occ. eigenvalues --   -0.44894  -0.44799  -0.43667  -0.43127  -0.43039
 Alpha  occ. eigenvalues --   -0.42309  -0.42254  -0.42043  -0.41851  -0.41325
 Alpha  occ. eigenvalues --   -0.41321  -0.34620  -0.32651  -0.32572  -0.31417
 Alpha  occ. eigenvalues --   -0.31284  -0.30922  -0.27404  -0.23735
 Alpha virt. eigenvalues --   -0.04384  -0.02047   0.01767   0.02617   0.05944
 Alpha virt. eigenvalues --    0.06972   0.07825   0.09082   0.09215   0.09567
 Alpha virt. eigenvalues --    0.10175   0.10999   0.11038   0.11193   0.11830
 Alpha virt. eigenvalues --    0.12604   0.12796   0.13102   0.13862   0.14473
 Alpha virt. eigenvalues --    0.14630   0.14867   0.15265   0.15497   0.15859
 Alpha virt. eigenvalues --    0.16647   0.16762   0.16980   0.17515   0.17708
 Alpha virt. eigenvalues --    0.18062   0.18213   0.18835   0.18951   0.19288
 Alpha virt. eigenvalues --    0.19416   0.19916   0.20363   0.20646   0.21261
 Alpha virt. eigenvalues --    0.21329   0.22068   0.23094   0.23304   0.23899
 Alpha virt. eigenvalues --    0.24215   0.24400   0.24825   0.25378   0.25608
 Alpha virt. eigenvalues --    0.25990   0.26170   0.26309   0.26676   0.27317
 Alpha virt. eigenvalues --    0.27452   0.27854   0.28075   0.28458   0.29184
 Alpha virt. eigenvalues --    0.29876   0.30212   0.30711   0.31388   0.31806
 Alpha virt. eigenvalues --    0.31866   0.32155   0.32579   0.33338   0.33909
 Alpha virt. eigenvalues --    0.34053   0.34525   0.35087   0.35157   0.35482
 Alpha virt. eigenvalues --    0.35897   0.35989   0.36187   0.37179   0.37830
 Alpha virt. eigenvalues --    0.38076   0.38507   0.39116   0.39182   0.39933
 Alpha virt. eigenvalues --    0.40104   0.41181   0.41355   0.41954   0.42140
 Alpha virt. eigenvalues --    0.43098   0.43574   0.44229   0.44399   0.45152
 Alpha virt. eigenvalues --    0.45314   0.45430   0.45729   0.45875   0.46259
 Alpha virt. eigenvalues --    0.46708   0.46863   0.47157   0.47277   0.47865
 Alpha virt. eigenvalues --    0.48243   0.48427   0.48700   0.49014   0.49076
 Alpha virt. eigenvalues --    0.49408   0.50026   0.50200   0.50494   0.50940
 Alpha virt. eigenvalues --    0.51441   0.52054   0.52261   0.52399   0.52677
 Alpha virt. eigenvalues --    0.52735   0.53077   0.53221   0.53578   0.54187
 Alpha virt. eigenvalues --    0.54584   0.54878   0.55101   0.55441   0.55713
 Alpha virt. eigenvalues --    0.55800   0.55895   0.56987   0.57385   0.58121
 Alpha virt. eigenvalues --    0.58391   0.58689   0.59182   0.59467   0.60132
 Alpha virt. eigenvalues --    0.60830   0.61210   0.61738   0.61850   0.62484
 Alpha virt. eigenvalues --    0.62734   0.63294   0.63489   0.63922   0.64103
 Alpha virt. eigenvalues --    0.64873   0.65332   0.66143   0.66402   0.67257
 Alpha virt. eigenvalues --    0.67801   0.68074   0.68275   0.68537   0.69017
 Alpha virt. eigenvalues --    0.69729   0.69905   0.70241   0.71439   0.71800
 Alpha virt. eigenvalues --    0.72378   0.72988   0.73876   0.74203   0.75063
 Alpha virt. eigenvalues --    0.75377   0.75681   0.76586   0.76724   0.77253
 Alpha virt. eigenvalues --    0.77905   0.78548   0.78890   0.79398   0.79601
 Alpha virt. eigenvalues --    0.80070   0.80571   0.81426   0.81730   0.83501
 Alpha virt. eigenvalues --    0.84429   0.84862   0.85141   0.85613   0.86401
 Alpha virt. eigenvalues --    0.87786   0.88305   0.89131   0.90181   0.91776
 Alpha virt. eigenvalues --    0.92418   0.92580   0.93542   0.94493   0.95926
 Alpha virt. eigenvalues --    0.97908   0.99263   0.99920   1.02370   1.05092
 Alpha virt. eigenvalues --    1.05993   1.06507   1.10673   1.21735   1.24447
 Alpha virt. eigenvalues --    1.26242   1.27115   1.28247   1.28972   1.30066
 Alpha virt. eigenvalues --    1.31086   1.31547   1.32781   1.33016   1.33645
 Alpha virt. eigenvalues --    1.34289   1.34894   1.36165   1.36754   1.37201
 Alpha virt. eigenvalues --    1.37626   1.38006   1.38322   1.38477   1.39003
 Alpha virt. eigenvalues --    1.39699   1.39944   1.40659   1.40917   1.41265
 Alpha virt. eigenvalues --    1.41380   1.41952   1.42208   1.42883   1.43334
 Alpha virt. eigenvalues --    1.43797   1.44033   1.44317   1.44913   1.45187
 Alpha virt. eigenvalues --    1.45640   1.46071   1.46770   1.46975   1.47054
 Alpha virt. eigenvalues --    1.48108   1.48460   1.48743   1.49119   1.49717
 Alpha virt. eigenvalues --    1.50078   1.50734   1.51291   1.51763   1.51976
 Alpha virt. eigenvalues --    1.53126   1.54044   1.54356   1.56196   1.56569
 Alpha virt. eigenvalues --    1.56900   1.57305   1.58250   1.58556   1.59182
 Alpha virt. eigenvalues --    1.59879   1.60190   1.61269   1.61408   1.61599
 Alpha virt. eigenvalues --    1.62405   1.62909   1.63187   1.63427   1.63618
 Alpha virt. eigenvalues --    1.64023   1.64972   1.65059   1.65447   1.65706
 Alpha virt. eigenvalues --    1.65889   1.66513   1.66685   1.67097   1.67467
 Alpha virt. eigenvalues --    1.67956   1.68158   1.68286   1.68580   1.68735
 Alpha virt. eigenvalues --    1.69437   1.69732   1.70095   1.71121   1.71186
 Alpha virt. eigenvalues --    1.71815   1.72310   1.72505   1.72592   1.73619
 Alpha virt. eigenvalues --    1.73789   1.74119   1.74832   1.74943   1.75842
 Alpha virt. eigenvalues --    1.76023   1.76269   1.76637   1.76795   1.77879
 Alpha virt. eigenvalues --    1.78305   1.78858   1.79528   1.80708   1.81202
 Alpha virt. eigenvalues --    1.81479   1.83248   1.84282   1.84938   1.85420
 Alpha virt. eigenvalues --    1.86977   1.87775   1.88012   1.88279   1.88631
 Alpha virt. eigenvalues --    1.89370   1.89677   1.89871   1.90406   1.90938
 Alpha virt. eigenvalues --    1.91273   1.91938   1.92082   1.92634   1.92763
 Alpha virt. eigenvalues --    1.93220   1.93824   1.93959   1.95849   1.96144
 Alpha virt. eigenvalues --    1.96850   1.97570   1.98174   1.98989   1.99251
 Alpha virt. eigenvalues --    2.00189   2.01932   2.02141   2.02315   2.02901
 Alpha virt. eigenvalues --    2.03750   2.03909   2.05415   2.06579   2.07887
 Alpha virt. eigenvalues --    2.07981   2.08326   2.09240   2.09627   2.10403
 Alpha virt. eigenvalues --    2.10912   2.12531   2.13009   2.14576   2.15194
 Alpha virt. eigenvalues --    2.15670   2.16560   2.17871   2.18306   2.19556
 Alpha virt. eigenvalues --    2.20452   2.20858   2.21527   2.22637   2.23149
 Alpha virt. eigenvalues --    2.23926   2.24821   2.25938   2.26282   2.26316
 Alpha virt. eigenvalues --    2.27588   2.28058   2.28601   2.28814   2.29387
 Alpha virt. eigenvalues --    2.29654   2.30414   2.31859   2.32742   2.33401
 Alpha virt. eigenvalues --    2.34186   2.34518   2.35053   2.36021   2.36543
 Alpha virt. eigenvalues --    2.36936   2.37134   2.38738   2.39134   2.39660
 Alpha virt. eigenvalues --    2.40018   2.40347   2.40732   2.41090   2.42286
 Alpha virt. eigenvalues --    2.42607   2.43618   2.44166   2.45375   2.45617
 Alpha virt. eigenvalues --    2.45749   2.46979   2.47692   2.48190   2.49400
 Alpha virt. eigenvalues --    2.49804   2.50507   2.51032   2.51388   2.52163
 Alpha virt. eigenvalues --    2.53835   2.54026   2.54602   2.55971   2.56079
 Alpha virt. eigenvalues --    2.56356   2.56977   2.57661   2.58288   2.59142
 Alpha virt. eigenvalues --    2.59517   2.60164   2.60442   2.60586   2.61647
 Alpha virt. eigenvalues --    2.62218   2.62953   2.63190   2.64803   2.65309
 Alpha virt. eigenvalues --    2.66695   2.66903   2.67351   2.67727   2.67862
 Alpha virt. eigenvalues --    2.68313   2.69048   2.69699   2.70252   2.70938
 Alpha virt. eigenvalues --    2.72285   2.72730   2.74338   2.74477   2.75328
 Alpha virt. eigenvalues --    2.75706   2.76798   2.76877   2.77843   2.78017
 Alpha virt. eigenvalues --    2.78363   2.79287   2.79737   2.79828   2.80552
 Alpha virt. eigenvalues --    2.81181   2.81727   2.82015   2.82611   2.82839
 Alpha virt. eigenvalues --    2.83142   2.83800   2.84844   2.85296   2.86421
 Alpha virt. eigenvalues --    2.86948   2.87959   2.89285   2.89445   2.89898
 Alpha virt. eigenvalues --    2.90073   2.91015   2.91108   2.91949   2.92142
 Alpha virt. eigenvalues --    2.92560   2.92644   2.94220   2.94848   2.95179
 Alpha virt. eigenvalues --    2.96291   2.97179   2.97443   2.98919   3.00392
 Alpha virt. eigenvalues --    3.01410   3.02930   3.03045   3.03882   3.04510
 Alpha virt. eigenvalues --    3.05357   3.10999   3.14182   3.14416   3.15101
 Alpha virt. eigenvalues --    3.15560   3.16415   3.19050   3.19730   3.20150
 Alpha virt. eigenvalues --    3.21955   3.22850   3.23309   3.24104   3.25233
 Alpha virt. eigenvalues --    3.26287   3.26408   3.27067   3.28001   3.28140
 Alpha virt. eigenvalues --    3.28272   3.28519   3.30160   3.30422   3.31636
 Alpha virt. eigenvalues --    3.33006   3.33833   3.35838   3.36417   3.36918
 Alpha virt. eigenvalues --    3.38576   3.38954   3.39038   3.39437   3.40736
 Alpha virt. eigenvalues --    3.40873   3.41702   3.41895   3.42153   3.43261
 Alpha virt. eigenvalues --    3.43716   3.44093   3.44663   3.45092   3.45489
 Alpha virt. eigenvalues --    3.45693   3.46093   3.47092   3.47887   3.47989
 Alpha virt. eigenvalues --    3.49260   3.50486   3.50630   3.51673   3.52577
 Alpha virt. eigenvalues --    3.52891   3.53233   3.56520   3.56727   3.59194
 Alpha virt. eigenvalues --    3.59715   3.59850   3.61427   3.62418   3.63629
 Alpha virt. eigenvalues --    3.65139   3.69797   3.94659   3.95716   4.01789
 Alpha virt. eigenvalues --    4.02322   4.36546   4.37262   4.38030   4.40260
 Alpha virt. eigenvalues --   21.80935  21.98112  22.06916  22.14894  22.16261
 Alpha virt. eigenvalues --   22.17643  22.18354  22.19609  22.21223  22.21606
 Alpha virt. eigenvalues --   22.23361  22.25843  22.26295  22.29248  22.30666
 Alpha virt. eigenvalues --   22.31349  22.36102  22.36303  22.40037  22.41914
 Alpha virt. eigenvalues --   22.45617  22.46521  32.07507  32.08087  43.73638
 Alpha virt. eigenvalues --   43.73713  43.75537  43.78672
          Condensed to atoms (all electrons):
 Mulliken charges:
               1
     1  O   -0.386182
     2  O   -0.385159
     3  O   -0.375843
     4  O   -0.377622
     5  N   -0.192726
     6  N   -0.190729
     7  H    0.300319
     8  H    0.301175
     9  C    0.014789
    10  C    0.021628
    11  C    0.221543
    12  C    0.224948
    13  C    0.145549
    14  C    0.134774
    15  C    0.068680
    16  C    0.076318
    17  C   -0.373131
    18  C   -0.380983
    19  H    0.185617
    20  H    0.196039
    21  H    0.195526
    22  H    0.191460
    23  C   -0.019182
    24  C   -0.027431
    25  C    0.090678
    26  C    0.095520
    27  C   -0.406740
    28  C   -0.407838
    29  H    0.131163
    30  H    0.131651
    31  H    0.170909
    32  H    0.174156
    33  H    0.172862
    34  H    0.171680
    35  C   -0.420853
    36  C   -0.426168
    37  H    0.152627
    38  H    0.151598
    39  H    0.174072
    40  H    0.145259
    41  H    0.143263
    42  H    0.174249
    43  C   -0.509878
    44  C   -0.520355
    45  H    0.187558
    46  H    0.172856
    47  H    0.170588
    48  H    0.187353
    49  H    0.157947
    50  H    0.159164
    51  C   -0.536738
    52  C   -0.542554
    53  H    0.207560
    54  H    0.182517
    55  H    0.182445
    56  H    0.211970
    57  H    0.151076
    58  H    0.151026
 Sum of Mulliken charges =   0.00000
 Mulliken charges with hydrogens summed into heavy atoms:
               1
     1  O   -0.386182
     2  O   -0.385159
     3  O   -0.375843
     4  O   -0.377622
     5  N    0.107593
     6  N    0.110446
     9  C    0.014789
    10  C    0.021628
    11  C    0.221543
    12  C    0.224948
    13  C    0.145549
    14  C    0.134774
    15  C    0.068680
    16  C    0.076318
    17  C    0.008012
    18  C    0.006516
    23  C   -0.019182
    24  C   -0.027431
    25  C    0.090678
    26  C    0.095520
    27  C    0.068194
    28  C    0.069649
    35  C    0.049108
    36  C    0.044939
    43  C    0.006214
    44  C   -0.000982
    51  C    0.004343
    52  C    0.002959
 Electronic spatial extent (au):  <R**2>=          33230.1244
 Charge=             -0.0000 electrons
 Dipole moment (field-independent basis, Debye):
    X=              5.3129    Y=             -0.0119    Z=              0.8525  Tot=              5.3809
 Quadrupole moment (field-independent basis, Debye-Ang):
   XX=           -262.0814   YY=           -157.5193   ZZ=           -165.5239
   XY=              9.2515   XZ=             -6.6319   YZ=             28.6274
 Traceless Quadrupole moment (field-independent basis, Debye-Ang):
   XX=            -67.0399   YY=             37.5222   ZZ=             29.5176
   XY=              9.2515   XZ=             -6.6319   YZ=             28.6274
 Octapole moment (field-independent basis, Debye-Ang**2):
  XXX=           3703.8074  YYY=          -1248.9315  ZZZ=           -576.9340  XYY=            728.7682
  XXY=           -654.5817  XXZ=           -175.1714  XZZ=            833.3659  YZZ=           -365.1226
  YYZ=            -52.0364  XYZ=           -127.9397
 Hexadecapole moment (field-independent basis, Debye-Ang**3):
 XXXX=         -43587.9902 YYYY=          -9267.5825 ZZZZ=          -4463.3107 XXXY=           9438.3654
 XXXZ=           2942.4923 YYYX=           5623.9963 YYYZ=           -676.8288 ZZZX=           2672.9397
 ZZZY=          -1157.7640 XXYY=          -6354.9723 XXZZ=          -5950.8049 YYZZ=          -1970.3033
 XXYZ=            209.3298 YYXZ=            180.0068 ZZXY=           1953.3063
 N-N= 3.000518779542D+03 E-N=-8.952242861691D+03  KE= 1.261454508890D+03
 No NMR shielding tensors so no spin-rotation constants.
 Leave Link  601 at Sat Jan 24 17:49:44 2026, MaxMem=  2147483648 cpu:               8.1 elap:               0.3
 (Enter /data/home/wyx/g16/l9999.exe)
 Electronic transition elements 
                 1             2             3             4             5 
      1  -0.126658D+04 -0.126656D+04 -0.126653D+04 -0.126653D+04 -0.126653D+04
      2   0.196091D+01 -0.345004D-01  0.120045D+00  0.169414D-01 -0.185416D-02
      3   0.530335D-02 -0.998920D-01  0.837956D-01 -0.588580D-02  0.253641D-01
      4   0.331795D+00  0.992914D-01 -0.623049D+00  0.178719D-02  0.262282D-01
      5  -0.177429D+00  0.361276D-02 -0.167965D-01 -0.166803D-02 -0.121721D-03
      6  -0.523534D-03  0.159218D-01 -0.839033D-02  0.995450D-03 -0.352706D-02
      7  -0.299687D-01 -0.106539D-01  0.867343D-01 -0.624255D-03 -0.634072D-03
      8  -0.221169D-01  0.249439D+00  0.560856D+00  0.115641D+01  0.186954D+00
      9  -0.661151D+00  0.826225D+00  0.874094D+00  0.748188D-02 -0.917763D-01
     10   0.895048D+00 -0.206461D+01 -0.413078D+00  0.226417D+00  0.834859D-01
     11   0.342383D+01 -0.364714D+00  0.287038D+00  0.451579D-01 -0.445862D-02
     12   0.382322D-01  0.158338D+00 -0.838756D-01  0.125966D-01 -0.291766D-01
     13  -0.169484D+00  0.239462D+00  0.412133D+00 -0.632292D-01 -0.139634D-01
     14  -0.868751D+00 -0.940677D+00 -0.134700D+00 -0.336570D-01  0.326859D-01
     15  -0.798697D-01  0.902330D+00 -0.776247D+00  0.119628D-01  0.119367D-01
     16  -0.254617D+00 -0.159686D+00  0.393503D+00  0.971888D-01  0.664710D-02
                 6 
      1  -0.126652D+04
      2   0.456921D-01
      3   0.224209D-02
      4   0.241488D-01
      5  -0.741206D-02
      6  -0.103617D-02
      7  -0.273643D-02
      8   0.250869D+00
      9   0.298235D+00
     10   0.166768D+00
     11   0.117648D+00
     12  -0.143046D-01
     13   0.159129D-01
     14  -0.197693D-01
     15  -0.556549D-01
     16   0.551101D-01
 1\1\GINC-CN012\SP\RCAM-B3LYP TD-FC\TZVP\C22H30N2O4\WYX\24-Jan-2026\0\\
 #p CAM-B3LYP/TZVP em=gd3bj TD=(Read,NStates=6,Root=2) SCRF=(Solvent=Wa
 ter,CorrectedLR,NonEquilibrium=Save) Geom=Check Guess=Read NoSymm\\Tit
 le Card Required\\0,1\O,0,-2.1539067978,4.7505320575,0.0281224962\O,0,
 -2.7465056059,0.5357692427,3.2563212789\O,0,-8.2165003617,3.5970010579
 ,-1.0729733279\O,0,-8.805993298,1.6839691345,2.1453101801\N,0,-4.93100
 81021,1.0245634571,-0.4291903731\N,0,-5.5064009064,4.2611354132,2.6971
 556906\H,0,-5.0432142391,0.0227456221,-0.4848826361\H,0,-5.6339076911,
 5.2622592919,2.7218559058\C,0,-5.9430582637,3.1425399446,-0.605565786\
 C,0,-6.5163774988,2.1420597669,2.520925226\C,0,-3.6516012378,1.4794528
 411,-0.2699675667\C,0,-4.2493815028,3.8066600605,2.9869127516\C,0,-6.0
 656035094,1.7652145366,-0.5957657031\C,0,-6.627546562,3.5183568658,2.4
 59657025\C,0,-7.0733507726,4.0164571411,-0.8786619621\C,0,-7.673039746
 2,1.2679327894,2.3967289498\C,0,-4.6049024823,3.7665194873,-0.40921298
 38\C,0,-5.1927780199,1.5188404116,2.8031900607\H,0,-4.6352415137,4.435
 287694,0.4621289632\H,0,-5.2715369569,0.8411190349,3.6608364559\H,0,-4
 .3892447283,4.4582752613,-1.2316338676\H,0,-4.9263135327,0.837208942,1
 .983356695\C,0,-3.4431388759,2.840398169,-0.2475151667\C,0,-4.04343613
 75,2.4469022922,3.0314718717\C,0,-2.1705112605,3.5174053948,-0.0677674
 621\C,0,-2.7820145707,1.7713512905,3.2830108424\C,0,-7.2963079674,0.97
 22379176,-0.8882149134\C,0,-7.8841084592,4.3108272022,2.3080463434\H,0
 ,-7.1132064526,-0.0895431961,-0.7205202361\H,0,-7.6560882597,5.3734735
 207,2.219307736\H,0,-7.5986028439,1.1086571519,-1.9275624913\H,0,-8.45
 37478227,3.9949507514,1.4399321766\H,0,-8.1324379806,1.2911844407,-0.2
 74048054\H,0,-8.529087456,4.1700147534,3.1766654439\C,0,-6.8252252677,
 5.5050617904,-0.9538416844\C,0,-7.4777116659,-0.2140631009,2.617504005
 2\H,0,-7.783109831,6.0176622123,-0.9184343837\H,0,-8.3623659757,-0.736
 4317016,2.2623471513\H,0,-6.3332796006,5.7534306293,-1.8974376617\H,0,
 -6.5963989365,-0.610933266,2.1167179136\H,0,-6.1867385299,5.874106041,
 -0.1530858132\H,0,-7.3594459937,-0.4174580451,3.6847099603\C,0,-0.8505
 604675,2.7890677144,-0.007231194\C,0,-1.4963272618,2.5045724633,3.5757
 58182\H,0,-0.6160697474,2.3323540815,-0.9696982116\H,0,-1.2882721605,3
 .2984036082,2.8635119423\H,0,-0.8364125298,2.0023234928,0.7426952394\H
 ,0,-1.5263686763,2.9518953764,4.5704591794\H,0,-0.0782839524,3.5170428
 08,0.2282349025\H,0,-0.6860883871,1.7801468603,3.5495888516\C,0,-2.650
 8902016,0.374665021,-0.1307554965\C,0,-3.2655068279,4.9131191684,3.205
 2787199\H,0,-2.2928152301,0.2932595233,0.8970638636\H,0,-2.6513992796,
 4.7473105776,4.0838726566\H,0,-1.7975189429,0.5111057928,-0.7871113799
 \H,0,-2.6126183515,5.0340327525,2.33807123\H,0,-3.110047578,-0.5791244
 993,-0.3877645939\H,0,-3.7913498884,5.8562156171,3.3490930586\\Version
 =ES64L-G16RevA.03\HF=-1266.6699376\RMSD=2.313e-09\Dipole=2.0902715,-0.
 0046927,0.3353899\Quadrupole=-49.8424996,27.8968536,21.945646,6.878229
 5,-4.9306457,21.2837844\PG=C01 [X(C22H30N2O4)]\\@


 NEVER LISTEN TO CRITICISM
 OR YOU'LL BE DOIN' EVERYBODY ELSE'S THING BUT BUT YOUR OWN.

                                               -- ANDY CAPP
 Job cpu time:       1 days 15 hours 30 minutes 28.5 seconds.
 Elapsed time:       0 days  1 hours 14 minutes 41.2 seconds.
 File lengths (MBytes):  RWF=   2533 Int=      0 D2E=      0 Chk=    161 Scr=      1
 Normal termination of Gaussian 16 at Sat Jan 24 17:49:48 2026.
