 Entering Gaussian System, Link 0=g16
 Input=DDL-DDL-S0-TD.gjf
 Output=DDL-DDL-S0-TD.log
 Initial command:
 /data/home/wyx/g16/l1.exe "/scr/tmp/wyx/13078/Gau-1935082.inp" -scrdir="/scr/tmp/wyx/13078/"
 Entering Link 1 = /data/home/wyx/g16/l1.exe PID=   1935083.
  
 Copyright (c) 1988,1990,1992,1993,1995,1998,2003,2009,2016,
            Gaussian, Inc.  All Rights Reserved.
  
 This is part of the Gaussian(R) 16 program.  It is based on
 the Gaussian(R) 09 system (copyright 2009, Gaussian, Inc.),
 the Gaussian(R) 03 system (copyright 2003, Gaussian, Inc.),
 the Gaussian(R) 98 system (copyright 1998, Gaussian, Inc.),
 the Gaussian(R) 94 system (copyright 1995, Gaussian, Inc.),
 the Gaussian 92(TM) system (copyright 1992, Gaussian, Inc.),
 the Gaussian 90(TM) system (copyright 1990, Gaussian, Inc.),
 the Gaussian 88(TM) system (copyright 1988, Gaussian, Inc.),
 the Gaussian 86(TM) system (copyright 1986, Carnegie Mellon
 University), and the Gaussian 82(TM) system (copyright 1983,
 Carnegie Mellon University). Gaussian is a federally registered
 trademark of Gaussian, Inc.
  
 This software contains proprietary and confidential information,
 including trade secrets, belonging to Gaussian, Inc.
  
 This software is provided under written license and may be
 used, copied, transmitted, or stored only in accord with that
 written license.
  
 The following legend is applicable only to US Government
 contracts under FAR:
  
                    RESTRICTED RIGHTS LEGEND
  
 Use, reproduction and disclosure by the US Government is
 subject to restrictions as set forth in subparagraphs (a)
 and (c) of the Commercial Computer Software - Restricted
 Rights clause in FAR 52.227-19.
  
 Gaussian, Inc.
 340 Quinnipiac St., Bldg. 40, Wallingford CT 06492
  
  
 ---------------------------------------------------------------
 Warning -- This program may not be used in any manner that
 competes with the business of Gaussian, Inc. or will provide
 assistance to any competitor of Gaussian, Inc.  The licensee
 of this program is prohibited from giving any competitor of
 Gaussian, Inc. access to this program.  By using this program,
 the user acknowledges that Gaussian, Inc. is engaged in the
 business of creating and licensing software in the field of
 computational chemistry and represents and warrants to the
 licensee that it is not a competitor of Gaussian, Inc. and that
 it will not use this program in any manner prohibited above.
 ---------------------------------------------------------------
  

 Cite this work as:
 Gaussian 16, Revision A.03,
 M. J. Frisch, G. W. Trucks, H. B. Schlegel, G. E. Scuseria, 
 M. A. Robb, J. R. Cheeseman, G. Scalmani, V. Barone, 
 G. A. Petersson, H. Nakatsuji, X. Li, M. Caricato, A. V. Marenich, 
 J. Bloino, B. G. Janesko, R. Gomperts, B. Mennucci, H. P. Hratchian, 
 J. V. Ortiz, A. F. Izmaylov, J. L. Sonnenberg, D. Williams-Young, 
 F. Ding, F. Lipparini, F. Egidi, J. Goings, B. Peng, A. Petrone, 
 T. Henderson, D. Ranasinghe, V. G. Zakrzewski, J. Gao, N. Rega, 
 G. Zheng, W. Liang, M. Hada, M. Ehara, K. Toyota, R. Fukuda, 
 J. Hasegawa, M. Ishida, T. Nakajima, Y. Honda, O. Kitao, H. Nakai, 
 T. Vreven, K. Throssell, J. A. Montgomery, Jr., J. E. Peralta, 
 F. Ogliaro, M. J. Bearpark, J. J. Heyd, E. N. Brothers, K. N. Kudin, 
 V. N. Staroverov, T. A. Keith, R. Kobayashi, J. Normand, 
 K. Raghavachari, A. P. Rendell, J. C. Burant, S. S. Iyengar, 
 J. Tomasi, M. Cossi, J. M. Millam, M. Klene, C. Adamo, R. Cammi, 
 J. W. Ochterski, R. L. Martin, K. Morokuma, O. Farkas, 
 J. B. Foresman, and D. J. Fox, Gaussian, Inc., Wallingford CT, 2016.
 
 ******************************************
 Gaussian 16:  ES64L-G16RevA.03 25-Dec-2016
                22-Jan-2026 
 ******************************************
 %nprocshared=32
 Will use up to   32 processors via shared memory.
 %mem=16GB
 %oldchk=DDL-DDL-S0-opt-freq.chk
 %chk=DDL-DDL-S0-TD.chk
 Copying data from "DDL-DDL-S0-opt-freq.chk" to current chk file "DDL-DDL-S0-TD.chk"
 IOpt=  2 FromEx=T IUOpen= 4 IOptOp= 5 NList=   0 IFRang= 0 IUIn= 4 IUOut= 2.
 ----------------------------------------------------------------------
 #p CAM-B3LYP/TZVP em=gd3bj TD=NStates=6 SCRF=Solvent=Water Geom=Check 
 Guess=Read
 ----------------------------------------------------------------------
 1/29=2,38=1,172=1/1;
 2/12=2,40=1/2;
 3/5=19,7=101,11=9,14=-4,25=1,30=1,70=2201,72=1,74=-40,116=-2,124=41/1,2,3,8;
 4/5=1/1;
 5/5=2,38=6,53=1/2;
 8/6=1,10=1,108=6/1;
 9/41=6,42=1,70=2/14;
 6/7=2,8=2,9=2,10=2/1;
 99/5=1,9=1/99;
 Leave Link    1 at Thu Jan 22 18:57:43 2026, MaxMem=  2147483648 cpu:               2.4 elap:               0.2
 (Enter /data/home/wyx/g16/l101.exe)
 -------------------
 Title Card Required
 -------------------
 Structure from the checkpoint file:  "DDL-DDL-S0-TD.chk"
 Charge =  0 Multiplicity = 1
 Redundant internal coordinates found in file.  (old form).
 O,0,-1.7969550178,4.1907943091,0.1694242807
 O,0,-2.337746604,1.1004923771,3.2158130728
 O,0,-7.9655407418,4.3847922166,-0.9653334272
 O,0,-8.5179637352,0.8981289916,2.1480460863
 N,0,-5.2453330621,1.1669380007,-0.6593028104
 N,0,-5.8638940573,4.1196732297,2.8003918715
 H,0,-5.5690751968,0.2171440516,-0.7369738739
 H,0,-6.1958510098,5.0690105781,2.7616087928
 C,0,-5.7916556053,3.4562036093,-0.7515557188
 C,0,-6.4054516008,1.8296646223,2.6987990774
 C,0,-3.911214333,1.3594018725,-0.3815141581
 C,0,-4.5157636211,3.9290313437,3.0010479048
 C,0,-6.1766735116,2.1623512789,-0.8367811392
 C,0,-6.7978810288,3.1229854803,2.6453302764
 C,0,-6.7501836322,4.5487441457,-0.9019275195
 C,0,-7.3554833629,0.7358213378,2.5089840661
 C,0,-4.345337512,3.8096200597,-0.4953025173
 C,0,-4.9592271724,1.4782042452,2.9582934359
 H,0,-4.2669131936,4.4502159157,0.384859421
 H,0,-4.8687099918,0.8661149159,3.860759422
 H,0,-3.949271988,4.4219495362,-1.3110784406
 H,0,-4.5805244177,0.8380407272,2.1595606848
 C,0,-3.4314511005,2.6213293751,-0.2995118892
 C,0,-4.0355729618,2.6677479135,3.0902403218
 C,0,-2.0523628074,2.9990092052,0.0030933052
 C,0,-2.6363693002,2.2919534141,3.2828722706
 C,0,-7.5528226588,1.6462668223,-1.1067663033
 C,0,-8.1832258065,3.6372196628,2.4230323118
 H,0,-7.5097475927,0.6011859816,-1.413579216
 H,0,-8.2503890586,4.6820305772,2.7264148682
 H,0,-8.0482205285,2.2302713847,-1.8752641277
 H,0,-8.4447305893,3.5725345739,1.3669735453
 H,0,-8.1635292991,1.7112482816,-0.2064220454
 H,0,-8.9130019783,3.0518497685,2.9724027162
 C,0,-6.1937026295,5.9491535799,-0.967876124
 C,0,-6.8544284837,-0.6638326775,2.7640907571
 H,0,-7.0097549088,6.6507504783,-1.1178697332
 H,0,-7.6711242432,-1.3665145604,2.6229353597
 H,0,-5.4713255813,6.047003472,-1.7796720296
 H,0,-6.0413757801,-0.9132113952,2.0800088625
 H,0,-5.6678051205,6.1991643036,-0.044753549
 H,0,-6.457338245,-0.7606393012,3.7757116557
 C,0,-0.9202632306,2.010384292,0.1093164033
 C,0,-1.538510269,3.2821712359,3.573538045
 H,0,-0.8705196804,1.3509041617,-0.7546135562
 H,0,-1.3334648571,3.9038229448,2.7021724916
 H,0,-1.0264039333,1.3908050988,0.9996618228
 H,0,-1.7899922285,3.9395722046,4.4032503558
 H,0,0.0068355252,2.5727945068,0.1849394627
 H,0,-0.6408288981,2.7210525689,3.8202060998
 C,0,-3.1687659807,0.0700975663,-0.1871745129
 C,0,-3.7534581212,5.2192988893,3.0746451601
 H,0,-2.6401257802,0.0575494213,0.7620474667
 H,0,-3.3507295724,5.3882545966,4.0714178228
 H,0,-2.4493368885,-0.0998419055,-0.985888656
 H,0,-2.9320535732,5.2339161129,2.363405541
 H,0,-3.8642579733,-0.7672559386,-0.1872091062
 H,0,-4.4081021688,6.0561551995,2.8380754158
 Recover connectivity data from disk.
 ITRead=  0  0  0  0  0  0  0  0  0  0  0  0  0  0  0  0  0  0  0  0
 ITRead=  0  0  0  0  0  0  0  0  0  0  0  0  0  0  0  0  0  0  0  0
 ITRead=  0  0  0  0  0  0  0  0  0  0  0  0  0  0  0  0  0  0
 MicOpt= -1 -1 -1 -1 -1 -1 -1 -1 -1 -1 -1 -1 -1 -1 -1 -1 -1 -1 -1 -1
 MicOpt= -1 -1 -1 -1 -1 -1 -1 -1 -1 -1 -1 -1 -1 -1 -1 -1 -1 -1 -1 -1
 MicOpt= -1 -1 -1 -1 -1 -1 -1 -1 -1 -1 -1 -1 -1 -1 -1 -1 -1 -1
                           ----------------------------
                           !    Current Parameters    !
                           ! (Angstroms and Degrees)  !
 --------------------------                            --------------------------
 ! Name  Definition              Value                                          !
 --------------------------------------------------------------------------------
 ! R1    R(1,25)                 1.2301                                         !
 ! R2    R(2,26)                 1.2301                                         !
 ! R3    R(3,15)                 1.228                                          !
 ! R4    R(4,16)                 1.228                                          !
 ! R5    R(5,7)                  1.0065                                         !
 ! R6    R(5,11)                 1.3763                                         !
 ! R7    R(5,13)                 1.3747                                         !
 ! R8    R(6,8)                  1.0064                                         !
 ! R9    R(6,12)                 1.3762                                         !
 ! R10   R(6,14)                 1.3747                                         !
 ! R11   R(9,13)                 1.3526                                         !
 ! R12   R(9,15)                 1.4612                                         !
 ! R13   R(9,17)                 1.5108                                         !
 ! R14   R(10,14)                1.3526                                         !
 ! R15   R(10,16)                1.4612                                         !
 ! R16   R(10,18)                1.5108                                         !
 ! R17   R(11,23)                1.3525                                         !
 ! R18   R(11,51)                1.5004                                         !
 ! R19   R(12,24)                1.3525                                         !
 ! R20   R(12,52)                1.5004                                         !
 ! R21   R(13,27)                1.4943                                         !
 ! R22   R(14,28)                1.4943                                         !
 ! R23   R(15,35)                1.5084                                         !
 ! R24   R(16,36)                1.5084                                         !
 ! R25   R(17,19)                1.0914                                         !
 ! R26   R(17,21)                1.0942                                         !
 ! R27   R(17,23)                1.5118                                         !
 ! R28   R(18,20)                1.0942                                         !
 ! R29   R(18,22)                1.0914                                         !
 ! R30   R(18,24)                1.5118                                         !
 ! R31   R(19,56)                2.5121                                         !
 ! R32   R(23,25)                1.4615                                         !
 ! R33   R(24,26)                1.4615                                         !
 ! R34   R(25,43)                1.5068                                         !
 ! R35   R(26,44)                1.5068                                         !
 ! R36   R(27,29)                1.09                                           !
 ! R37   R(27,31)                1.0849                                         !
 ! R38   R(27,33)                1.0899                                         !
 ! R39   R(28,30)                1.09                                           !
 ! R40   R(28,32)                1.0899                                         !
 ! R41   R(28,34)                1.0849                                         !
 ! R42   R(32,33)                2.4534                                         !
 ! R43   R(35,37)                1.0866                                         !
 ! R44   R(35,39)                1.0911                                         !
 ! R45   R(35,41)                1.0914                                         !
 ! R46   R(36,38)                1.0866                                         !
 ! R47   R(36,40)                1.0914                                         !
 ! R48   R(36,42)                1.0911                                         !
 ! R49   R(43,45)                1.088                                          !
 ! R50   R(43,47)                1.0899                                         !
 ! R51   R(43,49)                1.087                                          !
 ! R52   R(44,46)                1.0898                                         !
 ! R53   R(44,48)                1.088                                          !
 ! R54   R(44,50)                1.087                                          !
 ! R55   R(51,53)                1.0866                                         !
 ! R56   R(51,55)                1.0883                                         !
 ! R57   R(51,57)                1.0885                                         !
 ! R58   R(52,54)                1.0883                                         !
 ! R59   R(52,56)                1.0866                                         !
 ! R60   R(52,58)                1.0885                                         !
 ! A1    A(7,5,11)             117.3463                                         !
 ! A2    A(7,5,13)             117.0939                                         !
 ! A3    A(11,5,13)            125.5596                                         !
 ! A4    A(8,6,12)             117.3465                                         !
 ! A5    A(8,6,14)             117.0937                                         !
 ! A6    A(12,6,14)            125.5596                                         !
 ! A7    A(13,9,15)            121.4678                                         !
 ! A8    A(13,9,17)            120.4618                                         !
 ! A9    A(15,9,17)            118.0704                                         !
 ! A10   A(14,10,16)           121.4676                                         !
 ! A11   A(14,10,18)           120.4618                                         !
 ! A12   A(16,10,18)           118.0706                                         !
 ! A13   A(5,11,23)            119.1152                                         !
 ! A14   A(5,11,51)            112.6839                                         !
 ! A15   A(23,11,51)           128.1956                                         !
 ! A16   A(6,12,24)            119.115                                          !
 ! A17   A(6,12,52)            112.6876                                         !
 ! A18   A(24,12,52)           128.1919                                         !
 ! A19   A(5,13,9)             119.4503                                         !
 ! A20   A(5,13,27)            113.401                                          !
 ! A21   A(9,13,27)            127.1482                                         !
 ! A22   A(6,14,10)            119.4507                                         !
 ! A23   A(6,14,28)            113.3999                                         !
 ! A24   A(10,14,28)           127.1489                                         !
 ! A25   A(3,15,9)             123.692                                          !
 ! A26   A(3,15,35)            119.1323                                         !
 ! A27   A(9,15,35)            117.1731                                         !
 ! A28   A(4,16,10)            123.6917                                         !
 ! A29   A(4,16,36)            119.1316                                         !
 ! A30   A(10,16,36)           117.174                                          !
 ! A31   A(9,17,19)            110.0525                                         !
 ! A32   A(9,17,21)            110.5471                                         !
 ! A33   A(9,17,23)            114.6332                                         !
 ! A34   A(19,17,21)           104.2861                                         !
 ! A35   A(19,17,23)           108.2679                                         !
 ! A36   A(21,17,23)           108.5179                                         !
 ! A37   A(10,18,20)           110.5478                                         !
 ! A38   A(10,18,22)           110.0541                                         !
 ! A39   A(10,18,24)           114.6329                                         !
 ! A40   A(20,18,22)           104.2869                                         !
 ! A41   A(20,18,24)           108.5193                                         !
 ! A42   A(22,18,24)           108.2638                                         !
 ! A43   A(17,19,56)           148.9194                                         !
 ! A44   A(11,23,17)           120.7354                                         !
 ! A45   A(11,23,25)           126.0404                                         !
 ! A46   A(17,23,25)           113.2097                                         !
 ! A47   A(12,24,18)           120.7359                                         !
 ! A48   A(12,24,26)           126.04                                           !
 ! A49   A(18,24,26)           113.2094                                         !
 ! A50   A(1,25,23)            118.3113                                         !
 ! A51   A(1,25,43)            118.0433                                         !
 ! A52   A(23,25,43)           123.6424                                         !
 ! A53   A(2,26,24)            118.3107                                         !
 ! A54   A(2,26,44)            118.0446                                         !
 ! A55   A(24,26,44)           123.6416                                         !
 ! A56   A(13,27,29)           110.2172                                         !
 ! A57   A(13,27,31)           111.2587                                         !
 ! A58   A(13,27,33)           110.2543                                         !
 ! A59   A(29,27,31)           109.5577                                         !
 ! A60   A(29,27,33)           108.1697                                         !
 ! A61   A(31,27,33)           107.2897                                         !
 ! A62   A(14,28,30)           110.2162                                         !
 ! A63   A(14,28,32)           110.2527                                         !
 ! A64   A(14,28,34)           111.2598                                         !
 ! A65   A(30,28,32)           108.1672                                         !
 ! A66   A(30,28,34)           109.5595                                         !
 ! A67   A(32,28,34)           107.2919                                         !
 ! A68   A(28,32,33)           129.7133                                         !
 ! A69   A(27,33,32)           129.7366                                         !
 ! A70   A(15,35,37)           109.1738                                         !
 ! A71   A(15,35,39)           111.1038                                         !
 ! A72   A(15,35,41)           110.6989                                         !
 ! A73   A(37,35,39)           109.6714                                         !
 ! A74   A(37,35,41)           109.3125                                         !
 ! A75   A(39,35,41)           106.8423                                         !
 ! A76   A(16,36,38)           109.1736                                         !
 ! A77   A(16,36,40)           110.7                                            !
 ! A78   A(16,36,42)           111.1028                                         !
 ! A79   A(38,36,40)           109.3129                                         !
 ! A80   A(38,36,42)           109.6709                                         !
 ! A81   A(40,36,42)           106.8427                                         !
 ! A82   A(25,43,45)           112.0908                                         !
 ! A83   A(25,43,47)           110.9415                                         !
 ! A84   A(25,43,49)           107.8336                                         !
 ! A85   A(45,43,47)           107.9716                                         !
 ! A86   A(45,43,49)           109.2606                                         !
 ! A87   A(47,43,49)           108.6848                                         !
 ! A88   A(26,44,46)           110.9595                                         !
 ! A89   A(26,44,48)           112.072                                          !
 ! A90   A(26,44,50)           107.8339                                         !
 ! A91   A(46,44,48)           107.9715                                         !
 ! A92   A(46,44,50)           108.6938                                         !
 ! A93   A(48,44,50)           109.2524                                         !
 ! A94   A(11,51,53)           111.3346                                         !
 ! A95   A(11,51,55)           111.4831                                         !
 ! A96   A(11,51,57)           110.1728                                         !
 ! A97   A(53,51,55)           108.5249                                         !
 ! A98   A(53,51,57)           107.5777                                         !
 ! A99   A(55,51,57)           107.5915                                         !
 ! A100  A(12,52,54)           111.4969                                         !
 ! A101  A(12,52,56)           111.3158                                         !
 ! A102  A(12,52,58)           110.1762                                         !
 ! A103  A(54,52,56)           108.5229                                         !
 ! A104  A(54,52,58)           107.5939                                         !
 ! A105  A(56,52,58)           107.5791                                         !
 ! A106  A(19,56,52)            96.2949                                         !
 ! D1    D(7,5,11,23)          178.5067                                         !
 ! D2    D(7,5,11,51)           -2.2546                                         !
 ! D3    D(13,5,11,23)          -1.6743                                         !
 ! D4    D(13,5,11,51)         177.5644                                         !
 ! D5    D(7,5,13,9)          -179.5628                                         !
 ! D6    D(7,5,13,27)            0.6859                                         !
 ! D7    D(11,5,13,9)            0.6177                                         !
 ! D8    D(11,5,13,27)        -179.1335                                         !
 ! D9    D(8,6,12,24)          178.4765                                         !
 ! D10   D(8,6,12,52)           -2.3058                                         !
 ! D11   D(14,6,12,24)          -1.6631                                         !
 ! D12   D(14,6,12,52)         177.5546                                         !
 ! D13   D(8,6,14,10)         -179.5305                                         !
 ! D14   D(8,6,14,28)            0.7128                                         !
 ! D15   D(12,6,14,10)           0.6088                                         !
 ! D16   D(12,6,14,28)        -179.1479                                         !
 ! D17   D(15,9,13,5)         -178.5651                                         !
 ! D18   D(15,9,13,27)           1.1485                                         !
 ! D19   D(17,9,13,5)            1.4056                                         !
 ! D20   D(17,9,13,27)        -178.8808                                         !
 ! D21   D(13,9,15,3)            8.2859                                         !
 ! D22   D(13,9,15,35)        -172.3038                                         !
 ! D23   D(17,9,15,3)         -171.6855                                         !
 ! D24   D(17,9,15,35)           7.7248                                         !
 ! D25   D(13,9,17,19)        -124.5216                                         !
 ! D26   D(13,9,17,21)         120.8112                                         !
 ! D27   D(13,9,17,23)          -2.2138                                         !
 ! D28   D(15,9,17,19)          55.4501                                         !
 ! D29   D(15,9,17,21)         -59.2171                                         !
 ! D30   D(15,9,17,23)         177.7579                                         !
 ! D31   D(16,10,14,6)        -178.5677                                         !
 ! D32   D(16,10,14,28)          1.1521                                         !
 ! D33   D(18,10,14,6)           1.4045                                         !
 ! D34   D(18,10,14,28)       -178.8757                                         !
 ! D35   D(14,10,16,4)           8.3086                                         !
 ! D36   D(14,10,16,36)       -172.2816                                         !
 ! D37   D(18,10,16,4)        -171.6643                                         !
 ! D38   D(18,10,16,36)          7.7455                                         !
 ! D39   D(14,10,18,20)        120.8209                                         !
 ! D40   D(14,10,18,22)       -124.5094                                         !
 ! D41   D(14,10,18,24)         -2.2062                                         !
 ! D42   D(16,10,18,20)        -59.2059                                         !
 ! D43   D(16,10,18,22)         55.4637                                         !
 ! D44   D(16,10,18,24)        177.767                                          !
 ! D45   D(5,11,23,17)           0.6171                                         !
 ! D46   D(5,11,23,25)         179.1397                                         !
 ! D47   D(51,11,23,17)       -178.4892                                         !
 ! D48   D(51,11,23,25)          0.0335                                         !
 ! D49   D(5,11,51,53)        -126.0726                                         !
 ! D50   D(5,11,51,55)         112.5765                                         !
 ! D51   D(5,11,51,57)          -6.8043                                         !
 ! D52   D(23,11,51,53)         53.0811                                         !
 ! D53   D(23,11,51,55)        -68.2698                                         !
 ! D54   D(23,11,51,57)        172.3494                                         !
 ! D55   D(6,12,24,18)           0.6139                                         !
 ! D56   D(6,12,24,26)         179.1238                                         !
 ! D57   D(52,12,24,18)       -178.4678                                         !
 ! D58   D(52,12,24,26)          0.0421                                         !
 ! D59   D(6,12,52,54)         112.8393                                         !
 ! D60   D(6,12,52,56)        -125.8159                                         !
 ! D61   D(6,12,52,58)          -6.5556                                         !
 ! D62   D(24,12,52,54)        -68.0302                                         !
 ! D63   D(24,12,52,56)         53.3145                                         !
 ! D64   D(24,12,52,58)        172.5748                                         !
 ! D65   D(5,13,27,29)         -17.371                                          !
 ! D66   D(5,13,27,31)        -139.1105                                         !
 ! D67   D(5,13,27,33)         101.9762                                         !
 ! D68   D(9,13,27,29)         162.9007                                         !
 ! D69   D(9,13,27,31)          41.1612                                         !
 ! D70   D(9,13,27,33)         -77.7521                                         !
 ! D71   D(6,14,28,30)         -17.4203                                         !
 ! D72   D(6,14,28,32)         101.9223                                         !
 ! D73   D(6,14,28,34)        -139.1621                                         !
 ! D74   D(10,14,28,30)        162.8456                                         !
 ! D75   D(10,14,28,32)        -77.8119                                         !
 ! D76   D(10,14,28,34)         41.1038                                         !
 ! D77   D(3,15,35,37)          -2.7383                                         !
 ! D78   D(3,15,35,39)        -123.8174                                         !
 ! D79   D(3,15,35,41)         117.639                                          !
 ! D80   D(9,15,35,37)         177.8234                                         !
 ! D81   D(9,15,35,39)          56.7444                                         !
 ! D82   D(9,15,35,41)         -61.7992                                         !
 ! D83   D(4,16,36,38)          -2.7363                                         !
 ! D84   D(4,16,36,40)         117.642                                          !
 ! D85   D(4,16,36,42)        -123.8139                                         !
 ! D86   D(10,16,36,38)        177.8259                                         !
 ! D87   D(10,16,36,40)        -61.7957                                         !
 ! D88   D(10,16,36,42)         56.7483                                         !
 ! D89   D(9,17,19,56)         150.39                                           !
 ! D90   D(21,17,19,56)        -91.0229                                         !
 ! D91   D(23,17,19,56)         24.393                                          !
 ! D92   D(9,17,23,11)           1.1859                                         !
 ! D93   D(9,17,23,25)        -177.5144                                         !
 ! D94   D(19,17,23,11)        124.4562                                         !
 ! D95   D(19,17,23,25)        -54.244                                          !
 ! D96   D(21,17,23,11)       -122.924                                          !
 ! D97   D(21,17,23,25)         58.3758                                         !
 ! D98   D(10,18,24,12)          1.1804                                         !
 ! D99   D(10,18,24,26)       -177.5086                                         !
 ! D100  D(20,18,24,12)       -122.9312                                         !
 ! D101  D(20,18,24,26)         58.3797                                         !
 ! D102  D(22,18,24,12)        124.4494                                         !
 ! D103  D(22,18,24,26)        -54.2396                                         !
 ! D104  D(17,19,56,52)       -136.4206                                         !
 ! D105  D(11,23,25,1)        -173.1006                                         !
 ! D106  D(11,23,25,43)          7.5475                                         !
 ! D107  D(17,23,25,1)           5.5178                                         !
 ! D108  D(17,23,25,43)       -173.8342                                         !
 ! D109  D(12,24,26,2)        -173.1233                                         !
 ! D110  D(12,24,26,44)          7.5241                                         !
 ! D111  D(18,24,26,2)           5.4831                                         !
 ! D112  D(18,24,26,44)       -173.8695                                         !
 ! D113  D(1,25,43,45)        -128.429                                          !
 ! D114  D(1,25,43,47)         110.7828                                         !
 ! D115  D(1,25,43,49)          -8.1281                                         !
 ! D116  D(23,25,43,45)         50.9245                                         !
 ! D117  D(23,25,43,47)        -69.8636                                         !
 ! D118  D(23,25,43,49)        171.2255                                         !
 ! D119  D(2,26,44,46)         110.9752                                         !
 ! D120  D(2,26,44,48)        -128.237                                          !
 ! D121  D(2,26,44,50)          -7.9574                                         !
 ! D122  D(24,26,44,46)        -69.6706                                         !
 ! D123  D(24,26,44,48)         51.1172                                         !
 ! D124  D(24,26,44,50)        171.3967                                         !
 ! D125  D(13,27,33,32)         46.8248                                         !
 ! D126  D(29,27,33,32)        167.4083                                         !
 ! D127  D(31,27,33,32)        -74.4825                                         !
 ! D128  D(14,28,32,33)         46.9007                                         !
 ! D129  D(30,28,32,33)        167.4805                                         !
 ! D130  D(34,28,32,33)        -74.4082                                         !
 ! D131  D(28,32,33,27)       -116.1933                                         !
 ! D132  D(12,52,56,19)         48.2387                                         !
 ! D133  D(54,52,56,19)        171.3032                                         !
 ! D134  D(58,52,56,19)        -72.5582                                         !
 --------------------------------------------------------------------------------
 NAtoms=     58 NQM=       58 NQMF=       0 NMMI=      0 NMMIF=      0
                NMic=       0 NMicF=      0.
                    Isotopes and Nuclear Properties:
 (Nuclear quadrupole moments (NQMom) in fm**2, nuclear magnetic moments (NMagM)
  in nuclear magnetons)

  Atom         1           2           3           4           5           6           7           8           9          10
 IAtWgt=          16          16          16          16          14          14           1           1          12          12
 AtmWgt=  15.9949146  15.9949146  15.9949146  15.9949146  14.0030740  14.0030740   1.0078250   1.0078250  12.0000000  12.0000000
 NucSpn=           0           0           0           0           2           2           1           1           0           0
 AtZEff=   5.6000000   5.6000000   5.6000000   5.6000000   4.5500000   4.5500000   1.0000000   1.0000000   3.6000000   3.6000000
 NQMom=    0.0000000   0.0000000   0.0000000   0.0000000   2.0440000   2.0440000   0.0000000   0.0000000   0.0000000   0.0000000
 NMagM=    0.0000000   0.0000000   0.0000000   0.0000000   0.4037610   0.4037610   2.7928460   2.7928460   0.0000000   0.0000000
 AtZNuc=   8.0000000   8.0000000   8.0000000   8.0000000   7.0000000   7.0000000   1.0000000   1.0000000   6.0000000   6.0000000

  Atom        11          12          13          14          15          16          17          18          19          20
 IAtWgt=          12          12          12          12          12          12          12          12           1           1
 AtmWgt=  12.0000000  12.0000000  12.0000000  12.0000000  12.0000000  12.0000000  12.0000000  12.0000000   1.0078250   1.0078250
 NucSpn=           0           0           0           0           0           0           0           0           1           1
 AtZEff=   3.6000000   3.6000000   3.6000000   3.6000000   3.6000000   3.6000000   3.6000000   3.6000000   1.0000000   1.0000000
 NQMom=    0.0000000   0.0000000   0.0000000   0.0000000   0.0000000   0.0000000   0.0000000   0.0000000   0.0000000   0.0000000
 NMagM=    0.0000000   0.0000000   0.0000000   0.0000000   0.0000000   0.0000000   0.0000000   0.0000000   2.7928460   2.7928460
 AtZNuc=   6.0000000   6.0000000   6.0000000   6.0000000   6.0000000   6.0000000   6.0000000   6.0000000   1.0000000   1.0000000

  Atom        21          22          23          24          25          26          27          28          29          30
 IAtWgt=           1           1          12          12          12          12          12          12           1           1
 AtmWgt=   1.0078250   1.0078250  12.0000000  12.0000000  12.0000000  12.0000000  12.0000000  12.0000000   1.0078250   1.0078250
 NucSpn=           1           1           0           0           0           0           0           0           1           1
 AtZEff=   1.0000000   1.0000000   3.6000000   3.6000000   3.6000000   3.6000000   3.6000000   3.6000000   1.0000000   1.0000000
 NQMom=    0.0000000   0.0000000   0.0000000   0.0000000   0.0000000   0.0000000   0.0000000   0.0000000   0.0000000   0.0000000
 NMagM=    2.7928460   2.7928460   0.0000000   0.0000000   0.0000000   0.0000000   0.0000000   0.0000000   2.7928460   2.7928460
 AtZNuc=   1.0000000   1.0000000   6.0000000   6.0000000   6.0000000   6.0000000   6.0000000   6.0000000   1.0000000   1.0000000

  Atom        31          32          33          34          35          36          37          38          39          40
 IAtWgt=           1           1           1           1          12          12           1           1           1           1
 AtmWgt=   1.0078250   1.0078250   1.0078250   1.0078250  12.0000000  12.0000000   1.0078250   1.0078250   1.0078250   1.0078250
 NucSpn=           1           1           1           1           0           0           1           1           1           1
 AtZEff=   1.0000000   1.0000000   1.0000000   1.0000000   3.6000000   3.6000000   1.0000000   1.0000000   1.0000000   1.0000000
 NQMom=    0.0000000   0.0000000   0.0000000   0.0000000   0.0000000   0.0000000   0.0000000   0.0000000   0.0000000   0.0000000
 NMagM=    2.7928460   2.7928460   2.7928460   2.7928460   0.0000000   0.0000000   2.7928460   2.7928460   2.7928460   2.7928460
 AtZNuc=   1.0000000   1.0000000   1.0000000   1.0000000   6.0000000   6.0000000   1.0000000   1.0000000   1.0000000   1.0000000

  Atom        41          42          43          44          45          46          47          48          49          50
 IAtWgt=           1           1          12          12           1           1           1           1           1           1
 AtmWgt=   1.0078250   1.0078250  12.0000000  12.0000000   1.0078250   1.0078250   1.0078250   1.0078250   1.0078250   1.0078250
 NucSpn=           1           1           0           0           1           1           1           1           1           1
 AtZEff=   1.0000000   1.0000000   3.6000000   3.6000000   1.0000000   1.0000000   1.0000000   1.0000000   1.0000000   1.0000000
 NQMom=    0.0000000   0.0000000   0.0000000   0.0000000   0.0000000   0.0000000   0.0000000   0.0000000   0.0000000   0.0000000
 NMagM=    2.7928460   2.7928460   0.0000000   0.0000000   2.7928460   2.7928460   2.7928460   2.7928460   2.7928460   2.7928460
 AtZNuc=   1.0000000   1.0000000   6.0000000   6.0000000   1.0000000   1.0000000   1.0000000   1.0000000   1.0000000   1.0000000

  Atom        51          52          53          54          55          56          57          58
 IAtWgt=          12          12           1           1           1           1           1           1
 AtmWgt=  12.0000000  12.0000000   1.0078250   1.0078250   1.0078250   1.0078250   1.0078250   1.0078250
 NucSpn=           0           0           1           1           1           1           1           1
 AtZEff=   3.6000000   3.6000000   1.0000000   1.0000000   1.0000000   1.0000000   1.0000000   1.0000000
 NQMom=    0.0000000   0.0000000   0.0000000   0.0000000   0.0000000   0.0000000   0.0000000   0.0000000
 NMagM=    0.0000000   0.0000000   2.7928460   2.7928460   2.7928460   2.7928460   2.7928460   2.7928460
 AtZNuc=   6.0000000   6.0000000   1.0000000   1.0000000   1.0000000   1.0000000   1.0000000   1.0000000
 Leave Link  101 at Thu Jan 22 18:57:48 2026, MaxMem=  2147483648 cpu:               6.3 elap:               0.2
 (Enter /data/home/wyx/g16/l202.exe)
 Stoichiometry    C22H30N2O4
 Framework group  C1[X(C22H30N2O4)]
 Deg. of freedom   168
 Full point group                 C1      NOp   1
 RotChk:  IX=3 Diff= 4.52D-15
 Largest Abelian subgroup         C1      NOp   1
 Largest concise Abelian subgroup C1      NOp   1
                         Standard orientation:                         
 ---------------------------------------------------------------------
 Center     Atomic      Atomic             Coordinates (Angstroms)
 Number     Number       Type             X           Y           Z
 ---------------------------------------------------------------------
      1          8           0       -2.925279    2.180403   -0.162902
      2          8           0       -2.925820   -2.180421    0.162856
      3          8           0        3.346592    2.335279   -0.291002
      4          8           0        3.345998   -2.335530    0.290949
      5          7           0        0.617022    0.369780    2.265174
      6          7           0        0.616505   -0.369767   -2.265148
      7          1           0        0.949995   -0.234483    2.997940
      8          1           0        0.949492    0.234106   -2.998223
      9          6           0        1.169555    1.858766    0.525823
     10          6           0        1.168988   -1.858918   -0.525913
     11          6           0       -0.745272    0.464967    2.094366
     12          6           0       -0.745787   -0.464930   -2.094368
     13          6           0        1.564404    1.027679    1.517259
     14          6           0        1.563861   -1.027827   -1.517327
     15          6           0        2.138878    2.556150   -0.316258
     16          6           0        2.138306   -2.556510    0.316031
     17          6           0       -0.299519    2.089864    0.259702
     18          6           0       -0.300101   -2.089840   -0.259682
     19          1           0       -0.531703    1.860906   -0.781868
     20          1           0       -0.547286   -3.150608   -0.364379
     21          1           0       -0.546579    3.150655    0.364529
     22          1           0       -0.532240   -1.860716    0.781861
     23          6           0       -1.232807    1.290220    1.140099
     24          6           0       -1.233352   -1.290152   -1.140081
     25          6           0       -2.643851    1.493613    0.818102
     26          6           0       -2.644394   -1.493268   -0.817894
     27          6           0        2.966917    0.710084    1.923598
     28          6           0        2.966378   -0.710461   -1.923847
     29          1           0        2.979073    0.263432    2.917850
     30          1           0        2.978539   -0.264621   -2.918463
     31          1           0        3.589184    1.598797    1.917055
     32          1           0        3.409308    0.001006   -1.227100
     33          1           0        3.409989   -0.000711    1.226272
     34          1           0        3.588727   -1.599093   -1.916510
     35          6           0        1.601708    3.592322   -1.271749
     36          6           0        1.601156   -3.593038    1.271148
     37          1           0        2.430959    4.053434   -1.801273
     38          1           0        2.430409   -4.054216    1.800613
     39          1           0        1.033045    4.358005   -0.741872
     40          1           0        0.921028   -3.137056    1.992757
     41          1           0        0.921716    3.136018   -1.993293
     42          1           0        1.032657   -4.358631    0.740955
     43          6           0       -3.776364    0.919977    1.629686
     44          6           0       -3.776884   -0.918906   -1.628997
     45          1           0       -3.673195    1.141515    2.689893
     46          1           0       -3.826136    0.164109   -1.517525
     47          1           0       -3.827814   -0.162728    1.515833
     48          1           0       -3.675440   -1.143032   -2.688864
     49          1           0       -4.702705    1.353270    1.261329
     50          1           0       -4.703564   -1.349758   -1.258643
     51          6           0       -1.509466   -0.422210    3.032571
     52          6           0       -1.510016    0.422575   -3.032241
     53          1           0       -2.196569   -1.068825    2.493666
     54          1           0       -2.081633   -0.157905   -3.753759
     55          1           0       -2.077348    0.158714    3.756753
     56          1           0       -2.193771    1.072066   -2.492406
     57          1           0       -0.824226   -1.060456    3.587511
     58          1           0       -0.824551    1.057929   -3.590197
 ---------------------------------------------------------------------
 Rotational constants (GHZ):           0.2286805           0.1762202           0.1567906
 Leave Link  202 at Thu Jan 22 18:57:48 2026, MaxMem=  2147483648 cpu:               0.1 elap:               0.0
 (Enter /data/home/wyx/g16/l301.exe)
 Standard basis: TZVP (5D, 7F)
 Ernie: Thresh=  0.10000D-02 Tol=  0.10000D-05 Strict=F.
 There are   740 symmetry adapted cartesian basis functions of A   symmetry.
 There are   712 symmetry adapted basis functions of A   symmetry.
   712 basis functions,  1220 primitive gaussians,   740 cartesian basis functions
   104 alpha electrons      104 beta electrons
       nuclear repulsion energy      2973.2108032490 Hartrees.
 IExCor=20419 DFT=T Ex+Corr=CAM-B3LYP ExCW=0 ScaHFX=  1.000000
 ScaDFX=  1.000000  1.000000  1.000000  0.810000 ScalE2=  1.000000  1.000000
 IRadAn=      5 IRanWt=     -1 IRanGd=            0 ICorTp=0 IEmpDi=141
 HFx  wShort=  0.000000 wLong=  0.330000 cFull=  0.190000 cShort=  0.000000 cLong=  0.460000
 DFx  wShort=  0.000000 wLong=  0.330000 cFull=  0.190000 cShort=  0.000000 cLong=  0.460000
 NAtoms=   58 NActive=   58 NUniq=   58 SFac= 1.00D+00 NAtFMM=   60 NAOKFM=F Big=F
 Integral buffers will be    131072 words long.
 Raffenetti 1 integral format.
 Two-electron integral symmetry is turned on.
 R6Disp:  Grimme-D3(BJ) Dispersion energy=       -0.0745663082 Hartrees.
 Nuclear repulsion after empirical dispersion term =     2973.1362369409 Hartrees.
 ------------------------------------------------------------------------------
 Polarizable Continuum Model (PCM)
 =================================
 Model                : PCM.
 Atomic radii         : UFF (Universal Force Field).
 Polarization charges : Total charges.
 Charge compensation  : None.
 Solution method      : On-the-fly selection.
 Cavity type          : Scaled VdW (van der Waals Surface) (Alpha=1.100).
 Cavity algorithm     : GePol (No added spheres)
                        Default sphere list used, NSphG=   58.
                        Lebedev-Laikov grids with approx.  5.0 points / Ang**2.
                        Smoothing algorithm: York/Karplus (Gamma=1.0000).
                        Polarization charges: spherical gaussians, with
                                              point-specific exponents (IZeta= 3).
                        Self-potential: point-specific (ISelfS= 7).
                        Self-field    : sphere-specific E.n sum rule (ISelfD= 2).
 Solvent              : Water, Eps=  78.355300 Eps(inf)=   1.777849
 ------------------------------------------------------------------------------
 GePol: Number of generator spheres                  =      58
 GePol: Total number of spheres                      =      58
 GePol: Number of exposed spheres                    =      58 (100.00%)
 GePol: Number of points                             =    3389
 GePol: Average weight of points                     =       0.12
 GePol: Minimum weight of points                     =   0.11D-11
 GePol: Maximum weight of points                     =    0.20577
 GePol: Number of points with low weight             =     309
 GePol: Fraction of low-weight points (<1% of avg)   =       9.12%
 GePol: Cavity surface area                          =    419.181 Ang**2
 GePol: Cavity volume                                =    545.935 Ang**3
 Leave Link  301 at Thu Jan 22 18:57:48 2026, MaxMem=  2147483648 cpu:               1.1 elap:               0.0
 (Enter /data/home/wyx/g16/l302.exe)
 NPDir=0 NMtPBC=     1 NCelOv=     1 NCel=       1 NClECP=     1 NCelD=      1
         NCelK=      1 NCelE2=     1 NClLst=     1 CellRange=     0.0.
 One-electron integrals computed using PRISM.
 One-electron integral symmetry used in STVInt
 NBasis=   712 RedAO= T EigKep=  1.91D-05  NBF=   712
 NBsUse=   712 1.00D-06 EigRej= -1.00D+00 NBFU=   712
 Precomputing XC quadrature grid using
 IXCGrd= 4 IRadAn=           5 IRanWt=          -1 IRanGd=           0 AccXCQ= 0.00D+00.
 Generated NRdTot=       0 NPtTot=           0 NUsed=           0 NTot=          32
 NSgBfM=   718   717   718   718   718 MxSgAt=    58 MxSgA2=    58.
 Leave Link  302 at Thu Jan 22 18:57:49 2026, MaxMem=  2147483648 cpu:              21.3 elap:               0.7
 (Enter /data/home/wyx/g16/l303.exe)
 DipDrv:  MaxL=1.
 Leave Link  303 at Thu Jan 22 18:57:50 2026, MaxMem=  2147483648 cpu:               3.1 elap:               0.1
 (Enter /data/home/wyx/g16/l308.exe)
 Leave Link  308 at Thu Jan 22 18:57:50 2026, MaxMem=  2147483648 cpu:               4.1 elap:               0.2
 (Enter /data/home/wyx/g16/l401.exe)
 Initial guess from the checkpoint file:  "DDL-DDL-S0-TD.chk"
 B after Tr=     0.000000    0.000000    0.000000
         Rot=    1.000000    0.000000    0.000000    0.000000 Ang=   0.00 deg.
 Guess basis will be translated and rotated to current coordinates.
 JPrj=2 DoOrth=T DoCkMO=T.
 Leave Link  401 at Thu Jan 22 18:57:51 2026, MaxMem=  2147483648 cpu:              18.4 elap:               0.6
 (Enter /data/home/wyx/g16/l502.exe)
 Integral symmetry usage will be decided dynamically.
 Closed shell SCF:
 Using DIIS extrapolation, IDIIS=  1040.
 NGot=  2147483648 LenX=  2146357274 LenY=  2145808934
 Requested convergence on RMS density matrix=1.00D-08 within 128 cycles.
 Requested convergence on MAX density matrix=1.00D-06.
 Requested convergence on             energy=1.00D-06.
 No special actions if energy rises.
 Fock matrices will be formed incrementally for  20 cycles.

 Cycle   1  Pass 1  IDiag  1:
 FoFJK:  IHMeth= 1 ICntrl=       0 DoSepK=T KAlg= 0 I1Cent=           0 FoldK=F
 IRaf=         1 NMat=       1 IRICut=       1 DoRegI=T DoRafI=F ISym2E= 0 IDoP0=0 IntGTp=1.
 FoFCou: FMM=F IPFlag=           0 FMFlag=      100000 FMFlg1=           0
         NFxFlg=           0 DoJE=T BraDBF=F KetDBF=F FulRan=T
         wScrn=  0.000000 ICntrl=       500 IOpCl=  0 I1Cent=           0 NGrid=           0
         NMat0=    1 NMatS0=      1 NMatT0=    0 NMatD0=    1 NMtDS0=    0 NMtDT0=    0
 Symmetry not used in FoFCou.
 Inv3:  Mode=1 IEnd=    34455963.
 Iteration    1 A*A^-1 deviation from unit magnitude is 3.11D-15 for     88.
 Iteration    1 A*A^-1 deviation from orthogonality  is 2.22D-15 for   3274    932.
 Iteration    1 A^-1*A deviation from unit magnitude is 3.22D-15 for     88.
 Iteration    1 A^-1*A deviation from orthogonality  is 3.33D-15 for   2497   1536.
 E= -1266.68754911055    
 DIIS: error= 1.42D-08 at cycle   1 NSaved=   1.
 NSaved= 1 IEnMin= 1 EnMin= -1266.68754911055     IErMin= 1 ErrMin= 1.42D-08
 ErrMax= 1.42D-08  0.00D+00 EMaxC= 1.00D-01 BMatC= 1.54D-13 BMatP= 1.54D-13
 IDIUse=1 WtCom= 1.00D+00 WtEn= 0.00D+00
 Coeff-Com:  0.100D+01
 Coeff:      0.100D+01
 Gap=     0.229 Goal=   None    Shift=    0.000
 RMSDP=2.76D-09 MaxDP=3.33D-07              OVMax= 2.24D-07

 Error on total polarization charges =  0.01923
 SCF Done:  E(RCAM-B3LYP) =  -1266.68754911     A.U. after    1 cycles
            NFock=  1  Conv=0.28D-08     -V/T= 2.0041
 KE= 1.261468984468D+03 PE=-8.898090254184D+03 EE= 3.396797483665D+03
 Leave Link  502 at Thu Jan 22 18:58:20 2026, MaxMem=  2147483648 cpu:             885.2 elap:              28.7
 (Enter /data/home/wyx/g16/l801.exe)
 DoSCS=F DFT=T ScalE2(SS,OS)=  1.000000  1.000000
 ExpMin= 9.52D-02 ExpMax= 2.70D+04 ExpMxC= 9.22D+02 IAcc=3 IRadAn=         5 AccDes= 0.00D+00
 HarFok:  IExCor=  205 AccDes= 0.00D+00 IRadAn=         5 IDoV=-2 UseB2=F ITyADJ=14
 ICtDFT= 12500011 ScaDFX=  1.000000  1.000000  1.000000  1.000000
 GSVD:  LWork=       -1008 too small for GESVD, short by        4340 words or        4340 for optimal perf.
 Largest valence mixing into a core orbital is  5.68D-05
 Largest core mixing into a valence orbital is  1.35D-05
 Range of M.O.s used for correlation:    29   712
 NBasis=   712 NAE=   104 NBE=   104 NFC=    28 NFV=     0
 NROrb=    684 NOA=    76 NOB=    76 NVA=   608 NVB=   608

 **** Warning!!: The largest alpha MO coefficient is  0.48145547D+02

 Leave Link  801 at Thu Jan 22 18:58:20 2026, MaxMem=  2147483648 cpu:               2.6 elap:               0.1
 (Enter /data/home/wyx/g16/l914.exe)
 RHF ground state
 Two-electron integrals replicated using symmetry.
 MDV=  2147483648 DFT=T DoStab=F Mixed=T DoRPA=T DoScal=F NonHer=T
 NEqPCM:  Using non-equilibrium solvation (IEInf=1, Eps=  78.3553, EpsInf=   1.7778)
 Inv3:  Mode=1 IEnd=    34455963.
 Iteration    1 A*A^-1 deviation from unit magnitude is 3.77D-15 for   1529.
 Iteration    1 A*A^-1 deviation from orthogonality  is 2.18D-15 for   2912   2654.
 Iteration    1 A^-1*A deviation from unit magnitude is 3.77D-15 for   1529.
 Iteration    1 A^-1*A deviation from orthogonality  is 1.78D-15 for   2919   1391.
 Making orbital integer symmetry assigments:
 Orbital symmetries:
       Occupied  (A) (A) (A) (A) (A) (A) (A) (A) (A) (A) (A) (A)
                 (A) (A) (A) (A) (A) (A) (A) (A) (A) (A) (A) (A)
                 (A) (A) (A) (A) (A) (A) (A) (A) (A) (A) (A) (A)
                 (A) (A) (A) (A) (A) (A) (A) (A) (A) (A) (A) (A)
                 (A) (A) (A) (A) (A) (A) (A) (A) (A) (A) (A) (A)
                 (A) (A) (A) (A) (A) (A) (A) (A) (A) (A) (A) (A)
                 (A) (A) (A) (A) (A) (A) (A) (A) (A) (A) (A) (A)
                 (A) (A) (A) (A) (A) (A) (A) (A) (A) (A) (A) (A)
                 (A) (A) (A) (A) (A) (A) (A) (A)
       Virtual   (A) (A) (A) (A) (A) (A) (A) (A) (A) (A) (A) (A)
                 (A) (A) (A) (A) (A) (A) (A) (A) (A) (A) (A) (A)
                 (A) (A) (A) (A) (A) (A) (A) (A) (A) (A) (A) (A)
                 (A) (A) (A) (A) (A) (A) (A) (A) (A) (A) (A) (A)
                 (A) (A) (A) (A) (A) (A) (A) (A) (A) (A) (A) (A)
                 (A) (A) (A) (A) (A) (A) (A) (A) (A) (A) (A) (A)
                 (A) (A) (A) (A) (A) (A) (A) (A) (A) (A) (A) (A)
                 (A) (A) (A) (A) (A) (A) (A) (A) (A) (A) (A) (A)
                 (A) (A) (A) (A) (A) (A) (A) (A) (A) (A) (A) (A)
                 (A) (A) (A) (A) (A) (A) (A) (A) (A) (A) (A) (A)
                 (A) (A) (A) (A) (A) (A) (A) (A) (A) (A) (A) (A)
                 (A) (A) (A) (A) (A) (A) (A) (A) (A) (A) (A) (A)
                 (A) (A) (A) (A) (A) (A) (A) (A) (A) (A) (A) (A)
                 (A) (A) (A) (A) (A) (A) (A) (A) (A) (A) (A) (A)
                 (A) (A) (A) (A) (A) (A) (A) (A) (A) (A) (A) (A)
                 (A) (A) (A) (A) (A) (A) (A) (A) (A) (A) (A) (A)
                 (A) (A) (A) (A) (A) (A) (A) (A) (A) (A) (A) (A)
                 (A) (A) (A) (A) (A) (A) (A) (A) (A) (A) (A) (A)
                 (A) (A) (A) (A) (A) (A) (A) (A) (A) (A) (A) (A)
                 (A) (A) (A) (A) (A) (A) (A) (A) (A) (A) (A) (A)
                 (A) (A) (A) (A) (A) (A) (A) (A) (A) (A) (A) (A)
                 (A) (A) (A) (A) (A) (A) (A) (A) (A) (A) (A) (A)
                 (A) (A) (A) (A) (A) (A) (A) (A) (A) (A) (A) (A)
                 (A) (A) (A) (A) (A) (A) (A) (A) (A) (A) (A) (A)
                 (A) (A) (A) (A) (A) (A) (A) (A) (A) (A) (A) (A)
                 (A) (A) (A) (A) (A) (A) (A) (A) (A) (A) (A) (A)
                 (A) (A) (A) (A) (A) (A) (A) (A) (A) (A) (A) (A)
                 (A) (A) (A) (A) (A) (A) (A) (A) (A) (A) (A) (A)
                 (A) (A) (A) (A) (A) (A) (A) (A) (A) (A) (A) (A)
                 (A) (A) (A) (A) (A) (A) (A) (A) (A) (A) (A) (A)
                 (A) (A) (A) (A) (A) (A) (A) (A) (A) (A) (A) (A)
                 (A) (A) (A) (A) (A) (A) (A) (A) (A) (A) (A) (A)
                 (A) (A) (A) (A) (A) (A) (A) (A) (A) (A) (A) (A)
                 (A) (A) (A) (A) (A) (A) (A) (A) (A) (A) (A) (A)
                 (A) (A) (A) (A) (A) (A) (A) (A) (A) (A) (A) (A)
                 (A) (A) (A) (A) (A) (A) (A) (A) (A) (A) (A) (A)
                 (A) (A) (A) (A) (A) (A) (A) (A) (A) (A) (A) (A)
                 (A) (A) (A) (A) (A) (A) (A) (A) (A) (A) (A) (A)
                 (A) (A) (A) (A) (A) (A) (A) (A) (A) (A) (A) (A)
                 (A) (A) (A) (A) (A) (A) (A) (A) (A) (A) (A) (A)
                 (A) (A) (A) (A) (A) (A) (A) (A) (A) (A) (A) (A)
                 (A) (A) (A) (A) (A) (A) (A) (A) (A) (A) (A) (A)
                 (A) (A) (A) (A) (A) (A) (A) (A) (A) (A) (A) (A)
                 (A) (A) (A) (A) (A) (A) (A) (A) (A) (A) (A) (A)
                 (A) (A) (A) (A) (A) (A) (A) (A) (A) (A) (A) (A)
                 (A) (A) (A) (A) (A) (A) (A) (A) (A) (A) (A) (A)
                 (A) (A) (A) (A) (A) (A) (A) (A) (A) (A) (A) (A)
                 (A) (A) (A) (A) (A) (A) (A) (A) (A) (A) (A) (A)
                 (A) (A) (A) (A) (A) (A) (A) (A) (A) (A) (A) (A)
                 (A) (A) (A) (A) (A) (A) (A) (A) (A) (A) (A) (A)
                 (A) (A) (A) (A) (A) (A) (A) (A)
    24 initial guesses have been made.
 Convergence on wavefunction:    0.001000000000000
 Davidson Disk Diagonalization:  ConvIn= 1.00D-03 SkipCon=T Conv= 1.00D-03.
 Max sub-space:  2000 roots to seek:    24 dimension of matrix:        92416
 Iteration     1 Dimension    24 NMult     0 NNew     24
 CISAX will form    24 AO SS matrices at one time.
 NMat=    24 NSing=    24 JSym2X= 0.
 FoFJK:  IHMeth= 1 ICntrl=       0 DoSepK=T KAlg= 0 I1Cent=           0 FoldK=F
 IRaf=         1 NMat=      48 IRICut=       1 DoRegI=T DoRafI=F ISym2E= 0 IDoP0=3 IntGTp=3.
 New state      1 was old state      2
 New state      2 was old state      1
 New state      5 was old state      9
 New state      6 was old state      8
 Excitation Energies [eV] at current iteration:
 Root      1 :     3.924257731856950
 Root      2 :     3.940857054748133
 Root      3 :     4.357942482089626
 Root      4 :     4.381509826813044
 Root      5 :     4.988415328999209
 Root      6 :     4.995370382781325
 Root      7 :     5.178900060411765
 Root      8 :     5.190182068787247
 Root      9 :     5.412425790096028
 Root     10 :     5.571912821058594
 Root     11 :     5.619459293350594
 Root     12 :     5.728155930875910
 Root     13 :     6.040435267142183
 Root     14 :     6.074715708954214
 Root     15 :     6.147000563848468
 Root     16 :     6.239880095546267
 Root     17 :     6.245476019575171
 Root     18 :     6.247212381503152
 Root     19 :     6.276871592746206
 Root     20 :     6.520829247870706
 Root     21 :     6.616088321478235
 Root     22 :     6.800508950059566
 Root     23 :     6.875672941085206
 Root     24 :     6.967076024200708
 Iteration     2 Dimension    36 NMult    24 NNew     12
 CISAX will form    12 AO SS matrices at one time.
 NMat=    12 NSing=    12 JSym2X= 0.
 Root      1 not converged, maximum delta is    0.063233207645118
 Root      2 not converged, maximum delta is    0.175902495525221
 New state      3 was old state      5
 Root      3 not converged, maximum delta is    0.181753200684861
 New state      4 was old state      6
 Root      4 not converged, maximum delta is    0.193982416655692
 New state      5 was old state      4
 Root      5 not converged, maximum delta is    0.137286886546745
 New state      6 was old state      3
 Root      6 not converged, maximum delta is    0.040645212288063
 Excitation Energies [eV] at current iteration:
 Root      1 :     3.450802185987307   Change is   -0.473455545869644
 Root      2 :     3.476469739610709   Change is   -0.464387315137424
 Root      3 :     4.192247496249434   Change is   -0.796167832749775
 Root      4 :     4.194412719346137   Change is   -0.800957663435189
 Root      5 :     4.288734939126269   Change is   -0.092774887686775
 Root      6 :     4.293429403485615   Change is   -0.064513078604011
 Iteration     3 Dimension    48 NMult    36 NNew     12
 CISAX will form    12 AO SS matrices at one time.
 NMat=    12 NSing=    12 JSym2X= 0.
 Root      1 not converged, maximum delta is    0.010636546170257
 Root      2 not converged, maximum delta is    0.010588502821845
 Root      3 not converged, maximum delta is    0.026992163773164
 Root      4 not converged, maximum delta is    0.028453559174529
 Root      5 not converged, maximum delta is    0.013686260899205
 Root      6 not converged, maximum delta is    0.007392123244321
 Excitation Energies [eV] at current iteration:
 Root      1 :     3.429180092602467   Change is   -0.021622093384840
 Root      2 :     3.455253345879440   Change is   -0.021216393731269
 Root      3 :     4.127937253262217   Change is   -0.064310242987218
 Root      4 :     4.129436609564766   Change is   -0.064976109781371
 Root      5 :     4.283912483412909   Change is   -0.004822455713360
 Root      6 :     4.289593519354482   Change is   -0.003835884131134
 Iteration     4 Dimension    60 NMult    48 NNew     12
 CISAX will form    12 AO SS matrices at one time.
 NMat=    12 NSing=    12 JSym2X= 0.
 Root      1 not converged, maximum delta is    0.006953118953698
 Root      2 not converged, maximum delta is    0.005383383805606
 Root      3 not converged, maximum delta is    0.024447741692520
 Root      4 not converged, maximum delta is    0.018532653679305
 Root      5 not converged, maximum delta is    0.003200482535508
 Root      6 not converged, maximum delta is    0.010397752335407
 Excitation Energies [eV] at current iteration:
 Root      1 :     3.425227898603256   Change is   -0.003952193999210
 Root      2 :     3.451041533965047   Change is   -0.004211811914393
 Root      3 :     4.119003996943069   Change is   -0.008933256319148
 Root      4 :     4.121549153731003   Change is   -0.007887455833762
 Root      5 :     4.282899156794145   Change is   -0.001013326618764
 Root      6 :     4.288935049849424   Change is   -0.000658469505058
 Iteration     5 Dimension    72 NMult    60 NNew     12
 CISAX will form    12 AO SS matrices at one time.
 NMat=    12 NSing=    12 JSym2X= 0.
 Root      1 has converged.
 Root      2 has converged.
 Root      3 not converged, maximum delta is    0.059256119303709
 Root      4 not converged, maximum delta is    0.051336307586330
 Root      5 not converged, maximum delta is    0.020515406519520
 Root      6 not converged, maximum delta is    0.133308335511500
 Excitation Energies [eV] at current iteration:
 Root      1 :     3.425052932013857   Change is   -0.000174966589400
 Root      2 :     3.450785489775188   Change is   -0.000256044189859
 Root      3 :     4.112079309441873   Change is   -0.006924687501197
 Root      4 :     4.115099324464522   Change is   -0.006449829266481
 Root      5 :     4.282578241644623   Change is   -0.000320915149521
 Root      6 :     4.284482659247968   Change is   -0.004452390601455
 Iteration     6 Dimension    80 NMult    72 NNew      8
 CISAX will form     8 AO SS matrices at one time.
 NMat=     8 NSing=     8 JSym2X= 0.
 Root      1 has converged.
 Root      2 has converged.
 Root      3 not converged, maximum delta is    0.017897133786801
 Root      4 not converged, maximum delta is    0.027261495033553
 New state      5 was old state      6
 Root      5 not converged, maximum delta is    0.198202434473781
 New state      6 was old state      5
 Root      6 not converged, maximum delta is    0.137783887473594
 Excitation Energies [eV] at current iteration:
 Root      1 :     3.425051174823781   Change is   -0.000001757190076
 Root      2 :     3.450778305457338   Change is   -0.000007184317851
 Root      3 :     4.110319580963830   Change is   -0.001759728478042
 Root      4 :     4.112329343223607   Change is   -0.002769981240915
 Root      5 :     4.271509225498269   Change is   -0.012973433749699
 Root      6 :     4.280907106686474   Change is   -0.001671134958150
 Iteration     7 Dimension    88 NMult    80 NNew      8
 CISAX will form     8 AO SS matrices at one time.
 NMat=     8 NSing=     8 JSym2X= 0.
 Root      1 has converged.
 Root      2 has converged.
 Root      3 not converged, maximum delta is    0.001675948472024
 Root      4 not converged, maximum delta is    0.002788407736609
 Root      5 not converged, maximum delta is    0.024432819798862
 Root      6 not converged, maximum delta is    0.091864264618570
 Excitation Energies [eV] at current iteration:
 Root      1 :     3.425050831647147   Change is   -0.000000343176633
 Root      2 :     3.450777890709783   Change is   -0.000000414747555
 Root      3 :     4.110163549685706   Change is   -0.000156031278124
 Root      4 :     4.112075696689965   Change is   -0.000253646533641
 Root      5 :     4.269416427881566   Change is   -0.002092797616702
 Root      6 :     4.279333650362452   Change is   -0.001573456324021
 Iteration     8 Dimension    96 NMult    88 NNew      8
 CISAX will form     8 AO SS matrices at one time.
 NMat=     8 NSing=     8 JSym2X= 0.
 Root      1 has converged.
 Root      2 has converged.
 Root      3 has converged.
 Root      4 has converged.
 Root      5 not converged, maximum delta is    0.002302829269232
 Root      6 not converged, maximum delta is    0.011531932486748
 Excitation Energies [eV] at current iteration:
 Root      1 :     3.425050656108979   Change is   -0.000000175538168
 Root      2 :     3.450777013467526   Change is   -0.000000877242257
 Root      3 :     4.110150029658134   Change is   -0.000013520027572
 Root      4 :     4.112052051138710   Change is   -0.000023645551256
 Root      5 :     4.269217064651173   Change is   -0.000199363230394
 Root      6 :     4.279116094911962   Change is   -0.000217555450491
 Iteration     9 Dimension   100 NMult    96 NNew      4
 CISAX will form     4 AO SS matrices at one time.
 NMat=     4 NSing=     4 JSym2X= 0.
 Root      1 has converged.
 Root      2 has converged.
 Root      3 has converged.
 Root      4 has converged.
 Root      5 has converged.
 Root      6 has converged.
 Excitation Energies [eV] at current iteration:
 Root      1 :     3.425050620309228   Change is   -0.000000035799752
 Root      2 :     3.450776930948430   Change is   -0.000000082519096
 Root      3 :     4.110149305569520   Change is   -0.000000724088614
 Root      4 :     4.112050677222480   Change is   -0.000001373916230
 Root      5 :     4.269204833756176   Change is   -0.000012230894997
 Root      6 :     4.279101619206870   Change is   -0.000014475705093
 Convergence achieved on expansion vectors.
 ***********************************************************************
 Excited states from <AA,BB:AA,BB> singles matrix:
 ***********************************************************************
 
 1PDM for each excited state written to RWF  633
 Ground to excited state transition densities written to RWF  633
 Ground to excited state transition electric dipole moments (Au):
       state          X           Y           Z        Dip. S.      Osc.
         1        -0.0069     -0.3900      0.2514      0.2153      0.0181
         2         1.8007     -0.0015      0.0010      3.2424      0.2741
         3        -0.0010      0.0177      0.0014      0.0003      0.0000
         4         0.1478      0.0002      0.0000      0.0219      0.0022
         5        -0.0030      0.2460      0.2745      0.1359      0.0142
         6        -0.4524     -0.0005     -0.0010      0.2047      0.0215
 Ground to excited state transition velocity dipole moments (Au):
       state          X           Y           Z        Dip. S.      Osc.
         1         0.0008      0.0498     -0.0334      0.0036      0.0191
         2        -0.2182      0.0002     -0.0001      0.0476      0.2503
         3         0.0001     -0.0002      0.0031      0.0000      0.0000
         4        -0.0206     -0.0000     -0.0000      0.0004      0.0019
         5         0.0004     -0.0358     -0.0427      0.0031      0.0132
         6         0.0673      0.0001      0.0002      0.0045      0.0192
 Ground to excited state transition magnetic dipole moments (Au):
       state          X           Y           Z
         1        -0.0014      2.1976      0.4466
         2         0.3401      0.0082      0.0019
         3        -0.0090      0.1991      0.3729
         4         1.1818      0.0020      0.0030
         5         0.0051     -0.5176      0.9595
         6         0.5023      0.0056     -0.0083
 Ground to excited state transition velocity quadrupole moments (Au):
       state          XX          YY          ZZ          XY          XZ          YZ
         1        -0.0007      0.0017     -0.0002      1.0266     -0.0572     -0.0011
         2         0.2400     -0.4885      0.0792      0.0040     -0.0002      0.2755
         3        -0.0003     -0.0009      0.0007      0.1130      0.0310     -0.0002
         4         0.0454      0.1129     -0.1036      0.0010      0.0003      0.0361
         5        -0.0011      0.0006      0.0000      0.1484      0.0643     -0.0001
         6        -0.2060      0.0909      0.0253     -0.0011     -0.0004     -0.0155
 <0|del|b> * <b|rxdel|0> + <0|del|b> * <b|delr+rdel|0>
 Rotatory Strengths (R) in cgs (10**-40 erg-esu-cm/Gauss)
       state          XX          YY          ZZ    R(velocity)    E-M Angle
         1       177.3116     54.4484    299.6092    177.1230       45.34
         2         0.0033   -374.5233    -39.3150   -137.9450      178.53
         3         3.4551      1.8916     -0.1205      1.7421       32.30
         4        -0.0001    -58.7838    -55.3025    -38.0288       90.00
         5       -59.8250    -78.1247     36.5270    -33.8076      111.74
         6        -0.0027     73.7056     78.4150     50.7060        1.24
 1/2[<0|r|b>*<b|rxdel|0> + (<0|rxdel|b>*<b|r|0>)*]
 Rotatory Strengths (R) in cgs (10**-40 erg-esu-cm/Gauss)
       state          XX          YY          ZZ     R(length)
         1        -0.0067    606.0515    -79.3980    175.5489
         2      -433.0557      0.0090     -0.0013   -144.3494
         3        -0.0062     -2.4878     -0.3775     -0.9572
         4      -123.5516     -0.0002     -0.0001    -41.1840
         5         0.0109     90.0475   -186.2588    -32.0668
         6       160.7018      0.0020     -0.0061     53.5659
  1/2[<0|del|b>*<b|r|0> + (<0|r|b>*<b|del|0>)*] (Au)
       state          X           Y           Z        Dip. S.   Osc.(frdel)
         1        -0.0000     -0.0194     -0.0084      0.0278      0.0186
         2        -0.3929     -0.0000     -0.0000      0.3929      0.2620
         3        -0.0000     -0.0000      0.0000     -0.0000     -0.0000
         4        -0.0030     -0.0000     -0.0000      0.0030      0.0020
         5        -0.0000     -0.0088     -0.0117      0.0205      0.0137
         6        -0.0305     -0.0000     -0.0000      0.0305      0.0203

 Excitation energies and oscillator strengths:
 
 Excited State   1:      Singlet-A      3.4251 eV  361.99 nm  f=0.0181  <S**2>=0.000
     103 ->105        -0.44966
     104 ->106         0.53499
 This state for optimization and/or second-order correction.
 Total Energy, E(TD-HF/TD-DFT) =  -1266.56168082    
 Copying the excited state density for this state as the 1-particle RhoCI density.
 
 Excited State   2:      Singlet-A      3.4508 eV  359.29 nm  f=0.2741  <S**2>=0.000
     103 ->106        -0.36348
     104 ->105         0.59632
 
 Excited State   3:      Singlet-A      4.1101 eV  301.65 nm  f=0.0000  <S**2>=0.000
      98 ->108         0.10583
      99 ->107         0.13285
     100 ->106        -0.12907
     100 ->107         0.10669
     101 ->105         0.43274
     101 ->108        -0.22167
     102 ->106         0.35130
     102 ->107        -0.23543
 
 Excited State   4:      Singlet-A      4.1121 eV  301.51 nm  f=0.0022  <S**2>=0.000
      98 ->107         0.11620
      99 ->108         0.11890
     100 ->105        -0.14828
     101 ->106         0.37856
     101 ->107        -0.26846
     102 ->105         0.39923
     102 ->108        -0.19340
 
 Excited State   5:      Singlet-A      4.2692 eV  290.42 nm  f=0.0142  <S**2>=0.000
      98 ->105         0.32792
      98 ->108         0.19516
      99 ->106         0.36709
      99 ->107         0.19136
     101 ->108         0.10711
     102 ->107         0.12413
     103 ->105        -0.27349
     104 ->106        -0.22250
 
 Excited State   6:      Singlet-A      4.2791 eV  289.74 nm  f=0.0215  <S**2>=0.000
      98 ->106        -0.27596
      98 ->107        -0.14976
      99 ->105        -0.25201
      99 ->108        -0.15085
     103 ->106         0.45347
     104 ->105         0.27480
 SavETr:  write IOETrn=   770 NScale= 10 NData=  16 NLR=1 NState=    6 LETran=     118.
 Leave Link  914 at Thu Jan 22 19:17:56 2026, MaxMem=  2147483648 cpu:           37496.1 elap:            1176.2
 (Enter /data/home/wyx/g16/l601.exe)
 Copying SCF densities to generalized density rwf, IOpCl= 0 IROHF=0.

 **********************************************************************

            Population analysis using the SCF density.

 **********************************************************************

 Orbital symmetries:
       Occupied  (A) (A) (A) (A) (A) (A) (A) (A) (A) (A) (A) (A)
                 (A) (A) (A) (A) (A) (A) (A) (A) (A) (A) (A) (A)
                 (A) (A) (A) (A) (A) (A) (A) (A) (A) (A) (A) (A)
                 (A) (A) (A) (A) (A) (A) (A) (A) (A) (A) (A) (A)
                 (A) (A) (A) (A) (A) (A) (A) (A) (A) (A) (A) (A)
                 (A) (A) (A) (A) (A) (A) (A) (A) (A) (A) (A) (A)
                 (A) (A) (A) (A) (A) (A) (A) (A) (A) (A) (A) (A)
                 (A) (A) (A) (A) (A) (A) (A) (A) (A) (A) (A) (A)
                 (A) (A) (A) (A) (A) (A) (A) (A)
       Virtual   (A) (A) (A) (A) (A) (A) (A) (A) (A) (A) (A) (A)
                 (A) (A) (A) (A) (A) (A) (A) (A) (A) (A) (A) (A)
                 (A) (A) (A) (A) (A) (A) (A) (A) (A) (A) (A) (A)
                 (A) (A) (A) (A) (A) (A) (A) (A) (A) (A) (A) (A)
                 (A) (A) (A) (A) (A) (A) (A) (A) (A) (A) (A) (A)
                 (A) (A) (A) (A) (A) (A) (A) (A) (A) (A) (A) (A)
                 (A) (A) (A) (A) (A) (A) (A) (A) (A) (A) (A) (A)
                 (A) (A) (A) (A) (A) (A) (A) (A) (A) (A) (A) (A)
                 (A) (A) (A) (A) (A) (A) (A) (A) (A) (A) (A) (A)
                 (A) (A) (A) (A) (A) (A) (A) (A) (A) (A) (A) (A)
                 (A) (A) (A) (A) (A) (A) (A) (A) (A) (A) (A) (A)
                 (A) (A) (A) (A) (A) (A) (A) (A) (A) (A) (A) (A)
                 (A) (A) (A) (A) (A) (A) (A) (A) (A) (A) (A) (A)
                 (A) (A) (A) (A) (A) (A) (A) (A) (A) (A) (A) (A)
                 (A) (A) (A) (A) (A) (A) (A) (A) (A) (A) (A) (A)
                 (A) (A) (A) (A) (A) (A) (A) (A) (A) (A) (A) (A)
                 (A) (A) (A) (A) (A) (A) (A) (A) (A) (A) (A) (A)
                 (A) (A) (A) (A) (A) (A) (A) (A) (A) (A) (A) (A)
                 (A) (A) (A) (A) (A) (A) (A) (A) (A) (A) (A) (A)
                 (A) (A) (A) (A) (A) (A) (A) (A) (A) (A) (A) (A)
                 (A) (A) (A) (A) (A) (A) (A) (A) (A) (A) (A) (A)
                 (A) (A) (A) (A) (A) (A) (A) (A) (A) (A) (A) (A)
                 (A) (A) (A) (A) (A) (A) (A) (A) (A) (A) (A) (A)
                 (A) (A) (A) (A) (A) (A) (A) (A) (A) (A) (A) (A)
                 (A) (A) (A) (A) (A) (A) (A) (A) (A) (A) (A) (A)
                 (A) (A) (A) (A) (A) (A) (A) (A) (A) (A) (A) (A)
                 (A) (A) (A) (A) (A) (A) (A) (A) (A) (A) (A) (A)
                 (A) (A) (A) (A) (A) (A) (A) (A) (A) (A) (A) (A)
                 (A) (A) (A) (A) (A) (A) (A) (A) (A) (A) (A) (A)
                 (A) (A) (A) (A) (A) (A) (A) (A) (A) (A) (A) (A)
                 (A) (A) (A) (A) (A) (A) (A) (A) (A) (A) (A) (A)
                 (A) (A) (A) (A) (A) (A) (A) (A) (A) (A) (A) (A)
                 (A) (A) (A) (A) (A) (A) (A) (A) (A) (A) (A) (A)
                 (A) (A) (A) (A) (A) (A) (A) (A) (A) (A) (A) (A)
                 (A) (A) (A) (A) (A) (A) (A) (A) (A) (A) (A) (A)
                 (A) (A) (A) (A) (A) (A) (A) (A) (A) (A) (A) (A)
                 (A) (A) (A) (A) (A) (A) (A) (A) (A) (A) (A) (A)
                 (A) (A) (A) (A) (A) (A) (A) (A) (A) (A) (A) (A)
                 (A) (A) (A) (A) (A) (A) (A) (A) (A) (A) (A) (A)
                 (A) (A) (A) (A) (A) (A) (A) (A) (A) (A) (A) (A)
                 (A) (A) (A) (A) (A) (A) (A) (A) (A) (A) (A) (A)
                 (A) (A) (A) (A) (A) (A) (A) (A) (A) (A) (A) (A)
                 (A) (A) (A) (A) (A) (A) (A) (A) (A) (A) (A) (A)
                 (A) (A) (A) (A) (A) (A) (A) (A) (A) (A) (A) (A)
                 (A) (A) (A) (A) (A) (A) (A) (A) (A) (A) (A) (A)
                 (A) (A) (A) (A) (A) (A) (A) (A) (A) (A) (A) (A)
                 (A) (A) (A) (A) (A) (A) (A) (A) (A) (A) (A) (A)
                 (A) (A) (A) (A) (A) (A) (A) (A) (A) (A) (A) (A)
                 (A) (A) (A) (A) (A) (A) (A) (A) (A) (A) (A) (A)
                 (A) (A) (A) (A) (A) (A) (A) (A) (A) (A) (A) (A)
                 (A) (A) (A) (A) (A) (A) (A) (A)
 The electronic state is 1-A.
 Alpha  occ. eigenvalues --  -19.17968 -19.17967 -19.17557 -19.17556 -14.43989
 Alpha  occ. eigenvalues --  -14.43989 -10.33449 -10.33447 -10.33188 -10.33188
 Alpha  occ. eigenvalues --  -10.31960 -10.31959 -10.31432 -10.31431 -10.25390
 Alpha  occ. eigenvalues --  -10.25389 -10.25035 -10.25033 -10.24924 -10.24923
 Alpha  occ. eigenvalues --  -10.24477 -10.24476 -10.24313 -10.24312 -10.23936
 Alpha  occ. eigenvalues --  -10.23935 -10.23865 -10.23865  -1.12135  -1.12020
 Alpha  occ. eigenvalues --   -1.11692  -1.11665  -1.07391  -1.07296  -0.91270
 Alpha  occ. eigenvalues --   -0.91083  -0.90263  -0.90177  -0.83887  -0.83711
 Alpha  occ. eigenvalues --   -0.82443  -0.82399  -0.81418  -0.81216  -0.78444
 Alpha  occ. eigenvalues --   -0.78333  -0.74124  -0.74097  -0.71084  -0.70987
 Alpha  occ. eigenvalues --   -0.68561  -0.68349  -0.61761  -0.61567  -0.58138
 Alpha  occ. eigenvalues --   -0.58109  -0.56877  -0.56837  -0.56617  -0.54656
 Alpha  occ. eigenvalues --   -0.54465  -0.54161  -0.53798  -0.53316  -0.53311
 Alpha  occ. eigenvalues --   -0.52390  -0.52372  -0.52086  -0.50248  -0.50213
 Alpha  occ. eigenvalues --   -0.50005  -0.49753  -0.49581  -0.49496  -0.49233
 Alpha  occ. eigenvalues --   -0.49182  -0.48409  -0.48387  -0.47865  -0.47232
 Alpha  occ. eigenvalues --   -0.46613  -0.46485  -0.45489  -0.45442  -0.44864
 Alpha  occ. eigenvalues --   -0.44762  -0.43869  -0.43314  -0.43059  -0.42981
 Alpha  occ. eigenvalues --   -0.42873  -0.42302  -0.41978  -0.41784  -0.41642
 Alpha  occ. eigenvalues --   -0.41513  -0.33933  -0.32530  -0.32313  -0.31977
 Alpha  occ. eigenvalues --   -0.31405  -0.31394  -0.26425  -0.25412
 Alpha virt. eigenvalues --   -0.02514  -0.02190   0.02213   0.02929   0.05820
 Alpha virt. eigenvalues --    0.06892   0.08411   0.08812   0.09749   0.09807
 Alpha virt. eigenvalues --    0.10091   0.10932   0.11415   0.11660   0.12433
 Alpha virt. eigenvalues --    0.12504   0.13115   0.13503   0.14044   0.14333
 Alpha virt. eigenvalues --    0.14422   0.15029   0.15245   0.15604   0.16265
 Alpha virt. eigenvalues --    0.16549   0.16993   0.17016   0.17412   0.17639
 Alpha virt. eigenvalues --    0.17880   0.18152   0.18367   0.19044   0.19202
 Alpha virt. eigenvalues --    0.19929   0.19986   0.20600   0.20844   0.20891
 Alpha virt. eigenvalues --    0.21129   0.22371   0.22575   0.22922   0.23159
 Alpha virt. eigenvalues --    0.24113   0.24448   0.24628   0.25142   0.25814
 Alpha virt. eigenvalues --    0.25867   0.26357   0.26659   0.26857   0.27351
 Alpha virt. eigenvalues --    0.27677   0.27695   0.28165   0.28784   0.29452
 Alpha virt. eigenvalues --    0.29787   0.30300   0.30690   0.30700   0.31014
 Alpha virt. eigenvalues --    0.31214   0.31366   0.32183   0.32314   0.33174
 Alpha virt. eigenvalues --    0.33797   0.34217   0.34717   0.34792   0.35179
 Alpha virt. eigenvalues --    0.36036   0.36075   0.36662   0.36723   0.37307
 Alpha virt. eigenvalues --    0.37422   0.38128   0.39204   0.39348   0.39550
 Alpha virt. eigenvalues --    0.40159   0.40712   0.41519   0.41775   0.42641
 Alpha virt. eigenvalues --    0.42693   0.43387   0.43438   0.44199   0.45121
 Alpha virt. eigenvalues --    0.45131   0.45608   0.45640   0.45823   0.45831
 Alpha virt. eigenvalues --    0.46447   0.46835   0.46850   0.47504   0.47875
 Alpha virt. eigenvalues --    0.48088   0.48360   0.48539   0.49070   0.49306
 Alpha virt. eigenvalues --    0.49377   0.50437   0.50595   0.50692   0.50776
 Alpha virt. eigenvalues --    0.51171   0.51353   0.51600   0.52079   0.52480
 Alpha virt. eigenvalues --    0.52972   0.53615   0.53844   0.53876   0.54661
 Alpha virt. eigenvalues --    0.54805   0.55036   0.55487   0.55766   0.56408
 Alpha virt. eigenvalues --    0.56626   0.56878   0.56974   0.57933   0.58292
 Alpha virt. eigenvalues --    0.58765   0.58979   0.59389   0.59910   0.60193
 Alpha virt. eigenvalues --    0.60469   0.60668   0.61003   0.62258   0.62347
 Alpha virt. eigenvalues --    0.62499   0.62583   0.63654   0.64546   0.65280
 Alpha virt. eigenvalues --    0.65614   0.66311   0.66375   0.66893   0.67363
 Alpha virt. eigenvalues --    0.67929   0.68017   0.68347   0.68426   0.68906
 Alpha virt. eigenvalues --    0.69950   0.70789   0.71376   0.71608   0.71930
 Alpha virt. eigenvalues --    0.72609   0.72999   0.73859   0.74103   0.74449
 Alpha virt. eigenvalues --    0.75043   0.75389   0.75944   0.76189   0.76531
 Alpha virt. eigenvalues --    0.77045   0.77605   0.77768   0.78247   0.78601
 Alpha virt. eigenvalues --    0.78958   0.80053   0.80361   0.81294   0.82288
 Alpha virt. eigenvalues --    0.82324   0.82941   0.83657   0.84144   0.85166
 Alpha virt. eigenvalues --    0.85242   0.85942   0.89325   0.89965   0.90224
 Alpha virt. eigenvalues --    0.91339   0.92190   0.92654   0.93468   0.95091
 Alpha virt. eigenvalues --    0.95668   0.98586   1.00534   1.01343   1.03307
 Alpha virt. eigenvalues --    1.05269   1.05715   1.09571   1.21091   1.24256
 Alpha virt. eigenvalues --    1.25736   1.26088   1.27047   1.28470   1.29584
 Alpha virt. eigenvalues --    1.30448   1.30781   1.31810   1.33376   1.34021
 Alpha virt. eigenvalues --    1.34109   1.34339   1.36318   1.36729   1.37622
 Alpha virt. eigenvalues --    1.37764   1.37849   1.38101   1.38574   1.38736
 Alpha virt. eigenvalues --    1.39398   1.40006   1.40309   1.40444   1.40981
 Alpha virt. eigenvalues --    1.41448   1.41776   1.42268   1.42283   1.42662
 Alpha virt. eigenvalues --    1.42779   1.43104   1.43354   1.44156   1.44789
 Alpha virt. eigenvalues --    1.44932   1.45486   1.46102   1.47147   1.47219
 Alpha virt. eigenvalues --    1.47343   1.47844   1.48253   1.48510   1.49417
 Alpha virt. eigenvalues --    1.50174   1.50185   1.50637   1.51144   1.52393
 Alpha virt. eigenvalues --    1.53046   1.53547   1.53765   1.54460   1.55149
 Alpha virt. eigenvalues --    1.55424   1.56423   1.56469   1.57646   1.57817
 Alpha virt. eigenvalues --    1.58880   1.59243   1.59491   1.60010   1.60272
 Alpha virt. eigenvalues --    1.60822   1.61033   1.61671   1.61683   1.61986
 Alpha virt. eigenvalues --    1.62837   1.63634   1.63925   1.64558   1.64602
 Alpha virt. eigenvalues --    1.65063   1.65330   1.65533   1.65751   1.66254
 Alpha virt. eigenvalues --    1.66573   1.66683   1.67037   1.67447   1.67673
 Alpha virt. eigenvalues --    1.68256   1.68839   1.69314   1.69752   1.69950
 Alpha virt. eigenvalues --    1.70120   1.70242   1.71587   1.71658   1.71758
 Alpha virt. eigenvalues --    1.72488   1.72788   1.73666   1.73674   1.74625
 Alpha virt. eigenvalues --    1.74652   1.75208   1.75807   1.76182   1.76446
 Alpha virt. eigenvalues --    1.77163   1.77169   1.78563   1.78964   1.79483
 Alpha virt. eigenvalues --    1.80085   1.81355   1.82589   1.83228   1.84230
 Alpha virt. eigenvalues --    1.84724   1.85116   1.85246   1.85600   1.86532
 Alpha virt. eigenvalues --    1.87740   1.88072   1.88603   1.89169   1.90129
 Alpha virt. eigenvalues --    1.90433   1.90887   1.91478   1.91922   1.92336
 Alpha virt. eigenvalues --    1.92990   1.93953   1.94261   1.94846   1.95300
 Alpha virt. eigenvalues --    1.96366   1.96761   1.97294   1.98743   1.99026
 Alpha virt. eigenvalues --    1.99741   2.00140   2.01201   2.01947   2.02568
 Alpha virt. eigenvalues --    2.03112   2.03780   2.03927   2.04979   2.07028
 Alpha virt. eigenvalues --    2.07467   2.07496   2.08340   2.09051   2.09174
 Alpha virt. eigenvalues --    2.12031   2.12783   2.12876   2.14466   2.14750
 Alpha virt. eigenvalues --    2.14823   2.15368   2.16472   2.17018   2.18368
 Alpha virt. eigenvalues --    2.19063   2.20188   2.21757   2.22605   2.22741
 Alpha virt. eigenvalues --    2.22851   2.23512   2.23993   2.24709   2.24852
 Alpha virt. eigenvalues --    2.25911   2.27047   2.27080   2.28300   2.28750
 Alpha virt. eigenvalues --    2.30161   2.30256   2.30897   2.31893   2.32240
 Alpha virt. eigenvalues --    2.32627   2.33537   2.33945   2.34377   2.34860
 Alpha virt. eigenvalues --    2.35661   2.36029   2.37636   2.38200   2.39026
 Alpha virt. eigenvalues --    2.39253   2.41139   2.41690   2.42057   2.42153
 Alpha virt. eigenvalues --    2.42937   2.43346   2.43936   2.44508   2.45339
 Alpha virt. eigenvalues --    2.45919   2.46362   2.47369   2.48475   2.49298
 Alpha virt. eigenvalues --    2.49378   2.50644   2.51124   2.51457   2.52058
 Alpha virt. eigenvalues --    2.52930   2.53103   2.53236   2.53681   2.55631
 Alpha virt. eigenvalues --    2.56090   2.56327   2.56590   2.57687   2.58837
 Alpha virt. eigenvalues --    2.58872   2.59885   2.59967   2.61123   2.61437
 Alpha virt. eigenvalues --    2.62120   2.62304   2.63225   2.63759   2.64445
 Alpha virt. eigenvalues --    2.65001   2.66535   2.66704   2.67053   2.67669
 Alpha virt. eigenvalues --    2.68146   2.68772   2.70276   2.70537   2.71759
 Alpha virt. eigenvalues --    2.72254   2.73411   2.73484   2.73661   2.75066
 Alpha virt. eigenvalues --    2.75106   2.75320   2.76190   2.76942   2.77554
 Alpha virt. eigenvalues --    2.77991   2.78554   2.79053   2.79327   2.80203
 Alpha virt. eigenvalues --    2.80714   2.81155   2.81196   2.81572   2.81657
 Alpha virt. eigenvalues --    2.82588   2.82960   2.83809   2.84126   2.84668
 Alpha virt. eigenvalues --    2.85514   2.85956   2.87052   2.87657   2.87777
 Alpha virt. eigenvalues --    2.88847   2.89708   2.90570   2.90795   2.91203
 Alpha virt. eigenvalues --    2.92464   2.93035   2.94175   2.94270   2.95337
 Alpha virt. eigenvalues --    2.96412   2.97474   2.98126   2.99438   3.00028
 Alpha virt. eigenvalues --    3.01219   3.02121   3.02712   3.02793   3.03825
 Alpha virt. eigenvalues --    3.04129   3.12374   3.12701   3.13772   3.14277
 Alpha virt. eigenvalues --    3.14888   3.16966   3.17799   3.18987   3.20314
 Alpha virt. eigenvalues --    3.21969   3.22222   3.22575   3.24330   3.25079
 Alpha virt. eigenvalues --    3.25390   3.26130   3.27441   3.28116   3.28174
 Alpha virt. eigenvalues --    3.28813   3.29563   3.30504   3.31356   3.32267
 Alpha virt. eigenvalues --    3.32664   3.33516   3.35631   3.36221   3.36569
 Alpha virt. eigenvalues --    3.36756   3.37235   3.37440   3.39813   3.39860
 Alpha virt. eigenvalues --    3.40374   3.40461   3.41541   3.41597   3.42357
 Alpha virt. eigenvalues --    3.42843   3.43213   3.43426   3.43917   3.44382
 Alpha virt. eigenvalues --    3.44957   3.45238   3.46565   3.47894   3.48152
 Alpha virt. eigenvalues --    3.48595   3.51028   3.51897   3.52366   3.54254
 Alpha virt. eigenvalues --    3.56471   3.56538   3.57926   3.57969   3.59447
 Alpha virt. eigenvalues --    3.59767   3.63315   3.63604   3.65958   3.66141
 Alpha virt. eigenvalues --    3.66766   3.66944   3.95643   3.95867   4.02304
 Alpha virt. eigenvalues --    4.02740   4.38036   4.38173   4.38466   4.38782
 Alpha virt. eigenvalues --   21.76278  21.92512  21.98778  22.10372  22.15335
 Alpha virt. eigenvalues --   22.16599  22.17136  22.17819  22.18993  22.21082
 Alpha virt. eigenvalues --   22.21702  22.22615  22.24588  22.25623  22.31537
 Alpha virt. eigenvalues --   22.31976  22.36603  22.38667  22.38938  22.40887
 Alpha virt. eigenvalues --   22.43541  22.45380  32.03425  32.08572  43.70784
 Alpha virt. eigenvalues --   43.73208  43.75098  43.80162
          Condensed to atoms (all electrons):
 Mulliken charges:
               1
     1  O   -0.371130
     2  O   -0.371095
     3  O   -0.382369
     4  O   -0.382369
     5  N   -0.228665
     6  N   -0.228704
     7  H    0.288164
     8  H    0.288152
     9  C   -0.071749
    10  C   -0.071739
    11  C    0.170577
    12  C    0.170569
    13  C    0.213443
    14  C    0.213540
    15  C    0.131336
    16  C    0.131413
    17  C   -0.255080
    18  C   -0.255278
    19  H    0.151928
    20  H    0.164307
    21  H    0.164319
    22  H    0.152059
    23  C   -0.064464
    24  C   -0.064398
    25  C    0.106536
    26  C    0.106103
    27  C   -0.446993
    28  C   -0.447109
    29  H    0.133659
    30  H    0.133666
    31  H    0.167246
    32  H    0.179160
    33  H    0.179137
    34  H    0.167268
    35  C   -0.426077
    36  C   -0.426077
    37  H    0.154611
    38  H    0.154610
    39  H    0.162771
    40  H    0.148432
    41  H    0.148462
    42  H    0.162799
    43  C   -0.475428
    44  C   -0.474809
    45  H    0.161712
    46  H    0.173391
    47  H    0.173816
    48  H    0.161854
    49  H    0.160416
    50  H    0.160443
    51  C   -0.475769
    52  C   -0.475564
    53  H    0.180384
    54  H    0.190532
    55  H    0.190934
    56  H    0.180582
    57  H    0.158260
    58  H    0.158272
 Sum of Mulliken charges =  -0.00000
 Mulliken charges with hydrogens summed into heavy atoms:
               1
     1  O   -0.371130
     2  O   -0.371095
     3  O   -0.382369
     4  O   -0.382369
     5  N    0.059499
     6  N    0.059448
     9  C   -0.071749
    10  C   -0.071739
    11  C    0.170577
    12  C    0.170569
    13  C    0.213443
    14  C    0.213540
    15  C    0.131336
    16  C    0.131413
    17  C    0.061168
    18  C    0.061088
    23  C   -0.064464
    24  C   -0.064398
    25  C    0.106536
    26  C    0.106103
    27  C    0.033049
    28  C    0.032985
    35  C    0.039767
    36  C    0.039765
    43  C    0.020515
    44  C    0.020879
    51  C    0.053810
    52  C    0.053823
 Electronic spatial extent (au):  <R**2>=           8672.5013
 Charge=              0.0000 electrons
 Dipole moment (field-independent basis, Debye):
    X=             -2.6876    Y=              0.0005    Z=              0.0006  Tot=              2.6876
 Quadrupole moment (field-independent basis, Debye-Ang):
   XX=           -209.6969   YY=           -185.4864   ZZ=           -132.8053
   XY=             -0.0093   XZ=              0.0006   YZ=             -1.0835
 Traceless Quadrupole moment (field-independent basis, Debye-Ang):
   XX=            -33.7007   YY=             -9.4902   ZZ=             43.1909
   XY=             -0.0093   XZ=              0.0006   YZ=             -1.0835
 Octapole moment (field-independent basis, Debye-Ang**2):
  XXX=           -103.5767  YYY=             -0.0027  ZZZ=              0.0067  XYY=             13.6452
  XXY=              0.0056  XXZ=             -0.0017  XZZ=             -2.4432  YZZ=              0.0018
  YYZ=              0.0049  XYZ=            -15.0599
 Hexadecapole moment (field-independent basis, Debye-Ang**3):
 XXXX=          -5876.6667 YYYY=          -3568.6977 ZZZZ=          -2434.6377 XXXY=             -0.1705
 XXXZ=              0.0599 YYYX=             -0.0734 YYYZ=            -30.2639 ZZZX=             -0.0363
 ZZZY=            -70.4989 XXYY=          -1846.5419 XXZZ=          -1212.2482 YYZZ=          -1050.2832
 XXYZ=             97.2617 YYXZ=              0.0047 ZZXY=             -0.0021
 N-N= 2.973136236941D+03 E-N=-8.898090255427D+03  KE= 1.261468984468D+03
 Leave Link  601 at Thu Jan 22 19:17:59 2026, MaxMem=  2147483648 cpu:               4.8 elap:               0.2
 (Enter /data/home/wyx/g16/l9999.exe)
 Electronic transition elements 
                 1             2             3             4             5 
      1  -0.126656D+04 -0.126656D+04 -0.126654D+04 -0.126654D+04 -0.126653D+04
      2  -0.160426D-01 -0.177279D+01  0.346350D-02 -0.145513D+00  0.671630D-01
      3  -0.444885D+00 -0.292701D-02  0.104362D-01 -0.239135D-04 -0.477287D-01
      4   0.130977D+00 -0.315686D+00 -0.139396D-01 -0.261141D-01 -0.359287D+00
      5   0.193552D-02  0.214845D+00  0.212251D-03  0.203055D-01 -0.100880D-01
      6   0.578300D-01  0.371435D-03 -0.250385D-02  0.000000D+00  0.909461D-02
      7  -0.158960D-01  0.382297D-01 -0.185557D-02  0.363895D-02  0.540421D-01
      8   0.344377D+00 -0.333488D+00  0.782027D-01 -0.116283D+01  0.365697D-01
      9   0.109427D+01  0.370431D-02 -0.152885D+00 -0.176013D-02 -0.106502D+01
     10  -0.192690D+01 -0.670869D-01 -0.386333D+00 -0.210926D+00 -0.230314D+00
     11  -0.256025D+00  0.232403D+00 -0.369034D-01  0.453913D-01 -0.544222D-01
     12   0.723310D-03 -0.434499D+00  0.141368D-03 -0.471910D-01  0.335209D-03
     13   0.256056D+00  0.327552D-01  0.361929D-01  0.565395D-01  0.535611D-01
     14  -0.701527D+00 -0.588040D-01 -0.495134D-01  0.174931D-01 -0.471836D-01
     15   0.695416D+00  0.396862D-01  0.993998D-01 -0.102300D-02  0.144722D+00
     16  -0.125759D+00  0.316505D+00 -0.796219D-02 -0.100126D+00 -0.862894D-02
                 6 
      1  -0.126653D+04
      2   0.445219D+00
      3   0.745452D-03
      4   0.804861D-01
      5  -0.662756D-01
      6  -0.132352D-03
      7  -0.119768D-01
      8  -0.494690D+00
      9   0.962107D-02
     10  -0.870200D-01
     11  -0.197779D+00
     12   0.685617D-01
     13   0.394691D-01
     14   0.629536D-02
     15  -0.448657D-01
     16  -0.342021D-01
 1\1\GINC-CN012\SP\RCAM-B3LYP TD-FC\TZVP\C22H30N2O4\WYX\22-Jan-2026\0\\
 #p CAM-B3LYP/TZVP em=gd3bj TD=NStates=6 SCRF=Solvent=Water Geom=Check 
 Guess=Read\\Title Card Required\\0,1\O,0,-1.7969550178,4.1907943091,0.
 1694242807\O,0,-2.337746604,1.1004923771,3.2158130728\O,0,-7.965540741
 8,4.3847922166,-0.9653334272\O,0,-8.5179637352,0.8981289916,2.14804608
 63\N,0,-5.2453330621,1.1669380007,-0.6593028104\N,0,-5.8638940573,4.11
 96732297,2.8003918715\H,0,-5.5690751968,0.2171440516,-0.7369738739\H,0
 ,-6.1958510098,5.0690105781,2.7616087928\C,0,-5.7916556053,3.456203609
 3,-0.7515557188\C,0,-6.4054516008,1.8296646223,2.6987990774\C,0,-3.911
 214333,1.3594018725,-0.3815141581\C,0,-4.5157636211,3.9290313437,3.001
 0479048\C,0,-6.1766735116,2.1623512789,-0.8367811392\C,0,-6.7978810288
 ,3.1229854803,2.6453302764\C,0,-6.7501836322,4.5487441457,-0.901927519
 5\C,0,-7.3554833629,0.7358213378,2.5089840661\C,0,-4.345337512,3.80962
 00597,-0.4953025173\C,0,-4.9592271724,1.4782042452,2.9582934359\H,0,-4
 .2669131936,4.4502159157,0.384859421\H,0,-4.8687099918,0.8661149159,3.
 860759422\H,0,-3.949271988,4.4219495362,-1.3110784406\H,0,-4.580524417
 7,0.8380407272,2.1595606848\C,0,-3.4314511005,2.6213293751,-0.29951188
 92\C,0,-4.0355729618,2.6677479135,3.0902403218\C,0,-2.0523628074,2.999
 0092052,0.0030933052\C,0,-2.6363693002,2.2919534141,3.2828722706\C,0,-
 7.5528226588,1.6462668223,-1.1067663033\C,0,-8.1832258065,3.6372196628
 ,2.4230323118\H,0,-7.5097475927,0.6011859816,-1.413579216\H,0,-8.25038
 90586,4.6820305772,2.7264148682\H,0,-8.0482205285,2.2302713847,-1.8752
 641277\H,0,-8.4447305893,3.5725345739,1.3669735453\H,0,-8.1635292991,1
 .7112482816,-0.2064220454\H,0,-8.9130019783,3.0518497685,2.9724027162\
 C,0,-6.1937026295,5.9491535799,-0.967876124\C,0,-6.8544284837,-0.66383
 26775,2.7640907571\H,0,-7.0097549088,6.6507504783,-1.1178697332\H,0,-7
 .6711242432,-1.3665145604,2.6229353597\H,0,-5.4713255813,6.047003472,-
 1.7796720296\H,0,-6.0413757801,-0.9132113952,2.0800088625\H,0,-5.66780
 51205,6.1991643036,-0.044753549\H,0,-6.457338245,-0.7606393012,3.77571
 16557\C,0,-0.9202632306,2.010384292,0.1093164033\C,0,-1.538510269,3.28
 21712359,3.573538045\H,0,-0.8705196804,1.3509041617,-0.7546135562\H,0,
 -1.3334648571,3.9038229448,2.7021724916\H,0,-1.0264039333,1.3908050988
 ,0.9996618228\H,0,-1.7899922285,3.9395722046,4.4032503558\H,0,0.006835
 5252,2.5727945068,0.1849394627\H,0,-0.6408288981,2.7210525689,3.820206
 0998\C,0,-3.1687659807,0.0700975663,-0.1871745129\C,0,-3.7534581212,5.
 2192988893,3.0746451601\H,0,-2.6401257802,0.0575494213,0.7620474667\H,
 0,-3.3507295724,5.3882545966,4.0714178228\H,0,-2.4493368885,-0.0998419
 055,-0.985888656\H,0,-2.9320535732,5.2339161129,2.363405541\H,0,-3.864
 2579733,-0.7672559386,-0.1872091062\H,0,-4.4081021688,6.0561551995,2.8
 380754158\\Version=ES64L-G16RevA.03\State=1-A\HF=-1266.6875491\RMSD=2.
 765e-09\PG=C01 [X(C22H30N2O4)]\\@


 THERE IS AN OLD, OLD RECIPE IN MAINE FOR STEWING COOT. PLACE THE
 BIRD IN A KETTLE OF WATER WITH A RED BUILDING BRICK FREE OF MORTAR AND
 BLEMISHES. PARBOIL THE COOT AND BRICK TOGETHER FOR THREE HOURS.
 POUR OFF THE WATER, REFILL THE KETTLE, AND AGAIN PARBOIL FOR THREE HOURS.
 ONCE AGAIN POUR OFF THE WATER, FOR THE LAST TIME ADD FRESH WATER,
 AND LET THE COOT AND BRICK SIMMER TOGETHER OVERNIGHT. IN THE MORNING,
 THROW AWAY THE COOT AND EAT THE BRICK.
 Job cpu time:       0 days 10 hours 40 minutes 48.8 seconds.
 Elapsed time:       0 days  0 hours 20 minutes  7.3 seconds.
 File lengths (MBytes):  RWF=   2841 Int=      0 D2E=      0 Chk=    149 Scr=      1
 Normal termination of Gaussian 16 at Thu Jan 22 19:18:04 2026.
