 Entering Gaussian System, Link 0=g16
 Input=DDL-S2min-S1-cLR-1.gjf
 Output=DDL-S2min-S1-cLR-1.log
 Initial command:
 /data/home/wyx/g16/l1.exe "/scr/tmp/wyx/13951/Gau-3031738.inp" -scrdir="/scr/tmp/wyx/13951/"
 Entering Link 1 = /data/home/wyx/g16/l1.exe PID=   3031739.
  
 Copyright (c) 1988,1990,1992,1993,1995,1998,2003,2009,2016,
            Gaussian, Inc.  All Rights Reserved.
  
 This is part of the Gaussian(R) 16 program.  It is based on
 the Gaussian(R) 09 system (copyright 2009, Gaussian, Inc.),
 the Gaussian(R) 03 system (copyright 2003, Gaussian, Inc.),
 the Gaussian(R) 98 system (copyright 1998, Gaussian, Inc.),
 the Gaussian(R) 94 system (copyright 1995, Gaussian, Inc.),
 the Gaussian 92(TM) system (copyright 1992, Gaussian, Inc.),
 the Gaussian 90(TM) system (copyright 1990, Gaussian, Inc.),
 the Gaussian 88(TM) system (copyright 1988, Gaussian, Inc.),
 the Gaussian 86(TM) system (copyright 1986, Carnegie Mellon
 University), and the Gaussian 82(TM) system (copyright 1983,
 Carnegie Mellon University). Gaussian is a federally registered
 trademark of Gaussian, Inc.
  
 This software contains proprietary and confidential information,
 including trade secrets, belonging to Gaussian, Inc.
  
 This software is provided under written license and may be
 used, copied, transmitted, or stored only in accord with that
 written license.
  
 The following legend is applicable only to US Government
 contracts under FAR:
  
                    RESTRICTED RIGHTS LEGEND
  
 Use, reproduction and disclosure by the US Government is
 subject to restrictions as set forth in subparagraphs (a)
 and (c) of the Commercial Computer Software - Restricted
 Rights clause in FAR 52.227-19.
  
 Gaussian, Inc.
 340 Quinnipiac St., Bldg. 40, Wallingford CT 06492
  
  
 ---------------------------------------------------------------
 Warning -- This program may not be used in any manner that
 competes with the business of Gaussian, Inc. or will provide
 assistance to any competitor of Gaussian, Inc.  The licensee
 of this program is prohibited from giving any competitor of
 Gaussian, Inc. access to this program.  By using this program,
 the user acknowledges that Gaussian, Inc. is engaged in the
 business of creating and licensing software in the field of
 computational chemistry and represents and warrants to the
 licensee that it is not a competitor of Gaussian, Inc. and that
 it will not use this program in any manner prohibited above.
 ---------------------------------------------------------------
  

 Cite this work as:
 Gaussian 16, Revision A.03,
 M. J. Frisch, G. W. Trucks, H. B. Schlegel, G. E. Scuseria, 
 M. A. Robb, J. R. Cheeseman, G. Scalmani, V. Barone, 
 G. A. Petersson, H. Nakatsuji, X. Li, M. Caricato, A. V. Marenich, 
 J. Bloino, B. G. Janesko, R. Gomperts, B. Mennucci, H. P. Hratchian, 
 J. V. Ortiz, A. F. Izmaylov, J. L. Sonnenberg, D. Williams-Young, 
 F. Ding, F. Lipparini, F. Egidi, J. Goings, B. Peng, A. Petrone, 
 T. Henderson, D. Ranasinghe, V. G. Zakrzewski, J. Gao, N. Rega, 
 G. Zheng, W. Liang, M. Hada, M. Ehara, K. Toyota, R. Fukuda, 
 J. Hasegawa, M. Ishida, T. Nakajima, Y. Honda, O. Kitao, H. Nakai, 
 T. Vreven, K. Throssell, J. A. Montgomery, Jr., J. E. Peralta, 
 F. Ogliaro, M. J. Bearpark, J. J. Heyd, E. N. Brothers, K. N. Kudin, 
 V. N. Staroverov, T. A. Keith, R. Kobayashi, J. Normand, 
 K. Raghavachari, A. P. Rendell, J. C. Burant, S. S. Iyengar, 
 J. Tomasi, M. Cossi, J. M. Millam, M. Klene, C. Adamo, R. Cammi, 
 J. W. Ochterski, R. L. Martin, K. Morokuma, O. Farkas, 
 J. B. Foresman, and D. J. Fox, Gaussian, Inc., Wallingford CT, 2016.
 
 ******************************************
 Gaussian 16:  ES64L-G16RevA.03 25-Dec-2016
                 9-Mar-2026 
 ******************************************
 %nprocshared=32
 Will use up to   32 processors via shared memory.
 %mem=16GB
 %oldchk=DDL-S2min-S1-cLR.chk
 %chk=DDL-S2min-S1-cLR-1.chk
 Copying data from "DDL-S2min-S1-cLR.chk" to current chk file "DDL-S2min-S1-cLR-1.chk"
 IOpt=  2 FromEx=T IUOpen= 4 IOptOp= 5 NList=   0 IFRang= 0 IUIn= 4 IUOut= 2.
 ----------------------------------------------------------------------
 #p PBE1PBE/TZVP em=gd3bj SCRF=(Solvent=Water,NonEquilibrium=Read) Geom
 =Check Guess=Read NoSymm
 ----------------------------------------------------------------------
 1/29=2,38=1,172=1/1;
 2/12=2,15=1,40=1/2;
 3/5=19,7=101,11=2,14=-4,25=1,30=1,70=6002201,72=1,74=-13,116=-2,124=41/1,2,3;
 4/5=1/1;
 5/5=2,38=6,53=1/2;
 6/7=2,8=2,9=2,10=2,28=1/1;
 99/5=1,9=1/99;
 Leave Link    1 at Mon Mar  9 21:24:25 2026, MaxMem=  2147483648 cpu:               1.8 elap:               0.1
 (Enter /data/home/wyx/g16/l101.exe)
 -------------------
 Title Card Required
 -------------------
 Structure from the checkpoint file:  "DDL-S2min-S1-cLR-1.chk"
 Charge =  0 Multiplicity = 1
 Redundant internal coordinates found in file.  (old form).
 O,0,1.385315417,9.8240861188,0.6889993483
 O,0,-4.9030260754,9.7483497138,0.1951667044
 N,0,-2.0869414834,12.909280699,0.1865649915
 H,0,-2.3982698188,13.8650968104,0.1107183678
 C,0,-2.6773899738,10.6059252065,0.2327868792
 C,0,-0.7539460999,12.7114117163,0.377154134
 C,0,-3.0600258657,11.9451994759,0.1462217621
 C,0,-3.612330246,9.5860314191,0.238914833
 C,0,-1.2102524536,10.2498455192,0.2810185995
 H,0,-1.019126927,9.5393883104,1.0901940118
 H,0,-0.921058118,9.7189842911,-0.6356810934
 C,0,-0.2791574268,11.4249604152,0.4755023243
 C,0,1.0891177093,11.0279531621,0.7145201407
 C,0,-4.4418069351,12.4619667391,-0.018368426
 H,0,-4.6733795282,13.2373709648,0.7199511947
 H,0,-4.5990543103,12.8909798919,-1.0157200977
 H,0,-5.1790166732,11.6624717226,0.1066166245
 C,0,-3.2900926918,8.1121060254,0.2859835338
 H,0,-3.7461405228,7.5979252223,-0.5639775201
 H,0,-2.2109509102,7.9797072877,0.2504912122
 H,0,-3.6853908676,7.6656163809,1.2026632835
 C,0,2.1973595831,12.0109388532,1.0139047754
 H,0,2.5077418523,12.5387131597,0.1082330196
 H,0,1.915642782,12.7580455778,1.7548859076
 H,0,3.0510728855,11.4447705868,1.3843516997
 C,0,0.0214752256,13.9894862553,0.461044611
 H,0,0.3188624929,14.211988279,1.4886124187
 H,0,0.9209460684,13.9639861243,-0.1499559704
 H,0,-0.5893481188,14.8232485213,0.1112027304
 Recover connectivity data from disk.
 ITRead=  0  0  0  0  0  0  0  0  0  0  0  0  0  0  0  0  0  0  0  0
 ITRead=  0  0  0  0  0  0  0  0  0
 MicOpt= -1 -1 -1 -1 -1 -1 -1 -1 -1 -1 -1 -1 -1 -1 -1 -1 -1 -1 -1 -1
 MicOpt= -1 -1 -1 -1 -1 -1 -1 -1 -1
                           ----------------------------
                           !    Current Parameters    !
                           ! (Angstroms and Degrees)  !
 --------------------------                            --------------------------
 ! Name  Definition              Value                                          !
 --------------------------------------------------------------------------------
 ! R1    R(1,13)                 1.24                                           !
 ! R2    R(2,8)                  1.3016                                         !
 ! R3    R(3,4)                  1.0081                                         !
 ! R4    R(3,6)                  1.361                                          !
 ! R5    R(3,7)                  1.3704                                         !
 ! R6    R(5,7)                  1.3955                                         !
 ! R7    R(5,8)                  1.3836                                         !
 ! R8    R(5,9)                  1.5105                                         !
 ! R9    R(6,12)                 1.3748                                         !
 ! R10   R(6,26)                 1.4973                                         !
 ! R11   R(7,14)                 1.4844                                         !
 ! R12   R(8,18)                 1.5095                                         !
 ! R13   R(9,10)                 1.0936                                         !
 ! R14   R(9,11)                 1.0981                                         !
 ! R15   R(9,12)                 1.5118                                         !
 ! R16   R(12,13)                1.4446                                         !
 ! R17   R(13,22)                1.5113                                         !
 ! R18   R(14,15)                1.0954                                         !
 ! R19   R(14,16)                1.097                                          !
 ! R20   R(14,17)                1.0947                                         !
 ! R21   R(18,19)                1.0931                                         !
 ! R22   R(18,20)                1.0878                                         !
 ! R23   R(18,21)                1.0936                                         !
 ! R24   R(22,23)                1.0932                                         !
 ! R25   R(22,24)                1.0893                                         !
 ! R26   R(22,25)                1.0893                                         !
 ! R27   R(26,27)                1.0926                                         !
 ! R28   R(26,28)                1.0877                                         !
 ! R29   R(26,29)                1.0912                                         !
 ! A1    A(4,3,6)              116.7982                                         !
 ! A2    A(4,3,7)              116.4564                                         !
 ! A3    A(6,3,7)              126.6771                                         !
 ! A4    A(7,5,8)              121.494                                          !
 ! A5    A(7,5,9)              119.6383                                         !
 ! A6    A(8,5,9)              118.8438                                         !
 ! A7    A(3,6,12)             118.9668                                         !
 ! A8    A(3,6,26)             113.0153                                         !
 ! A9    A(12,6,26)            128.0169                                         !
 ! A10   A(3,7,5)              118.5954                                         !
 ! A11   A(3,7,14)             114.7928                                         !
 ! A12   A(5,7,14)             126.5981                                         !
 ! A13   A(2,8,5)              125.3099                                         !
 ! A14   A(2,8,18)             109.5426                                         !
 ! A15   A(5,8,18)             125.1458                                         !
 ! A16   A(5,9,10)             110.274                                          !
 ! A17   A(5,9,11)             110.0665                                         !
 ! A18   A(5,9,12)             114.7756                                         !
 ! A19   A(10,9,11)            104.9273                                         !
 ! A20   A(10,9,12)            107.5855                                         !
 ! A21   A(11,9,12)            108.7212                                         !
 ! A22   A(6,12,9)             120.3602                                         !
 ! A23   A(6,12,13)            126.5909                                         !
 ! A24   A(9,12,13)            113.0166                                         !
 ! A25   A(1,13,12)            119.3168                                         !
 ! A26   A(1,13,22)            117.4107                                         !
 ! A27   A(12,13,22)           123.269                                          !
 ! A28   A(7,14,15)            111.6215                                         !
 ! A29   A(7,14,16)            111.7387                                         !
 ! A30   A(7,14,17)            111.0989                                         !
 ! A31   A(15,14,16)           107.7963                                         !
 ! A32   A(15,14,17)           107.317                                          !
 ! A33   A(16,14,17)           107.0308                                         !
 ! A34   A(8,18,19)            110.2435                                         !
 ! A35   A(8,18,20)            109.2447                                         !
 ! A36   A(8,18,21)            110.343                                          !
 ! A37   A(19,18,20)           109.3458                                         !
 ! A38   A(19,18,21)           107.9952                                         !
 ! A39   A(20,18,21)           109.6484                                         !
 ! A40   A(13,22,23)           110.9826                                         !
 ! A41   A(13,22,24)           113.029                                          !
 ! A42   A(13,22,25)           107.6986                                         !
 ! A43   A(23,22,24)           107.8094                                         !
 ! A44   A(23,22,25)           108.0678                                         !
 ! A45   A(24,22,25)           109.137                                          !
 ! A46   A(6,26,27)            111.5602                                         !
 ! A47   A(6,26,28)            112.1354                                         !
 ! A48   A(6,26,29)            110.1432                                         !
 ! A49   A(27,26,28)           107.9385                                         !
 ! A50   A(27,26,29)           107.3543                                         !
 ! A51   A(28,26,29)           107.5019                                         !
 ! D1    D(4,3,6,12)          -179.4613                                         !
 ! D2    D(4,3,6,26)             0.865                                          !
 ! D3    D(7,3,6,12)             3.6681                                         !
 ! D4    D(7,3,6,26)          -176.0057                                         !
 ! D5    D(4,3,7,5)            179.3095                                         !
 ! D6    D(4,3,7,14)             0.5677                                         !
 ! D7    D(6,3,7,5)             -3.8104                                         !
 ! D8    D(6,3,7,14)           177.4477                                         !
 ! D9    D(8,5,7,3)            178.015                                          !
 ! D10   D(8,5,7,14)            -3.4078                                         !
 ! D11   D(9,5,7,3)             -3.7858                                         !
 ! D12   D(9,5,7,14)           174.7914                                         !
 ! D13   D(7,5,8,2)             -1.4753                                         !
 ! D14   D(7,5,8,18)           177.9909                                         !
 ! D15   D(9,5,8,2)           -179.6885                                         !
 ! D16   D(9,5,8,18)            -0.2222                                         !
 ! D17   D(7,5,9,10)           132.0314                                         !
 ! D18   D(7,5,9,11)          -112.673                                          !
 ! D19   D(7,5,9,12)            10.3478                                         !
 ! D20   D(8,5,9,10)           -49.7216                                         !
 ! D21   D(8,5,9,11)            65.574                                          !
 ! D22   D(8,5,9,12)          -171.4052                                         !
 ! D23   D(3,6,12,9)             4.1027                                         !
 ! D24   D(3,6,12,13)         -178.1153                                         !
 ! D25   D(26,6,12,9)         -176.2785                                         !
 ! D26   D(26,6,12,13)           1.5035                                         !
 ! D27   D(3,6,26,27)          105.2384                                         !
 ! D28   D(3,6,26,28)         -133.5471                                         !
 ! D29   D(3,6,26,29)          -13.8756                                         !
 ! D30   D(12,6,26,27)         -74.3993                                         !
 ! D31   D(12,6,26,28)          46.8152                                         !
 ! D32   D(12,6,26,29)         166.4867                                         !
 ! D33   D(3,7,14,15)          -51.7727                                         !
 ! D34   D(3,7,14,16)           69.023                                          !
 ! D35   D(3,7,14,17)         -171.517                                          !
 ! D36   D(5,7,14,15)          129.6033                                         !
 ! D37   D(5,7,14,16)         -109.601                                          !
 ! D38   D(5,7,14,17)            9.859                                          !
 ! D39   D(2,8,18,19)           55.8034                                         !
 ! D40   D(2,8,18,20)          175.9839                                         !
 ! D41   D(2,8,18,21)          -63.4003                                         !
 ! D42   D(5,8,18,19)         -123.7344                                         !
 ! D43   D(5,8,18,20)           -3.5539                                         !
 ! D44   D(5,8,18,21)          117.0619                                         !
 ! D45   D(5,9,12,6)           -10.5814                                         !
 ! D46   D(5,9,12,13)          171.3534                                         !
 ! D47   D(10,9,12,6)         -133.7176                                         !
 ! D48   D(10,9,12,13)          48.2172                                         !
 ! D49   D(11,9,12,6)          113.1582                                         !
 ! D50   D(11,9,12,13)         -64.907                                          !
 ! D51   D(6,12,13,1)         -175.1755                                         !
 ! D52   D(6,12,13,22)           5.5186                                         !
 ! D53   D(9,12,13,1)            2.7452                                         !
 ! D54   D(9,12,13,22)        -176.5607                                         !
 ! D55   D(1,13,22,23)         105.3186                                         !
 ! D56   D(1,13,22,24)        -133.4188                                         !
 ! D57   D(1,13,22,25)         -12.7843                                         !
 ! D58   D(12,13,22,23)        -75.3631                                         !
 ! D59   D(12,13,22,24)         45.8994                                         !
 ! D60   D(12,13,22,25)        166.534                                          !
 --------------------------------------------------------------------------------
 NAtoms=     29 NQM=       29 NQMF=       0 NMMI=      0 NMMIF=      0
                NMic=       0 NMicF=      0.
                    Isotopes and Nuclear Properties:
 (Nuclear quadrupole moments (NQMom) in fm**2, nuclear magnetic moments (NMagM)
  in nuclear magnetons)

  Atom         1           2           3           4           5           6           7           8           9          10
 IAtWgt=          16          16          14           1          12          12          12          12          12           1
 AtmWgt=  15.9949146  15.9949146  14.0030740   1.0078250  12.0000000  12.0000000  12.0000000  12.0000000  12.0000000   1.0078250
 NucSpn=           0           0           2           1           0           0           0           0           0           1
 AtZEff=   5.6000000   5.6000000   4.5500000   1.0000000   3.6000000   3.6000000   3.6000000   3.6000000   3.6000000   1.0000000
 NQMom=    0.0000000   0.0000000   2.0440000   0.0000000   0.0000000   0.0000000   0.0000000   0.0000000   0.0000000   0.0000000
 NMagM=    0.0000000   0.0000000   0.4037610   2.7928460   0.0000000   0.0000000   0.0000000   0.0000000   0.0000000   2.7928460
 AtZNuc=   8.0000000   8.0000000   7.0000000   1.0000000   6.0000000   6.0000000   6.0000000   6.0000000   6.0000000   1.0000000

  Atom        11          12          13          14          15          16          17          18          19          20
 IAtWgt=           1          12          12          12           1           1           1          12           1           1
 AtmWgt=   1.0078250  12.0000000  12.0000000  12.0000000   1.0078250   1.0078250   1.0078250  12.0000000   1.0078250   1.0078250
 NucSpn=           1           0           0           0           1           1           1           0           1           1
 AtZEff=   1.0000000   3.6000000   3.6000000   3.6000000   1.0000000   1.0000000   1.0000000   3.6000000   1.0000000   1.0000000
 NQMom=    0.0000000   0.0000000   0.0000000   0.0000000   0.0000000   0.0000000   0.0000000   0.0000000   0.0000000   0.0000000
 NMagM=    2.7928460   0.0000000   0.0000000   0.0000000   2.7928460   2.7928460   2.7928460   0.0000000   2.7928460   2.7928460
 AtZNuc=   1.0000000   6.0000000   6.0000000   6.0000000   1.0000000   1.0000000   1.0000000   6.0000000   1.0000000   1.0000000

  Atom        21          22          23          24          25          26          27          28          29
 IAtWgt=           1          12           1           1           1          12           1           1           1
 AtmWgt=   1.0078250  12.0000000   1.0078250   1.0078250   1.0078250  12.0000000   1.0078250   1.0078250   1.0078250
 NucSpn=           1           0           1           1           1           0           1           1           1
 AtZEff=   1.0000000   3.6000000   1.0000000   1.0000000   1.0000000   3.6000000   1.0000000   1.0000000   1.0000000
 NQMom=    0.0000000   0.0000000   0.0000000   0.0000000   0.0000000   0.0000000   0.0000000   0.0000000   0.0000000
 NMagM=    2.7928460   0.0000000   2.7928460   2.7928460   2.7928460   0.0000000   2.7928460   2.7928460   2.7928460
 AtZNuc=   1.0000000   6.0000000   1.0000000   1.0000000   1.0000000   6.0000000   1.0000000   1.0000000   1.0000000
 Leave Link  101 at Mon Mar  9 21:24:27 2026, MaxMem=  2147483648 cpu:               6.5 elap:               0.2
 (Enter /data/home/wyx/g16/l202.exe)
                          Input orientation:                          
 ---------------------------------------------------------------------
 Center     Atomic      Atomic             Coordinates (Angstroms)
 Number     Number       Type             X           Y           Z
 ---------------------------------------------------------------------
      1          8           0        1.385315    9.824086    0.688999
      2          8           0       -4.903026    9.748350    0.195167
      3          7           0       -2.086941   12.909281    0.186565
      4          1           0       -2.398270   13.865097    0.110718
      5          6           0       -2.677390   10.605925    0.232787
      6          6           0       -0.753946   12.711412    0.377154
      7          6           0       -3.060026   11.945199    0.146222
      8          6           0       -3.612330    9.586031    0.238915
      9          6           0       -1.210252   10.249846    0.281019
     10          1           0       -1.019127    9.539388    1.090194
     11          1           0       -0.921058    9.718984   -0.635681
     12          6           0       -0.279157   11.424960    0.475502
     13          6           0        1.089118   11.027953    0.714520
     14          6           0       -4.441807   12.461967   -0.018368
     15          1           0       -4.673380   13.237371    0.719951
     16          1           0       -4.599054   12.890980   -1.015720
     17          1           0       -5.179017   11.662472    0.106617
     18          6           0       -3.290093    8.112106    0.285984
     19          1           0       -3.746141    7.597925   -0.563978
     20          1           0       -2.210951    7.979707    0.250491
     21          1           0       -3.685391    7.665616    1.202663
     22          6           0        2.197360   12.010939    1.013905
     23          1           0        2.507742   12.538713    0.108233
     24          1           0        1.915643   12.758046    1.754886
     25          1           0        3.051073   11.444771    1.384352
     26          6           0        0.021475   13.989486    0.461045
     27          1           0        0.318862   14.211988    1.488612
     28          1           0        0.920946   13.963986   -0.149956
     29          1           0       -0.589348   14.823249    0.111203
 ---------------------------------------------------------------------
                    Distance matrix (angstroms):
                    1          2          3          4          5
     1  O    0.000000
     2  O    6.308157   0.000000
     3  N    4.671984   4.233425   0.000000
     4  H    5.565940   4.819600   1.008098   0.000000
     5  C    4.162328   2.385436   2.378279   3.273379   0.000000
     6  C    3.606984   5.101737   1.361012   2.026272   2.855442
     7  C    4.955279   2.867960   1.370392   2.031056   1.395550
     8  C    5.023516   1.301598   3.656985   4.449806   1.383595
     9  C    2.661708   3.727660   2.801803   3.809256   1.510500
    10  H    2.454252   3.991167   3.648691   4.644692   2.149996
    11  H    2.661801   4.067830   3.494762   4.464249   2.150721
    12  C    2.319235   4.926436   2.356857   3.252379   2.545830
    13  C    1.240032   6.149219   3.729005   4.536059   3.820570
    14  C    6.435382   2.760804   2.405718   2.482233   2.573157
    15  H    6.954082   3.535733   2.661166   2.437484   3.338534
    16  H    6.937189   3.381534   2.785056   2.657296   3.236207
    17  H    6.841731   1.935943   3.334944   3.547411   2.718519
    18  C    4.995272   2.299368   4.946751   5.824343   2.568534
    19  H    5.732153   2.557149   5.614869   6.445883   3.290156
    20  H    4.065360   3.221556   4.931547   5.890028   2.667377
    21  H    5.534881   2.614472   5.575259   6.425152   3.256093
    22  C    2.355272   7.497007   4.454969   5.037207   5.132971
    23  H    2.994383   7.919165   4.610268   5.082150   5.535050
    24  H    3.166304   7.614804   4.301533   4.747493   5.295692
    25  H    2.425877   8.219470   5.475278   6.097168   5.902970
    26  C    4.388916   6.504509   2.384870   2.448135   4.334104
    27  H    4.585890   6.990364   3.029896   3.066225   4.853691
    28  H    4.249501   7.197871   3.205158   3.330904   4.936708
    29  H    5.405994   6.661041   2.431407   2.047011   4.707496
                    6          7          8          9         10
     6  C    0.000000
     7  C    2.440986   0.000000
     8  C    4.237626   2.424728   0.000000
     9  C    2.505347   2.512779   2.492469   0.000000
    10  H    3.261975   3.293065   2.729754   1.093638   0.000000
    11  H    3.163603   3.184743   2.832938   1.098083   1.737963
    12  C    1.374792   2.848211   3.814141   1.511839   2.116786
    13  C    2.518875   4.287155   4.940542   2.465863   2.607998
    14  C    3.717389   1.484405   3.004202   3.927602   4.635204
    15  H    3.969396   2.145177   3.832689   4.594695   5.212074
    16  H    4.093556   2.147840   3.670207   4.487884   5.337033
    17  H    4.555734   2.138136   2.604537   4.216280   4.772797
    18  C    5.252996   3.842534   1.509473   2.982564   2.800210
    19  H    5.998892   4.458019   2.148280   3.765293   3.733921
    20  H    4.952568   4.056714   2.131731   2.481100   2.134982
    21  H    5.893631   4.452188   2.149917   3.695129   3.260772
    22  C    3.099406   5.328911   6.342971   3.905175   4.057113
    23  H    3.277309   5.599441   6.796373   4.369468   4.732758
    24  H    3.004501   5.292050   6.551208   4.270196   4.406182
    25  H    4.134851   6.255312   7.011981   4.561149   4.503725
    26  C    1.497261   3.711317   5.713519   3.941380   4.613248
    27  H    2.153599   4.284534   6.198024   4.415320   4.876694
    28  H    2.156861   4.473406   6.314135   4.303787   4.987877
    29  H    2.134872   3.793236   6.048403   4.618482   5.390947
                   11         12         13         14         15
    11  H    0.000000
    12  C    2.134741   0.000000
    13  C    2.752680   1.444618   0.000000
    14  C    4.505630   4.318210   5.760612   0.000000
    15  H    5.319464   4.759598   6.171542   1.095442   0.000000
    16  H    4.871719   4.799424   6.230562   1.097037   1.771459
    17  H    4.739025   4.919462   6.329429   1.094665   1.764130
    18  C    3.007299   4.480698   5.278569   4.510029   5.326364
    19  H    3.533429   5.267513   6.064600   4.943738   5.857610
    20  H    2.339703   3.956289   4.516368   5.013946   5.824687
    21  H    3.903507   5.124827   5.859994   5.006801   5.679224
    22  C    4.206984   2.601227   1.511321   6.734059   6.985528
    23  H    4.501216   3.023597   2.159276   6.951126   7.240913
    24  H    4.795579   2.868987   2.181450   6.606759   6.687007
    25  H    4.778776   3.452077   2.114635   7.690615   7.957513
    26  C    4.508699   2.582127   3.158289   4.741734   4.761761
    27  H    5.122217   3.025152   3.366094   5.291270   5.144239
    28  H    4.652843   2.877168   3.065272   5.570682   5.707993
    29  H    5.169273   3.431806   4.193508   4.520385   4.423222
                   16         17         18         19         20
    16  H    0.000000
    17  H    1.762166   0.000000
    18  C    5.123031   4.025581   0.000000
    19  H    5.380331   4.361579   1.093067   0.000000
    20  H    5.605972   4.732110   1.087813   1.779304   0.000000
    21  H    5.749820   4.405348   1.093579   1.768981   1.783047
    22  C    7.147384   7.440130   6.770738   7.568989   6.022195
    23  H    7.203743   7.736540   7.296666   7.998393   6.562837
    24  H    7.080622   7.365546   7.130365   8.003734   6.490339
    25  H    8.147166   8.331529   7.247306   8.049616   6.401656
    26  C    4.973615   5.708391   6.748387   7.489837   6.414476
    27  H    5.674738   6.215836   7.188841   8.030144   6.839169
    28  H    5.689578   6.524749   7.222700   7.904419   6.766146
    29  H    4.591444   5.572754   7.236298   7.913691   7.034419
                   21         22         23         24         25
    21  H    0.000000
    22  C    7.316024   0.000000
    23  H    7.956114   1.093217   0.000000
    24  H    7.590083   1.089305   1.763563   0.000000
    25  H    7.726251   1.089313   1.766465   1.775159   0.000000
    26  C    7.367644   2.992453   2.900128   2.603525   4.062824
    27  H    7.679245   2.932357   3.081638   2.175904   3.890159
    28  H    7.919431   2.607335   2.148484   2.464171   3.638404
    29  H    7.874545   4.060751   3.848516   3.638920   5.127152
                   26         27         28         29
    26  C    0.000000
    27  H    1.092631   0.000000
    28  H    1.087667   1.763212   0.000000
    29  H    1.091171   1.759472   1.757135   0.000000
 Symmetry turned off by external request.
 Stoichiometry    C11H15NO2
 Framework group  C1[X(C11H15NO2)]
 Deg. of freedom    81
 Full point group                 C1      NOp   1
 Rotational constants (GHZ):           1.1000840           0.4813378           0.3392043
 Leave Link  202 at Mon Mar  9 21:24:27 2026, MaxMem=  2147483648 cpu:               0.1 elap:               0.0
 (Enter /data/home/wyx/g16/l301.exe)
 Standard basis: TZVP (5D, 7F)
 Ernie: Thresh=  0.10000D-02 Tol=  0.10000D-05 Strict=F.
   356 basis functions,   610 primitive gaussians,   370 cartesian basis functions
    52 alpha electrons       52 beta electrons
       nuclear repulsion energy       898.0235476112 Hartrees.
 IExCor= 1009 DFT=T Ex+Corr=PBE1PBE ExCW=0 ScaHFX=  0.250000
 ScaDFX=  0.750000  0.750000  1.000000  1.000000 ScalE2=  1.000000  1.000000
 IRadAn=      5 IRanWt=     -1 IRanGd=            0 ICorTp=0 IEmpDi=141
 NAtoms=   29 NActive=   29 NUniq=   29 SFac= 1.00D+00 NAtFMM=   60 NAOKFM=F Big=F
 Integral buffers will be    131072 words long.
 Raffenetti 2 integral format.
 Two-electron integral symmetry is turned off.
 R6Disp:  Grimme-D3(BJ) Dispersion energy=       -0.0288389465 Hartrees.
 Nuclear repulsion after empirical dispersion term =      897.9947086646 Hartrees.
 ------------------------------------------------------------------------------
 Polarizable Continuum Model (PCM)
 =================================
 Model                : PCM.
 Atomic radii         : UFF (Universal Force Field).
 Polarization charges : Total charges.
 Charge compensation  : None.
 Solution method      : On-the-fly selection.
 Cavity type          : Scaled VdW (van der Waals Surface) (Alpha=1.100).
 Cavity algorithm     : GePol (No added spheres)
                        Default sphere list used, NSphG=   29.
                        Lebedev-Laikov grids with approx.  5.0 points / Ang**2.
                        Smoothing algorithm: York/Karplus (Gamma=1.0000).
                        Polarization charges: spherical gaussians, with
                                              point-specific exponents (IZeta= 3).
                        Self-potential: point-specific (ISelfS= 7).
                        Self-field    : sphere-specific E.n sum rule (ISelfD= 2).
 Solvent              : Water, Eps=  78.355300 Eps(inf)=   1.777849
 ------------------------------------------------------------------------------
 GePol: Number of generator spheres                  =      29
 GePol: Total number of spheres                      =      29
 GePol: Number of exposed spheres                    =      29 (100.00%)
 GePol: Number of points                             =    2105
 GePol: Average weight of points                     =       0.13
 GePol: Minimum weight of points                     =   0.12D-08
 GePol: Maximum weight of points                     =    0.20577
 GePol: Number of points with low weight             =     134
 GePol: Fraction of low-weight points (<1% of avg)   =       6.37%
 GePol: Cavity surface area                          =    268.171 Ang**2
 GePol: Cavity volume                                =    285.809 Ang**3
 Leave Link  301 at Mon Mar  9 21:24:28 2026, MaxMem=  2147483648 cpu:               1.2 elap:               0.0
 (Enter /data/home/wyx/g16/l302.exe)
 NPDir=0 NMtPBC=     1 NCelOv=     1 NCel=       1 NClECP=     1 NCelD=      1
         NCelK=      1 NCelE2=     1 NClLst=     1 CellRange=     0.0.
 One-electron integrals computed using PRISM.
 NBasis=   356 RedAO= T EigKep=  3.90D-05  NBF=   356
 NBsUse=   356 1.00D-06 EigRej= -1.00D+00 NBFU=   356
 Precomputing XC quadrature grid using
 IXCGrd= 4 IRadAn=           5 IRanWt=          -1 IRanGd=           0 AccXCQ= 0.00D+00.
 Generated NRdTot=       0 NPtTot=           0 NUsed=           0 NTot=          32
 NSgBfM=   366   366   366   366   366 MxSgAt=    29 MxSgA2=    29.
 Leave Link  302 at Mon Mar  9 21:24:28 2026, MaxMem=  2147483648 cpu:               6.2 elap:               0.2
 (Enter /data/home/wyx/g16/l303.exe)
 DipDrv:  MaxL=1.
 Leave Link  303 at Mon Mar  9 21:24:28 2026, MaxMem=  2147483648 cpu:               1.1 elap:               0.1
 (Enter /data/home/wyx/g16/l401.exe)
 Initial guess from the checkpoint file:  "DDL-S2min-S1-cLR-1.chk"
 B after Tr=     0.000000    0.000000    0.000000
         Rot=    1.000000    0.000000    0.000000    0.000000 Ang=   0.00 deg.
 Guess basis will be translated and rotated to current coordinates.
 JPrj=2 DoOrth=T DoCkMO=T.
 Leave Link  401 at Mon Mar  9 21:24:28 2026, MaxMem=  2147483648 cpu:               4.4 elap:               0.2
 (Enter /data/home/wyx/g16/l502.exe)
 Two-electron integral symmetry not used.
 Closed shell SCF:
 Using DIIS extrapolation, IDIIS=  1040.
 NGot=  2147483648 LenX=  2147195087 LenY=  2147057746
 Requested convergence on RMS density matrix=1.00D-08 within 128 cycles.
 Requested convergence on MAX density matrix=1.00D-06.
 Requested convergence on             energy=1.00D-06.
 No special actions if energy rises.
 Fock matrices will be formed incrementally for  20 cycles.

 Cycle   1  Pass 1  IDiag  1:
 FoFJK:  IHMeth= 1 ICntrl=       0 DoSepK=F KAlg= 0 I1Cent=           0 FoldK=F
 IRaf= 860000000 NMat=       1 IRICut=       1 DoRegI=T DoRafI=F ISym2E= 0 IDoP0=0 IntGTp=1.
 FoFCou: FMM=F IPFlag=           0 FMFlag=      100000 FMFlg1=           0
         NFxFlg=           0 DoJE=F BraDBF=F KetDBF=F FulRan=T
         wScrn=  0.000000 ICntrl=         0 IOpCl=  0 I1Cent=           0 NGrid=           0
         NMat0=    1 NMatS0=      1 NMatT0=    0 NMatD0=    1 NMtDS0=    0 NMtDT0=    0
 Symmetry not used in FoFCou.
 Inv3:  Mode=1 IEnd=    13293075.
 Iteration    1 A*A^-1 deviation from unit magnitude is 3.44D-15 for    181.
 Iteration    1 A*A^-1 deviation from orthogonality  is 2.87D-15 for   1338    878.
 Iteration    1 A^-1*A deviation from unit magnitude is 3.11D-15 for    702.
 Iteration    1 A^-1*A deviation from orthogonality  is 2.78D-15 for   2015   2005.
 NEqPCM:  Using non-equilibrium solvation (IEInf=1, Eps=  78.3553, EpsInf=   1.7778)
 Inv3:  Mode=1 IEnd=    13293075.
 Iteration    1 A*A^-1 deviation from unit magnitude is 3.33D-15 for    489.
 Iteration    1 A*A^-1 deviation from orthogonality  is 3.77D-15 for   1937    354.
 Iteration    1 A^-1*A deviation from unit magnitude is 3.11D-15 for    877.
 Iteration    1 A^-1*A deviation from orthogonality  is 1.67D-15 for   2012   2005.
 E= -632.895695655333    
 DIIS: error= 4.34D-04 at cycle   1 NSaved=   1.
 NSaved= 1 IEnMin= 1 EnMin= -632.895695655333     IErMin= 1 ErrMin= 4.34D-04
 ErrMax= 4.34D-04  0.00D+00 EMaxC= 1.00D-01 BMatC= 2.70D-05 BMatP= 2.70D-05
 IDIUse=3 WtCom= 9.96D-01 WtEn= 4.34D-03
 Coeff-Com:  0.100D+01
 Coeff-En:   0.100D+01
 Coeff:      0.100D+01
 Gap=     0.138 Goal=   None    Shift=    0.000
 RMSDP=2.16D-04 MaxDP=1.29D-02              OVMax= 9.33D-03

 Cycle   2  Pass 1  IDiag  1:
 RMSU=  2.15D-04    CP:  9.99D-01
 E= -632.895720621777     Delta-E=       -0.000024966444 Rises=F Damp=F
 DIIS: error= 3.94D-04 at cycle   2 NSaved=   2.
 NSaved= 2 IEnMin= 2 EnMin= -632.895720621777     IErMin= 2 ErrMin= 3.94D-04
 ErrMax= 3.94D-04  0.00D+00 EMaxC= 1.00D-01 BMatC= 4.48D-05 BMatP= 2.70D-05
 IDIUse=3 WtCom= 3.35D-01 WtEn= 6.65D-01
 Coeff-Com:  0.581D+00 0.419D+00
 Coeff-En:   0.340D+00 0.660D+00
 Coeff:      0.420D+00 0.580D+00
 Gap=     0.138 Goal=   None    Shift=    0.000
 RMSDP=1.32D-04 MaxDP=9.38D-03 DE=-2.50D-05 OVMax= 4.88D-03

 Cycle   3  Pass 1  IDiag  1:
 RMSU=  1.07D-04    CP:  1.00D+00  7.06D-01
 E= -632.895743093503     Delta-E=       -0.000022471726 Rises=F Damp=F
 DIIS: error= 2.98D-04 at cycle   3 NSaved=   3.
 NSaved= 3 IEnMin= 3 EnMin= -632.895743093503     IErMin= 3 ErrMin= 2.98D-04
 ErrMax= 2.98D-04  0.00D+00 EMaxC= 1.00D-01 BMatC= 3.05D-05 BMatP= 2.70D-05
 IDIUse=3 WtCom= 3.67D-01 WtEn= 6.33D-01
 Coeff-Com:  0.194D+00 0.400D+00 0.406D+00
 Coeff-En:   0.000D+00 0.369D+00 0.631D+00
 Coeff:      0.713D-01 0.380D+00 0.549D+00
 Gap=     0.138 Goal=   None    Shift=    0.000
 RMSDP=5.84D-05 MaxDP=4.99D-03 DE=-2.25D-05 OVMax= 2.53D-03

 Cycle   4  Pass 1  IDiag  1:
 RMSU=  2.57D-05    CP:  1.00D+00  7.41D-01  5.81D-01
 E= -632.895764030248     Delta-E=       -0.000020936745 Rises=F Damp=F
 DIIS: error= 1.33D-04 at cycle   4 NSaved=   4.
 NSaved= 4 IEnMin= 4 EnMin= -632.895764030248     IErMin= 4 ErrMin= 1.33D-04
 ErrMax= 1.33D-04  0.00D+00 EMaxC= 1.00D-01 BMatC= 4.60D-06 BMatP= 2.70D-05
 IDIUse=3 WtCom= 9.99D-01 WtEn= 1.33D-03
 Coeff-Com:  0.486D-01 0.190D+00 0.335D+00 0.427D+00
 Coeff-En:   0.000D+00 0.000D+00 0.140D+00 0.860D+00
 Coeff:      0.485D-01 0.190D+00 0.334D+00 0.427D+00
 Gap=     0.138 Goal=   None    Shift=    0.000
 RMSDP=2.01D-05 MaxDP=1.67D-03 DE=-2.09D-05 OVMax= 6.51D-04

 Cycle   5  Pass 1  IDiag  1:
 RMSU=  5.54D-06    CP:  1.00D+00  7.50D-01  6.96D-01  5.53D-01
 E= -632.895767401716     Delta-E=       -0.000003371468 Rises=F Damp=F
 DIIS: error= 1.80D-05 at cycle   5 NSaved=   5.
 NSaved= 5 IEnMin= 5 EnMin= -632.895767401716     IErMin= 5 ErrMin= 1.80D-05
 ErrMax= 1.80D-05  0.00D+00 EMaxC= 1.00D-01 BMatC= 1.11D-07 BMatP= 4.60D-06
 IDIUse=1 WtCom= 1.00D+00 WtEn= 0.00D+00
 Coeff-Com: -0.342D-02 0.279D-01 0.991D-01 0.223D+00 0.654D+00
 Coeff:     -0.342D-02 0.279D-01 0.991D-01 0.223D+00 0.654D+00
 Gap=     0.138 Goal=   None    Shift=    0.000
 RMSDP=3.07D-06 MaxDP=1.36D-04 DE=-3.37D-06 OVMax= 1.24D-04

 Cycle   6  Pass 1  IDiag  1:
 RMSU=  1.77D-06    CP:  1.00D+00  7.48D-01  7.10D-01  6.15D-01  8.04D-01
 E= -632.895767500811     Delta-E=       -0.000000099096 Rises=F Damp=F
 DIIS: error= 5.33D-06 at cycle   6 NSaved=   6.
 NSaved= 6 IEnMin= 6 EnMin= -632.895767500811     IErMin= 6 ErrMin= 5.33D-06
 ErrMax= 5.33D-06  0.00D+00 EMaxC= 1.00D-01 BMatC= 1.07D-08 BMatP= 1.11D-07
 IDIUse=1 WtCom= 1.00D+00 WtEn= 0.00D+00
 Coeff-Com: -0.339D-02 0.109D-02 0.257D-01 0.770D-01 0.315D+00 0.584D+00
 Coeff:     -0.339D-02 0.109D-02 0.257D-01 0.770D-01 0.315D+00 0.584D+00
 Gap=     0.138 Goal=   None    Shift=    0.000
 RMSDP=6.95D-07 MaxDP=3.62D-05 DE=-9.91D-08 OVMax= 7.69D-05

 Cycle   7  Pass 1  IDiag  1:
 RMSU=  5.78D-07    CP:  1.00D+00  7.48D-01  7.10D-01  6.08D-01  8.48D-01
                    CP:  9.14D-01
 E= -632.895767509925     Delta-E=       -0.000000009113 Rises=F Damp=F
 DIIS: error= 3.53D-06 at cycle   7 NSaved=   7.
 NSaved= 7 IEnMin= 7 EnMin= -632.895767509925     IErMin= 7 ErrMin= 3.53D-06
 ErrMax= 3.53D-06  0.00D+00 EMaxC= 1.00D-01 BMatC= 3.40D-09 BMatP= 1.07D-08
 IDIUse=1 WtCom= 1.00D+00 WtEn= 0.00D+00
 Coeff-Com: -0.140D-02-0.375D-02 0.120D-02 0.116D-01 0.792D-01 0.380D+00
 Coeff-Com:  0.534D+00
 Coeff:     -0.140D-02-0.375D-02 0.120D-02 0.116D-01 0.792D-01 0.380D+00
 Coeff:      0.534D+00
 Gap=     0.138 Goal=   None    Shift=    0.000
 RMSDP=5.70D-07 MaxDP=3.96D-05 DE=-9.11D-09 OVMax= 2.65D-05

 Cycle   8  Pass 1  IDiag  1:
 RMSU=  2.48D-07    CP:  1.00D+00  7.47D-01  7.12D-01  6.20D-01  8.62D-01
                    CP:  1.01D+00  7.44D-01
 E= -632.895767512984     Delta-E=       -0.000000003060 Rises=F Damp=F
 DIIS: error= 9.98D-07 at cycle   8 NSaved=   8.
 NSaved= 8 IEnMin= 8 EnMin= -632.895767512984     IErMin= 8 ErrMin= 9.98D-07
 ErrMax= 9.98D-07  0.00D+00 EMaxC= 1.00D-01 BMatC= 3.84D-10 BMatP= 3.40D-09
 IDIUse=1 WtCom= 1.00D+00 WtEn= 0.00D+00
 Coeff-Com: -0.407D-03-0.304D-02-0.288D-02-0.415D-02 0.920D-03 0.166D+00
 Coeff-Com:  0.300D+00 0.543D+00
 Coeff:     -0.407D-03-0.304D-02-0.288D-02-0.415D-02 0.920D-03 0.166D+00
 Coeff:      0.300D+00 0.543D+00
 Gap=     0.138 Goal=   None    Shift=    0.000
 RMSDP=1.57D-07 MaxDP=8.16D-06 DE=-3.06D-09 OVMax= 6.40D-06

 Cycle   9  Pass 1  IDiag  1:
 RMSU=  8.18D-08    CP:  1.00D+00  7.47D-01  7.13D-01  6.18D-01  8.65D-01
                    CP:  1.03D+00  8.01D-01  7.58D-01
 E= -632.895767513300     Delta-E=       -0.000000000316 Rises=F Damp=F
 DIIS: error= 4.89D-07 at cycle   9 NSaved=   9.
 NSaved= 9 IEnMin= 9 EnMin= -632.895767513300     IErMin= 9 ErrMin= 4.89D-07
 ErrMax= 4.89D-07  0.00D+00 EMaxC= 1.00D-01 BMatC= 6.45D-11 BMatP= 3.84D-10
 IDIUse=1 WtCom= 1.00D+00 WtEn= 0.00D+00
 Coeff-Com:  0.605D-04-0.101D-02-0.111D-02-0.379D-02-0.155D-01 0.257D-01
 Coeff-Com:  0.525D-01 0.280D+00 0.663D+00
 Coeff:      0.605D-04-0.101D-02-0.111D-02-0.379D-02-0.155D-01 0.257D-01
 Coeff:      0.525D-01 0.280D+00 0.663D+00
 Gap=     0.138 Goal=   None    Shift=    0.000
 RMSDP=9.94D-08 MaxDP=6.14D-06 DE=-3.16D-10 OVMax= 4.57D-06

 Cycle  10  Pass 1  IDiag  1:
 RMSU=  3.38D-08    CP:  1.00D+00  7.47D-01  7.14D-01  6.19D-01  8.65D-01
                    CP:  1.05D+00  8.00D-01  8.50D-01  8.63D-01
 E= -632.895767513362     Delta-E=       -0.000000000062 Rises=F Damp=F
 DIIS: error= 1.66D-07 at cycle  10 NSaved=  10.
 NSaved=10 IEnMin=10 EnMin= -632.895767513362     IErMin=10 ErrMin= 1.66D-07
 ErrMax= 1.66D-07  0.00D+00 EMaxC= 1.00D-01 BMatC= 1.02D-11 BMatP= 6.45D-11
 IDIUse=1 WtCom= 1.00D+00 WtEn= 0.00D+00
 Coeff-Com:  0.849D-04-0.237D-03-0.217D-03-0.160D-02-0.927D-02-0.749D-02
 Coeff-Com: -0.170D-01 0.665D-01 0.374D+00 0.595D+00
 Coeff:      0.849D-04-0.237D-03-0.217D-03-0.160D-02-0.927D-02-0.749D-02
 Coeff:     -0.170D-01 0.665D-01 0.374D+00 0.595D+00
 Gap=     0.138 Goal=   None    Shift=    0.000
 RMSDP=3.01D-08 MaxDP=1.28D-06 DE=-6.21D-11 OVMax= 6.46D-07

 Cycle  11  Pass 1  IDiag  1:
 RMSU=  1.08D-08    CP:  1.00D+00  7.47D-01  7.14D-01  6.19D-01  8.64D-01
                    CP:  1.06D+00  8.13D-01  8.66D-01  9.45D-01  8.11D-01
 E= -632.895767513365     Delta-E=       -0.000000000003 Rises=F Damp=F
 DIIS: error= 3.05D-08 at cycle  11 NSaved=  11.
 NSaved=11 IEnMin=11 EnMin= -632.895767513365     IErMin=11 ErrMin= 3.05D-08
 ErrMax= 3.05D-08  0.00D+00 EMaxC= 1.00D-01 BMatC= 5.88D-13 BMatP= 1.02D-11
 IDIUse=1 WtCom= 1.00D+00 WtEn= 0.00D+00
 Coeff-Com:  0.345D-04-0.185D-05 0.498D-04-0.268D-03-0.255D-02-0.619D-02
 Coeff-Com: -0.156D-01-0.552D-02 0.989D-01 0.261D+00 0.670D+00
 Coeff:      0.345D-04-0.185D-05 0.498D-04-0.268D-03-0.255D-02-0.619D-02
 Coeff:     -0.156D-01-0.552D-02 0.989D-01 0.261D+00 0.670D+00
 Gap=     0.138 Goal=   None    Shift=    0.000
 RMSDP=8.02D-09 MaxDP=5.55D-07 DE=-2.50D-12 OVMax= 3.64D-07

 Error on total polarization charges =  0.00804
 SCF Done:  E(RPBE1PBE) =  -632.895767513     A.U. after   11 cycles
            NFock= 11  Conv=0.80D-08     -V/T= 2.0048
 KE= 6.298989138328D+02 PE=-3.271121352536D+03 EE= 1.110331962525D+03
 Leave Link  502 at Mon Mar  9 21:24:52 2026, MaxMem=  2147483648 cpu:             710.1 elap:              23.0
 (Enter /data/home/wyx/g16/l601.exe)
 Copying SCF densities to generalized density rwf, IOpCl= 0 IROHF=0.

 **********************************************************************

            Population analysis using the SCF density.

 **********************************************************************

 Alpha  occ. eigenvalues --  -19.18242 -19.16684 -14.44867 -10.30980 -10.30587
 Alpha  occ. eigenvalues --  -10.30398 -10.30214 -10.23571 -10.23503 -10.23499
 Alpha  occ. eigenvalues --  -10.23025 -10.22177 -10.21710 -10.21544  -1.05795
 Alpha  occ. eigenvalues --   -1.03121  -1.01985  -0.85743  -0.84835  -0.78015
 Alpha  occ. eigenvalues --   -0.76541  -0.75445  -0.72770  -0.68449  -0.66399
 Alpha  occ. eigenvalues --   -0.63782  -0.56399  -0.52980  -0.51268  -0.49312
 Alpha  occ. eigenvalues --   -0.49128  -0.48400  -0.46587  -0.45936  -0.45051
 Alpha  occ. eigenvalues --   -0.43932  -0.43723  -0.43302  -0.42819  -0.42563
 Alpha  occ. eigenvalues --   -0.41068  -0.40198  -0.38986  -0.38625  -0.37582
 Alpha  occ. eigenvalues --   -0.36844  -0.36325  -0.35001  -0.28012  -0.26686
 Alpha  occ. eigenvalues --   -0.24845  -0.21940
 Alpha virt. eigenvalues --   -0.08121  -0.02358   0.03939   0.05745   0.05907
 Alpha virt. eigenvalues --    0.06087   0.07099   0.08158   0.09842   0.10439
 Alpha virt. eigenvalues --    0.11749   0.11923   0.12513   0.13577   0.13777
 Alpha virt. eigenvalues --    0.14298   0.14484   0.14597   0.14980   0.16217
 Alpha virt. eigenvalues --    0.16585   0.16848   0.18870   0.19323   0.21034
 Alpha virt. eigenvalues --    0.21402   0.21719   0.22019   0.22571   0.22976
 Alpha virt. eigenvalues --    0.23831   0.24613   0.25488   0.25794   0.26463
 Alpha virt. eigenvalues --    0.27100   0.27596   0.29686   0.30231   0.30516
 Alpha virt. eigenvalues --    0.31452   0.32197   0.33080   0.33800   0.34324
 Alpha virt. eigenvalues --    0.35599   0.37492   0.38081   0.38882   0.39234
 Alpha virt. eigenvalues --    0.39959   0.41096   0.41716   0.42405   0.42967
 Alpha virt. eigenvalues --    0.43738   0.44084   0.44163   0.44531   0.44984
 Alpha virt. eigenvalues --    0.45445   0.45745   0.46733   0.47659   0.47910
 Alpha virt. eigenvalues --    0.48473   0.48952   0.49327   0.49877   0.50004
 Alpha virt. eigenvalues --    0.50508   0.51727   0.51802   0.53903   0.54133
 Alpha virt. eigenvalues --    0.54328   0.55367   0.55909   0.58356   0.59082
 Alpha virt. eigenvalues --    0.59426   0.61030   0.61065   0.63462   0.63483
 Alpha virt. eigenvalues --    0.64249   0.65192   0.66697   0.67450   0.67685
 Alpha virt. eigenvalues --    0.69083   0.71202   0.72340   0.73190   0.73928
 Alpha virt. eigenvalues --    0.76176   0.76979   0.80254   0.83993   0.85669
 Alpha virt. eigenvalues --    0.88553   0.91539   0.96001   0.98206   1.14522
 Alpha virt. eigenvalues --    1.16922   1.19148   1.21710   1.24354   1.26045
 Alpha virt. eigenvalues --    1.26519   1.28113   1.28949   1.29970   1.32068
 Alpha virt. eigenvalues --    1.32517   1.33088   1.34085   1.34754   1.34990
 Alpha virt. eigenvalues --    1.35111   1.35688   1.36009   1.36671   1.37085
 Alpha virt. eigenvalues --    1.37859   1.37998   1.39514   1.40084   1.41352
 Alpha virt. eigenvalues --    1.43631   1.44932   1.45064   1.46048   1.46798
 Alpha virt. eigenvalues --    1.47398   1.48008   1.49783   1.52098   1.53061
 Alpha virt. eigenvalues --    1.53654   1.54435   1.54950   1.55248   1.56403
 Alpha virt. eigenvalues --    1.56870   1.57725   1.57943   1.58363   1.59768
 Alpha virt. eigenvalues --    1.60150   1.60540   1.61261   1.61513   1.62566
 Alpha virt. eigenvalues --    1.63857   1.64154   1.64549   1.65759   1.67832
 Alpha virt. eigenvalues --    1.68299   1.68786   1.71041   1.71474   1.75070
 Alpha virt. eigenvalues --    1.76761   1.78021   1.79571   1.80514   1.81082
 Alpha virt. eigenvalues --    1.81541   1.81882   1.85081   1.85384   1.86303
 Alpha virt. eigenvalues --    1.86912   1.87358   1.91760   1.93508   1.96149
 Alpha virt. eigenvalues --    1.97501   1.99878   2.01419   2.02869   2.05203
 Alpha virt. eigenvalues --    2.05404   2.07971   2.09899   2.13345   2.14665
 Alpha virt. eigenvalues --    2.15350   2.18006   2.18928   2.19068   2.20758
 Alpha virt. eigenvalues --    2.22446   2.23673   2.24568   2.26268   2.27206
 Alpha virt. eigenvalues --    2.28113   2.29400   2.30241   2.31865   2.32944
 Alpha virt. eigenvalues --    2.33955   2.36328   2.37025   2.38058   2.39227
 Alpha virt. eigenvalues --    2.40739   2.41513   2.43706   2.44719   2.45209
 Alpha virt. eigenvalues --    2.47567   2.49676   2.50435   2.51017   2.51711
 Alpha virt. eigenvalues --    2.52764   2.53114   2.55754   2.56753   2.57517
 Alpha virt. eigenvalues --    2.58288   2.59752   2.60499   2.61639   2.62401
 Alpha virt. eigenvalues --    2.64102   2.65889   2.68844   2.69230   2.69964
 Alpha virt. eigenvalues --    2.70798   2.71752   2.71934   2.73507   2.74257
 Alpha virt. eigenvalues --    2.75502   2.76491   2.77471   2.78231   2.78651
 Alpha virt. eigenvalues --    2.81168   2.82735   2.84045   2.86833   2.88750
 Alpha virt. eigenvalues --    2.93554   2.93915   2.95042   2.99611   3.03264
 Alpha virt. eigenvalues --    3.05918   3.07781   3.10158   3.12366   3.14555
 Alpha virt. eigenvalues --    3.15860   3.16675   3.18746   3.19811   3.20878
 Alpha virt. eigenvalues --    3.23173   3.25408   3.25956   3.30150   3.32230
 Alpha virt. eigenvalues --    3.33132   3.34330   3.34402   3.34619   3.35817
 Alpha virt. eigenvalues --    3.36768   3.38374   3.39824   3.41218   3.44049
 Alpha virt. eigenvalues --    3.45847   3.46619   3.49100   3.51471   3.53570
 Alpha virt. eigenvalues --    3.56354   3.85966   3.94856   4.23806   4.29909
 Alpha virt. eigenvalues --   21.67938  21.78995  22.08114  22.13144  22.15159
 Alpha virt. eigenvalues --   22.16359  22.19118  22.22083  22.23333  22.28554
 Alpha virt. eigenvalues --   22.33871  31.97053  43.71825  43.75795
          Condensed to atoms (all electrons):
               1          2          3          4          5          6
     1  O    7.948111   0.000000  -0.000210   0.000018   0.015695   0.016925
     2  O    0.000000   8.147867   0.000978   0.000030  -0.186508   0.001554
     3  N   -0.000210   0.000978   6.202358   0.358229  -0.075684   0.373274
     4  H    0.000018   0.000030   0.358229   0.395955   0.013590  -0.036894
     5  C    0.015695  -0.186508  -0.075684   0.013590   7.203634  -0.050925
     6  C    0.016925   0.001554   0.373274  -0.036894  -0.050925   5.682423
     7  C   -0.000292   0.011926   0.342609  -0.039903   0.297271  -0.142224
     8  C   -0.000064   0.571500   0.009219  -0.001348  -0.665442   0.065796
     9  C    0.002893   0.022377   0.018913   0.000791  -0.589958  -0.130801
    10  H    0.010673  -0.000072  -0.000859   0.000013  -0.104680   0.022853
    11  H    0.005409  -0.000052   0.001835   0.000012  -0.024516  -0.008386
    12  C   -0.239829  -0.003463  -0.081915   0.021486   0.206574  -0.223264
    13  C    0.703823   0.000007   0.001631   0.000604   0.059889   0.117765
    14  C   -0.000013  -0.097253  -0.058352   0.000740   0.051358  -0.004184
    15  H    0.000000   0.003838   0.002873   0.000332  -0.007534   0.003779
    16  H    0.000000   0.003300  -0.000525   0.000680  -0.017551   0.000630
    17  H    0.000000   0.053714   0.003750   0.000664   0.009694   0.000059
    18  C   -0.000369  -0.096546  -0.000461   0.000026  -0.155158  -0.002289
    19  H    0.000000   0.000344   0.000011  -0.000001  -0.003943   0.000046
    20  H    0.000833   0.008581   0.000064  -0.000001   0.089535  -0.001326
    21  H    0.000010  -0.000032   0.000011  -0.000001  -0.006171   0.000081
    22  C   -0.117559   0.000000   0.000613   0.000133   0.000676  -0.018586
    23  H    0.002092   0.000000   0.000075  -0.000019  -0.000121   0.006545
    24  H    0.003862  -0.000000  -0.000013  -0.000058  -0.000363  -0.029109
    25  H    0.010345   0.000000   0.000019  -0.000002  -0.000071  -0.000493
    26  C    0.000958   0.000009  -0.038298  -0.014780   0.002311   0.280913
    27  H   -0.000018  -0.000000  -0.002764   0.000683   0.000213  -0.031692
    28  H   -0.000095  -0.000000   0.000053   0.000783   0.000579  -0.027790
    29  H    0.000018   0.000000   0.005751   0.003791  -0.000554  -0.046762
               7          8          9         10         11         12
     1  O   -0.000292  -0.000064   0.002893   0.010673   0.005409  -0.239829
     2  O    0.011926   0.571500   0.022377  -0.000072  -0.000052  -0.003463
     3  N    0.342609   0.009219   0.018913  -0.000859   0.001835  -0.081915
     4  H   -0.039903  -0.001348   0.000791   0.000013   0.000012   0.021486
     5  C    0.297271  -0.665442  -0.589958  -0.104680  -0.024516   0.206574
     6  C   -0.142224   0.065796  -0.130801   0.022853  -0.008386  -0.223264
     7  C    5.552775  -0.220918  -0.263545   0.012444   0.000658   0.032077
     8  C   -0.220918   5.988368   0.212056   0.007874  -0.010644  -0.106713
     9  C   -0.263545   0.212056   6.381376   0.496004   0.402958  -0.063503
    10  H    0.012444   0.007874   0.496004   0.518501  -0.039288  -0.073380
    11  H    0.000658  -0.010644   0.402958  -0.039288   0.540744  -0.018582
    12  C    0.032077  -0.106713  -0.063503  -0.073380  -0.018582   7.434284
    13  C    0.029585  -0.013411  -0.218644  -0.003374  -0.009059  -0.520818
    14  C    0.250690  -0.129539   0.023448  -0.000206  -0.000540   0.008848
    15  H   -0.030910   0.009444   0.000045   0.000050  -0.000032  -0.001567
    16  H   -0.013906   0.007834  -0.001611  -0.000009   0.000129  -0.000084
    17  H   -0.057932  -0.026204   0.002863  -0.000009  -0.000018  -0.000522
    18  C    0.028564   0.329637  -0.017464  -0.011106  -0.002671   0.009829
    19  H   -0.000263  -0.024720  -0.001721   0.000391   0.000625  -0.000230
    20  H    0.004665  -0.143922  -0.014714  -0.001090  -0.003578   0.004549
    21  H   -0.001198  -0.016165  -0.001141   0.000390   0.000119  -0.000444
    22  C    0.000355  -0.000019   0.019884   0.000560   0.000981  -0.305166
    23  H   -0.000005   0.000001  -0.002076  -0.000135   0.000194   0.004136
    24  H    0.000047  -0.000004   0.001897  -0.000002  -0.000134   0.052301
    25  H    0.000014  -0.000000  -0.000246  -0.000025  -0.000075   0.024837
    26  C    0.008308   0.001010   0.024201  -0.000173  -0.000302  -0.107957
    27  H   -0.001006  -0.000007   0.000175   0.000059  -0.000027  -0.011308
    28  H   -0.001252   0.000006  -0.001429   0.000009  -0.000014   0.004910
    29  H    0.003454   0.000015  -0.000647  -0.000009   0.000045   0.021330
              13         14         15         16         17         18
     1  O    0.703823  -0.000013   0.000000   0.000000   0.000000  -0.000369
     2  O    0.000007  -0.097253   0.003838   0.003300   0.053714  -0.096546
     3  N    0.001631  -0.058352   0.002873  -0.000525   0.003750  -0.000461
     4  H    0.000604   0.000740   0.000332   0.000680   0.000664   0.000026
     5  C    0.059889   0.051358  -0.007534  -0.017551   0.009694  -0.155158
     6  C    0.117765  -0.004184   0.003779   0.000630   0.000059  -0.002289
     7  C    0.029585   0.250690  -0.030910  -0.013906  -0.057932   0.028564
     8  C   -0.013411  -0.129539   0.009444   0.007834  -0.026204   0.329637
     9  C   -0.218644   0.023448   0.000045  -0.001611   0.002863  -0.017464
    10  H   -0.003374  -0.000206   0.000050  -0.000009  -0.000009  -0.011106
    11  H   -0.009059  -0.000540  -0.000032   0.000129  -0.000018  -0.002671
    12  C   -0.520818   0.008848  -0.001567  -0.000084  -0.000522   0.009829
    13  C    5.602574   0.000163  -0.000034  -0.000023  -0.000001   0.000770
    14  C    0.000163   5.342900   0.368213   0.376932   0.391911  -0.005928
    15  H   -0.000034   0.368213   0.539199  -0.025167  -0.012230   0.000169
    16  H   -0.000023   0.376932  -0.025167   0.515964  -0.010869   0.000155
    17  H   -0.000001   0.391911  -0.012230  -0.010869   0.447862   0.002850
    18  C    0.000770  -0.005928   0.000169   0.000155   0.002850   5.164405
    19  H   -0.000025  -0.000107  -0.000011   0.000021   0.000018   0.407980
    20  H    0.002225   0.000694  -0.000015  -0.000021  -0.000310   0.394427
    21  H   -0.000016   0.000087   0.000009  -0.000013  -0.000038   0.397293
    22  C    0.368466   0.000016  -0.000002   0.000000   0.000000   0.000008
    23  H   -0.031969   0.000001  -0.000000   0.000000  -0.000000  -0.000000
    24  H   -0.061463   0.000001   0.000001  -0.000000   0.000000   0.000001
    25  H   -0.036709   0.000000  -0.000000   0.000000  -0.000000   0.000000
    26  C   -0.064952  -0.001393   0.000221  -0.000158   0.000019  -0.000014
    27  H    0.004038  -0.000049  -0.000021   0.000011  -0.000001  -0.000000
    28  H   -0.009576   0.000008   0.000008  -0.000004  -0.000000  -0.000000
    29  H    0.000391   0.000512   0.000027  -0.000018   0.000003   0.000001
              19         20         21         22         23         24
     1  O    0.000000   0.000833   0.000010  -0.117559   0.002092   0.003862
     2  O    0.000344   0.008581  -0.000032   0.000000   0.000000  -0.000000
     3  N    0.000011   0.000064   0.000011   0.000613   0.000075  -0.000013
     4  H   -0.000001  -0.000001  -0.000001   0.000133  -0.000019  -0.000058
     5  C   -0.003943   0.089535  -0.006171   0.000676  -0.000121  -0.000363
     6  C    0.000046  -0.001326   0.000081  -0.018586   0.006545  -0.029109
     7  C   -0.000263   0.004665  -0.001198   0.000355  -0.000005   0.000047
     8  C   -0.024720  -0.143922  -0.016165  -0.000019   0.000001  -0.000004
     9  C   -0.001721  -0.014714  -0.001141   0.019884  -0.002076   0.001897
    10  H    0.000391  -0.001090   0.000390   0.000560  -0.000135  -0.000002
    11  H    0.000625  -0.003578   0.000119   0.000981   0.000194  -0.000134
    12  C   -0.000230   0.004549  -0.000444  -0.305166   0.004136   0.052301
    13  C   -0.000025   0.002225  -0.000016   0.368466  -0.031969  -0.061463
    14  C   -0.000107   0.000694   0.000087   0.000016   0.000001   0.000001
    15  H   -0.000011  -0.000015   0.000009  -0.000002  -0.000000   0.000001
    16  H    0.000021  -0.000021  -0.000013   0.000000   0.000000  -0.000000
    17  H    0.000018  -0.000310  -0.000038   0.000000  -0.000000   0.000000
    18  C    0.407980   0.394427   0.397293   0.000008  -0.000000   0.000001
    19  H    0.504693  -0.019043  -0.019195  -0.000000   0.000000   0.000000
    20  H   -0.019043   0.547336  -0.015896   0.000058  -0.000001  -0.000001
    21  H   -0.019195  -0.015896   0.506617  -0.000001  -0.000000   0.000000
    22  C   -0.000000   0.000058  -0.000001   5.365709   0.399279   0.371078
    23  H    0.000000  -0.000001  -0.000000   0.399279   0.498473  -0.025653
    24  H    0.000000  -0.000001   0.000000   0.371078  -0.025653   0.543440
    25  H   -0.000000  -0.000001   0.000000   0.366085  -0.008363  -0.018898
    26  C    0.000000  -0.000012   0.000001  -0.011163  -0.012473   0.026489
    27  H    0.000000   0.000000  -0.000000  -0.010427   0.000884  -0.002367
    28  H   -0.000000   0.000000   0.000000   0.015708  -0.000776  -0.009087
    29  H    0.000000  -0.000000  -0.000000   0.001397   0.000227   0.000904
              25         26         27         28         29
     1  O    0.010345   0.000958  -0.000018  -0.000095   0.000018
     2  O    0.000000   0.000009  -0.000000  -0.000000   0.000000
     3  N    0.000019  -0.038298  -0.002764   0.000053   0.005751
     4  H   -0.000002  -0.014780   0.000683   0.000783   0.003791
     5  C   -0.000071   0.002311   0.000213   0.000579  -0.000554
     6  C   -0.000493   0.280913  -0.031692  -0.027790  -0.046762
     7  C    0.000014   0.008308  -0.001006  -0.001252   0.003454
     8  C   -0.000000   0.001010  -0.000007   0.000006   0.000015
     9  C   -0.000246   0.024201   0.000175  -0.001429  -0.000647
    10  H   -0.000025  -0.000173   0.000059   0.000009  -0.000009
    11  H   -0.000075  -0.000302  -0.000027  -0.000014   0.000045
    12  C    0.024837  -0.107957  -0.011308   0.004910   0.021330
    13  C   -0.036709  -0.064952   0.004038  -0.009576   0.000391
    14  C    0.000000  -0.001393  -0.000049   0.000008   0.000512
    15  H   -0.000000   0.000221  -0.000021   0.000008   0.000027
    16  H    0.000000  -0.000158   0.000011  -0.000004  -0.000018
    17  H   -0.000000   0.000019  -0.000001  -0.000000   0.000003
    18  C    0.000000  -0.000014  -0.000000  -0.000000   0.000001
    19  H   -0.000000   0.000000   0.000000  -0.000000   0.000000
    20  H   -0.000001  -0.000012   0.000000   0.000000  -0.000000
    21  H    0.000000   0.000001  -0.000000   0.000000  -0.000000
    22  C    0.366085  -0.011163  -0.010427   0.015708   0.001397
    23  H   -0.008363  -0.012473   0.000884  -0.000776   0.000227
    24  H   -0.018898   0.026489  -0.002367  -0.009087   0.000904
    25  H    0.509652   0.001318   0.000227   0.000734  -0.000070
    26  C    0.001318   5.184621   0.422555   0.396265   0.374624
    27  H    0.000227   0.422555   0.480719  -0.025592  -0.015132
    28  H    0.000734   0.396265  -0.025592   0.507434  -0.019953
    29  H   -0.000070   0.374624  -0.015132  -0.019953   0.520557
 Mulliken charges:
               1
     1  O   -0.363217
     2  O   -0.442097
     3  N   -0.063187
     4  H    0.294448
     5  C   -0.061840
     6  C    0.182084
     7  C    0.197913
     8  C    0.156359
     9  C   -0.302379
    10  H    0.164595
    11  H    0.164209
    12  C   -0.066416
    13  C    0.078141
    14  C   -0.518956
    15  H    0.149315
    16  H    0.164303
    17  H    0.194726
    18  C   -0.444110
    19  H    0.155129
    20  H    0.146964
    21  H    0.155690
    22  C   -0.448085
    23  H    0.169683
    24  H    0.147132
    25  H    0.151722
    26  C   -0.472144
    27  H    0.190846
    28  H    0.169072
    29  H    0.150098
 Sum of Mulliken charges =  -0.00000
 Mulliken charges with hydrogens summed into heavy atoms:
               1
     1  O   -0.363217
     2  O   -0.442097
     3  N    0.231262
     5  C   -0.061840
     6  C    0.182084
     7  C    0.197913
     8  C    0.156359
     9  C    0.026425
    12  C   -0.066416
    13  C    0.078141
    14  C   -0.010610
    18  C    0.013674
    22  C    0.020452
    26  C    0.037872
 Electronic spatial extent (au):  <R**2>=          50651.6789
 Charge=             -0.0000 electrons
 Dipole moment (field-independent basis, Debye):
    X=              2.1470    Y=              9.6040    Z=             -0.3603  Tot=              9.8477
 Quadrupole moment (field-independent basis, Debye-Ang):
   XX=           -113.8915   YY=            143.6891   ZZ=            -83.5441
   XY=             11.4961   XZ=              1.0044   YZ=             -0.4548
 Traceless Quadrupole moment (field-independent basis, Debye-Ang):
   XX=            -95.9760   YY=            161.6046   ZZ=            -65.6286
   XY=             11.4961   XZ=              1.0044   YZ=             -0.4548
 Octapole moment (field-independent basis, Debye-Ang**2):
  XXX=            573.4531  YYY=           1256.3219  ZZZ=            -94.9521  XYY=             87.9168
  XXY=          -1174.4350  XXZ=            -42.1941  XZZ=            128.6864  YZZ=           -934.2674
  YYZ=              5.1165  XYZ=             14.1851
 Hexadecapole moment (field-independent basis, Debye-Ang**3):
 XXXX=          -4894.5124 YYYY=            752.8784 ZZZZ=           -229.2442 XXXY=           5709.2034
 XXXZ=             56.6946 YYYX=           1356.9733 YYYZ=           -156.1709 ZZZX=              8.0122
 ZZZY=          -1067.8887 XXYY=         -12893.7604 XXZZ=           -663.8598 YYZZ=         -10723.1863
 XXYZ=           -462.9084 YYXZ=            184.8568 ZZXY=           1365.6405
 N-N= 8.979947086646D+02 E-N=-3.271121357404D+03  KE= 6.298989138328D+02
 No NMR shielding tensors so no spin-rotation constants.
 Leave Link  601 at Mon Mar  9 21:24:52 2026, MaxMem=  2147483648 cpu:               3.6 elap:               0.1
 (Enter /data/home/wyx/g16/l9999.exe)
 1\1\GINC-CN013\SP\RPBE1PBE\TZVP\C11H15N1O2\WYX\09-Mar-2026\0\\#p PBE1P
 BE/TZVP em=gd3bj SCRF=(Solvent=Water,NonEquilibrium=Read) Geom=Check G
 uess=Read NoSymm\\Title Card Required\\0,1\O,0,1.385315417,9.824086118
 8,0.6889993483\O,0,-4.9030260754,9.7483497138,0.1951667044\N,0,-2.0869
 414834,12.909280699,0.1865649915\H,0,-2.3982698188,13.8650968104,0.110
 7183678\C,0,-2.6773899738,10.6059252065,0.2327868792\C,0,-0.7539460999
 ,12.7114117163,0.377154134\C,0,-3.0600258657,11.9451994759,0.146221762
 1\C,0,-3.612330246,9.5860314191,0.238914833\C,0,-1.2102524536,10.24984
 55192,0.2810185995\H,0,-1.019126927,9.5393883104,1.0901940118\H,0,-0.9
 21058118,9.7189842911,-0.6356810934\C,0,-0.2791574268,11.4249604152,0.
 4755023243\C,0,1.0891177093,11.0279531621,0.7145201407\C,0,-4.44180693
 51,12.4619667391,-0.018368426\H,0,-4.6733795282,13.2373709648,0.719951
 1947\H,0,-4.5990543103,12.8909798919,-1.0157200977\H,0,-5.1790166732,1
 1.6624717226,0.1066166245\C,0,-3.2900926918,8.1121060254,0.2859835338\
 H,0,-3.7461405228,7.5979252223,-0.5639775201\H,0,-2.2109509102,7.97970
 72877,0.2504912122\H,0,-3.6853908676,7.6656163809,1.2026632835\C,0,2.1
 973595831,12.0109388532,1.0139047754\H,0,2.5077418523,12.5387131597,0.
 1082330196\H,0,1.915642782,12.7580455778,1.7548859076\H,0,3.0510728855
 ,11.4447705868,1.3843516997\C,0,0.0214752256,13.9894862553,0.461044611
 \H,0,0.3188624929,14.211988279,1.4886124187\H,0,0.9209460684,13.963986
 1243,-0.1499559704\H,0,-0.5893481188,14.8232485213,0.1112027304\\Versi
 on=ES64L-G16RevA.03\HF=-632.8957675\RMSD=8.023e-09\Dipole=0.8447102,3.
 7785143,-0.1417406\Quadrupole=-71.35582,120.1490924,-48.7932724,8.5470
 465,0.7467209,-0.3381252\PG=C01 [X(C11H15N1O2)]\\@


 WHEN ALL ELSE FAILS, TRY THE BOSS'S SUGGESTION.
 Job cpu time:       0 days  0 hours 12 minutes 15.8 seconds.
 Elapsed time:       0 days  0 hours  0 minutes 23.9 seconds.
 File lengths (MBytes):  RWF=    340 Int=      0 D2E=      0 Chk=     67 Scr=      1
 Normal termination of Gaussian 16 at Mon Mar  9 21:24:53 2026.
