 Entering Gaussian System, Link 0=g16
 Input=DDL-S0-opt-freq.gjf
 Output=DDL-S0-opt-freq.log
 Initial command:
 /data/home/wyx/g16/l1.exe "/scr/tmp/wyx/13951/Gau-2943562.inp" -scrdir="/scr/tmp/wyx/13951/"
 Entering Link 1 = /data/home/wyx/g16/l1.exe PID=   2943563.
  
 Copyright (c) 1988,1990,1992,1993,1995,1998,2003,2009,2016,
            Gaussian, Inc.  All Rights Reserved.
  
 This is part of the Gaussian(R) 16 program.  It is based on
 the Gaussian(R) 09 system (copyright 2009, Gaussian, Inc.),
 the Gaussian(R) 03 system (copyright 2003, Gaussian, Inc.),
 the Gaussian(R) 98 system (copyright 1998, Gaussian, Inc.),
 the Gaussian(R) 94 system (copyright 1995, Gaussian, Inc.),
 the Gaussian 92(TM) system (copyright 1992, Gaussian, Inc.),
 the Gaussian 90(TM) system (copyright 1990, Gaussian, Inc.),
 the Gaussian 88(TM) system (copyright 1988, Gaussian, Inc.),
 the Gaussian 86(TM) system (copyright 1986, Carnegie Mellon
 University), and the Gaussian 82(TM) system (copyright 1983,
 Carnegie Mellon University). Gaussian is a federally registered
 trademark of Gaussian, Inc.
  
 This software contains proprietary and confidential information,
 including trade secrets, belonging to Gaussian, Inc.
  
 This software is provided under written license and may be
 used, copied, transmitted, or stored only in accord with that
 written license.
  
 The following legend is applicable only to US Government
 contracts under FAR:
  
                    RESTRICTED RIGHTS LEGEND
  
 Use, reproduction and disclosure by the US Government is
 subject to restrictions as set forth in subparagraphs (a)
 and (c) of the Commercial Computer Software - Restricted
 Rights clause in FAR 52.227-19.
  
 Gaussian, Inc.
 340 Quinnipiac St., Bldg. 40, Wallingford CT 06492
  
  
 ---------------------------------------------------------------
 Warning -- This program may not be used in any manner that
 competes with the business of Gaussian, Inc. or will provide
 assistance to any competitor of Gaussian, Inc.  The licensee
 of this program is prohibited from giving any competitor of
 Gaussian, Inc. access to this program.  By using this program,
 the user acknowledges that Gaussian, Inc. is engaged in the
 business of creating and licensing software in the field of
 computational chemistry and represents and warrants to the
 licensee that it is not a competitor of Gaussian, Inc. and that
 it will not use this program in any manner prohibited above.
 ---------------------------------------------------------------
  

 Cite this work as:
 Gaussian 16, Revision A.03,
 M. J. Frisch, G. W. Trucks, H. B. Schlegel, G. E. Scuseria, 
 M. A. Robb, J. R. Cheeseman, G. Scalmani, V. Barone, 
 G. A. Petersson, H. Nakatsuji, X. Li, M. Caricato, A. V. Marenich, 
 J. Bloino, B. G. Janesko, R. Gomperts, B. Mennucci, H. P. Hratchian, 
 J. V. Ortiz, A. F. Izmaylov, J. L. Sonnenberg, D. Williams-Young, 
 F. Ding, F. Lipparini, F. Egidi, J. Goings, B. Peng, A. Petrone, 
 T. Henderson, D. Ranasinghe, V. G. Zakrzewski, J. Gao, N. Rega, 
 G. Zheng, W. Liang, M. Hada, M. Ehara, K. Toyota, R. Fukuda, 
 J. Hasegawa, M. Ishida, T. Nakajima, Y. Honda, O. Kitao, H. Nakai, 
 T. Vreven, K. Throssell, J. A. Montgomery, Jr., J. E. Peralta, 
 F. Ogliaro, M. J. Bearpark, J. J. Heyd, E. N. Brothers, K. N. Kudin, 
 V. N. Staroverov, T. A. Keith, R. Kobayashi, J. Normand, 
 K. Raghavachari, A. P. Rendell, J. C. Burant, S. S. Iyengar, 
 J. Tomasi, M. Cossi, J. M. Millam, M. Klene, C. Adamo, R. Cammi, 
 J. W. Ochterski, R. L. Martin, K. Morokuma, O. Farkas, 
 J. B. Foresman, and D. J. Fox, Gaussian, Inc., Wallingford CT, 2016.
 
 ******************************************
 Gaussian 16:  ES64L-G16RevA.03 25-Dec-2016
                 9-Mar-2026 
 ******************************************
 %nprocshared=32
 Will use up to   32 processors via shared memory.
 %mem=16GB
 %chk=DDL-S0-opt-freq.chk
 ----------------------------------------------------
 #p PBE1PBE/TZVP em=gd3bj Opt Freq SCRF=Solvent=Water
 ----------------------------------------------------
 1/18=20,19=15,26=3,38=1/1,3;
 2/9=110,12=2,17=6,18=5,40=1/2;
 3/5=19,7=101,11=2,25=1,30=1,70=2201,71=1,72=1,74=-13,124=41/1,2,3;
 4//1;
 5/5=2,38=5,53=1/2;
 6/7=2,8=2,9=2,10=2,28=1/1;
 7//1,2,3,16;
 1/18=20,19=15,26=3/3(2);
 2/9=110/2;
 99//99;
 2/9=110/2;
 3/5=19,7=101,11=2,25=1,30=1,70=2205,71=1,72=1,74=-13,124=41/1,2,3;
 4/5=5,16=3,69=1/1;
 5/5=2,38=5,53=1/2;
 7//1,2,3,16;
 1/18=20,19=15,26=3/3(-5);
 2/9=110/2;
 6/7=2,8=2,9=2,10=2,19=2,28=1/1;
 99/9=1/99;
 Leave Link    1 at Mon Mar  9 15:15:08 2026, MaxMem=  2147483648 cpu:               0.8 elap:               0.1
 (Enter /data/home/wyx/g16/l101.exe)
 -------------------
 Title Card Required
 -------------------
 Symbolic Z-matrix:
 Charge =  0 Multiplicity = 1
 O                     1.30034   9.82448   0.889 
 O                    -4.90066   9.75248  -0.049 
 N                    -2.11966   12.93348   0.232 
 H                    -2.38066   13.74948   0.154 
 C                    -2.70566   10.63348   0.189 
 C                    -0.78166   12.71248   0.467 
 C                    -3.07066   11.94248   0.113 
 C                    -3.68666   9.55548   0.088 
 C                    -1.25366   10.25448   0.396 
 H                    -1.18866   9.69448   1.185 
 H                    -0.96066   9.72648  -0.363 
 C                    -0.31566   11.43348   0.559 
 C                     1.06334   11.04048   0.806 
 C                    -4.45566   12.48248  -0.092 
 H                    -4.41166   13.42948  -0.242 
 H                    -4.85666   12.05548  -0.853 
 H                    -4.98666   12.30648   0.689 
 C                    -3.18166   8.13648   0.152 
 H                    -3.91066   7.52948   0.003 
 H                    -2.51166   8.00448  -0.522 
 H                    -2.80066   7.97148   1.018 
 C                     2.22234   11.99248   0.967 
 H                     2.28634   12.55248   0.19 
 H                     2.08334   12.53848   1.744 
 H                     3.03634   11.49248   1.068 
 C                     0.01334   13.98748   0.593 
 H                     0.44234   14.01348   1.452 
 H                     0.67834   14.01948  -0.098 
 H                    -0.57566   14.74048   0.507 
 
 ITRead=  0  0  0  0  0  0  0  0  0  0  0  0  0  0  0  0  0  0  0  0
 ITRead=  0  0  0  0  0  0  0  0  0
 MicOpt= -1 -1 -1 -1 -1 -1 -1 -1 -1 -1 -1 -1 -1 -1 -1 -1 -1 -1 -1 -1
 MicOpt= -1 -1 -1 -1 -1 -1 -1 -1 -1
 NAtoms=     29 NQM=       29 NQMF=       0 NMMI=      0 NMMIF=      0
                NMic=       0 NMicF=      0.
                    Isotopes and Nuclear Properties:
 (Nuclear quadrupole moments (NQMom) in fm**2, nuclear magnetic moments (NMagM)
  in nuclear magnetons)

  Atom         1           2           3           4           5           6           7           8           9          10
 IAtWgt=          16          16          14           1          12          12          12          12          12           1
 AtmWgt=  15.9949146  15.9949146  14.0030740   1.0078250  12.0000000  12.0000000  12.0000000  12.0000000  12.0000000   1.0078250
 NucSpn=           0           0           2           1           0           0           0           0           0           1
 AtZEff=  -0.0000000  -0.0000000  -0.0000000  -0.0000000  -0.0000000  -0.0000000  -0.0000000  -0.0000000  -0.0000000  -0.0000000
 NQMom=    0.0000000   0.0000000   2.0440000   0.0000000   0.0000000   0.0000000   0.0000000   0.0000000   0.0000000   0.0000000
 NMagM=    0.0000000   0.0000000   0.4037610   2.7928460   0.0000000   0.0000000   0.0000000   0.0000000   0.0000000   2.7928460
 AtZNuc=   8.0000000   8.0000000   7.0000000   1.0000000   6.0000000   6.0000000   6.0000000   6.0000000   6.0000000   1.0000000

  Atom        11          12          13          14          15          16          17          18          19          20
 IAtWgt=           1          12          12          12           1           1           1          12           1           1
 AtmWgt=   1.0078250  12.0000000  12.0000000  12.0000000   1.0078250   1.0078250   1.0078250  12.0000000   1.0078250   1.0078250
 NucSpn=           1           0           0           0           1           1           1           0           1           1
 AtZEff=  -0.0000000  -0.0000000  -0.0000000  -0.0000000  -0.0000000  -0.0000000  -0.0000000  -0.0000000  -0.0000000  -0.0000000
 NQMom=    0.0000000   0.0000000   0.0000000   0.0000000   0.0000000   0.0000000   0.0000000   0.0000000   0.0000000   0.0000000
 NMagM=    2.7928460   0.0000000   0.0000000   0.0000000   2.7928460   2.7928460   2.7928460   0.0000000   2.7928460   2.7928460
 AtZNuc=   1.0000000   6.0000000   6.0000000   6.0000000   1.0000000   1.0000000   1.0000000   6.0000000   1.0000000   1.0000000

  Atom        21          22          23          24          25          26          27          28          29
 IAtWgt=           1          12           1           1           1          12           1           1           1
 AtmWgt=   1.0078250  12.0000000   1.0078250   1.0078250   1.0078250  12.0000000   1.0078250   1.0078250   1.0078250
 NucSpn=           1           0           1           1           1           0           1           1           1
 AtZEff=  -0.0000000  -0.0000000  -0.0000000  -0.0000000  -0.0000000  -0.0000000  -0.0000000  -0.0000000  -0.0000000
 NQMom=    0.0000000   0.0000000   0.0000000   0.0000000   0.0000000   0.0000000   0.0000000   0.0000000   0.0000000
 NMagM=    2.7928460   0.0000000   2.7928460   2.7928460   2.7928460   0.0000000   2.7928460   2.7928460   2.7928460
 AtZNuc=   1.0000000   6.0000000   1.0000000   1.0000000   1.0000000   6.0000000   1.0000000   1.0000000   1.0000000
 Leave Link  101 at Mon Mar  9 15:15:09 2026, MaxMem=  2147483648 cpu:               6.3 elap:               0.2
 (Enter /data/home/wyx/g16/l103.exe)

 GradGradGradGradGradGradGradGradGradGradGradGradGradGradGradGradGradGrad
 Berny optimization.
 Initialization pass.
                           ----------------------------
                           !    Initial Parameters    !
                           ! (Angstroms and Degrees)  !
 --------------------------                            --------------------------
 ! Name  Definition              Value          Derivative Info.                !
 --------------------------------------------------------------------------------
 ! R1    R(1,13)                 1.2417         estimate D2E/DX2                !
 ! R2    R(2,8)                  1.2375         estimate D2E/DX2                !
 ! R3    R(3,4)                  0.8603         estimate D2E/DX2                !
 ! R4    R(3,6)                  1.3763         estimate D2E/DX2                !
 ! R5    R(3,7)                  1.3786         estimate D2E/DX2                !
 ! R6    R(5,7)                  1.3611         estimate D2E/DX2                !
 ! R7    R(5,8)                  1.461          estimate D2E/DX2                !
 ! R8    R(5,9)                  1.5149         estimate D2E/DX2                !
 ! R9    R(6,12)                 1.3644         estimate D2E/DX2                !
 ! R10   R(6,26)                 1.5078         estimate D2E/DX2                !
 ! R11   R(7,14)                 1.5006         estimate D2E/DX2                !
 ! R12   R(8,18)                 1.5075         estimate D2E/DX2                !
 ! R13   R(9,10)                 0.9697         estimate D2E/DX2                !
 ! R14   R(9,11)                 0.9699         estimate D2E/DX2                !
 ! R15   R(9,12)                 1.5154         estimate D2E/DX2                !
 ! R16   R(12,13)                1.455          estimate D2E/DX2                !
 ! R17   R(13,22)                1.5085         estimate D2E/DX2                !
 ! R18   R(14,15)                0.9598         estimate D2E/DX2                !
 ! R19   R(14,16)                0.9603         estimate D2E/DX2                !
 ! R20   R(14,17)                0.9607         estimate D2E/DX2                !
 ! R21   R(18,19)                0.9603         estimate D2E/DX2                !
 ! R22   R(18,20)                0.9595         estimate D2E/DX2                !
 ! R23   R(18,21)                0.9604         estimate D2E/DX2                !
 ! R24   R(22,23)                0.9599         estimate D2E/DX2                !
 ! R25   R(22,24)                0.9598         estimate D2E/DX2                !
 ! R26   R(22,25)                0.9606         estimate D2E/DX2                !
 ! R27   R(26,27)                0.9605         estimate D2E/DX2                !
 ! R28   R(26,28)                0.9595         estimate D2E/DX2                !
 ! R29   R(26,29)                0.9599         estimate D2E/DX2                !
 ! A1    A(4,3,6)              117.5635         estimate D2E/DX2                !
 ! A2    A(4,3,7)              117.6924         estimate D2E/DX2                !
 ! A3    A(6,3,7)              124.744          estimate D2E/DX2                !
 ! A4    A(7,5,8)              121.7144         estimate D2E/DX2                !
 ! A5    A(7,5,9)              120.3509         estimate D2E/DX2                !
 ! A6    A(8,5,9)              117.9323         estimate D2E/DX2                !
 ! A7    A(3,6,12)             119.609          estimate D2E/DX2                !
 ! A8    A(3,6,26)             113.0201         estimate D2E/DX2                !
 ! A9    A(12,6,26)            127.3708         estimate D2E/DX2                !
 ! A10   A(3,7,5)              120.1007         estimate D2E/DX2                !
 ! A11   A(3,7,14)             112.9411         estimate D2E/DX2                !
 ! A12   A(5,7,14)             126.9579         estimate D2E/DX2                !
 ! A13   A(2,8,5)              123.2909         estimate D2E/DX2                !
 ! A14   A(2,8,18)             118.8925         estimate D2E/DX2                !
 ! A15   A(5,8,18)             117.8164         estimate D2E/DX2                !
 ! A16   A(5,9,10)             108.6576         estimate D2E/DX2                !
 ! A17   A(5,9,11)             108.5917         estimate D2E/DX2                !
 ! A18   A(5,9,12)             114.4149         estimate D2E/DX2                !
 ! A19   A(10,9,11)            107.5833         estimate D2E/DX2                !
 ! A20   A(10,9,12)            108.6802         estimate D2E/DX2                !
 ! A21   A(11,9,12)            108.7065         estimate D2E/DX2                !
 ! A22   A(6,12,9)             120.7085         estimate D2E/DX2                !
 ! A23   A(6,12,13)            126.0404         estimate D2E/DX2                !
 ! A24   A(9,12,13)            113.2507         estimate D2E/DX2                !
 ! A25   A(1,13,12)            117.1786         estimate D2E/DX2                !
 ! A26   A(1,13,22)            117.6631         estimate D2E/DX2                !
 ! A27   A(12,13,22)           125.1583         estimate D2E/DX2                !
 ! A28   A(7,14,15)            109.517          estimate D2E/DX2                !
 ! A29   A(7,14,16)            109.4899         estimate D2E/DX2                !
 ! A30   A(7,14,17)            109.4609         estimate D2E/DX2                !
 ! A31   A(15,14,16)           109.5117         estimate D2E/DX2                !
 ! A32   A(15,14,17)           109.4599         estimate D2E/DX2                !
 ! A33   A(16,14,17)           109.3878         estimate D2E/DX2                !
 ! A34   A(8,18,19)            109.5178         estimate D2E/DX2                !
 ! A35   A(8,18,20)            109.4868         estimate D2E/DX2                !
 ! A36   A(8,18,21)            109.4442         estimate D2E/DX2                !
 ! A37   A(19,18,20)           109.5217         estimate D2E/DX2                !
 ! A38   A(19,18,21)           109.42           estimate D2E/DX2                !
 ! A39   A(20,18,21)           109.4367         estimate D2E/DX2                !
 ! A40   A(13,22,23)           109.4516         estimate D2E/DX2                !
 ! A41   A(13,22,24)           109.5211         estimate D2E/DX2                !
 ! A42   A(13,22,25)           109.4989         estimate D2E/DX2                !
 ! A43   A(23,22,24)           109.4558         estimate D2E/DX2                !
 ! A44   A(23,22,25)           109.406          estimate D2E/DX2                !
 ! A45   A(24,22,25)           109.4938         estimate D2E/DX2                !
 ! A46   A(6,26,27)            109.4576         estimate D2E/DX2                !
 ! A47   A(6,26,28)            109.4768         estimate D2E/DX2                !
 ! A48   A(6,26,29)            109.4105         estimate D2E/DX2                !
 ! A49   A(27,26,28)           109.4864         estimate D2E/DX2                !
 ! A50   A(27,26,29)           109.4486         estimate D2E/DX2                !
 ! A51   A(28,26,29)           109.5474         estimate D2E/DX2                !
 ! D1    D(4,3,6,12)          -178.1027         estimate D2E/DX2                !
 ! D2    D(4,3,6,26)             1.8261         estimate D2E/DX2                !
 ! D3    D(7,3,6,12)             1.9102         estimate D2E/DX2                !
 ! D4    D(7,3,6,26)          -178.161          estimate D2E/DX2                !
 ! D5    D(4,3,7,5)            178.0784         estimate D2E/DX2                !
 ! D6    D(4,3,7,14)            -2.0821         estimate D2E/DX2                !
 ! D7    D(6,3,7,5)             -1.9345         estimate D2E/DX2                !
 ! D8    D(6,3,7,14)           177.905          estimate D2E/DX2                !
 ! D9    D(8,5,7,3)            179.0531         estimate D2E/DX2                !
 ! D10   D(8,5,7,14)            -0.762          estimate D2E/DX2                !
 ! D11   D(9,5,7,3)             -0.3755         estimate D2E/DX2                !
 ! D12   D(9,5,7,14)           179.8094         estimate D2E/DX2                !
 ! D13   D(7,5,8,2)             -1.2298         estimate D2E/DX2                !
 ! D14   D(7,5,8,18)           178.6216         estimate D2E/DX2                !
 ! D15   D(9,5,8,2)            178.2121         estimate D2E/DX2                !
 ! D16   D(9,5,8,18)            -1.9364         estimate D2E/DX2                !
 ! D17   D(7,5,9,10)           123.9971         estimate D2E/DX2                !
 ! D18   D(7,5,9,11)          -119.2603         estimate D2E/DX2                !
 ! D19   D(7,5,9,12)             2.361          estimate D2E/DX2                !
 ! D20   D(8,5,9,10)           -55.4528         estimate D2E/DX2                !
 ! D21   D(8,5,9,11)            61.2898         estimate D2E/DX2                !
 ! D22   D(8,5,9,12)          -177.0889         estimate D2E/DX2                !
 ! D23   D(3,6,12,9)             0.4125         estimate D2E/DX2                !
 ! D24   D(3,6,12,13)         -179.8367         estimate D2E/DX2                !
 ! D25   D(26,6,12,9)         -179.505          estimate D2E/DX2                !
 ! D26   D(26,6,12,13)           0.2457         estimate D2E/DX2                !
 ! D27   D(3,6,26,27)          121.4111         estimate D2E/DX2                !
 ! D28   D(3,6,26,28)         -118.5751         estimate D2E/DX2                !
 ! D29   D(3,6,26,29)            1.4843         estimate D2E/DX2                !
 ! D30   D(12,6,26,27)         -58.6667         estimate D2E/DX2                !
 ! D31   D(12,6,26,28)          61.347          estimate D2E/DX2                !
 ! D32   D(12,6,26,29)        -178.5935         estimate D2E/DX2                !
 ! D33   D(3,7,14,15)            8.8826         estimate D2E/DX2                !
 ! D34   D(3,7,14,16)          128.9718         estimate D2E/DX2                !
 ! D35   D(3,7,14,17)         -111.1253         estimate D2E/DX2                !
 ! D36   D(5,7,14,15)         -171.2911         estimate D2E/DX2                !
 ! D37   D(5,7,14,16)          -51.2019         estimate D2E/DX2                !
 ! D38   D(5,7,14,17)           68.701          estimate D2E/DX2                !
 ! D39   D(2,8,18,19)            4.4419         estimate D2E/DX2                !
 ! D40   D(2,8,18,20)          124.5419         estimate D2E/DX2                !
 ! D41   D(2,8,18,21)         -115.5074         estimate D2E/DX2                !
 ! D42   D(5,8,18,19)         -175.4163         estimate D2E/DX2                !
 ! D43   D(5,8,18,20)          -55.3163         estimate D2E/DX2                !
 ! D44   D(5,8,18,21)           64.6345         estimate D2E/DX2                !
 ! D45   D(5,9,12,6)            -2.3854         estimate D2E/DX2                !
 ! D46   D(5,9,12,13)          177.834          estimate D2E/DX2                !
 ! D47   D(10,9,12,6)         -124.0091         estimate D2E/DX2                !
 ! D48   D(10,9,12,13)          56.2103         estimate D2E/DX2                !
 ! D49   D(11,9,12,6)          119.1729         estimate D2E/DX2                !
 ! D50   D(11,9,12,13)         -60.6077         estimate D2E/DX2                !
 ! D51   D(6,12,13,1)          178.3653         estimate D2E/DX2                !
 ! D52   D(6,12,13,22)          -1.6951         estimate D2E/DX2                !
 ! D53   D(9,12,13,1)           -1.8679         estimate D2E/DX2                !
 ! D54   D(9,12,13,22)         178.0717         estimate D2E/DX2                !
 ! D55   D(1,13,22,23)         123.267          estimate D2E/DX2                !
 ! D56   D(1,13,22,24)        -116.7333         estimate D2E/DX2                !
 ! D57   D(1,13,22,25)           3.3419         estimate D2E/DX2                !
 ! D58   D(12,13,22,23)        -56.6723         estimate D2E/DX2                !
 ! D59   D(12,13,22,24)         63.3273         estimate D2E/DX2                !
 ! D60   D(12,13,22,25)       -176.5975         estimate D2E/DX2                !
 --------------------------------------------------------------------------------
 Trust Radius=3.00D-01 FncErr=1.00D-07 GrdErr=1.00D-06 EigMax=2.50D+02 EigMin=1.00D-04
 Number of steps in this run=    150 maximum allowed number of steps=    174.
 GradGradGradGradGradGradGradGradGradGradGradGradGradGradGradGradGradGrad

 Leave Link  103 at Mon Mar  9 15:15:09 2026, MaxMem=  2147483648 cpu:               0.2 elap:               0.0
 (Enter /data/home/wyx/g16/l202.exe)
                          Input orientation:                          
 ---------------------------------------------------------------------
 Center     Atomic      Atomic             Coordinates (Angstroms)
 Number     Number       Type             X           Y           Z
 ---------------------------------------------------------------------
      1          8           0        1.300339    9.824477    0.889000
      2          8           0       -4.900661    9.752477   -0.049000
      3          7           0       -2.119661   12.933477    0.232000
      4          1           0       -2.380661   13.749477    0.154000
      5          6           0       -2.705661   10.633477    0.189000
      6          6           0       -0.781661   12.712477    0.467000
      7          6           0       -3.070661   11.942477    0.113000
      8          6           0       -3.686661    9.555477    0.088000
      9          6           0       -1.253661   10.254477    0.396000
     10          1           0       -1.188661    9.694477    1.185000
     11          1           0       -0.960661    9.726477   -0.363000
     12          6           0       -0.315661   11.433477    0.559000
     13          6           0        1.063339   11.040477    0.806000
     14          6           0       -4.455661   12.482477   -0.092000
     15          1           0       -4.411661   13.429477   -0.242000
     16          1           0       -4.856661   12.055477   -0.853000
     17          1           0       -4.986661   12.306477    0.689000
     18          6           0       -3.181661    8.136477    0.152000
     19          1           0       -3.910661    7.529477    0.003000
     20          1           0       -2.511661    8.004477   -0.522000
     21          1           0       -2.800661    7.971477    1.018000
     22          6           0        2.222339   11.992477    0.967000
     23          1           0        2.286339   12.552477    0.190000
     24          1           0        2.083339   12.538477    1.744000
     25          1           0        3.036339   11.492477    1.068000
     26          6           0        0.013339   13.987477    0.593000
     27          1           0        0.442339   14.013477    1.452000
     28          1           0        0.678339   14.019477   -0.098000
     29          1           0       -0.575661   14.740477    0.507000
 ---------------------------------------------------------------------
                    Distance matrix (angstroms):
                    1          2          3          4          5
     1  O    0.000000
     2  O    6.271956   0.000000
     3  N    4.668397   4.234582   0.000000
     4  H    5.430986   4.729442   0.860268   0.000000
     5  C    4.146386   2.377147   2.373867   3.133098   0.000000
     6  C    3.585157   5.098433   1.376339   1.931357   2.846278
     7  C    4.918713   2.858539   1.378638   1.934691   1.361059
     8  C    5.058076   1.237487   3.726541   4.393134   1.461043
     9  C    2.636449   3.708185   2.820265   3.680179   1.514858
    10  H    2.509908   3.912169   3.502298   4.350500   2.043288
    11  H    2.586354   3.952578   3.461525   4.297466   2.042640
    12  C    2.304178   4.921143   2.368828   3.129234   2.547352
    13  C    1.241658   6.161109   3.747588   4.430002   3.840794
    14  C    6.415517   2.766365   2.401098   2.443651   2.561301
    15  H    6.848513   3.714391   2.392479   2.093843   3.303606
    16  H    6.776472   2.439705   3.072341   3.164532   2.781124
    17  H    6.762152   2.659879   2.970129   3.026501   2.872610
    18  C    4.845703   2.367872   4.913802   5.669865   2.542234
    19  H    5.762512   2.434036   5.697661   6.407191   3.334882
    20  H    4.453613   2.997758   5.001722   5.786118   2.730348
    21  H    4.502050   2.953041   5.069813   5.857318   2.789715
    22  C    2.357200   7.535714   4.503184   4.993559   5.170817
    23  H    2.983753   7.716870   4.422642   4.818194   5.348142
    24  H    2.951256   7.730000   4.484125   4.891004   5.383453
    25  H    2.414117   8.201906   5.418460   5.939136   5.872060
    26  C    4.367443   6.518802   2.406434   2.445527   4.336530
    27  H    4.312871   6.996912   3.036222   3.118305   4.788473
    28  H    4.354202   7.023883   3.019454   3.081215   4.795709
    29  H    5.275638   6.625323   2.392658   2.089190   4.637399
                    6          7          8          9         10
     6  C    0.000000
     7  C    2.440848   0.000000
     8  C    4.306892   2.465330   0.000000
     9  C    2.503915   2.496181   2.550089   0.000000
    10  H    3.128817   3.121636   2.731801   0.969714   0.000000
    11  H    3.104374   3.096665   2.768342   0.969904   1.565028
    12  C    1.364354   2.836904   3.887463   1.515406   2.044046
    13  C    2.512873   4.287634   5.028245   2.480803   2.650823
    14  C    3.723393   1.500617   3.031681   3.931276   4.480732
    15  H    3.767449   2.033587   3.955048   4.523343   5.135590
    16  H    4.333552   2.033647   2.916227   4.217252   4.814768
    17  H    4.230384   2.033551   3.101484   4.269876   4.636094
    18  C    5.176775   3.807818   1.507542   2.874482   2.732490
    19  H    6.072020   4.493581   2.040117   3.826189   3.673368
    20  H    5.112366   4.027847   2.039197   2.736382   2.742313
    21  H    5.182378   4.081760   2.039351   2.827045   2.365409
    22  C    3.129284   5.361685   6.451968   3.928010   4.118647
    23  H    3.084632   5.392168   6.683498   4.225499   4.608016
    24  H    3.141533   5.438666   6.703247   4.262550   4.371133
    25  H    4.052990   6.197578   7.064779   4.515344   4.593160
    26  C    1.507822   3.731418   5.795485   3.947073   4.497234
    27  H    2.039853   4.292217   6.227592   4.256951   4.624415
    28  H    2.039381   4.291090   6.246208   4.260503   4.882356
    29  H    2.038828   3.769491   6.061197   4.538304   5.128116
                   11         12         13         14         15
    11  H    0.000000
    12  C    2.044495   0.000000
    13  C    2.681368   1.455025   0.000000
    14  C    4.459148   4.320162   5.774524   0.000000
    15  H    5.063225   4.626320   6.064755   0.959815   0.000000
    16  H    4.565431   4.795968   6.231284   0.960339   1.568191
    17  H    4.896098   4.753659   6.182147   0.960676   1.567965
    18  C    2.779598   4.387461   5.184685   4.535452   5.448301
    19  H    3.696385   5.336139   6.141059   4.983800   5.926300
    20  H    2.322965   4.212958   4.874577   4.900665   5.754913
    21  H    2.893577   4.286181   4.939049   4.931556   5.828609
    22  C    4.127365   2.630663   1.508478   6.779179   6.894680
    23  H    4.339942   2.856348   2.039934   6.748258   6.768970
    24  H    4.648949   2.894901   2.040649   6.792095   6.850044
    25  H    4.598100   3.390939   2.040999   7.645637   7.806457
    26  C    4.474230   2.575328   3.135710   4.765103   4.537534
    27  H    4.862201   2.833445   3.105106   5.358946   5.174167
    28  H    4.602868   2.847294   3.136859   5.359138   5.126103
    29  H    5.103462   3.317613   4.057798   4.528992   4.122453
                   16         17         18         19         20
    16  H    0.000000
    17  H    1.567694   0.000000
    18  C    4.378837   4.575510   0.000000
    19  H    4.702375   4.944502   0.960256   0.000000
    20  H    4.692461   5.108752   0.959479   1.567945   0.000000
    21  H    4.940327   4.866114   0.960386   1.567702   1.567230
    22  C    7.309488   7.221188   6.688511   7.646002   6.366476
    23  H    7.235835   7.294247   7.028622   7.979242   6.649214
    24  H    7.425719   7.152045   7.045019   8.003074   6.841486
    25  H    8.142890   8.073089   7.124978   8.068482   6.743482
    26  C    5.435112   5.275886   6.681071   7.579686   6.589017
    27  H    6.101327   5.741956   7.025846   7.942951   6.980750
    28  H    5.921448   5.970424   7.040724   7.949165   6.821737
    29  H    5.233143   5.041270   7.108451   7.960827   7.083829
                   21         22         23         24         25
    21  H    0.000000
    22  C    6.434405   0.000000
    23  H    6.895558   0.959909   0.000000
    24  H    6.725922   0.959774   1.567265   0.000000
    25  H    6.816928   0.960623   1.567477   1.568216   0.000000
    26  C    6.655184   2.999930   2.718118   2.776563   3.948313
    27  H    6.871038   2.736433   2.669738   2.225707   3.637545
    28  H    7.065918   2.761682   2.195609   2.749609   3.647663
    29  H    7.143606   3.948659   3.616473   3.667322   4.889864
                   26         27         28         29
    26  C    0.000000
    27  H    0.960520   0.000000
    28  H    0.959547   1.567875   0.000000
    29  H    0.959857   1.567762   1.567923   0.000000
 Stoichiometry    C11H15NO2
 Framework group  C1[X(C11H15NO2)]
 Deg. of freedom    81
 Full point group                 C1      NOp   1
 Largest Abelian subgroup         C1      NOp   1
 Largest concise Abelian subgroup C1      NOp   1
                         Standard orientation:                         
 ---------------------------------------------------------------------
 Center     Atomic      Atomic             Coordinates (Angstroms)
 Number     Number       Type             X           Y           Z
 ---------------------------------------------------------------------
      1          8           0        2.244800   -2.287581    0.035733
      2          8           0       -3.677612   -0.223271    0.068666
      3          7           0        0.029462    1.821203   -0.028309
      4          1           0        0.053268    2.680856   -0.050468
      5          6           0       -1.303500   -0.143077   -0.020721
      6          6           0        1.231488    1.151124   -0.007396
      7          6           0       -1.208517    1.214655   -0.016062
      8          6           0       -2.596442   -0.822672    0.012414
      9          6           0       -0.053088   -0.997785   -0.047925
     10          1           0       -0.072754   -1.600554    0.711435
     11          1           0       -0.066207   -1.539437   -0.852385
     12          6           0        1.242870   -0.213176   -0.011368
     13          6           0        2.426224   -1.059478    0.012000
     14          6           0       -2.341602    2.198272    0.005589
     15          1           0       -1.999676    3.084403   -0.132624
     16          1           0       -2.966069    1.983074   -0.691535
     17          1           0       -2.786098    2.155797    0.856187
     18          6           0       -2.600304   -2.329674   -0.027737
     19          1           0       -3.505463   -2.647093   -0.072717
     20          1           0       -2.116302   -2.630535   -0.799633
     21          1           0       -2.181035   -2.671705    0.765718
     22          6           0        3.850250   -0.561843    0.008322
     23          1           0        3.991561   -0.002907   -0.759172
     24          1           0        4.015222   -0.055848    0.807020
     25          1           0        4.451377   -1.310310   -0.026882
     26          6           0        2.421926    2.076226    0.016469
     27          1           0        2.949794    1.898268    0.798955
     28          1           0        2.954661    1.932410   -0.768541
     29          1           0        2.118160    2.986537    0.036109
 ---------------------------------------------------------------------
 Rotational constants (GHZ):           1.1150777           0.4851146           0.3409496
 Leave Link  202 at Mon Mar  9 15:15:09 2026, MaxMem=  2147483648 cpu:               0.1 elap:               0.0
 (Enter /data/home/wyx/g16/l301.exe)
 Standard basis: TZVP (5D, 7F)
 Ernie: Thresh=  0.10000D-02 Tol=  0.10000D-05 Strict=F.
 There are   370 symmetry adapted cartesian basis functions of A   symmetry.
 There are   356 symmetry adapted basis functions of A   symmetry.
   356 basis functions,   610 primitive gaussians,   370 cartesian basis functions
    52 alpha electrons       52 beta electrons
       nuclear repulsion energy       908.5842081229 Hartrees.
 IExCor= 1009 DFT=T Ex+Corr=PBE1PBE ExCW=0 ScaHFX=  0.250000
 ScaDFX=  0.750000  0.750000  1.000000  1.000000 ScalE2=  1.000000  1.000000
 IRadAn=      5 IRanWt=     -1 IRanGd=            0 ICorTp=0 IEmpDi=141
 NAtoms=   29 NActive=   29 NUniq=   29 SFac= 1.00D+00 NAtFMM=   60 NAOKFM=F Big=F
 Integral buffers will be    131072 words long.
 Raffenetti 2 integral format.
 Two-electron integral symmetry is turned on.
 R6Disp:  Grimme-D3(BJ) Dispersion energy=       -0.0293786988 Hartrees.
 Nuclear repulsion after empirical dispersion term =      908.5548294241 Hartrees.
 ------------------------------------------------------------------------------
 Polarizable Continuum Model (PCM)
 =================================
 Model                : PCM.
 Atomic radii         : UFF (Universal Force Field).
 Polarization charges : Total charges.
 Charge compensation  : None.
 Solution method      : On-the-fly selection.
 Cavity type          : Scaled VdW (van der Waals Surface) (Alpha=1.100).
 Cavity algorithm     : GePol (No added spheres)
                        Default sphere list used, NSphG=   29.
                        Lebedev-Laikov grids with approx.  5.0 points / Ang**2.
                        Smoothing algorithm: York/Karplus (Gamma=1.0000).
                        Polarization charges: spherical gaussians, with
                                              point-specific exponents (IZeta= 3).
                        Self-potential: point-specific (ISelfS= 7).
                        Self-field    : sphere-specific E.n sum rule (ISelfD= 2).
 1st derivatives      : Analytical E(r).r(x)/FMM algorithm (CHGder, D1EAlg=3).
                        Cavity 1st derivative terms included.
 Solvent              : Water, Eps=  78.355300 Eps(inf)=   1.777849
 ------------------------------------------------------------------------------
 GePol: Number of generator spheres                  =      29
 GePol: Total number of spheres                      =      29
 GePol: Number of exposed spheres                    =      29 (100.00%)
 GePol: Number of points                             =    2079
 GePol: Average weight of points                     =       0.12
 GePol: Minimum weight of points                     =   0.23D-11
 GePol: Maximum weight of points                     =    0.20577
 GePol: Number of points with low weight             =     135
 GePol: Fraction of low-weight points (<1% of avg)   =       6.49%
 GePol: Cavity surface area                          =    258.713 Ang**2
 GePol: Cavity volume                                =    275.401 Ang**3
 Leave Link  301 at Mon Mar  9 15:15:09 2026, MaxMem=  2147483648 cpu:               1.1 elap:               0.0
 (Enter /data/home/wyx/g16/l302.exe)
 NPDir=0 NMtPBC=     1 NCelOv=     1 NCel=       1 NClECP=     1 NCelD=      1
         NCelK=      1 NCelE2=     1 NClLst=     1 CellRange=     0.0.
 One-electron integrals computed using PRISM.
 One-electron integral symmetry used in STVInt
 NBasis=   356 RedAO= T EigKep=  3.04D-05  NBF=   356
 NBsUse=   356 1.00D-06 EigRej= -1.00D+00 NBFU=   356
 Precomputing XC quadrature grid using
 IXCGrd= 4 IRadAn=           5 IRanWt=          -1 IRanGd=           0 AccXCQ= 0.00D+00.
 Generated NRdTot=       0 NPtTot=           0 NUsed=           0 NTot=          32
 NSgBfM=   366   365   366   366   366 MxSgAt=    29 MxSgA2=    29.
 Leave Link  302 at Mon Mar  9 15:15:09 2026, MaxMem=  2147483648 cpu:               6.3 elap:               0.2
 (Enter /data/home/wyx/g16/l303.exe)
 DipDrv:  MaxL=1.
 Leave Link  303 at Mon Mar  9 15:15:09 2026, MaxMem=  2147483648 cpu:               1.1 elap:               0.0
 (Enter /data/home/wyx/g16/l401.exe)
 ExpMin= 9.52D-02 ExpMax= 2.70D+04 ExpMxC= 9.22D+02 IAcc=3 IRadAn=         5 AccDes= 0.00D+00
 Harris functional with IExCor= 1009 and IRadAn=       5 diagonalized for initial guess.
 HarFok:  IExCor= 1009 AccDes= 0.00D+00 IRadAn=         5 IDoV= 1 UseB2=F ITyADJ=14
 ICtDFT=  3500011 ScaDFX=  1.000000  1.000000  1.000000  1.000000
 FoFCou: FMM=F IPFlag=           0 FMFlag=      100000 FMFlg1=           0
         NFxFlg=           0 DoJE=T BraDBF=F KetDBF=T FulRan=T
         wScrn=  0.000000 ICntrl=       500 IOpCl=  0 I1Cent=   200000004 NGrid=           0
         NMat0=    1 NMatS0=      1 NMatT0=    0 NMatD0=    1 NMtDS0=    0 NMtDT0=    0
 Petite list used in FoFCou.
 Harris En= -633.108072338139    
 JPrj=0 DoOrth=F DoCkMO=F.
 Leave Link  401 at Mon Mar  9 15:15:10 2026, MaxMem=  2147483648 cpu:              18.0 elap:               0.6
 (Enter /data/home/wyx/g16/l502.exe)
 Integral symmetry usage will be decided dynamically.
 Closed shell SCF:
 Using DIIS extrapolation, IDIIS=  1040.
 NGot=  2147483648 LenX=  2147194175 LenY=  2147056834
 Requested convergence on RMS density matrix=1.00D-08 within 128 cycles.
 Requested convergence on MAX density matrix=1.00D-06.
 Requested convergence on             energy=1.00D-06.
 No special actions if energy rises.
 Fock matrices will be formed incrementally for  20 cycles.

 Cycle   1  Pass 1  IDiag  1:
 FoFJK:  IHMeth= 1 ICntrl=       0 DoSepK=F KAlg= 0 I1Cent=           0 FoldK=F
 IRaf= 870000000 NMat=       1 IRICut=       1 DoRegI=T DoRafI=F ISym2E= 0 IDoP0=0 IntGTp=1.
 FoFCou: FMM=F IPFlag=           0 FMFlag=      100000 FMFlg1=           0
         NFxFlg=           0 DoJE=F BraDBF=F KetDBF=F FulRan=T
         wScrn=  0.000000 ICntrl=         0 IOpCl=  0 I1Cent=           0 NGrid=           0
         NMat0=    1 NMatS0=      1 NMatT0=    0 NMatD0=    1 NMtDS0=    0 NMtDT0=    0
 Symmetry not used in FoFCou.
 Inv3:  Mode=1 IEnd=    12966723.
 Iteration    1 A*A^-1 deviation from unit magnitude is 3.89D-15 for   1652.
 Iteration    1 A*A^-1 deviation from orthogonality  is 2.19D-15 for   1295    858.
 Iteration    1 A^-1*A deviation from unit magnitude is 3.55D-15 for   1652.
 Iteration    1 A^-1*A deviation from orthogonality  is 2.52D-15 for   1300     14.
 E= -632.144750242929    
 DIIS: error= 4.68D-02 at cycle   1 NSaved=   1.
 NSaved= 1 IEnMin= 1 EnMin= -632.144750242929     IErMin= 1 ErrMin= 4.68D-02
 ErrMax= 4.68D-02  0.00D+00 EMaxC= 1.00D-01 BMatC= 6.71D-01 BMatP= 6.71D-01
 IDIUse=3 WtCom= 5.32D-01 WtEn= 4.68D-01
 Coeff-Com:  0.100D+01
 Coeff-En:   0.100D+01
 Coeff:      0.100D+01
 Gap=     0.136 Goal=   None    Shift=    0.000
 GapD=    0.136 DampG=1.000 DampE=0.500 DampFc=0.5000 IDamp=-1.
 Damping current iteration by 5.00D-01
 RMSDP=1.51D-02 MaxDP=1.05D+00              OVMax= 2.55D-01

 Cycle   2  Pass 1  IDiag  1:
 RMSU=  7.50D-03    CP:  1.08D+00
 E= -632.395332692738     Delta-E=       -0.250582449809 Rises=F Damp=T
 DIIS: error= 9.23D-03 at cycle   2 NSaved=   2.
 NSaved= 2 IEnMin= 2 EnMin= -632.395332692738     IErMin= 2 ErrMin= 9.23D-03
 ErrMax= 9.23D-03  0.00D+00 EMaxC= 1.00D-01 BMatC= 4.82D-02 BMatP= 6.71D-01
 IDIUse=3 WtCom= 9.08D-01 WtEn= 9.23D-02
 Coeff-Com:  0.438D-01 0.956D+00
 Coeff-En:   0.677D-01 0.932D+00
 Coeff:      0.460D-01 0.954D+00
 Gap=     0.221 Goal=   None    Shift=    0.000
 RMSDP=5.75D-03 MaxDP=4.92D-01 DE=-2.51D-01 OVMax= 2.01D-01

 Cycle   3  Pass 1  IDiag  1:
 RMSU=  1.93D-03    CP:  9.82D-01  2.94D-01
 E= -632.633851229925     Delta-E=       -0.238518537186 Rises=F Damp=F
 DIIS: error= 1.44D-02 at cycle   3 NSaved=   3.
 NSaved= 3 IEnMin= 3 EnMin= -632.633851229925     IErMin= 2 ErrMin= 9.23D-03
 ErrMax= 1.44D-02  0.00D+00 EMaxC= 1.00D-01 BMatC= 8.16D-02 BMatP= 4.82D-02
 IDIUse=2 WtCom= 0.00D+00 WtEn= 1.00D+00
 Coeff-En:   0.000D+00 0.000D+00 0.100D+01
 Coeff:      0.000D+00 0.000D+00 0.100D+01
 Gap=     0.164 Goal=   None    Shift=    0.000
 RMSDP=8.49D-03 MaxDP=6.87D-01 DE=-2.39D-01 OVMax= 2.83D-01

 Cycle   4  Pass 1  IDiag  1:
 RMSU=  2.38D-03    CP:  1.15D+00  1.31D+00 -1.24D-01
 E= -632.401850268409     Delta-E=        0.232000961516 Rises=F Damp=F
 DIIS: error= 3.50D-02 at cycle   4 NSaved=   4.
 NSaved= 4 IEnMin= 3 EnMin= -632.633851229925     IErMin= 2 ErrMin= 9.23D-03
 ErrMax= 3.50D-02  0.00D+00 EMaxC= 1.00D-01 BMatC= 3.69D-01 BMatP= 4.82D-02
 IDIUse=2 WtCom= 0.00D+00 WtEn= 1.00D+00
 Coeff-En:   0.000D+00 0.000D+00 0.770D+00 0.230D+00
 Coeff:      0.000D+00 0.000D+00 0.770D+00 0.230D+00
 Gap=     0.177 Goal=   None    Shift=    0.000
 RMSDP=5.67D-03 MaxDP=4.68D-01 DE= 2.32D-01 OVMax= 1.24D-01

 Cycle   5  Pass 1  IDiag  1:
 RMSU=  3.85D-04    CP:  1.05D+00  6.19D-01  6.17D-01  4.60D-01
 E= -632.680131100424     Delta-E=       -0.278280832015 Rises=F Damp=F
 DIIS: error= 8.70D-03 at cycle   5 NSaved=   5.
 NSaved= 5 IEnMin= 5 EnMin= -632.680131100424     IErMin= 5 ErrMin= 8.70D-03
 ErrMax= 8.70D-03  0.00D+00 EMaxC= 1.00D-01 BMatC= 2.38D-02 BMatP= 4.82D-02
 IDIUse=3 WtCom= 9.13D-01 WtEn= 8.70D-02
 Coeff-Com: -0.496D-02 0.213D-01 0.267D+00-0.868D-01 0.804D+00
 Coeff-En:   0.000D+00 0.000D+00 0.272D+00 0.000D+00 0.728D+00
 Coeff:     -0.453D-02 0.194D-01 0.267D+00-0.793D-01 0.797D+00
 Gap=     0.155 Goal=   None    Shift=    0.000
 RMSDP=1.25D-03 MaxDP=9.74D-02 DE=-2.78D-01 OVMax= 4.40D-02

 Cycle   6  Pass 1  IDiag  1:
 RMSU=  1.02D-04    CP:  1.02D+00  4.73D-01  7.81D-01  2.93D-01  7.37D-01
 E= -632.699009220110     Delta-E=       -0.018878119686 Rises=F Damp=F
 DIIS: error= 6.09D-04 at cycle   6 NSaved=   6.
 NSaved= 6 IEnMin= 6 EnMin= -632.699009220110     IErMin= 6 ErrMin= 6.09D-04
 ErrMax= 6.09D-04  0.00D+00 EMaxC= 1.00D-01 BMatC= 1.29D-04 BMatP= 2.38D-02
 IDIUse=3 WtCom= 9.94D-01 WtEn= 6.09D-03
 Coeff-Com: -0.420D-02 0.122D-01 0.124D+00-0.621D-01 0.467D+00 0.463D+00
 Coeff-En:   0.000D+00 0.000D+00 0.000D+00 0.000D+00 0.000D+00 0.100D+01
 Coeff:     -0.417D-02 0.121D-01 0.124D+00-0.617D-01 0.464D+00 0.466D+00
 Gap=     0.155 Goal=   None    Shift=    0.000
 RMSDP=7.63D-05 MaxDP=3.61D-03 DE=-1.89D-02 OVMax= 5.86D-03

 Cycle   7  Pass 1  IDiag  1:
 RMSU=  3.32D-05    CP:  1.02D+00  4.80D-01  7.81D-01  2.93D-01  8.11D-01
                    CP:  6.30D-01
 E= -632.699126277407     Delta-E=       -0.000117057297 Rises=F Damp=F
 DIIS: error= 1.95D-04 at cycle   7 NSaved=   7.
 NSaved= 7 IEnMin= 7 EnMin= -632.699126277407     IErMin= 7 ErrMin= 1.95D-04
 ErrMax= 1.95D-04  0.00D+00 EMaxC= 1.00D-01 BMatC= 9.77D-06 BMatP= 1.29D-04
 IDIUse=3 WtCom= 9.98D-01 WtEn= 1.95D-03
 Coeff-Com: -0.113D-02 0.265D-02 0.308D-01-0.186D-01 0.124D+00 0.227D+00
 Coeff-Com:  0.636D+00
 Coeff-En:   0.000D+00 0.000D+00 0.000D+00 0.000D+00 0.000D+00 0.118D-01
 Coeff-En:   0.988D+00
 Coeff:     -0.113D-02 0.264D-02 0.308D-01-0.186D-01 0.123D+00 0.227D+00
 Coeff:      0.636D+00
 Gap=     0.155 Goal=   None    Shift=    0.000
 RMSDP=2.02D-05 MaxDP=8.92D-04 DE=-1.17D-04 OVMax= 9.54D-04

 Cycle   8  Pass 1  IDiag  1:
 RMSU=  1.01D-05    CP:  1.02D+00  4.78D-01  7.81D-01  2.94D-01  7.96D-01
                    CP:  7.10D-01  7.63D-01
 E= -632.699134167321     Delta-E=       -0.000007889915 Rises=F Damp=F
 DIIS: error= 4.79D-05 at cycle   8 NSaved=   8.
 NSaved= 8 IEnMin= 8 EnMin= -632.699134167321     IErMin= 8 ErrMin= 4.79D-05
 ErrMax= 4.79D-05  0.00D+00 EMaxC= 1.00D-01 BMatC= 1.07D-06 BMatP= 9.77D-06
 IDIUse=1 WtCom= 1.00D+00 WtEn= 0.00D+00
 Coeff-Com: -0.833D-04-0.578D-04 0.387D-02-0.331D-02 0.160D-01 0.816D-01
 Coeff-Com:  0.354D+00 0.548D+00
 Coeff:     -0.833D-04-0.578D-04 0.387D-02-0.331D-02 0.160D-01 0.816D-01
 Coeff:      0.354D+00 0.548D+00
 Gap=     0.155 Goal=   None    Shift=    0.000
 RMSDP=8.25D-06 MaxDP=6.11D-04 DE=-7.89D-06 OVMax= 2.77D-04

 Cycle   9  Pass 1  IDiag  1:
 RMSU=  3.31D-06    CP:  1.02D+00  4.78D-01  7.82D-01  2.93D-01  7.98D-01
                    CP:  7.05D-01  8.30D-01  7.19D-01
 E= -632.699135114192     Delta-E=       -0.000000946870 Rises=F Damp=F
 DIIS: error= 1.38D-05 at cycle   9 NSaved=   9.
 NSaved= 9 IEnMin= 9 EnMin= -632.699135114192     IErMin= 9 ErrMin= 1.38D-05
 ErrMax= 1.38D-05  0.00D+00 EMaxC= 1.00D-01 BMatC= 4.39D-08 BMatP= 1.07D-06
 IDIUse=1 WtCom= 1.00D+00 WtEn= 0.00D+00
 Coeff-Com:  0.332D-04-0.193D-03-0.342D-03-0.221D-03-0.102D-02 0.221D-01
 Coeff-Com:  0.103D+00 0.234D+00 0.642D+00
 Coeff:      0.332D-04-0.193D-03-0.342D-03-0.221D-03-0.102D-02 0.221D-01
 Coeff:      0.103D+00 0.234D+00 0.642D+00
 Gap=     0.155 Goal=   None    Shift=    0.000
 RMSDP=1.67D-06 MaxDP=7.57D-05 DE=-9.47D-07 OVMax= 7.17D-05

 Cycle  10  Pass 1  IDiag  1:
 RMSU=  8.97D-07    CP:  1.02D+00  4.78D-01  7.82D-01  2.93D-01  7.97D-01
                    CP:  7.13D-01  8.24D-01  7.73D-01  7.52D-01
 E= -632.699135138411     Delta-E=       -0.000000024219 Rises=F Damp=F
 DIIS: error= 7.60D-06 at cycle  10 NSaved=  10.
 NSaved=10 IEnMin=10 EnMin= -632.699135138411     IErMin=10 ErrMin= 7.60D-06
 ErrMax= 7.60D-06  0.00D+00 EMaxC= 1.00D-01 BMatC= 1.63D-08 BMatP= 4.39D-08
 IDIUse=1 WtCom= 1.00D+00 WtEn= 0.00D+00
 Coeff-Com:  0.214D-04-0.772D-04-0.949D-03 0.331D-03-0.320D-02 0.278D-02
 Coeff-Com:  0.137D-01 0.688D-01 0.404D+00 0.515D+00
 Coeff:      0.214D-04-0.772D-04-0.949D-03 0.331D-03-0.320D-02 0.278D-02
 Coeff:      0.137D-01 0.688D-01 0.404D+00 0.515D+00
 Gap=     0.155 Goal=   None    Shift=    0.000
 RMSDP=6.98D-07 MaxDP=3.30D-05 DE=-2.42D-08 OVMax= 3.66D-05

 Cycle  11  Pass 1  IDiag  1:
 RMSU=  3.35D-07    CP:  1.02D+00  4.78D-01  7.82D-01  2.93D-01  7.98D-01
                    CP:  7.12D-01  8.33D-01  7.57D-01  8.56D-01  6.81D-01
 E= -632.699135151071     Delta-E=       -0.000000012661 Rises=F Damp=F
 DIIS: error= 1.50D-06 at cycle  11 NSaved=  11.
 NSaved=11 IEnMin=11 EnMin= -632.699135151071     IErMin=11 ErrMin= 1.50D-06
 ErrMax= 1.50D-06  0.00D+00 EMaxC= 1.00D-01 BMatC= 1.16D-09 BMatP= 1.63D-08
 IDIUse=1 WtCom= 1.00D+00 WtEn= 0.00D+00
 Coeff-Com:  0.254D-05 0.158D-05-0.548D-03 0.211D-03-0.172D-02-0.109D-02
 Coeff-Com: -0.598D-02 0.759D-02 0.130D+00 0.256D+00 0.616D+00
 Coeff:      0.254D-05 0.158D-05-0.548D-03 0.211D-03-0.172D-02-0.109D-02
 Coeff:     -0.598D-02 0.759D-02 0.130D+00 0.256D+00 0.616D+00
 Gap=     0.155 Goal=   None    Shift=    0.000
 RMSDP=2.44D-07 MaxDP=1.45D-05 DE=-1.27D-08 OVMax= 1.47D-05

 Cycle  12  Pass 1  IDiag  1:
 RMSU=  1.15D-07    CP:  1.02D+00  4.78D-01  7.82D-01  2.93D-01  7.98D-01
                    CP:  7.13D-01  8.30D-01  7.70D-01  8.61D-01  7.49D-01
                    CP:  7.84D-01
 E= -632.699135152069     Delta-E=       -0.000000000998 Rises=F Damp=F
 DIIS: error= 3.76D-07 at cycle  12 NSaved=  12.
 NSaved=12 IEnMin=12 EnMin= -632.699135152069     IErMin=12 ErrMin= 3.76D-07
 ErrMax= 3.76D-07  0.00D+00 EMaxC= 1.00D-01 BMatC= 9.34D-11 BMatP= 1.16D-09
 IDIUse=1 WtCom= 1.00D+00 WtEn= 0.00D+00
 Coeff-Com: -0.237D-05 0.738D-05-0.123D-03 0.519D-04-0.342D-03-0.484D-03
 Coeff-Com: -0.370D-02-0.341D-02 0.121D-01 0.505D-01 0.260D+00 0.685D+00
 Coeff:     -0.237D-05 0.738D-05-0.123D-03 0.519D-04-0.342D-03-0.484D-03
 Coeff:     -0.370D-02-0.341D-02 0.121D-01 0.505D-01 0.260D+00 0.685D+00
 Gap=     0.155 Goal=   None    Shift=    0.000
 RMSDP=6.62D-08 MaxDP=3.81D-06 DE=-9.98D-10 OVMax= 4.38D-06

 Cycle  13  Pass 1  IDiag  1:
 RMSU=  3.59D-08    CP:  1.02D+00  4.78D-01  7.82D-01  2.93D-01  7.98D-01
                    CP:  7.13D-01  8.31D-01  7.69D-01  8.67D-01  7.54D-01
                    CP:  8.29D-01  7.39D-01
 E= -632.699135152143     Delta-E=       -0.000000000074 Rises=F Damp=F
 DIIS: error= 1.75D-07 at cycle  13 NSaved=  13.
 NSaved=13 IEnMin=13 EnMin= -632.699135152143     IErMin=13 ErrMin= 1.75D-07
 ErrMax= 1.75D-07  0.00D+00 EMaxC= 1.00D-01 BMatC= 9.88D-12 BMatP= 9.34D-11
 IDIUse=1 WtCom= 1.00D+00 WtEn= 0.00D+00
 Coeff-Com: -0.168D-05 0.348D-05-0.559D-05 0.530D-05 0.629D-05-0.892D-04
 Coeff-Com: -0.132D-02-0.251D-02-0.683D-02 0.174D-03 0.791D-01 0.360D+00
 Coeff-Com:  0.571D+00
 Coeff:     -0.168D-05 0.348D-05-0.559D-05 0.530D-05 0.629D-05-0.892D-04
 Coeff:     -0.132D-02-0.251D-02-0.683D-02 0.174D-03 0.791D-01 0.360D+00
 Coeff:      0.571D+00
 Gap=     0.155 Goal=   None    Shift=    0.000
 RMSDP=2.80D-08 MaxDP=1.86D-06 DE=-7.39D-11 OVMax= 1.68D-06

 Cycle  14  Pass 1  IDiag  1:
 RMSU=  1.17D-08    CP:  1.02D+00  4.78D-01  7.82D-01  2.93D-01  7.98D-01
                    CP:  7.13D-01  8.30D-01  7.69D-01  8.66D-01  7.60D-01
                    CP:  8.30D-01  8.30D-01  7.94D-01
 E= -632.699135152154     Delta-E=       -0.000000000011 Rises=F Damp=F
 DIIS: error= 3.97D-08 at cycle  14 NSaved=  14.
 NSaved=14 IEnMin=14 EnMin= -632.699135152154     IErMin=14 ErrMin= 3.97D-08
 ErrMax= 3.97D-08  0.00D+00 EMaxC= 1.00D-01 BMatC= 9.71D-13 BMatP= 9.88D-12
 IDIUse=1 WtCom= 1.00D+00 WtEn= 0.00D+00
 Coeff-Com: -0.525D-06 0.947D-06 0.830D-05-0.208D-05 0.309D-04 0.244D-05
 Coeff-Com: -0.281D-03-0.864D-03-0.455D-02-0.578D-02 0.105D-01 0.101D+00
 Coeff-Com:  0.280D+00 0.620D+00
 Coeff:     -0.525D-06 0.947D-06 0.830D-05-0.208D-05 0.309D-04 0.244D-05
 Coeff:     -0.281D-03-0.864D-03-0.455D-02-0.578D-02 0.105D-01 0.101D+00
 Coeff:      0.280D+00 0.620D+00
 Gap=     0.155 Goal=   None    Shift=    0.000
 RMSDP=6.06D-09 MaxDP=2.90D-07 DE=-1.11D-11 OVMax= 4.00D-07

 Error on total polarization charges =  0.01261
 SCF Done:  E(RPBE1PBE) =  -632.699135152     A.U. after   14 cycles
            NFock= 14  Conv=0.61D-08     -V/T= 1.9993
 KE= 6.331576952061D+02 PE=-3.294298417002D+03 EE= 1.119886757220D+03
 Leave Link  502 at Mon Mar  9 15:15:38 2026, MaxMem=  2147483648 cpu:             893.7 elap:              28.4
 (Enter /data/home/wyx/g16/l601.exe)
 Copying SCF densities to generalized density rwf, IOpCl= 0 IROHF=0.

 **********************************************************************

            Population analysis using the SCF density.

 **********************************************************************

 Orbital symmetries:
       Occupied  (A) (A) (A) (A) (A) (A) (A) (A) (A) (A) (A) (A)
                 (A) (A) (A) (A) (A) (A) (A) (A) (A) (A) (A) (A)
                 (A) (A) (A) (A) (A) (A) (A) (A) (A) (A) (A) (A)
                 (A) (A) (A) (A) (A) (A) (A) (A) (A) (A) (A) (A)
                 (A) (A) (A) (A)
       Virtual   (A) (A) (A) (A) (A) (A) (A) (A) (A) (A) (A) (A)
                 (A) (A) (A) (A) (A) (A) (A) (A) (A) (A) (A) (A)
                 (A) (A) (A) (A) (A) (A) (A) (A) (A) (A) (A) (A)
                 (A) (A) (A) (A) (A) (A) (A) (A) (A) (A) (A) (A)
                 (A) (A) (A) (A) (A) (A) (A) (A) (A) (A) (A) (A)
                 (A) (A) (A) (A) (A) (A) (A) (A) (A) (A) (A) (A)
                 (A) (A) (A) (A) (A) (A) (A) (A) (A) (A) (A) (A)
                 (A) (A) (A) (A) (A) (A) (A) (A) (A) (A) (A) (A)
                 (A) (A) (A) (A) (A) (A) (A) (A) (A) (A) (A) (A)
                 (A) (A) (A) (A) (A) (A) (A) (A) (A) (A) (A) (A)
                 (A) (A) (A) (A) (A) (A) (A) (A) (A) (A) (A) (A)
                 (A) (A) (A) (A) (A) (A) (A) (A) (A) (A) (A) (A)
                 (A) (A) (A) (A) (A) (A) (A) (A) (A) (A) (A) (A)
                 (A) (A) (A) (A) (A) (A) (A) (A) (A) (A) (A) (A)
                 (A) (A) (A) (A) (A) (A) (A) (A) (A) (A) (A) (A)
                 (A) (A) (A) (A) (A) (A) (A) (A) (A) (A) (A) (A)
                 (A) (A) (A) (A) (A) (A) (A) (A) (A) (A) (A) (A)
                 (A) (A) (A) (A) (A) (A) (A) (A) (A) (A) (A) (A)
                 (A) (A) (A) (A) (A) (A) (A) (A) (A) (A) (A) (A)
                 (A) (A) (A) (A) (A) (A) (A) (A) (A) (A) (A) (A)
                 (A) (A) (A) (A) (A) (A) (A) (A) (A) (A) (A) (A)
                 (A) (A) (A) (A) (A) (A) (A) (A) (A) (A) (A) (A)
                 (A) (A) (A) (A) (A) (A) (A) (A) (A) (A) (A) (A)
                 (A) (A) (A) (A) (A) (A) (A) (A) (A) (A) (A) (A)
                 (A) (A) (A) (A) (A) (A) (A) (A) (A) (A) (A) (A)
                 (A) (A) (A) (A)
 The electronic state is 1-A.
 Alpha  occ. eigenvalues --  -19.18061 -19.17941 -14.42637 -10.30509 -10.30490
 Alpha  occ. eigenvalues --  -10.29811 -10.29246 -10.23060 -10.22662 -10.20174
 Alpha  occ. eigenvalues --  -10.19286 -10.18260 -10.17623 -10.17283  -1.05688
 Alpha  occ. eigenvalues --   -1.05561  -1.03192  -0.85988  -0.85487  -0.80202
 Alpha  occ. eigenvalues --   -0.78947  -0.78465  -0.74718  -0.71011  -0.67028
 Alpha  occ. eigenvalues --   -0.64558  -0.56673  -0.54358  -0.51659  -0.50506
 Alpha  occ. eigenvalues --   -0.50108  -0.49011  -0.48342  -0.47746  -0.47174
 Alpha  occ. eigenvalues --   -0.46318  -0.45774  -0.45529  -0.44658  -0.44376
 Alpha  occ. eigenvalues --   -0.42510  -0.41923  -0.41071  -0.39832  -0.37956
 Alpha  occ. eigenvalues --   -0.37857  -0.37205  -0.36831  -0.28260  -0.26554
 Alpha  occ. eigenvalues --   -0.25924  -0.21858
 Alpha virt. eigenvalues --   -0.06387  -0.01387   0.04698   0.06769   0.06923
 Alpha virt. eigenvalues --    0.07336   0.09563   0.09962   0.11280   0.11304
 Alpha virt. eigenvalues --    0.12102   0.13275   0.13913   0.14451   0.14720
 Alpha virt. eigenvalues --    0.15392   0.16021   0.16170   0.16359   0.17644
 Alpha virt. eigenvalues --    0.17746   0.19575   0.20354   0.21006   0.21637
 Alpha virt. eigenvalues --    0.22086   0.22979   0.23058   0.23615   0.23906
 Alpha virt. eigenvalues --    0.24359   0.24657   0.25501   0.25876   0.26921
 Alpha virt. eigenvalues --    0.27294   0.27589   0.29628   0.29846   0.31139
 Alpha virt. eigenvalues --    0.32122   0.32978   0.34033   0.34506   0.35939
 Alpha virt. eigenvalues --    0.36279   0.38182   0.38926   0.39185   0.40184
 Alpha virt. eigenvalues --    0.40913   0.43162   0.43219   0.43413   0.43882
 Alpha virt. eigenvalues --    0.44936   0.45500   0.45931   0.46806   0.47296
 Alpha virt. eigenvalues --    0.47675   0.48661   0.49506   0.50257   0.51156
 Alpha virt. eigenvalues --    0.52080   0.52800   0.53320   0.53715   0.54133
 Alpha virt. eigenvalues --    0.54662   0.55527   0.55738   0.56677   0.57186
 Alpha virt. eigenvalues --    0.57940   0.57951   0.59606   0.60794   0.61420
 Alpha virt. eigenvalues --    0.62011   0.62670   0.63830   0.65280   0.66137
 Alpha virt. eigenvalues --    0.67312   0.68286   0.68720   0.70825   0.72319
 Alpha virt. eigenvalues --    0.72831   0.73661   0.75417   0.76648   0.78182
 Alpha virt. eigenvalues --    0.80112   0.81213   0.83181   0.85952   0.89676
 Alpha virt. eigenvalues --    0.92604   0.96012   0.97714   0.99859   1.12702
 Alpha virt. eigenvalues --    1.15370   1.16166   1.18816   1.22110   1.24419
 Alpha virt. eigenvalues --    1.26281   1.28215   1.28542   1.30381   1.30969
 Alpha virt. eigenvalues --    1.31428   1.31756   1.32053   1.34268   1.34445
 Alpha virt. eigenvalues --    1.35067   1.36682   1.36965   1.37439   1.38322
 Alpha virt. eigenvalues --    1.39478   1.39701   1.40581   1.41938   1.43301
 Alpha virt. eigenvalues --    1.43885   1.44468   1.46271   1.46704   1.47922
 Alpha virt. eigenvalues --    1.48357   1.48590   1.52087   1.53884   1.54753
 Alpha virt. eigenvalues --    1.55727   1.56436   1.56828   1.57494   1.59692
 Alpha virt. eigenvalues --    1.60168   1.60999   1.61506   1.63120   1.64477
 Alpha virt. eigenvalues --    1.64841   1.65487   1.65675   1.66388   1.66988
 Alpha virt. eigenvalues --    1.67319   1.68047   1.68567   1.69429   1.70708
 Alpha virt. eigenvalues --    1.71456   1.71991   1.72745   1.74174   1.76236
 Alpha virt. eigenvalues --    1.77020   1.80769   1.81619   1.81932   1.84396
 Alpha virt. eigenvalues --    1.84548   1.85736   1.88192   1.91113   1.92114
 Alpha virt. eigenvalues --    1.92603   1.93218   1.93872   1.96514   1.98427
 Alpha virt. eigenvalues --    2.00611   2.01185   2.02674   2.03303   2.04932
 Alpha virt. eigenvalues --    2.07050   2.10563   2.12666   2.15059   2.16499
 Alpha virt. eigenvalues --    2.18070   2.20026   2.22019   2.24015   2.26392
 Alpha virt. eigenvalues --    2.26924   2.28714   2.29565   2.32244   2.32843
 Alpha virt. eigenvalues --    2.34872   2.35966   2.38829   2.40287   2.41112
 Alpha virt. eigenvalues --    2.42381   2.42741   2.43914   2.44577   2.45004
 Alpha virt. eigenvalues --    2.48247   2.49626   2.50587   2.53263   2.54110
 Alpha virt. eigenvalues --    2.56927   2.57244   2.58352   2.58942   2.60206
 Alpha virt. eigenvalues --    2.61484   2.62966   2.66076   2.67189   2.68455
 Alpha virt. eigenvalues --    2.69457   2.70268   2.71901   2.72743   2.73293
 Alpha virt. eigenvalues --    2.74170   2.74963   2.75317   2.76454   2.77221
 Alpha virt. eigenvalues --    2.77680   2.78788   2.79282   2.80145   2.82163
 Alpha virt. eigenvalues --    2.82947   2.83365   2.85059   2.86095   2.86608
 Alpha virt. eigenvalues --    2.87701   2.89339   2.89433   2.91818   2.95241
 Alpha virt. eigenvalues --    2.97162   2.98351   3.02452   3.05538   3.06978
 Alpha virt. eigenvalues --    3.12791   3.15122   3.18984   3.19683   3.21067
 Alpha virt. eigenvalues --    3.22258   3.24957   3.26852   3.29457   3.30328
 Alpha virt. eigenvalues --    3.32496   3.35220   3.36316   3.39952   3.41259
 Alpha virt. eigenvalues --    3.41999   3.46605   3.47920   3.51427   3.53418
 Alpha virt. eigenvalues --    3.57491   3.61753   3.62008   3.62119   3.63158
 Alpha virt. eigenvalues --    3.64887   3.65299   3.69287   3.71607   3.75686
 Alpha virt. eigenvalues --    3.79140   3.89220   4.30916   4.31090   4.34196
 Alpha virt. eigenvalues --   21.71479  21.82349  22.13846  22.20067  22.25547
 Alpha virt. eigenvalues --   22.32407  22.49169  22.53899  22.55196  22.56568
 Alpha virt. eigenvalues --   22.58637  32.09644  43.72015  43.73918
          Condensed to atoms (all electrons):
               1          2          3          4          5          6
     1  O    7.964791   0.000000  -0.000165   0.000026   0.018745   0.017406
     2  O    0.000000   7.976712   0.000117   0.000001  -0.194515   0.001080
     3  N   -0.000165   0.000117   6.194090   0.401248  -0.104098   0.336848
     4  H    0.000026   0.000001   0.401248   0.396822   0.019225  -0.045051
     5  C    0.018745  -0.194515  -0.104098   0.019225   6.964776  -0.069376
     6  C    0.017406   0.001080   0.336848  -0.045051  -0.069376   5.565676
     7  C   -0.000327  -0.027985   0.364627  -0.043957   0.419038  -0.090977
     8  C   -0.000774   0.685242   0.003827  -0.000937  -0.299283   0.034414
     9  C   -0.007366   0.019862   0.034996  -0.002199  -0.493613  -0.115448
    10  H    0.013247  -0.000028  -0.001082   0.000020  -0.076640   0.009115
    11  H    0.009332   0.000025  -0.000094   0.000052  -0.045515   0.009355
    12  C   -0.252863  -0.002757  -0.082165   0.016928   0.174501  -0.006991
    13  C    0.708107   0.000004   0.001869   0.000765   0.067211   0.071747
    14  C   -0.000008  -0.012930  -0.038536  -0.013057  -0.116729   0.012477
    15  H   -0.000000   0.006052   0.004395   0.000296   0.014292   0.005446
    16  H   -0.000000   0.007776  -0.000132   0.001293   0.002365  -0.001015
    17  H   -0.000000   0.003057  -0.002636   0.001190  -0.003820  -0.001470
    18  C    0.000544  -0.111810  -0.000709   0.000007  -0.308678  -0.000550
    19  H   -0.000000   0.014246   0.000012  -0.000001   0.034810  -0.000010
    20  H   -0.000012   0.003061   0.000062   0.000002   0.031334  -0.000362
    21  H   -0.000063   0.002360   0.000036   0.000000   0.010609   0.000005
    22  C   -0.122284  -0.000000  -0.000029   0.000115   0.002166  -0.006273
    23  H    0.003693   0.000000   0.000090  -0.000046  -0.000417  -0.007619
    24  H    0.002904   0.000000   0.000075  -0.000033  -0.000270  -0.002972
    25  H    0.015628  -0.000000   0.000015  -0.000005  -0.000110  -0.003076
    26  C    0.000572   0.000008  -0.029722  -0.011008   0.001674   0.285264
    27  H   -0.000103  -0.000000  -0.002439   0.000912   0.000534  -0.031874
    28  H   -0.000061  -0.000000  -0.002552   0.000921   0.000220  -0.031454
    29  H    0.000021   0.000000   0.004076   0.001672   0.000013  -0.029592
               7          8          9         10         11         12
     1  O   -0.000327  -0.000774  -0.007366   0.013247   0.009332  -0.252863
     2  O   -0.027985   0.685242   0.019862  -0.000028   0.000025  -0.002757
     3  N    0.364627   0.003827   0.034996  -0.001082  -0.000094  -0.082165
     4  H   -0.043957  -0.000937  -0.002199   0.000020   0.000052   0.016928
     5  C    0.419038  -0.299283  -0.493613  -0.076640  -0.045515   0.174501
     6  C   -0.090977   0.034414  -0.115448   0.009115   0.009355  -0.006991
     7  C    5.444477  -0.249184  -0.139980   0.007096   0.003173  -0.039518
     8  C   -0.249184   5.499688   0.133366  -0.000030  -0.003774  -0.038077
     9  C   -0.139980   0.133366   6.004477   0.489819   0.440590   0.021561
    10  H    0.007096  -0.000030   0.489819   0.498502  -0.038519  -0.059237
    11  H    0.003173  -0.003774   0.440590  -0.038519   0.501781  -0.033468
    12  C   -0.039518  -0.038077   0.021561  -0.059237  -0.033468   7.146646
    13  C    0.021439  -0.009739  -0.218653   0.000974   0.001973  -0.432607
    14  C    0.342105  -0.048428   0.010521   0.000190  -0.000280   0.005130
    15  H   -0.057856   0.009234  -0.000120   0.000008   0.000047  -0.001283
    16  H   -0.028479  -0.007121   0.001169  -0.000075   0.000100  -0.000199
    17  H   -0.018750  -0.001170   0.000006   0.000097  -0.000061   0.000231
    18  C   -0.001958   0.382697   0.007539   0.001617  -0.002395  -0.000448
    19  H    0.000360  -0.044957  -0.002164   0.000051  -0.000027  -0.000028
    20  H    0.003153  -0.046066  -0.004221  -0.001625   0.000673   0.002675
    21  H    0.001413  -0.022484   0.000233  -0.000245  -0.000318  -0.000801
    22  C   -0.000145  -0.000035   0.013547   0.002294   0.001093  -0.343401
    23  H    0.000011   0.000008  -0.000399  -0.000211  -0.000002   0.037184
    24  H    0.000035   0.000003   0.000236  -0.000026  -0.000156   0.021354
    25  H    0.000031  -0.000001   0.000585  -0.000159  -0.000088   0.033776
    26  C    0.010383   0.000750   0.022095  -0.000289  -0.000331  -0.110415
    27  H   -0.001207  -0.000013  -0.000078   0.000022   0.000014  -0.000736
    28  H   -0.000868  -0.000014  -0.000603   0.000017   0.000021  -0.002932
    29  H    0.002342   0.000030  -0.001208   0.000016   0.000009   0.018004
              13         14         15         16         17         18
     1  O    0.708107  -0.000008  -0.000000  -0.000000  -0.000000   0.000544
     2  O    0.000004  -0.012930   0.006052   0.007776   0.003057  -0.111810
     3  N    0.001869  -0.038536   0.004395  -0.000132  -0.002636  -0.000709
     4  H    0.000765  -0.013057   0.000296   0.001293   0.001190   0.000007
     5  C    0.067211  -0.116729   0.014292   0.002365  -0.003820  -0.308678
     6  C    0.071747   0.012477   0.005446  -0.001015  -0.001470  -0.000550
     7  C    0.021439   0.342105  -0.057856  -0.028479  -0.018750  -0.001958
     8  C   -0.009739  -0.048428   0.009234  -0.007121  -0.001170   0.382697
     9  C   -0.218653   0.010521  -0.000120   0.001169   0.000006   0.007539
    10  H    0.000974   0.000190   0.000008  -0.000075   0.000097   0.001617
    11  H    0.001973  -0.000280   0.000047   0.000100  -0.000061  -0.002395
    12  C   -0.432607   0.005130  -0.001283  -0.000199   0.000231  -0.000448
    13  C    5.557069   0.000038  -0.000036  -0.000005  -0.000012   0.001353
    14  C    0.000038   5.001470   0.377817   0.426460   0.425324   0.000182
    15  H   -0.000036   0.377817   0.559360  -0.027448  -0.025315   0.000473
    16  H   -0.000005   0.426460  -0.027448   0.492287  -0.024883   0.000370
    17  H   -0.000012   0.425324  -0.025315  -0.024883   0.488058   0.000147
    18  C    0.001353   0.000182   0.000473   0.000370   0.000147   5.227551
    19  H   -0.000005   0.000129  -0.000015  -0.000017  -0.000037   0.374319
    20  H    0.000113   0.000141  -0.000025  -0.000142   0.000024   0.392633
    21  H   -0.000047  -0.000156  -0.000018   0.000048  -0.000048   0.395250
    22  C    0.379391   0.000005   0.000000  -0.000000   0.000000   0.000038
    23  H   -0.057151   0.000001   0.000000   0.000000  -0.000000  -0.000003
    24  H   -0.037931   0.000001  -0.000000   0.000000   0.000000  -0.000000
    25  H   -0.033334   0.000000   0.000000  -0.000000   0.000000   0.000000
    26  C   -0.065470  -0.001466   0.000073   0.000055  -0.000009  -0.000007
    27  H    0.000264  -0.000057   0.000007   0.000002  -0.000006   0.000000
    28  H    0.001612   0.000059  -0.000026  -0.000005   0.000005  -0.000000
    29  H    0.001119   0.000193   0.000223  -0.000009  -0.000015   0.000000
              19         20         21         22         23         24
     1  O   -0.000000  -0.000012  -0.000063  -0.122284   0.003693   0.002904
     2  O    0.014246   0.003061   0.002360  -0.000000   0.000000   0.000000
     3  N    0.000012   0.000062   0.000036  -0.000029   0.000090   0.000075
     4  H   -0.000001   0.000002   0.000000   0.000115  -0.000046  -0.000033
     5  C    0.034810   0.031334   0.010609   0.002166  -0.000417  -0.000270
     6  C   -0.000010  -0.000362   0.000005  -0.006273  -0.007619  -0.002972
     7  C    0.000360   0.003153   0.001413  -0.000145   0.000011   0.000035
     8  C   -0.044957  -0.046066  -0.022484  -0.000035   0.000008   0.000003
     9  C   -0.002164  -0.004221   0.000233   0.013547  -0.000399   0.000236
    10  H    0.000051  -0.001625  -0.000245   0.002294  -0.000211  -0.000026
    11  H   -0.000027   0.000673  -0.000318   0.001093  -0.000002  -0.000156
    12  C   -0.000028   0.002675  -0.000801  -0.343401   0.037184   0.021354
    13  C   -0.000005   0.000113  -0.000047   0.379391  -0.057151  -0.037931
    14  C    0.000129   0.000141  -0.000156   0.000005   0.000001   0.000001
    15  H   -0.000015  -0.000025  -0.000018   0.000000   0.000000  -0.000000
    16  H   -0.000017  -0.000142   0.000048  -0.000000   0.000000   0.000000
    17  H   -0.000037   0.000024  -0.000048   0.000000  -0.000000   0.000000
    18  C    0.374319   0.392633   0.395250   0.000038  -0.000003  -0.000000
    19  H    0.495380  -0.017021  -0.009699  -0.000000   0.000000   0.000000
    20  H   -0.017021   0.521077  -0.028540   0.000003  -0.000000  -0.000000
    21  H   -0.009699  -0.028540   0.500188  -0.000002   0.000000   0.000000
    22  C   -0.000000   0.000003  -0.000002   5.303828   0.401307   0.400991
    23  H    0.000000  -0.000000   0.000000   0.401307   0.520896  -0.033874
    24  H    0.000000  -0.000000   0.000000   0.400991  -0.033874   0.506759
    25  H    0.000000   0.000000  -0.000000   0.362624  -0.012959  -0.008894
    26  C   -0.000000  -0.000007   0.000001  -0.012183   0.008199   0.000686
    27  H    0.000000  -0.000000   0.000000   0.002144  -0.002827  -0.001729
    28  H   -0.000000   0.000000  -0.000000  -0.001715  -0.002872  -0.000945
    29  H   -0.000000  -0.000000  -0.000000   0.001480   0.000341   0.000226
              25         26         27         28         29
     1  O    0.015628   0.000572  -0.000103  -0.000061   0.000021
     2  O   -0.000000   0.000008  -0.000000  -0.000000   0.000000
     3  N    0.000015  -0.029722  -0.002439  -0.002552   0.004076
     4  H   -0.000005  -0.011008   0.000912   0.000921   0.001672
     5  C   -0.000110   0.001674   0.000534   0.000220   0.000013
     6  C   -0.003076   0.285264  -0.031874  -0.031454  -0.029592
     7  C    0.000031   0.010383  -0.001207  -0.000868   0.002342
     8  C   -0.000001   0.000750  -0.000013  -0.000014   0.000030
     9  C    0.000585   0.022095  -0.000078  -0.000603  -0.001208
    10  H   -0.000159  -0.000289   0.000022   0.000017   0.000016
    11  H   -0.000088  -0.000331   0.000014   0.000021   0.000009
    12  C    0.033776  -0.110415  -0.000736  -0.002932   0.018004
    13  C   -0.033334  -0.065470   0.000264   0.001612   0.001119
    14  C    0.000000  -0.001466  -0.000057   0.000059   0.000193
    15  H    0.000000   0.000073   0.000007  -0.000026   0.000223
    16  H   -0.000000   0.000055   0.000002  -0.000005  -0.000009
    17  H    0.000000  -0.000009  -0.000006   0.000005  -0.000015
    18  C    0.000000  -0.000007   0.000000  -0.000000   0.000000
    19  H    0.000000  -0.000000   0.000000  -0.000000  -0.000000
    20  H    0.000000  -0.000007  -0.000000   0.000000  -0.000000
    21  H   -0.000000   0.000001   0.000000  -0.000000  -0.000000
    22  C    0.362624  -0.012183   0.002144  -0.001715   0.001480
    23  H   -0.012959   0.008199  -0.002827  -0.002872   0.000341
    24  H   -0.008894   0.000686  -0.001729  -0.000945   0.000226
    25  H    0.485022   0.002180   0.000228   0.000114  -0.000062
    26  C    0.002180   5.068858   0.432397   0.437195   0.379945
    27  H    0.000228   0.432397   0.486598  -0.035431  -0.016811
    28  H    0.000114   0.437195  -0.035431   0.480380  -0.015584
    29  H   -0.000062   0.379945  -0.016811  -0.015584   0.496540
 Mulliken charges:
               1
     1  O   -0.370988
     2  O   -0.369579
     3  N   -0.082023
     4  H    0.274796
     5  C   -0.048447
     6  C    0.095280
     7  C    0.081507
     8  C    0.022828
     9  C   -0.214549
    10  H    0.155081
    11  H    0.156792
    12  C   -0.070064
    13  C    0.039940
    14  C   -0.370596
    15  H    0.134418
    16  H    0.157605
    17  H    0.160094
    18  C   -0.358164
    19  H    0.154674
    20  H    0.143069
    21  H    0.152276
    22  C   -0.384958
    23  H    0.146651
    24  H    0.153564
    25  H    0.158484
    26  C   -0.419427
    27  H    0.170187
    28  H    0.174518
    29  H    0.157028
 Sum of Mulliken charges =  -0.00000
 Mulliken charges with hydrogens summed into heavy atoms:
               1
     1  O   -0.370988
     2  O   -0.369579
     3  N    0.192774
     5  C   -0.048447
     6  C    0.095280
     7  C    0.081507
     8  C    0.022828
     9  C    0.097324
    12  C   -0.070064
    13  C    0.039940
    14  C    0.081521
    18  C    0.091855
    22  C    0.073741
    26  C    0.082307
 Electronic spatial extent (au):  <R**2>=           3187.1187
 Charge=             -0.0000 electrons
 Dipole moment (field-independent basis, Debye):
    X=              4.2925    Y=              7.4735    Z=             -0.2664  Tot=              8.6227
 Quadrupole moment (field-independent basis, Debye-Ang):
   XX=            -96.1513   YY=            -76.7388   ZZ=            -82.2094
   XY=             13.1941   XZ=              0.5182   YZ=              0.1632
 Traceless Quadrupole moment (field-independent basis, Debye-Ang):
   XX=            -11.1181   YY=              8.2943   ZZ=              2.8238
   XY=             13.1941   XZ=              0.5182   YZ=              0.1632
 Octapole moment (field-independent basis, Debye-Ang**2):
  XXX=            123.6220  YYY=             64.9847  ZZZ=              0.4976  XYY=            -36.3030
  XXY=             30.5801  XXZ=             -2.7646  XZZ=              0.6367  YZZ=             -1.5103
  YYZ=             -0.8491  XYZ=              0.2769
 Hexadecapole moment (field-independent basis, Debye-Ang**3):
 XXXX=          -3018.9655 YYYY=          -1216.0553 ZZZZ=           -107.1912 XXXY=             40.3698
 XXXZ=             11.1546 YYYX=             94.7526 YYYZ=             -1.2269 ZZZX=             -0.7486
 ZZZY=              0.5093 XXYY=           -665.7678 XXZZ=           -463.4812 YYZZ=           -224.5528
 XXYZ=              2.5033 YYXZ=             -1.9792 ZZXY=              1.6181
 N-N= 9.085548294241D+02 E-N=-3.294298416088D+03  KE= 6.331576952061D+02
 No NMR shielding tensors so no spin-rotation constants.
 Leave Link  601 at Mon Mar  9 15:15:39 2026, MaxMem=  2147483648 cpu:               3.9 elap:               0.1
 (Enter /data/home/wyx/g16/l701.exe)
 ... and contract with generalized density number  0.
 Compute integral first derivatives.
 R6Disp: Adding Grimme-D3(BJ) dispersion energy 1st derivatives to the gradient.
 D1PCM: PCM CHGder 1st derivatives, ID1Alg=3 FixD1E=F DoIter=F DoCFld=F I1PDM=0.
 GePol: Maximum number of non-zero 1st derivatives   =     228
 Leave Link  701 at Mon Mar  9 15:15:40 2026, MaxMem=  2147483648 cpu:              21.7 elap:               0.7
 (Enter /data/home/wyx/g16/l702.exe)
 L702 exits ... SP integral derivatives will be done elsewhere.
 Leave Link  702 at Mon Mar  9 15:15:40 2026, MaxMem=  2147483648 cpu:               0.4 elap:               0.0
 (Enter /data/home/wyx/g16/l703.exe)
 Integral derivatives from FoFJK, PRISM(SPDF).
 Compute integral first derivatives, UseDBF=F ICtDFT=           0.
 Calling FoFJK, ICntrl=      2127 FMM=F ISym2X=0 I1Cent= 0 IOpClX= 0 NMat=1 NMatS=1 NMatT=0.
 FoFJK:  IHMeth= 1 ICntrl=    2127 DoSepK=F KAlg= 0 I1Cent=           0 FoldK=F
 IRaf=         0 NMat=       1 IRICut=       1 DoRegI=T DoRafI=F ISym2E= 0 IDoP0=0 IntGTp=1.
 FoFCou: FMM=F IPFlag=           0 FMFlag=      100000 FMFlg1=         800
         NFxFlg=           0 DoJE=F BraDBF=F KetDBF=F FulRan=T
         wScrn=  0.000000 ICntrl=      2127 IOpCl=  0 I1Cent=           0 NGrid=           0
         NMat0=    1 NMatS0=      1 NMatT0=    0 NMatD0=    1 NMtDS0=    0 NMtDT0=    0
 Symmetry not used in FoFCou.
 Leave Link  703 at Mon Mar  9 15:15:44 2026, MaxMem=  2147483648 cpu:             134.9 elap:               4.3
 (Enter /data/home/wyx/g16/l716.exe)
 Dipole        = 1.68878625D+00 2.94032071D+00-1.04817643D-01
 ***** Axes restored to original set *****
 -------------------------------------------------------------------
 Center     Atomic                   Forces (Hartrees/Bohr)
 Number     Number              X              Y              Z
 -------------------------------------------------------------------
      1        8          -0.001028534    0.009560002   -0.001095522
      2        8           0.009481349   -0.000672734    0.001459463
      3        7           0.068669924   -0.209733769    0.020051325
      4        1          -0.066031155    0.204567491   -0.018789984
      5        6          -0.000898427    0.008705794    0.001527969
      6        6           0.002134596   -0.006063004   -0.000376117
      7        6           0.001072120   -0.002213454   -0.000406843
      8        6          -0.016068173    0.005419249   -0.002435322
      9        6          -0.045056199    0.123599842   -0.004247732
     10        1           0.010106523   -0.066492837    0.092592791
     11        1           0.037186292   -0.063118042   -0.088593292
     12        6          -0.003590421    0.011234209   -0.000637842
     13        6           0.003701197   -0.019847461    0.002380167
     14        6           0.117449403   -0.044544155    0.014570168
     15        1           0.006151310    0.124903047   -0.019112692
     16        1          -0.053809055   -0.056601855   -0.096391574
     17        1          -0.070615303   -0.024737328    0.100278175
     18        6          -0.042167307    0.115471420   -0.006065988
     19        1          -0.096307273   -0.075888051   -0.019258907
     20        1           0.091557160   -0.018249740   -0.087863100
     21        1           0.052939873   -0.021826491    0.113743947
     22        6          -0.098007570   -0.074241448   -0.015023211
     23        1           0.009055168    0.075944390   -0.100885667
     24        1          -0.017825324    0.074087402    0.101764771
     25        1           0.102009962   -0.068160726    0.012937223
     26        6          -0.067547157   -0.110453015   -0.009630213
     27        1           0.056000215    0.004856704    0.110892437
     28        1           0.087476110    0.005774469   -0.090238663
     29        1          -0.076039305    0.098720094   -0.011145767
 -------------------------------------------------------------------
 Cartesian Forces:  Max     0.209733769 RMS     0.067232089
 Leave Link  716 at Mon Mar  9 15:15:44 2026, MaxMem=  2147483648 cpu:               0.5 elap:               0.0
 (Enter /data/home/wyx/g16/l103.exe)

 GradGradGradGradGradGradGradGradGradGradGradGradGradGradGradGradGradGrad
 Berny optimization.
 FormGI is forming the generalized inverse of G from B-inverse, IUseBI=4.
 Internal  Forces:  Max     0.215777956 RMS     0.043350934
 Search for a local minimum.
 Step number   1 out of a maximum of  150
 All quantities printed in internal units (Hartrees-Bohrs-Radians)
 RMS Force = .43351D-01 SwitMx=.10000D-02 MixMth= 1
 Mixed Optimization -- RFO/linear search
 Second derivative matrix not updated -- first step.
 ITU=  0
     Eigenvalues ---    0.00654   0.00662   0.00666   0.00730   0.00758
     Eigenvalues ---    0.00926   0.00935   0.01281   0.01312   0.01361
     Eigenvalues ---    0.01454   0.01540   0.01686   0.01989   0.02127
     Eigenvalues ---    0.02187   0.04354   0.06653   0.07465   0.07473
     Eigenvalues ---    0.07476   0.07479   0.07485   0.07488   0.07523
     Eigenvalues ---    0.07534   0.10199   0.11268   0.16000   0.16000
     Eigenvalues ---    0.16000   0.16000   0.16000   0.16000   0.16000
     Eigenvalues ---    0.16000   0.16000   0.16000   0.16000   0.16000
     Eigenvalues ---    0.16000   0.23018   0.24026   0.24994   0.24999
     Eigenvalues ---    0.25000   0.25000   0.25000   0.25000   0.25000
     Eigenvalues ---    0.25000   0.25000   0.30123   0.30607   0.31504
     Eigenvalues ---    0.31570   0.31599   0.32313   0.36834   0.37594
     Eigenvalues ---    0.47180   0.47851   0.50496   0.52440   0.53397
     Eigenvalues ---    0.53435   0.55328   0.55340   0.55362   0.55390
     Eigenvalues ---    0.55401   0.55418   0.55493   0.55504   0.55513
     Eigenvalues ---    0.55522   0.55571   0.55586   0.83922   0.86397
     Eigenvalues ---    0.88037
 RFO step:  Lambda=-2.96546107D-01 EMin= 6.53799298D-03
 Linear search not attempted -- first point.
 Maximum step size (   0.300) exceeded in Quadratic search.
    -- Step size scaled by   0.516
 Iteration  1 RMS(Cart)=  0.02602810 RMS(Int)=  0.00005743
 Iteration  2 RMS(Cart)=  0.00008794 RMS(Int)=  0.00000175
[...]
 454,-0.00000443,0.00000097,0.00000149,-0.00000626,0.00000930,-0.000004
 30,-0.00000666,-0.00000022,0.00000971,0.00000426,-0.00000418,0.0000086
 5,-0.00000149,-0.00000099,-0.09958711,-0.06508726,0.09296380,0.1056219
 6,-0.00104293,-0.00099614,-0.00452610,-0.00006575,-0.00001421,0.000030
 46,-0.00003536,0.00013813,0.00025350,-0.00000298,0.00000159,0.00001468
 ,0.00000739,0.00000091,-0.00003813,-0.00007673,-0.00065997,0.00001013,
 -0.00004792,-0.00000464,0.00011315,0.00005582,0.00004969,-0.00007376,0
 .00000170,-0.00005398,-0.00036685,0.00007709,-0.00001845,0.00000987,-0
 .00014208,-0.00006072,0.00002781,0.00014855,0.00023736,-0.00142124,-0.
 00651602,-0.01185890,0.01674105,-0.00000812,-0.00001552,-0.00001101,0.
 00000191,0.00000439,-0.00000091,-0.00000901,0.00000202,0.00000255,-0.0
 0000604,0.00000285,0.00000229,-0.00000903,-0.00001053,0.00000834,-0.00
 000582,-0.00000306,-0.00000033,0.00000580,0.00000928,0.00000354,0.0000
 0395,0.00000195,-0.00000482,-0.06485010,-0.10917815,0.10351298,0.06870
 093,0.11983701,0.00049879,-0.00097955,-0.00223143,-0.00012534,-0.00001
 248,0.00003020,-0.00077130,0.00003805,-0.00015051,0.00000865,-0.000053
 69,0.00010739,-0.00010040,-0.00013444,0.00007637,0.00051090,-0.0002308
 3,0.00018370,0.00021015,0.00028251,-0.00006669,0.00019701,0.00012466,-
 0.00005739,0.00020952,-0.00010748,-0.00016996,0.00000632,-0.00000342,-
 0.00001631,-0.00000975,-0.00004145,-0.00003780,-0.00057357,0.00144663,
 -0.00114780,-0.00452414,-0.00686234,0.01281762,-0.00000635,-0.00001179
 ,-0.00001124,0.00000841,0.00000197,0.00000162,-0.00000342,-0.00000278,
 0.00000394,-0.00000045,-0.00000317,-0.00000103,0.00000177,-0.00000852,
 0.00000389,-0.00000170,-0.00000520,-0.00000129,0.00000407,-0.00000110,
 -0.00000305,0.00000407,-0.00000273,-0.00000051,0.08898369,0.09872197,-
 0.18717481,-0.09806995,-0.11012473,0.20257710,-0.00329322,-0.00525068,
 0.00025470,-0.00008932,-0.00001053,-0.00002021,-0.00074034,0.00010256,
 -0.00027843,-0.00002128,-0.00005309,-0.00005862,-0.00001975,-0.0001097
 8,0.00011203,-0.00003152,-0.00094751,-0.00049960,0.00019137,0.00029461
 ,-0.00001077,0.00014324,0.00009255,0.00007393,0.00016798,-0.00020325,0
 .00019168,-0.00003100,0.00006314,-0.00006590,0.00007722,0.00006459,-0.
 00002303,-0.00142443,0.00151622,0.00091235,0.01531858,-0.01298603,-0.0
 1459020,-0.00000630,0.00000387,-0.00000669,0.00000129,0.00000114,0.000
 00160,-0.00000105,0.00000224,0.00000009,0.00000239,-0.00000359,-0.0000
 0218,0.00000448,-0.00000447,-0.00000310,-0.00000036,-0.00000458,-0.000
 00040,0.00000115,-0.00000390,-0.00000003,0.00000233,0.00000004,0.00000
 046,-0.09263309,0.07634335,0.06874113,-0.00604393,0.01044034,0.0080861
 1,0.09777484,-0.00494856,-0.00456244,-0.00215998,-0.00003925,-0.000013
 76,-0.00000662,0.00009411,-0.00000548,-0.00007542,0.00000860,0.0000045
 4,0.00002562,0.00006143,-0.00002195,-0.00003396,-0.00005370,-0.0001757
 4,-0.00017773,-0.00004037,-0.00000123,-0.00006869,0.00002558,0.0000316
 5,0.00004505,-0.00019243,-0.00013897,0.00031756,-0.00002037,0.00007818
 ,-0.00008111,0.00006329,0.00006135,0.00000340,-0.00031157,0.00032545,0
 .00103907,0.01192799,-0.01233377,-0.00871133,-0.00000381,0.00000382,0.
 00001330,-0.00000332,0.00000350,0.00000066,-0.00000357,0.00000080,-0.0
 0000064,-0.00000958,0.00000365,-0.00000064,-0.00000561,-0.00001072,-0.
 00000528,-0.00000460,-0.00000252,-0.00000004,0.00000174,0.00000176,0.0
 0000673,0.00000146,0.00000460,-0.00000391,0.07635011,-0.16501516,-0.12
 089323,-0.00661235,0.01126686,0.01123574,-0.08281029,0.18100985,-0.001
 64528,-0.00196938,0.00031559,0.00000334,-0.00000034,-0.00001956,-0.000
 15301,0.00034534,-0.00016823,-0.00009406,-0.00003805,-0.00000095,0.000
 03813,0.00003474,0.00002581,-0.00042638,-0.00131757,-0.00021685,0.0000
 5042,0.00002628,-0.00001715,-0.00000573,-0.00000223,0.00006127,-0.0000
 7179,-0.00009160,0.00012418,0.00003217,0.00007605,-0.00005558,0.000054
 61,0.00008403,0.00000748,-0.00125238,0.00082063,0.00056360,0.00922299,
 -0.00332421,-0.00626067,0.00000529,0.00002123,0.00000299,-0.00000507,0
 .00000049,0.00000074,0.00000591,0.00000036,-0.00000219,0.00000340,0.00
 000064,-0.00000138,0.00000206,0.00000473,-0.00000560,-0.00000005,0.000
 00015,0.00000007,0.00000074,-0.00000129,0.00000100,0.00000134,0.000002
 80,-0.00000014,0.06684908,-0.11829969,-0.15686082,0.00845690,-0.015788
 34,-0.01420273,-0.07562482,0.12770705,0.16525312,0.00353867,0.00218216
 ,0.00331961,-0.00025687,-0.00007032,0.00006065,-0.00032954,0.00005273,
 -0.00010652,-0.00001610,0.00000754,-0.00001834,-0.00010244,-0.00057532
 ,-0.00009880,0.00060916,-0.00051041,0.00025540,0.00010601,0.00014828,-
 0.00000095,0.00014571,0.00026041,-0.00005866,-0.00085628,0.00075009,-0
 .00004959,0.00002477,-0.00001149,0.00002645,-0.00002164,-0.00006623,-0
 .00008985,-0.00101931,-0.00414324,-0.00100322,-0.02098963,0.01335970,-
 0.01286284,-0.00001836,-0.00000114,0.00000026,-0.00000298,0.00001083,-
 0.00000235,-0.00001067,0.00000316,0.00000185,-0.00001169,0.00000388,-0
 .00000111,-0.00001161,-0.00002745,0.00000124,-0.00001033,-0.00001092,0
 .00000034,0.00000614,0.00000830,0.00000749,0.00000751,0.00000094,-0.00
 000778,-0.17444956,0.10564162,-0.09168973,0.01125782,-0.00875676,0.007
 18924,-0.00766556,0.00450724,-0.00567846,0.18981672,-0.00038159,0.0017
 6482,0.00067807,-0.00006969,-0.00003484,0.00001578,0.00008552,0.000191
 52,-0.00001707,-0.00006889,-0.00001931,-0.00001831,-0.00008043,-0.0002
 4705,-0.00009615,-0.00014148,-0.00053334,-0.00022905,-0.00001370,-0.00
 009425,0.00002092,-0.00004547,0.00008103,0.00001023,-0.00088907,0.0004
 6422,0.00005474,0.00002256,0.00004336,0.00002726,0.00004074,0.00004334
 ,-0.00000640,-0.00155376,-0.00290077,-0.00055576,-0.01696354,0.0095875
 8,-0.01250090,0.00000116,0.00001556,0.00000776,-0.00000677,0.00000495,
 -0.00000163,0.00000198,0.00000077,-0.00000107,-0.00000316,0.00000402,-
 0.00000058,-0.00000595,-0.00000357,-0.00000268,-0.00000303,-0.00000293
 ,-0.00000007,0.00000192,0.00000424,0.00000295,0.00000234,0.00000196,-0
 .00000245,0.10964242,-0.13061585,0.07330259,0.01102916,-0.00824595,0.0
 0582968,0.01135889,-0.00944918,0.01101181,-0.11289199,0.14050307,0.001
 87966,0.00031229,0.00126703,-0.00019664,-0.00005399,0.00000882,-0.0005
 7551,-0.00000311,-0.00019372,-0.00001322,-0.00002715,0.00000843,-0.000
 05147,-0.00047072,0.00001492,0.00075235,-0.00061373,-0.00002016,0.0001
 8008,0.00026961,-0.00004179,0.00015556,0.00020795,0.00003947,-0.000532
 86,0.00040298,0.00016066,0.00000169,-0.00004083,0.00000227,0.00002843,
 0.00002853,-0.00001669,-0.00116553,-0.00156939,0.00022162,-0.00799683,
 0.00886154,-0.00702113,-0.00001767,-0.00000307,0.00000826,-0.00000056,
 0.00000694,-0.00000158,-0.00000721,0.00000163,0.00000079,-0.00000947,0
 .00000260,-0.00000178,-0.00000453,-0.00002258,-0.00000819,-0.00000669,
 -0.00000887,0.00000102,0.00000270,-0.00000007,0.00000490,0.00000365,0.
 00000191,-0.00000374,-0.09136473,0.06996327,-0.10983110,-0.01639645,0.
 01164876,-0.01054762,0.01440187,-0.01063036,0.01165576,0.10085105,-0.0
 7813708,0.11383033,0.00002391,-0.00031320,-0.00025314,-0.00042126,-0.0
 0007366,0.00006360,-0.03688392,-0.03626627,-0.00902681,0.00042704,-0.0
 0253741,0.00091998,-0.00114877,-0.00141784,0.00034220,-0.11936526,-0.0
 4950654,-0.01188943,-0.00096058,0.00375026,-0.00332812,0.00097102,0.00
 057237,0.00007530,-0.00128553,0.00330045,-0.00129670,0.00057783,0.0007
 5256,0.00023709,0.00005493,0.00014764,0.00003265,0.01346449,0.00362167
 ,0.00376254,-0.00007589,0.00052563,0.00069877,-0.00043675,-0.00066769,
 0.00036276,0.00010322,0.00003178,0.00001914,-0.00020017,0.00000327,0.0
 0002482,-0.00016456,-0.00000890,-0.00006677,0.00004642,-0.00008783,-0.
 00002464,0.00003765,-0.00004811,-0.00001517,-0.00001894,-0.00004759,-0
 .00003542,-0.00002735,-0.00003081,0.00003637,-0.00218677,0.00039774,-0
 .00035914,-0.00057459,0.00108359,-0.00103605,-0.00059479,0.00084914,-0
 .00004548,0.00026525,0.00018623,0.00021108,0.59522205,-0.00005745,-0.0
 0150131,-0.00007221,-0.00012593,-0.00001845,0.00006079,-0.00834982,-0.
 00003982,0.00049655,0.00287374,0.00235881,-0.00031595,0.00030270,-0.00
 050003,-0.00028530,-0.06383113,-0.18762012,-0.01510219,0.00277554,0.00
 016323,0.00164144,0.00005755,0.00009041,-0.00020543,0.00234049,-0.0007
 0891,0.00175689,-0.00052464,-0.00061171,-0.00037187,-0.00013560,-0.000
 22500,-0.00013035,-0.01338213,-0.02267812,-0.00521874,-0.00068184,0.00
 273569,-0.00045122,0.00002134,0.00030371,-0.00036837,-0.00005758,-0.00
 002413,0.00000431,0.00005961,0.00001801,0.00000608,0.00013508,-0.00002
 743,0.00000850,-0.00005428,-0.00007940,0.00001458,-0.00003415,-0.00000
 290,0.00001202,-0.00001205,0.00002634,0.00005197,0.00000406,0.00001512
 ,-0.00003166,0.00267967,-0.00250757,0.00169899,-0.00025281,0.00012145,
 0.00074623,0.00071515,-0.00018050,-0.00025663,-0.00005846,-0.00092908,
 -0.00006142,-0.03286669,0.51054584,0.00120742,-0.00291656,0.00081662,0
 .00012671,0.00001166,0.00012354,-0.00479748,-0.00649573,0.00471850,-0.
 00109432,-0.00100119,-0.00205320,-0.00009082,-0.00000941,-0.00074434,-
 0.01052221,-0.00160209,-0.07629562,-0.00113038,0.00177815,0.00431408,-
 0.00038038,-0.00013693,-0.00066363,-0.00186339,0.00039874,0.00777534,-
 0.00067562,-0.00047210,0.00000214,0.00070390,0.00097712,-0.00011708,0.
 00811296,-0.00460849,0.00945213,-0.00342688,0.00255369,-0.00659855,-0.
 00012524,-0.00049935,-0.00009083,0.00000374,0.00003529,-0.00002089,-0.
 00006267,0.00010228,0.00003718,-0.00006031,0.00004103,0.00005569,0.000
 01868,0.00001106,0.00022433,-0.00001154,0.00002167,-0.00003936,0.00004
 795,0.00003866,-0.00003855,-0.00002626,-0.00002314,-0.00005270,-0.0019
 4319,0.00080939,-0.00074555,0.00029339,-0.00012599,-0.00070577,-0.0016
 9446,0.00171019,0.00051646,0.00015118,0.00089409,-0.00001207,-0.004820
 54,-0.01395220,0.54576575,0.00012923,-0.00025980,0.00005272,-0.0001893
 2,-0.00004615,0.00006029,-0.00064302,-0.00159820,0.00091309,0.00000712
 ,0.00000661,-0.00063429,-0.00005692,-0.00030461,-0.00014233,-0.0023543
 7,-0.00371495,-0.01715574,-0.00034373,0.00037237,0.00096041,0.00021158
 ,0.00019648,-0.00019555,-0.00020865,-0.00009385,0.00072783,-0.00011730
 ,-0.00006760,-0.00001024,0.00002256,0.00004060,-0.00001814,0.00041283,
 0.00041745,0.00004795,-0.00031431,0.00043036,-0.00062225,-0.00005570,-
 0.00015228,-0.00004486,0.00001728,0.00001672,-0.00000527,-0.00003853,0
 .00002260,0.00001473,-0.00002392,0.00000282,0.00001241,-0.00000233,-0.
 00003758,0.00003821,-0.00000780,-0.00001002,-0.00000189,0.00000420,0.0
 0000742,0.00000203,-0.00000148,-0.00000878,-0.00001095,0.00038549,0.00
 020533,0.00065009,0.00008550,-0.00019264,0.00029120,-0.00035084,0.0006
 5249,-0.00051996,0.00007768,-0.00024145,-0.00006528,-0.04254492,-0.003
 52047,-0.00877592,0.04466303,0.00085808,-0.00116125,0.00025048,-0.0000
 0468,-0.00002237,0.00004080,0.00212577,-0.00062018,0.00056621,-0.00022
 272,0.00002593,-0.00006265,0.00023425,0.00021493,-0.00022158,-0.002307
 60,-0.00964284,-0.02831524,-0.00090358,-0.00044393,0.00043714,-0.00014
 157,-0.00003609,-0.00011340,-0.00022044,-0.00028552,0.00168626,-0.0002
 5310,-0.00025739,-0.00000632,-0.00000588,0.00008722,-0.00005654,0.0005
 9970,-0.00142029,0.00165255,-0.00242156,0.00084204,-0.00193736,0.00000
 539,-0.00010184,0.00005599,-0.00000249,0.00001861,-0.00000529,-0.00002
 343,0.00001249,0.00000794,-0.00005171,0.00002357,0.00001593,-0.0000310
 0,-0.00001649,0.00003618,-0.00001636,0.00000094,-0.00001092,0.00001841
 ,0.00002295,0.00000464,-0.00000145,0.00001155,-0.00002479,0.00011165,-
 0.00029529,-0.00017742,-0.00005648,0.00007158,-0.00001496,0.00089103,-
 0.00041252,0.00059949,-0.00004291,0.00021077,0.00019403,-0.00337359,-0
 .06036060,-0.06987343,0.00496312,0.06802727,0.00005870,0.00045149,-0.0
 0006317,-0.00001282,-0.00000281,-0.00000070,0.00062750,-0.00021716,0.0
 0021618,0.00012820,-0.00004971,-0.00031558,0.00003855,0.00006969,0.000
 00458,-0.00147230,-0.00345336,-0.00026509,-0.00019655,-0.00028707,-0.0
 0013202,-0.00000765,-0.00001519,-0.00001924,0.00002341,-0.00026122,-0.
 00000744,-0.00009568,-0.00001687,-0.00002781,0.00000404,0.00000353,-0.
 00001536,-0.00120864,0.00141994,0.00017088,-0.00004995,-0.00037365,0.0
 0005337,0.00002110,-0.00000344,0.00005646,0.00000394,0.00000287,-0.000
 00233,-0.00000215,-0.00000378,0.00000190,-0.00002391,0.00000602,0.0000
 0385,-0.00000749,-0.00000207,0.00000221,-0.00000265,-0.00000119,0.0000
 0263,0.00000169,0.00000294,0.00000240,0.00000392,0.00000095,-0.0000024
 1,-0.00026812,0.00073640,-0.00013350,0.00005339,-0.00018363,-0.0001364
 6,0.00001161,0.00007246,0.00033646,-0.00006690,0.00019412,0.00018038,-
 0.00664494,-0.06693940,-0.29549385,0.01009804,0.07479339,0.31916745,0.
 00001914,0.00014566,-0.00000492,-0.00024819,-0.00004022,0.00002512,-0.
 00176741,-0.00334165,0.00078182,0.00055144,-0.00025726,0.00027001,-0.0
 0017624,-0.00038482,0.00008384,-0.01362743,0.00215265,0.00327794,0.000
 04126,0.00067783,-0.00051740,0.00038743,0.00022524,0.00002010,-0.00003
 976,-0.00001202,-0.00043286,0.00004593,0.00001507,0.00001168,-0.000042
 75,-0.00005240,-0.00000168,0.00052016,0.00108264,-0.00076832,0.0000162
 3,-0.00037179,0.00068603,-0.00007907,-0.00014050,-0.00001501,0.0000318
 3,0.00001057,0.00000430,-0.00006336,0.00000431,0.00001244,-0.00002897,
 -0.00000422,-0.00000518,-0.00000986,-0.00003938,-0.00001411,-0.0000024
 8,-0.00001821,0.00000120,0.00000080,-0.00000724,0.00000044,0.00000406,
 -0.00000136,0.00000141,-0.00070904,0.00205027,-0.00225544,-0.00075394,
 0.00125674,-0.00054749,-0.00048220,0.00038158,0.00020075,-0.00015104,0
 .00047091,-0.00002560,-0.29682658,0.01847781,0.09506007,0.00224349,0.0
 0005676,-0.00143227,0.32226341,0.00053184,-0.00019582,0.00020539,-0.00
 017586,-0.00004687,0.00004391,-0.00229103,-0.00442562,-0.00042233,-0.0
 0051923,-0.00045414,0.00003352,-0.00014092,-0.00025625,-0.00002225,-0.
 02754419,0.00523339,0.01046780,-0.00073823,0.00051281,-0.00077145,0.00
 026163,0.00023564,-0.00005811,0.00001975,0.00040545,-0.00064170,0.0000
 7976,0.00009356,0.00005663,-0.00014174,-0.00011010,-0.00001552,0.00165
 933,0.00009298,-0.00010069,-0.00201911,-0.00088559,-0.00019099,-0.0000
 9843,-0.00017241,0.00008736,0.00001832,0.00001271,-0.00000379,-0.00005
 970,-0.00000490,0.00000687,-0.00004878,-0.00000027,-0.00001274,0.00000
 891,-0.00004376,-0.00000560,-0.00000064,-0.00001173,0.00000221,-0.0000
 0628,-0.00000274,0.00000422,-0.00000466,-0.00000592,0.00000229,0.00045
 325,-0.00110654,0.00150315,0.00182645,-0.00063931,0.00015305,0.0003932
 9,-0.00039592,0.00032780,0.00028162,0.00010643,-0.00028486,0.02229548,
 -0.04882941,-0.00783761,0.00770066,-0.00131988,-0.00169298,-0.02266904
 ,0.05348159,-0.00031756,-0.00021357,-0.00025881,-0.00005015,-0.0000037
 6,-0.00000582,-0.00194953,-0.00173480,0.00024860,0.00047116,-0.0000443
 8,0.00001472,-0.00003459,-0.00003227,0.00007693,-0.00664433,-0.0005866
 4,-0.00013411,-0.00035734,0.00006815,-0.00018032,0.00008462,0.00000622
 ,0.00004890,-0.00003762,-0.00001362,-0.00016768,0.00002833,0.00000612,
 -0.00000932,0.00002710,-0.00000027,-0.00000707,-0.00045845,0.00085679,
 0.00015588,0.00121878,0.00037176,0.00083826,-0.00005333,-0.00007477,0.
 00000608,0.00001770,0.00000578,0.00000067,-0.00003375,0.00000528,0.000
 00199,-0.00002001,0.00000173,0.00000255,-0.00001231,-0.00000079,-0.000
 00980,0.00000102,-0.00000747,0.,0.00000261,-0.00000372,-0.00000202,0.0
 0000689,0.00000173,0.00000195,0.00017064,-0.00001547,-0.00004718,-0.00
 079859,0.00043289,0.00076920,-0.00002260,0.00062046,-0.00135337,-0.000
 02936,-0.00053665,0.00006102,0.09522554,-0.00560148,-0.07713933,0.0290
 7500,-0.00222549,-0.00951405,-0.09914664,0.00866088,0.08069895,0.00029
 884,0.00003344,0.00011805,0.00009353,0.00000883,-0.00000310,0.00025389
 ,-0.00271513,0.00070342,-0.00081852,-0.00068582,0.00004750,0.00030068,
 0.00004747,-0.00015646,0.00651430,-0.01365316,0.01014037,0.00028696,-0
 .00042342,0.00033606,-0.00018154,-0.00009338,-0.00004751,0.00028148,-0
 .00041108,-0.00054667,-0.00002637,-0.00004728,-0.00002948,-0.00014545,
 -0.00016836,-0.00001711,-0.00149477,-0.00170266,-0.00097329,-0.0010579
 9,-0.00038898,-0.00000489,0.00002580,0.00010978,-0.00001310,-0.0000201
 1,0.00000764,-0.00001172,0.00003576,0.00000429,-0.00000945,0.00002492,
 0.00000294,0.00000033,-0.00002035,-0.00000990,-0.00000175,-0.00000669,
 0.00000172,0.00000954,-0.00000880,0.00001487,0.00001511,0.00000084,0.0
 0000633,-0.00000156,-0.00095685,0.00059288,-0.00075668,0.00047869,-0.0
 0001651,-0.00043999,-0.00025588,0.00013461,0.00059534,0.00006817,0.000
 51614,-0.00003783,-0.10747720,0.09350227,-0.06422440,-0.00100686,0.000
 21639,0.00041792,-0.01111689,0.02092754,-0.01636324,0.11593040,0.00036
 057,-0.00041141,0.00005382,-0.00002769,-0.00002382,0.00000519,0.003395
 53,0.00199936,-0.00032461,-0.00242909,0.00021219,0.00036280,0.00052875
 ,0.00035594,-0.00011213,0.01406161,-0.02492018,0.01473444,-0.00044388,
 -0.00019223,-0.00022829,-0.00012709,0.00003289,0.00004422,0.00088484,-
 0.00067725,-0.00032379,-0.00016500,-0.00024491,-0.00011214,-0.00021935
 ,-0.00028067,-0.00002795,-0.00442993,-0.00130035,-0.00105352,-0.000864
 29,0.00065709,-0.00003630,0.00003097,0.00004953,0.00004468,-0.00003617
 ,0.00001306,-0.00000894,0.00001513,-0.00000103,-0.00000459,-0.00000873
 ,0.00001614,-0.00000169,-0.00002160,-0.00001374,-0.00002505,-0.0000207
 0,0.00000654,0.00000633,0.00000119,0.00001625,0.00002737,0.00000824,0.
 00001778,-0.00001519,0.00000699,0.00018734,-0.00004247,-0.00001543,0.0
 0001445,0.00002016,0.00010470,-0.00007611,0.00002571,-0.00005186,0.000
 04847,0.00002518,0.08972832,-0.18953410,0.10017116,-0.00478667,0.00682
 663,-0.00425026,0.00033206,-0.00126736,0.00005737,-0.09581142,0.208489
 50,-0.00018475,0.00059005,-0.00002507,-0.00001412,0.00000029,-0.000002
 67,-0.00039576,-0.00094439,0.00021724,0.00089213,0.00056236,0.00102293
 ,-0.00007238,-0.00015711,0.00002365,0.00197388,-0.00627518,0.00082807,
 0.00029947,-0.00006953,0.00009421,0.00006803,0.00000571,-0.00000187,-0
 .00014333,-0.00032279,0.00037931,-0.00005514,-0.00008946,-0.00002777,0
 .00010896,0.00014426,0.00002811,-0.00127908,0.00009482,-0.00037330,0.0
 0068334,-0.00055482,0.00011690,-0.00001845,0.00000635,-0.00004607,0.00
 001257,-0.00000332,0.00000707,-0.00000333,-0.00000254,0.00000305,0.000
 01265,-0.00000161,0.00000261,-0.00000879,-0.00001049,-0.00000317,0.000
 00041,-0.00000552,0.00000114,-0.00000607,-0.00000561,0.00000121,0.0000
 0249,-0.00000040,0.00000206,0.00011974,0.00001312,-0.00040672,-0.00007
 917,-0.00014618,0.00009136,0.00011348,0.00005165,0.00030069,-0.0001003
 1,0.00005586,0.00023390,-0.06316950,0.10286605,-0.11299044,-0.01474132
 ,0.02270438,-0.01406975,0.00472976,-0.00949443,0.00590316,0.07125460,-
 0.10901152,0.11869016\\0.00000374,-0.00000317,0.00000217,-0.00001636,0
 .00000076,0.00000203,-0.00001867,0.00000816,-0.00001237,0.00000593,-0.
 00001129,0.00000123,-0.00002288,-0.00000666,0.00000010,0.00002076,-0.0
 0000254,0.00000947,0.00000580,0.00000774,0.,0.00002475,0.00001295,-0.0
 0000484,0.00000092,0.00000719,-0.00000660,-0.00000085,-0.00000398,0.00
 000620,0.00000214,0.00000184,0.00000947,-0.00001547,0.00000766,-0.0000
 1243,0.00001055,-0.00000865,0.00001020,0.00000386,-0.00000982,0.000008
 78,-0.00000339,0.00000719,-0.00000418,-0.00000256,0.00000130,-0.000007
 64,0.00000462,0.00000649,-0.00000653,-0.00000004,-0.00000664,0.0000162
 8,-0.00000202,0.00000273,0.00000007,-0.00000024,-0.00000345,-0.0000004
 0,-0.00000477,-0.00000103,-0.00000497,-0.00000715,-0.00000258,0.000001
 23,0.00000389,0.00000029,0.00000065,0.00000080,-0.00000230,-0.00000070
 ,-0.00000012,0.00000015,0.00000052,0.00001345,-0.00001190,-0.00001300,
 0.00000137,0.00000457,0.00000323,-0.00000972,0.00000168,0.00000441,0.0
 0000167,0.00000335,-0.00000236\\\@


 Change starts when someone sees the next step.
                            -- William Drayton
 Job cpu time:       0 days  1 hours 16 minutes 39.2 seconds.
 Elapsed time:       0 days  0 hours  2 minutes 51.9 seconds.
 File lengths (MBytes):  RWF=    427 Int=      0 D2E=      0 Chk=     21 Scr=      1
 Normal termination of Gaussian 16 at Mon Mar  9 15:43:32 2026.
