 Entering Gaussian System, Link 0=g16
 Input=DDL-S2min-S2-cLR-1.gjf
 Output=DDL-S2min-S2-cLR-1.log
 Initial command:
 /data/home/wyx/g16/l1.exe "/scr/tmp/wyx/13951/Gau-3033041.inp" -scrdir="/scr/tmp/wyx/13951/"
 Entering Link 1 = /data/home/wyx/g16/l1.exe PID=   3033042.
  
 Copyright (c) 1988,1990,1992,1993,1995,1998,2003,2009,2016,
            Gaussian, Inc.  All Rights Reserved.
  
 This is part of the Gaussian(R) 16 program.  It is based on
 the Gaussian(R) 09 system (copyright 2009, Gaussian, Inc.),
 the Gaussian(R) 03 system (copyright 2003, Gaussian, Inc.),
 the Gaussian(R) 98 system (copyright 1998, Gaussian, Inc.),
 the Gaussian(R) 94 system (copyright 1995, Gaussian, Inc.),
 the Gaussian 92(TM) system (copyright 1992, Gaussian, Inc.),
 the Gaussian 90(TM) system (copyright 1990, Gaussian, Inc.),
 the Gaussian 88(TM) system (copyright 1988, Gaussian, Inc.),
 the Gaussian 86(TM) system (copyright 1986, Carnegie Mellon
 University), and the Gaussian 82(TM) system (copyright 1983,
 Carnegie Mellon University). Gaussian is a federally registered
 trademark of Gaussian, Inc.
  
 This software contains proprietary and confidential information,
 including trade secrets, belonging to Gaussian, Inc.
  
 This software is provided under written license and may be
 used, copied, transmitted, or stored only in accord with that
 written license.
  
 The following legend is applicable only to US Government
 contracts under FAR:
  
                    RESTRICTED RIGHTS LEGEND
  
 Use, reproduction and disclosure by the US Government is
 subject to restrictions as set forth in subparagraphs (a)
 and (c) of the Commercial Computer Software - Restricted
 Rights clause in FAR 52.227-19.
  
 Gaussian, Inc.
 340 Quinnipiac St., Bldg. 40, Wallingford CT 06492
  
  
 ---------------------------------------------------------------
 Warning -- This program may not be used in any manner that
 competes with the business of Gaussian, Inc. or will provide
 assistance to any competitor of Gaussian, Inc.  The licensee
 of this program is prohibited from giving any competitor of
 Gaussian, Inc. access to this program.  By using this program,
 the user acknowledges that Gaussian, Inc. is engaged in the
 business of creating and licensing software in the field of
 computational chemistry and represents and warrants to the
 licensee that it is not a competitor of Gaussian, Inc. and that
 it will not use this program in any manner prohibited above.
 ---------------------------------------------------------------
  

 Cite this work as:
 Gaussian 16, Revision A.03,
 M. J. Frisch, G. W. Trucks, H. B. Schlegel, G. E. Scuseria, 
 M. A. Robb, J. R. Cheeseman, G. Scalmani, V. Barone, 
 G. A. Petersson, H. Nakatsuji, X. Li, M. Caricato, A. V. Marenich, 
 J. Bloino, B. G. Janesko, R. Gomperts, B. Mennucci, H. P. Hratchian, 
 J. V. Ortiz, A. F. Izmaylov, J. L. Sonnenberg, D. Williams-Young, 
 F. Ding, F. Lipparini, F. Egidi, J. Goings, B. Peng, A. Petrone, 
 T. Henderson, D. Ranasinghe, V. G. Zakrzewski, J. Gao, N. Rega, 
 G. Zheng, W. Liang, M. Hada, M. Ehara, K. Toyota, R. Fukuda, 
 J. Hasegawa, M. Ishida, T. Nakajima, Y. Honda, O. Kitao, H. Nakai, 
 T. Vreven, K. Throssell, J. A. Montgomery, Jr., J. E. Peralta, 
 F. Ogliaro, M. J. Bearpark, J. J. Heyd, E. N. Brothers, K. N. Kudin, 
 V. N. Staroverov, T. A. Keith, R. Kobayashi, J. Normand, 
 K. Raghavachari, A. P. Rendell, J. C. Burant, S. S. Iyengar, 
 J. Tomasi, M. Cossi, J. M. Millam, M. Klene, C. Adamo, R. Cammi, 
 J. W. Ochterski, R. L. Martin, K. Morokuma, O. Farkas, 
 J. B. Foresman, and D. J. Fox, Gaussian, Inc., Wallingford CT, 2016.
 
 ******************************************
 Gaussian 16:  ES64L-G16RevA.03 25-Dec-2016
                 9-Mar-2026 
 ******************************************
 %nprocshared=32
 Will use up to   32 processors via shared memory.
 %mem=16GB
 %oldchk=DDL-S2min-S2-cLR.chk
 %chk=DDL-S2min-S2-cLR-1.chk
 Copying data from "DDL-S2min-S2-cLR.chk" to current chk file "DDL-S2min-S2-cLR-1.chk"
 IOpt=  2 FromEx=T IUOpen= 4 IOptOp= 5 NList=   0 IFRang= 0 IUIn= 4 IUOut= 2.
 ----------------------------------------------------------------------
 #p PBE1PBE/TZVP em=gd3bj SCRF=(Solvent=Water,NonEquilibrium=Read) Geom
 =Check Guess=Read NoSymm
 ----------------------------------------------------------------------
 1/29=2,38=1,172=1/1;
 2/12=2,15=1,40=1/2;
 3/5=19,7=101,11=2,14=-4,25=1,30=1,70=6002201,72=1,74=-13,116=-2,124=41/1,2,3;
 4/5=1/1;
 5/5=2,38=6,53=1/2;
 6/7=2,8=2,9=2,10=2,28=1/1;
 99/5=1,9=1/99;
 Leave Link    1 at Mon Mar  9 21:32:43 2026, MaxMem=  2147483648 cpu:               1.8 elap:               0.1
 (Enter /data/home/wyx/g16/l101.exe)
 -------------------
 Title Card Required
 -------------------
 Structure from the checkpoint file:  "DDL-S2min-S2-cLR-1.chk"
 Charge =  0 Multiplicity = 1
 Redundant internal coordinates found in file.  (old form).
 O,0,1.385315417,9.8240861188,0.6889993483
 O,0,-4.9030260754,9.7483497138,0.1951667044
 N,0,-2.0869414834,12.909280699,0.1865649915
 H,0,-2.3982698188,13.8650968104,0.1107183678
 C,0,-2.6773899738,10.6059252065,0.2327868792
 C,0,-0.7539460999,12.7114117163,0.377154134
 C,0,-3.0600258657,11.9451994759,0.1462217621
 C,0,-3.612330246,9.5860314191,0.238914833
 C,0,-1.2102524536,10.2498455192,0.2810185995
 H,0,-1.019126927,9.5393883104,1.0901940118
 H,0,-0.921058118,9.7189842911,-0.6356810934
 C,0,-0.2791574268,11.4249604152,0.4755023243
 C,0,1.0891177093,11.0279531621,0.7145201407
 C,0,-4.4418069351,12.4619667391,-0.018368426
 H,0,-4.6733795282,13.2373709648,0.7199511947
 H,0,-4.5990543103,12.8909798919,-1.0157200977
 H,0,-5.1790166732,11.6624717226,0.1066166245
 C,0,-3.2900926918,8.1121060254,0.2859835338
 H,0,-3.7461405228,7.5979252223,-0.5639775201
 H,0,-2.2109509102,7.9797072877,0.2504912122
 H,0,-3.6853908676,7.6656163809,1.2026632835
 C,0,2.1973595831,12.0109388532,1.0139047754
 H,0,2.5077418523,12.5387131597,0.1082330196
 H,0,1.915642782,12.7580455778,1.7548859076
 H,0,3.0510728855,11.4447705868,1.3843516997
 C,0,0.0214752256,13.9894862553,0.461044611
 H,0,0.3188624929,14.211988279,1.4886124187
 H,0,0.9209460684,13.9639861243,-0.1499559704
 H,0,-0.5893481188,14.8232485213,0.1112027304
 Recover connectivity data from disk.
 ITRead=  0  0  0  0  0  0  0  0  0  0  0  0  0  0  0  0  0  0  0  0
 ITRead=  0  0  0  0  0  0  0  0  0
 MicOpt= -1 -1 -1 -1 -1 -1 -1 -1 -1 -1 -1 -1 -1 -1 -1 -1 -1 -1 -1 -1
 MicOpt= -1 -1 -1 -1 -1 -1 -1 -1 -1
                           ----------------------------
                           !    Current Parameters    !
                           ! (Angstroms and Degrees)  !
 --------------------------                            --------------------------
 ! Name  Definition              Value                                          !
 --------------------------------------------------------------------------------
 ! R1    R(1,13)                 1.24                                           !
 ! R2    R(2,8)                  1.3016                                         !
 ! R3    R(3,4)                  1.0081                                         !
 ! R4    R(3,6)                  1.361                                          !
 ! R5    R(3,7)                  1.3704                                         !
 ! R6    R(5,7)                  1.3955                                         !
 ! R7    R(5,8)                  1.3836                                         !
 ! R8    R(5,9)                  1.5105                                         !
 ! R9    R(6,12)                 1.3748                                         !
 ! R10   R(6,26)                 1.4973                                         !
 ! R11   R(7,14)                 1.4844                                         !
 ! R12   R(8,18)                 1.5095                                         !
 ! R13   R(9,10)                 1.0936                                         !
 ! R14   R(9,11)                 1.0981                                         !
 ! R15   R(9,12)                 1.5118                                         !
 ! R16   R(12,13)                1.4446                                         !
 ! R17   R(13,22)                1.5113                                         !
 ! R18   R(14,15)                1.0954                                         !
 ! R19   R(14,16)                1.097                                          !
 ! R20   R(14,17)                1.0947                                         !
 ! R21   R(18,19)                1.0931                                         !
 ! R22   R(18,20)                1.0878                                         !
 ! R23   R(18,21)                1.0936                                         !
 ! R24   R(22,23)                1.0932                                         !
 ! R25   R(22,24)                1.0893                                         !
 ! R26   R(22,25)                1.0893                                         !
 ! R27   R(26,27)                1.0926                                         !
 ! R28   R(26,28)                1.0877                                         !
 ! R29   R(26,29)                1.0912                                         !
 ! A1    A(4,3,6)              116.7982                                         !
 ! A2    A(4,3,7)              116.4564                                         !
 ! A3    A(6,3,7)              126.6771                                         !
 ! A4    A(7,5,8)              121.494                                          !
 ! A5    A(7,5,9)              119.6383                                         !
 ! A6    A(8,5,9)              118.8438                                         !
 ! A7    A(3,6,12)             118.9668                                         !
 ! A8    A(3,6,26)             113.0153                                         !
 ! A9    A(12,6,26)            128.0169                                         !
 ! A10   A(3,7,5)              118.5954                                         !
 ! A11   A(3,7,14)             114.7928                                         !
 ! A12   A(5,7,14)             126.5981                                         !
 ! A13   A(2,8,5)              125.3099                                         !
 ! A14   A(2,8,18)             109.5426                                         !
 ! A15   A(5,8,18)             125.1458                                         !
 ! A16   A(5,9,10)             110.274                                          !
 ! A17   A(5,9,11)             110.0665                                         !
 ! A18   A(5,9,12)             114.7756                                         !
 ! A19   A(10,9,11)            104.9273                                         !
 ! A20   A(10,9,12)            107.5855                                         !
 ! A21   A(11,9,12)            108.7212                                         !
 ! A22   A(6,12,9)             120.3602                                         !
 ! A23   A(6,12,13)            126.5909                                         !
 ! A24   A(9,12,13)            113.0166                                         !
 ! A25   A(1,13,12)            119.3168                                         !
 ! A26   A(1,13,22)            117.4107                                         !
 ! A27   A(12,13,22)           123.269                                          !
 ! A28   A(7,14,15)            111.6215                                         !
 ! A29   A(7,14,16)            111.7387                                         !
 ! A30   A(7,14,17)            111.0989                                         !
 ! A31   A(15,14,16)           107.7963                                         !
 ! A32   A(15,14,17)           107.317                                          !
 ! A33   A(16,14,17)           107.0308                                         !
 ! A34   A(8,18,19)            110.2435                                         !
 ! A35   A(8,18,20)            109.2447                                         !
 ! A36   A(8,18,21)            110.343                                          !
 ! A37   A(19,18,20)           109.3458                                         !
 ! A38   A(19,18,21)           107.9952                                         !
 ! A39   A(20,18,21)           109.6484                                         !
 ! A40   A(13,22,23)           110.9826                                         !
 ! A41   A(13,22,24)           113.029                                          !
 ! A42   A(13,22,25)           107.6986                                         !
 ! A43   A(23,22,24)           107.8094                                         !
 ! A44   A(23,22,25)           108.0678                                         !
 ! A45   A(24,22,25)           109.137                                          !
 ! A46   A(6,26,27)            111.5602                                         !
 ! A47   A(6,26,28)            112.1354                                         !
 ! A48   A(6,26,29)            110.1432                                         !
 ! A49   A(27,26,28)           107.9385                                         !
 ! A50   A(27,26,29)           107.3543                                         !
 ! A51   A(28,26,29)           107.5019                                         !
 ! D1    D(4,3,6,12)          -179.4613                                         !
 ! D2    D(4,3,6,26)             0.865                                          !
 ! D3    D(7,3,6,12)             3.6681                                         !
 ! D4    D(7,3,6,26)          -176.0057                                         !
 ! D5    D(4,3,7,5)            179.3095                                         !
 ! D6    D(4,3,7,14)             0.5677                                         !
 ! D7    D(6,3,7,5)             -3.8104                                         !
 ! D8    D(6,3,7,14)           177.4477                                         !
 ! D9    D(8,5,7,3)            178.015                                          !
 ! D10   D(8,5,7,14)            -3.4078                                         !
 ! D11   D(9,5,7,3)             -3.7858                                         !
 ! D12   D(9,5,7,14)           174.7914                                         !
 ! D13   D(7,5,8,2)             -1.4753                                         !
 ! D14   D(7,5,8,18)           177.9909                                         !
 ! D15   D(9,5,8,2)           -179.6885                                         !
 ! D16   D(9,5,8,18)            -0.2222                                         !
 ! D17   D(7,5,9,10)           132.0314                                         !
 ! D18   D(7,5,9,11)          -112.673                                          !
 ! D19   D(7,5,9,12)            10.3478                                         !
 ! D20   D(8,5,9,10)           -49.7216                                         !
 ! D21   D(8,5,9,11)            65.574                                          !
 ! D22   D(8,5,9,12)          -171.4052                                         !
 ! D23   D(3,6,12,9)             4.1027                                         !
 ! D24   D(3,6,12,13)         -178.1153                                         !
 ! D25   D(26,6,12,9)         -176.2785                                         !
 ! D26   D(26,6,12,13)           1.5035                                         !
 ! D27   D(3,6,26,27)          105.2384                                         !
 ! D28   D(3,6,26,28)         -133.5471                                         !
 ! D29   D(3,6,26,29)          -13.8756                                         !
 ! D30   D(12,6,26,27)         -74.3993                                         !
 ! D31   D(12,6,26,28)          46.8152                                         !
 ! D32   D(12,6,26,29)         166.4867                                         !
 ! D33   D(3,7,14,15)          -51.7727                                         !
 ! D34   D(3,7,14,16)           69.023                                          !
 ! D35   D(3,7,14,17)         -171.517                                          !
 ! D36   D(5,7,14,15)          129.6033                                         !
 ! D37   D(5,7,14,16)         -109.601                                          !
 ! D38   D(5,7,14,17)            9.859                                          !
 ! D39   D(2,8,18,19)           55.8034                                         !
 ! D40   D(2,8,18,20)          175.9839                                         !
 ! D41   D(2,8,18,21)          -63.4003                                         !
 ! D42   D(5,8,18,19)         -123.7344                                         !
 ! D43   D(5,8,18,20)           -3.5539                                         !
 ! D44   D(5,8,18,21)          117.0619                                         !
 ! D45   D(5,9,12,6)           -10.5814                                         !
 ! D46   D(5,9,12,13)          171.3534                                         !
 ! D47   D(10,9,12,6)         -133.7176                                         !
 ! D48   D(10,9,12,13)          48.2172                                         !
 ! D49   D(11,9,12,6)          113.1582                                         !
 ! D50   D(11,9,12,13)         -64.907                                          !
 ! D51   D(6,12,13,1)         -175.1755                                         !
 ! D52   D(6,12,13,22)           5.5186                                         !
 ! D53   D(9,12,13,1)            2.7452                                         !
 ! D54   D(9,12,13,22)        -176.5607                                         !
 ! D55   D(1,13,22,23)         105.3186                                         !
 ! D56   D(1,13,22,24)        -133.4188                                         !
 ! D57   D(1,13,22,25)         -12.7843                                         !
 ! D58   D(12,13,22,23)        -75.3631                                         !
 ! D59   D(12,13,22,24)         45.8994                                         !
 ! D60   D(12,13,22,25)        166.534                                          !
 --------------------------------------------------------------------------------
 NAtoms=     29 NQM=       29 NQMF=       0 NMMI=      0 NMMIF=      0
                NMic=       0 NMicF=      0.
                    Isotopes and Nuclear Properties:
 (Nuclear quadrupole moments (NQMom) in fm**2, nuclear magnetic moments (NMagM)
  in nuclear magnetons)

  Atom         1           2           3           4           5           6           7           8           9          10
 IAtWgt=          16          16          14           1          12          12          12          12          12           1
 AtmWgt=  15.9949146  15.9949146  14.0030740   1.0078250  12.0000000  12.0000000  12.0000000  12.0000000  12.0000000   1.0078250
 NucSpn=           0           0           2           1           0           0           0           0           0           1
 AtZEff=   5.6000000   5.6000000   4.5500000   1.0000000   3.6000000   3.6000000   3.6000000   3.6000000   3.6000000   1.0000000
 NQMom=    0.0000000   0.0000000   2.0440000   0.0000000   0.0000000   0.0000000   0.0000000   0.0000000   0.0000000   0.0000000
 NMagM=    0.0000000   0.0000000   0.4037610   2.7928460   0.0000000   0.0000000   0.0000000   0.0000000   0.0000000   2.7928460
 AtZNuc=   8.0000000   8.0000000   7.0000000   1.0000000   6.0000000   6.0000000   6.0000000   6.0000000   6.0000000   1.0000000

  Atom        11          12          13          14          15          16          17          18          19          20
 IAtWgt=           1          12          12          12           1           1           1          12           1           1
 AtmWgt=   1.0078250  12.0000000  12.0000000  12.0000000   1.0078250   1.0078250   1.0078250  12.0000000   1.0078250   1.0078250
 NucSpn=           1           0           0           0           1           1           1           0           1           1
 AtZEff=   1.0000000   3.6000000   3.6000000   3.6000000   1.0000000   1.0000000   1.0000000   3.6000000   1.0000000   1.0000000
 NQMom=    0.0000000   0.0000000   0.0000000   0.0000000   0.0000000   0.0000000   0.0000000   0.0000000   0.0000000   0.0000000
 NMagM=    2.7928460   0.0000000   0.0000000   0.0000000   2.7928460   2.7928460   2.7928460   0.0000000   2.7928460   2.7928460
 AtZNuc=   1.0000000   6.0000000   6.0000000   6.0000000   1.0000000   1.0000000   1.0000000   6.0000000   1.0000000   1.0000000

  Atom        21          22          23          24          25          26          27          28          29
 IAtWgt=           1          12           1           1           1          12           1           1           1
 AtmWgt=   1.0078250  12.0000000   1.0078250   1.0078250   1.0078250  12.0000000   1.0078250   1.0078250   1.0078250
 NucSpn=           1           0           1           1           1           0           1           1           1
 AtZEff=   1.0000000   3.6000000   1.0000000   1.0000000   1.0000000   3.6000000   1.0000000   1.0000000   1.0000000
 NQMom=    0.0000000   0.0000000   0.0000000   0.0000000   0.0000000   0.0000000   0.0000000   0.0000000   0.0000000
 NMagM=    2.7928460   0.0000000   2.7928460   2.7928460   2.7928460   0.0000000   2.7928460   2.7928460   2.7928460
 AtZNuc=   1.0000000   6.0000000   1.0000000   1.0000000   1.0000000   6.0000000   1.0000000   1.0000000   1.0000000
 Leave Link  101 at Mon Mar  9 21:32:46 2026, MaxMem=  2147483648 cpu:               6.5 elap:               0.2
 (Enter /data/home/wyx/g16/l202.exe)
                          Input orientation:                          
 ---------------------------------------------------------------------
 Center     Atomic      Atomic             Coordinates (Angstroms)
 Number     Number       Type             X           Y           Z
 ---------------------------------------------------------------------
      1          8           0        1.385315    9.824086    0.688999
      2          8           0       -4.903026    9.748350    0.195167
      3          7           0       -2.086941   12.909281    0.186565
      4          1           0       -2.398270   13.865097    0.110718
      5          6           0       -2.677390   10.605925    0.232787
      6          6           0       -0.753946   12.711412    0.377154
      7          6           0       -3.060026   11.945199    0.146222
      8          6           0       -3.612330    9.586031    0.238915
      9          6           0       -1.210252   10.249846    0.281019
     10          1           0       -1.019127    9.539388    1.090194
     11          1           0       -0.921058    9.718984   -0.635681
     12          6           0       -0.279157   11.424960    0.475502
     13          6           0        1.089118   11.027953    0.714520
     14          6           0       -4.441807   12.461967   -0.018368
     15          1           0       -4.673380   13.237371    0.719951
     16          1           0       -4.599054   12.890980   -1.015720
     17          1           0       -5.179017   11.662472    0.106617
     18          6           0       -3.290093    8.112106    0.285984
     19          1           0       -3.746141    7.597925   -0.563978
     20          1           0       -2.210951    7.979707    0.250491
     21          1           0       -3.685391    7.665616    1.202663
     22          6           0        2.197360   12.010939    1.013905
     23          1           0        2.507742   12.538713    0.108233
     24          1           0        1.915643   12.758046    1.754886
     25          1           0        3.051073   11.444771    1.384352
     26          6           0        0.021475   13.989486    0.461045
     27          1           0        0.318862   14.211988    1.488612
     28          1           0        0.920946   13.963986   -0.149956
     29          1           0       -0.589348   14.823249    0.111203
 ---------------------------------------------------------------------
                    Distance matrix (angstroms):
                    1          2          3          4          5
     1  O    0.000000
     2  O    6.308157   0.000000
     3  N    4.671984   4.233425   0.000000
     4  H    5.565940   4.819600   1.008098   0.000000
     5  C    4.162328   2.385436   2.378279   3.273379   0.000000
     6  C    3.606984   5.101737   1.361012   2.026272   2.855442
     7  C    4.955279   2.867960   1.370392   2.031056   1.395550
     8  C    5.023516   1.301598   3.656985   4.449806   1.383595
     9  C    2.661708   3.727660   2.801803   3.809256   1.510500
    10  H    2.454252   3.991167   3.648691   4.644692   2.149996
    11  H    2.661801   4.067830   3.494762   4.464249   2.150721
    12  C    2.319235   4.926436   2.356857   3.252379   2.545830
    13  C    1.240032   6.149219   3.729005   4.536059   3.820570
    14  C    6.435382   2.760804   2.405718   2.482233   2.573157
    15  H    6.954082   3.535733   2.661166   2.437484   3.338534
    16  H    6.937189   3.381534   2.785056   2.657296   3.236207
    17  H    6.841731   1.935943   3.334944   3.547411   2.718519
    18  C    4.995272   2.299368   4.946751   5.824343   2.568534
    19  H    5.732153   2.557149   5.614869   6.445883   3.290156
    20  H    4.065360   3.221556   4.931547   5.890028   2.667377
    21  H    5.534881   2.614472   5.575259   6.425152   3.256093
    22  C    2.355272   7.497007   4.454969   5.037207   5.132971
    23  H    2.994383   7.919165   4.610268   5.082150   5.535050
    24  H    3.166304   7.614804   4.301533   4.747493   5.295692
    25  H    2.425877   8.219470   5.475278   6.097168   5.902970
    26  C    4.388916   6.504509   2.384870   2.448135   4.334104
    27  H    4.585890   6.990364   3.029896   3.066225   4.853691
    28  H    4.249501   7.197871   3.205158   3.330904   4.936708
    29  H    5.405994   6.661041   2.431407   2.047011   4.707496
                    6          7          8          9         10
     6  C    0.000000
     7  C    2.440986   0.000000
     8  C    4.237626   2.424728   0.000000
     9  C    2.505347   2.512779   2.492469   0.000000
    10  H    3.261975   3.293065   2.729754   1.093638   0.000000
    11  H    3.163603   3.184743   2.832938   1.098083   1.737963
    12  C    1.374792   2.848211   3.814141   1.511839   2.116786
    13  C    2.518875   4.287155   4.940542   2.465863   2.607998
    14  C    3.717389   1.484405   3.004202   3.927602   4.635204
    15  H    3.969396   2.145177   3.832689   4.594695   5.212074
    16  H    4.093556   2.147840   3.670207   4.487884   5.337033
    17  H    4.555734   2.138136   2.604537   4.216280   4.772797
    18  C    5.252996   3.842534   1.509473   2.982564   2.800210
    19  H    5.998892   4.458019   2.148280   3.765293   3.733921
    20  H    4.952568   4.056714   2.131731   2.481100   2.134982
    21  H    5.893631   4.452188   2.149917   3.695129   3.260772
    22  C    3.099406   5.328911   6.342971   3.905175   4.057113
    23  H    3.277309   5.599441   6.796373   4.369468   4.732758
    24  H    3.004501   5.292050   6.551208   4.270196   4.406182
    25  H    4.134851   6.255312   7.011981   4.561149   4.503725
    26  C    1.497261   3.711317   5.713519   3.941380   4.613248
    27  H    2.153599   4.284534   6.198024   4.415320   4.876694
    28  H    2.156861   4.473406   6.314135   4.303787   4.987877
    29  H    2.134872   3.793236   6.048403   4.618482   5.390947
                   11         12         13         14         15
    11  H    0.000000
    12  C    2.134741   0.000000
    13  C    2.752680   1.444618   0.000000
    14  C    4.505630   4.318210   5.760612   0.000000
    15  H    5.319464   4.759598   6.171542   1.095442   0.000000
    16  H    4.871719   4.799424   6.230562   1.097037   1.771459
    17  H    4.739025   4.919462   6.329429   1.094665   1.764130
    18  C    3.007299   4.480698   5.278569   4.510029   5.326364
    19  H    3.533429   5.267513   6.064600   4.943738   5.857610
    20  H    2.339703   3.956289   4.516368   5.013946   5.824687
    21  H    3.903507   5.124827   5.859994   5.006801   5.679224
    22  C    4.206984   2.601227   1.511321   6.734059   6.985528
    23  H    4.501216   3.023597   2.159276   6.951126   7.240913
    24  H    4.795579   2.868987   2.181450   6.606759   6.687007
    25  H    4.778776   3.452077   2.114635   7.690615   7.957513
    26  C    4.508699   2.582127   3.158289   4.741734   4.761761
    27  H    5.122217   3.025152   3.366094   5.291270   5.144239
    28  H    4.652843   2.877168   3.065272   5.570682   5.707993
    29  H    5.169273   3.431806   4.193508   4.520385   4.423222
                   16         17         18         19         20
    16  H    0.000000
    17  H    1.762166   0.000000
    18  C    5.123031   4.025581   0.000000
    19  H    5.380331   4.361579   1.093067   0.000000
    20  H    5.605972   4.732110   1.087813   1.779304   0.000000
    21  H    5.749820   4.405348   1.093579   1.768981   1.783047
    22  C    7.147384   7.440130   6.770738   7.568989   6.022195
    23  H    7.203743   7.736540   7.296666   7.998393   6.562837
    24  H    7.080622   7.365546   7.130365   8.003734   6.490339
    25  H    8.147166   8.331529   7.247306   8.049616   6.401656
    26  C    4.973615   5.708391   6.748387   7.489837   6.414476
    27  H    5.674738   6.215836   7.188841   8.030144   6.839169
    28  H    5.689578   6.524749   7.222700   7.904419   6.766146
    29  H    4.591444   5.572754   7.236298   7.913691   7.034419
                   21         22         23         24         25
    21  H    0.000000
    22  C    7.316024   0.000000
    23  H    7.956114   1.093217   0.000000
    24  H    7.590083   1.089305   1.763563   0.000000
    25  H    7.726251   1.089313   1.766465   1.775159   0.000000
    26  C    7.367644   2.992453   2.900128   2.603525   4.062824
    27  H    7.679245   2.932357   3.081638   2.175904   3.890159
    28  H    7.919431   2.607335   2.148484   2.464171   3.638404
    29  H    7.874545   4.060751   3.848516   3.638920   5.127152
                   26         27         28         29
    26  C    0.000000
    27  H    1.092631   0.000000
    28  H    1.087667   1.763212   0.000000
    29  H    1.091171   1.759472   1.757135   0.000000
 Symmetry turned off by external request.
 Stoichiometry    C11H15NO2
 Framework group  C1[X(C11H15NO2)]
 Deg. of freedom    81
 Full point group                 C1      NOp   1
 Rotational constants (GHZ):           1.1000840           0.4813378           0.3392043
 Leave Link  202 at Mon Mar  9 21:32:46 2026, MaxMem=  2147483648 cpu:               0.1 elap:               0.0
 (Enter /data/home/wyx/g16/l301.exe)
 Standard basis: TZVP (5D, 7F)
 Ernie: Thresh=  0.10000D-02 Tol=  0.10000D-05 Strict=F.
   356 basis functions,   610 primitive gaussians,   370 cartesian basis functions
    52 alpha electrons       52 beta electrons
       nuclear repulsion energy       898.0235476112 Hartrees.
 IExCor= 1009 DFT=T Ex+Corr=PBE1PBE ExCW=0 ScaHFX=  0.250000
 ScaDFX=  0.750000  0.750000  1.000000  1.000000 ScalE2=  1.000000  1.000000
 IRadAn=      5 IRanWt=     -1 IRanGd=            0 ICorTp=0 IEmpDi=141
 NAtoms=   29 NActive=   29 NUniq=   29 SFac= 1.00D+00 NAtFMM=   60 NAOKFM=F Big=F
 Integral buffers will be    131072 words long.
 Raffenetti 2 integral format.
 Two-electron integral symmetry is turned off.
 R6Disp:  Grimme-D3(BJ) Dispersion energy=       -0.0288389465 Hartrees.
 Nuclear repulsion after empirical dispersion term =      897.9947086646 Hartrees.
 ------------------------------------------------------------------------------
 Polarizable Continuum Model (PCM)
 =================================
 Model                : PCM.
 Atomic radii         : UFF (Universal Force Field).
 Polarization charges : Total charges.
 Charge compensation  : None.
 Solution method      : On-the-fly selection.
 Cavity type          : Scaled VdW (van der Waals Surface) (Alpha=1.100).
 Cavity algorithm     : GePol (No added spheres)
                        Default sphere list used, NSphG=   29.
                        Lebedev-Laikov grids with approx.  5.0 points / Ang**2.
                        Smoothing algorithm: York/Karplus (Gamma=1.0000).
                        Polarization charges: spherical gaussians, with
                                              point-specific exponents (IZeta= 3).
                        Self-potential: point-specific (ISelfS= 7).
                        Self-field    : sphere-specific E.n sum rule (ISelfD= 2).
 Solvent              : Water, Eps=  78.355300 Eps(inf)=   1.777849
 ------------------------------------------------------------------------------
 GePol: Number of generator spheres                  =      29
 GePol: Total number of spheres                      =      29
 GePol: Number of exposed spheres                    =      29 (100.00%)
 GePol: Number of points                             =    2105
 GePol: Average weight of points                     =       0.13
 GePol: Minimum weight of points                     =   0.12D-08
 GePol: Maximum weight of points                     =    0.20577
 GePol: Number of points with low weight             =     134
 GePol: Fraction of low-weight points (<1% of avg)   =       6.37%
 GePol: Cavity surface area                          =    268.171 Ang**2
 GePol: Cavity volume                                =    285.809 Ang**3
 Leave Link  301 at Mon Mar  9 21:32:46 2026, MaxMem=  2147483648 cpu:               1.2 elap:               0.0
 (Enter /data/home/wyx/g16/l302.exe)
 NPDir=0 NMtPBC=     1 NCelOv=     1 NCel=       1 NClECP=     1 NCelD=      1
         NCelK=      1 NCelE2=     1 NClLst=     1 CellRange=     0.0.
 One-electron integrals computed using PRISM.
 NBasis=   356 RedAO= T EigKep=  3.90D-05  NBF=   356
 NBsUse=   356 1.00D-06 EigRej= -1.00D+00 NBFU=   356
 Precomputing XC quadrature grid using
 IXCGrd= 4 IRadAn=           5 IRanWt=          -1 IRanGd=           0 AccXCQ= 0.00D+00.
 Generated NRdTot=       0 NPtTot=           0 NUsed=           0 NTot=          32
 NSgBfM=   366   366   366   366   366 MxSgAt=    29 MxSgA2=    29.
 Leave Link  302 at Mon Mar  9 21:32:46 2026, MaxMem=  2147483648 cpu:               6.2 elap:               0.2
 (Enter /data/home/wyx/g16/l303.exe)
 DipDrv:  MaxL=1.
 Leave Link  303 at Mon Mar  9 21:32:47 2026, MaxMem=  2147483648 cpu:               1.1 elap:               0.0
 (Enter /data/home/wyx/g16/l401.exe)
 Initial guess from the checkpoint file:  "DDL-S2min-S2-cLR-1.chk"
 B after Tr=     0.000000    0.000000    0.000000
         Rot=    1.000000    0.000000    0.000000    0.000000 Ang=   0.00 deg.
 Guess basis will be translated and rotated to current coordinates.
 JPrj=2 DoOrth=T DoCkMO=T.
 Leave Link  401 at Mon Mar  9 21:32:47 2026, MaxMem=  2147483648 cpu:               4.4 elap:               0.2
 (Enter /data/home/wyx/g16/l502.exe)
 Two-electron integral symmetry not used.
 Closed shell SCF:
 Using DIIS extrapolation, IDIIS=  1040.
 NGot=  2147483648 LenX=  2147195087 LenY=  2147057746
 Requested convergence on RMS density matrix=1.00D-08 within 128 cycles.
 Requested convergence on MAX density matrix=1.00D-06.
 Requested convergence on             energy=1.00D-06.
 No special actions if energy rises.
 Fock matrices will be formed incrementally for  20 cycles.

 Cycle   1  Pass 1  IDiag  1:
 FoFJK:  IHMeth= 1 ICntrl=       0 DoSepK=F KAlg= 0 I1Cent=           0 FoldK=F
 IRaf= 860000000 NMat=       1 IRICut=       1 DoRegI=T DoRafI=F ISym2E= 0 IDoP0=0 IntGTp=1.
 FoFCou: FMM=F IPFlag=           0 FMFlag=      100000 FMFlg1=           0
         NFxFlg=           0 DoJE=F BraDBF=F KetDBF=F FulRan=T
         wScrn=  0.000000 ICntrl=         0 IOpCl=  0 I1Cent=           0 NGrid=           0
         NMat0=    1 NMatS0=      1 NMatT0=    0 NMatD0=    1 NMtDS0=    0 NMtDT0=    0
 Symmetry not used in FoFCou.
 Inv3:  Mode=1 IEnd=    13293075.
 Iteration    1 A*A^-1 deviation from unit magnitude is 3.44D-15 for   1388.
 Iteration    1 A*A^-1 deviation from orthogonality  is 2.28D-15 for   1720    748.
 Iteration    1 A^-1*A deviation from unit magnitude is 3.22D-15 for    181.
 Iteration    1 A^-1*A deviation from orthogonality  is 3.03D-15 for   2017   2005.
 NEqPCM:  Using non-equilibrium solvation (IEInf=1, Eps=  78.3553, EpsInf=   1.7778)
 Inv3:  Mode=1 IEnd=    13293075.
 Iteration    1 A*A^-1 deviation from unit magnitude is 3.33D-15 for    353.
 Iteration    1 A*A^-1 deviation from orthogonality  is 3.55D-15 for   1937    354.
 Iteration    1 A^-1*A deviation from unit magnitude is 3.11D-15 for    877.
 Iteration    1 A^-1*A deviation from orthogonality  is 1.83D-15 for   2012   2005.
 E= -632.892512806822    
 DIIS: error= 1.58D-03 at cycle   1 NSaved=   1.
 NSaved= 1 IEnMin= 1 EnMin= -632.892512806822     IErMin= 1 ErrMin= 1.58D-03
 ErrMax= 1.58D-03  0.00D+00 EMaxC= 1.00D-01 BMatC= 2.04D-04 BMatP= 2.04D-04
 IDIUse=3 WtCom= 9.84D-01 WtEn= 1.58D-02
 Coeff-Com:  0.100D+01
 Coeff-En:   0.100D+01
 Coeff:      0.100D+01
 Gap=     0.141 Goal=   None    Shift=    0.000
 GapD=    0.141 DampG=1.000 DampE=1.000 DampFc=1.0000 IDamp=-1.
 RMSDP=6.10D-04 MaxDP=5.22D-02              OVMax= 3.34D-02

 Cycle   2  Pass 1  IDiag  1:
 RMSU=  5.98D-04    CP:  1.01D+00
 E= -632.892558851166     Delta-E=       -0.000046044344 Rises=F Damp=F
 DIIS: error= 1.57D-03 at cycle   2 NSaved=   2.
 NSaved= 2 IEnMin= 2 EnMin= -632.892558851166     IErMin= 2 ErrMin= 1.57D-03
 ErrMax= 1.57D-03  0.00D+00 EMaxC= 1.00D-01 BMatC= 5.76D-04 BMatP= 2.04D-04
 IDIUse=3 WtCom= 2.02D-01 WtEn= 7.98D-01
 Coeff-Com:  0.666D+00 0.334D+00
 Coeff-En:   0.473D+00 0.527D+00
 Coeff:      0.512D+00 0.488D+00
 Gap=     0.140 Goal=   None    Shift=    0.000
 RMSDP=4.09D-04 MaxDP=3.28D-02 DE=-4.60D-05 OVMax= 1.52D-02

 Cycle   3  Pass 1  IDiag  1:
 RMSU=  3.26D-04    CP:  9.96D-01  7.01D-01
 E= -632.892933585252     Delta-E=       -0.000374734087 Rises=F Damp=F
 DIIS: error= 9.86D-04 at cycle   3 NSaved=   3.
 NSaved= 3 IEnMin= 3 EnMin= -632.892933585252     IErMin= 3 ErrMin= 9.86D-04
 ErrMax= 9.86D-04  0.00D+00 EMaxC= 1.00D-01 BMatC= 2.44D-04 BMatP= 2.04D-04
 IDIUse=3 WtCom= 2.42D-01 WtEn= 7.58D-01
 Coeff-Com:  0.178D+00 0.348D+00 0.473D+00
 Coeff-En:   0.000D+00 0.296D+00 0.704D+00
 Coeff:      0.431D-01 0.309D+00 0.648D+00
 Gap=     0.140 Goal=   None    Shift=    0.000
 RMSDP=1.35D-04 MaxDP=1.19D-02 DE=-3.75D-04 OVMax= 7.41D-03

 Cycle   4  Pass 1  IDiag  1:
 RMSU=  6.73D-05    CP:  1.00D+00  7.61D-01  7.20D-01
 E= -632.893083388311     Delta-E=       -0.000149803059 Rises=F Damp=F
 DIIS: error= 4.55D-04 at cycle   4 NSaved=   4.
 NSaved= 4 IEnMin= 4 EnMin= -632.893083388311     IErMin= 4 ErrMin= 4.55D-04
 ErrMax= 4.55D-04  0.00D+00 EMaxC= 1.00D-01 BMatC= 5.30D-05 BMatP= 2.04D-04
 IDIUse=3 WtCom= 9.95D-01 WtEn= 4.55D-03
 Coeff-Com:  0.421D-01 0.129D+00 0.373D+00 0.455D+00
 Coeff-En:   0.000D+00 0.000D+00 0.220D+00 0.780D+00
 Coeff:      0.419D-01 0.129D+00 0.372D+00 0.457D+00
 Gap=     0.140 Goal=   None    Shift=    0.000
 RMSDP=6.11D-05 MaxDP=5.03D-03 DE=-1.50D-04 OVMax= 1.98D-03

 Cycle   5  Pass 1  IDiag  1:
 RMSU=  1.74D-05    CP:  9.99D-01  7.42D-01  8.32D-01  4.95D-01
 E= -632.893122573240     Delta-E=       -0.000039184930 Rises=F Damp=F
 DIIS: error= 4.64D-05 at cycle   5 NSaved=   5.
 NSaved= 5 IEnMin= 5 EnMin= -632.893122573240     IErMin= 5 ErrMin= 4.64D-05
 ErrMax= 4.64D-05  0.00D+00 EMaxC= 1.00D-01 BMatC= 1.03D-06 BMatP= 5.30D-05
 IDIUse=1 WtCom= 1.00D+00 WtEn= 0.00D+00
 Coeff-Com: -0.547D-02 0.359D-02 0.112D+00 0.247D+00 0.643D+00
 Coeff:     -0.547D-02 0.359D-02 0.112D+00 0.247D+00 0.643D+00
 Gap=     0.140 Goal=   None    Shift=    0.000
 RMSDP=1.27D-05 MaxDP=6.03D-04 DE=-3.92D-05 OVMax= 2.06D-04

 Cycle   6  Pass 1  IDiag  1:
 RMSU=  5.65D-06    CP:  9.99D-01  7.38D-01  8.56D-01  6.08D-01  9.13D-01
 E= -632.893123520233     Delta-E=       -0.000000946992 Rises=F Damp=F
 DIIS: error= 1.76D-05 at cycle   6 NSaved=   6.
 NSaved= 6 IEnMin= 6 EnMin= -632.893123520233     IErMin= 6 ErrMin= 1.76D-05
 ErrMax= 1.76D-05  0.00D+00 EMaxC= 1.00D-01 BMatC= 9.51D-08 BMatP= 1.03D-06
 IDIUse=1 WtCom= 1.00D+00 WtEn= 0.00D+00
 Coeff-Com: -0.348D-02-0.833D-02 0.252D-01 0.829D-01 0.302D+00 0.602D+00
 Coeff:     -0.348D-02-0.833D-02 0.252D-01 0.829D-01 0.302D+00 0.602D+00
 Gap=     0.140 Goal=   None    Shift=    0.000
 RMSDP=2.13D-06 MaxDP=1.46D-04 DE=-9.47D-07 OVMax= 2.54D-04

 Cycle   7  Pass 1  IDiag  1:
 RMSU=  1.48D-06    CP:  9.99D-01  7.37D-01  8.58D-01  6.12D-01  9.52D-01
                    CP:  8.64D-01
 E= -632.893123609411     Delta-E=       -0.000000089178 Rises=F Damp=F
 DIIS: error= 7.26D-06 at cycle   7 NSaved=   7.
 NSaved= 7 IEnMin= 7 EnMin= -632.893123609411     IErMin= 7 ErrMin= 7.26D-06
 ErrMax= 7.26D-06  0.00D+00 EMaxC= 1.00D-01 BMatC= 2.61D-08 BMatP= 9.51D-08
 IDIUse=1 WtCom= 1.00D+00 WtEn= 0.00D+00
 Coeff-Com: -0.113D-02-0.618D-02-0.279D-02 0.707D-02 0.453D-01 0.348D+00
 Coeff-Com:  0.609D+00
 Coeff:     -0.113D-02-0.618D-02-0.279D-02 0.707D-02 0.453D-01 0.348D+00
 Coeff:      0.609D+00
 Gap=     0.140 Goal=   None    Shift=    0.000
 RMSDP=1.46D-06 MaxDP=8.47D-05 DE=-8.92D-08 OVMax= 4.69D-05

 Cycle   8  Pass 1  IDiag  1:
 RMSU=  6.50D-07    CP:  9.99D-01  7.36D-01  8.61D-01  6.22D-01  9.68D-01
                    CP:  9.37D-01  8.36D-01
 E= -632.893123632356     Delta-E=       -0.000000022945 Rises=F Damp=F
 DIIS: error= 2.03D-06 at cycle   8 NSaved=   8.
 NSaved= 8 IEnMin= 8 EnMin= -632.893123632356     IErMin= 8 ErrMin= 2.03D-06
 ErrMax= 2.03D-06  0.00D+00 EMaxC= 1.00D-01 BMatC= 3.29D-09 BMatP= 2.61D-08
 IDIUse=1 WtCom= 1.00D+00 WtEn= 0.00D+00
 Coeff-Com: -0.127D-03-0.289D-02-0.392D-02-0.542D-02-0.166D-01 0.142D+00
 Coeff-Com:  0.315D+00 0.572D+00
 Coeff:     -0.127D-03-0.289D-02-0.392D-02-0.542D-02-0.166D-01 0.142D+00
 Coeff:      0.315D+00 0.572D+00
 Gap=     0.140 Goal=   None    Shift=    0.000
 RMSDP=5.73D-07 MaxDP=3.44D-05 DE=-2.29D-08 OVMax= 1.69D-05

 Cycle   9  Pass 1  IDiag  1:
 RMSU=  2.62D-07    CP:  9.99D-01  7.36D-01  8.62D-01  6.22D-01  9.71D-01
                    CP:  9.53D-01  8.84D-01  7.63D-01
 E= -632.893123634993     Delta-E=       -0.000000002637 Rises=F Damp=F
 DIIS: error= 1.33D-06 at cycle   9 NSaved=   9.
 NSaved= 9 IEnMin= 9 EnMin= -632.893123634993     IErMin= 9 ErrMin= 1.33D-06
 ErrMax= 1.33D-06  0.00D+00 EMaxC= 1.00D-01 BMatC= 6.88D-10 BMatP= 3.29D-09
 IDIUse=1 WtCom= 1.00D+00 WtEn= 0.00D+00
 Coeff-Com:  0.109D-03-0.735D-03-0.118D-02-0.364D-02-0.204D-01 0.229D-01
 Coeff-Com:  0.532D-01 0.326D+00 0.624D+00
 Coeff:      0.109D-03-0.735D-03-0.118D-02-0.364D-02-0.204D-01 0.229D-01
 Coeff:      0.532D-01 0.326D+00 0.624D+00
 Gap=     0.140 Goal=   None    Shift=    0.000
 RMSDP=3.03D-07 MaxDP=1.67D-05 DE=-2.64D-09 OVMax= 8.91D-06

 Cycle  10  Pass 1  IDiag  1:
 RMSU=  7.31D-08    CP:  9.99D-01  7.36D-01  8.63D-01  6.23D-01  9.71D-01
                    CP:  9.72D-01  9.00D-01  9.02D-01  8.29D-01
 E= -632.893123635579     Delta-E=       -0.000000000586 Rises=F Damp=F
 DIIS: error= 4.18D-07 at cycle  10 NSaved=  10.
 NSaved=10 IEnMin=10 EnMin= -632.893123635579     IErMin=10 ErrMin= 4.18D-07
 ErrMax= 4.18D-07  0.00D+00 EMaxC= 1.00D-01 BMatC= 6.76D-11 BMatP= 6.88D-10
 IDIUse=1 WtCom= 1.00D+00 WtEn= 0.00D+00
 Coeff-Com:  0.756D-04-0.124D-03-0.188D-03-0.133D-02-0.970D-02-0.374D-02
 Coeff-Com: -0.142D-01 0.970D-01 0.338D+00 0.595D+00
 Coeff:      0.756D-04-0.124D-03-0.188D-03-0.133D-02-0.970D-02-0.374D-02
 Coeff:     -0.142D-01 0.970D-01 0.338D+00 0.595D+00
 Gap=     0.140 Goal=   None    Shift=    0.000
 RMSDP=6.10D-08 MaxDP=3.26D-06 DE=-5.86D-10 OVMax= 1.91D-06

 Cycle  11  Pass 1  IDiag  1:
 RMSU=  2.89D-08    CP:  9.99D-01  7.36D-01  8.63D-01  6.24D-01  9.71D-01
                    CP:  9.76D-01  9.09D-01  9.00D-01  8.78D-01  7.88D-01
 E= -632.893123635640     Delta-E=       -0.000000000061 Rises=F Damp=F
 DIIS: error= 9.01D-08 at cycle  11 NSaved=  11.
 NSaved=11 IEnMin=11 EnMin= -632.893123635640     IErMin=11 ErrMin= 9.01D-08
 ErrMax= 9.01D-08  0.00D+00 EMaxC= 1.00D-01 BMatC= 4.57D-12 BMatP= 6.76D-11
 IDIUse=1 WtCom= 1.00D+00 WtEn= 0.00D+00
 Coeff-Com:  0.248D-04 0.794D-05 0.617D-04-0.133D-03-0.223D-02-0.332D-02
 Coeff-Com: -0.130D-01 0.704D-02 0.891D-01 0.284D+00 0.638D+00
 Coeff:      0.248D-04 0.794D-05 0.617D-04-0.133D-03-0.223D-02-0.332D-02
 Coeff:     -0.130D-01 0.704D-02 0.891D-01 0.284D+00 0.638D+00
 Gap=     0.140 Goal=   None    Shift=    0.000
 RMSDP=2.36D-08 MaxDP=1.60D-06 DE=-6.12D-11 OVMax= 7.92D-07

 Cycle  12  Pass 1  IDiag  1:
 RMSU=  9.32D-09    CP:  9.99D-01  7.36D-01  8.63D-01  6.24D-01  9.71D-01
                    CP:  9.76D-01  9.10D-01  9.15D-01  8.87D-01  8.34D-01
                    CP:  7.82D-01
 E= -632.893123635640     Delta-E=       -0.000000000000 Rises=F Damp=F
 DIIS: error= 6.09D-08 at cycle  12 NSaved=  12.
 NSaved=12 IEnMin=12 EnMin= -632.893123635640     IErMin=12 ErrMin= 6.09D-08
 ErrMax= 6.09D-08  0.00D+00 EMaxC= 1.00D-01 BMatC= 1.05D-12 BMatP= 4.57D-12
 IDIUse=1 WtCom= 1.00D+00 WtEn= 0.00D+00
 Coeff-Com:  0.944D-05 0.104D-04 0.452D-04 0.252D-04-0.622D-03-0.135D-02
 Coeff-Com: -0.643D-02-0.272D-02 0.289D-01 0.121D+00 0.390D+00 0.471D+00
 Coeff:      0.944D-05 0.104D-04 0.452D-04 0.252D-04-0.622D-03-0.135D-02
 Coeff:     -0.643D-02-0.272D-02 0.289D-01 0.121D+00 0.390D+00 0.471D+00
 Gap=     0.140 Goal=   None    Shift=    0.000
 RMSDP=7.66D-09 MaxDP=3.33D-07 DE=-1.14D-13 OVMax= 4.62D-07

 Error on total polarization charges =  0.00777
 SCF Done:  E(RPBE1PBE) =  -632.893123636     A.U. after   12 cycles
            NFock= 12  Conv=0.77D-08     -V/T= 2.0047
 KE= 6.299075094029D+02 PE=-3.271331059242D+03 EE= 1.110535717539D+03
 Leave Link  502 at Mon Mar  9 21:33:12 2026, MaxMem=  2147483648 cpu:             772.2 elap:              24.9
 (Enter /data/home/wyx/g16/l601.exe)
 Copying SCF densities to generalized density rwf, IOpCl= 0 IROHF=0.

 **********************************************************************

            Population analysis using the SCF density.

 **********************************************************************

 Alpha  occ. eigenvalues --  -19.19028 -19.16146 -14.45297 -10.31365 -10.31174
 Alpha  occ. eigenvalues --  -10.30930 -10.29727 -10.24425 -10.24166 -10.23659
 Alpha  occ. eigenvalues --  -10.23611 -10.22545 -10.21843 -10.20790  -1.06607
 Alpha  occ. eigenvalues --   -1.03516  -1.01405  -0.86155  -0.85255  -0.78250
 Alpha  occ. eigenvalues --   -0.76979  -0.75762  -0.72594  -0.69001  -0.66626
 Alpha  occ. eigenvalues --   -0.64157  -0.56667  -0.53325  -0.51754  -0.49869
 Alpha  occ. eigenvalues --   -0.49567  -0.48465  -0.46721  -0.46281  -0.45475
 Alpha  occ. eigenvalues --   -0.44616  -0.43875  -0.43733  -0.42952  -0.42391
 Alpha  occ. eigenvalues --   -0.40887  -0.39647  -0.39364  -0.39049  -0.38160
 Alpha  occ. eigenvalues --   -0.37510  -0.36354  -0.34494  -0.28333  -0.27474
 Alpha  occ. eigenvalues --   -0.24111  -0.22323
 Alpha virt. eigenvalues --   -0.08306  -0.02765   0.03217   0.05182   0.05384
 Alpha virt. eigenvalues --    0.05803   0.07008   0.08164   0.09525   0.10097
 Alpha virt. eigenvalues --    0.11060   0.11418   0.12223   0.13335   0.13671
 Alpha virt. eigenvalues --    0.13935   0.14716   0.15160   0.15330   0.16262
 Alpha virt. eigenvalues --    0.16452   0.16686   0.18476   0.18955   0.20493
 Alpha virt. eigenvalues --    0.20846   0.21156   0.21862   0.22344   0.22816
 Alpha virt. eigenvalues --    0.23695   0.24453   0.25025   0.25583   0.26354
 Alpha virt. eigenvalues --    0.26761   0.27272   0.29134   0.29843   0.30216
 Alpha virt. eigenvalues --    0.31245   0.31962   0.32776   0.33923   0.34168
 Alpha virt. eigenvalues --    0.35428   0.36928   0.37505   0.38457   0.38849
 Alpha virt. eigenvalues --    0.39689   0.41106   0.41221   0.42103   0.42499
 Alpha virt. eigenvalues --    0.43749   0.43919   0.44156   0.44604   0.44681
 Alpha virt. eigenvalues --    0.45209   0.45627   0.46674   0.47250   0.47742
 Alpha virt. eigenvalues --    0.48291   0.48657   0.49264   0.49497   0.50033
 Alpha virt. eigenvalues --    0.50253   0.51052   0.51475   0.53594   0.53762
 Alpha virt. eigenvalues --    0.53953   0.55071   0.56060   0.57941   0.58918
 Alpha virt. eigenvalues --    0.59089   0.60791   0.61121   0.63247   0.63678
 Alpha virt. eigenvalues --    0.64108   0.65298   0.66256   0.66694   0.67187
 Alpha virt. eigenvalues --    0.68731   0.70817   0.71940   0.72483   0.73739
 Alpha virt. eigenvalues --    0.75520   0.76877   0.79898   0.83330   0.85244
 Alpha virt. eigenvalues --    0.88199   0.91965   0.96241   0.98169   1.14511
 Alpha virt. eigenvalues --    1.16412   1.19136   1.20969   1.24156   1.25847
 Alpha virt. eigenvalues --    1.26204   1.27441   1.28524   1.30172   1.31302
 Alpha virt. eigenvalues --    1.32672   1.33146   1.33738   1.34212   1.34374
 Alpha virt. eigenvalues --    1.34801   1.35505   1.35889   1.36411   1.36947
 Alpha virt. eigenvalues --    1.37353   1.37839   1.39756   1.39980   1.40983
 Alpha virt. eigenvalues --    1.43496   1.44348   1.44750   1.45529   1.46281
 Alpha virt. eigenvalues --    1.46821   1.47526   1.49446   1.51911   1.53379
 Alpha virt. eigenvalues --    1.53660   1.54307   1.54554   1.55233   1.56189
 Alpha virt. eigenvalues --    1.56529   1.57443   1.57883   1.58403   1.59460
 Alpha virt. eigenvalues --    1.59645   1.60159   1.61361   1.61382   1.61873
 Alpha virt. eigenvalues --    1.63181   1.63641   1.64073   1.65338   1.67305
 Alpha virt. eigenvalues --    1.67882   1.68136   1.70758   1.71253   1.74867
 Alpha virt. eigenvalues --    1.76866   1.77498   1.78944   1.80048   1.80969
 Alpha virt. eigenvalues --    1.81719   1.82555   1.84435   1.84871   1.85994
 Alpha virt. eigenvalues --    1.86454   1.87136   1.91561   1.92829   1.95720
 Alpha virt. eigenvalues --    1.97713   1.99440   2.01042   2.02662   2.04678
 Alpha virt. eigenvalues --    2.04807   2.07722   2.09750   2.12985   2.14171
 Alpha virt. eigenvalues --    2.14927   2.17543   2.18697   2.19047   2.20909
 Alpha virt. eigenvalues --    2.22110   2.23290   2.24283   2.25886   2.27048
 Alpha virt. eigenvalues --    2.27846   2.29120   2.30148   2.31493   2.32546
 Alpha virt. eigenvalues --    2.33700   2.36313   2.37011   2.37480   2.38998
 Alpha virt. eigenvalues --    2.40387   2.41311   2.43129   2.44558   2.45284
 Alpha virt. eigenvalues --    2.47142   2.49252   2.49842   2.50893   2.51550
 Alpha virt. eigenvalues --    2.52233   2.52734   2.55609   2.56724   2.57523
 Alpha virt. eigenvalues --    2.58049   2.59421   2.60429   2.61664   2.62415
 Alpha virt. eigenvalues --    2.63917   2.65716   2.68643   2.69054   2.69577
 Alpha virt. eigenvalues --    2.70544   2.71162   2.71700   2.73187   2.73958
 Alpha virt. eigenvalues --    2.75146   2.76570   2.77525   2.78057   2.78359
 Alpha virt. eigenvalues --    2.80537   2.82307   2.83995   2.86950   2.88793
 Alpha virt. eigenvalues --    2.92889   2.93429   2.95537   2.99464   3.03187
 Alpha virt. eigenvalues --    3.06240   3.07384   3.10100   3.12998   3.13801
 Alpha virt. eigenvalues --    3.15508   3.16234   3.17944   3.19093   3.20909
 Alpha virt. eigenvalues --    3.22953   3.25130   3.25919   3.30034   3.31500
 Alpha virt. eigenvalues --    3.33260   3.33600   3.34540   3.35206   3.35634
 Alpha virt. eigenvalues --    3.36528   3.37914   3.39453   3.40750   3.44341
 Alpha virt. eigenvalues --    3.45711   3.46079   3.48651   3.51716   3.52997
 Alpha virt. eigenvalues --    3.55716   3.85549   3.94348   4.24418   4.29113
 Alpha virt. eigenvalues --   21.67695  21.78580  22.08472  22.12794  22.14839
 Alpha virt. eigenvalues --   22.16377  22.18634  22.21729  22.22698  22.27950
 Alpha virt. eigenvalues --   22.33821  31.96611  43.71064  43.76345
          Condensed to atoms (all electrons):
               1          2          3          4          5          6
     1  O    7.951096   0.000000  -0.000213   0.000018   0.015703   0.016835
     2  O    0.000000   8.096350   0.001090   0.000048  -0.174333   0.001479
     3  N   -0.000213   0.001090   6.231022   0.359276  -0.080568   0.378098
     4  H    0.000018   0.000048   0.359276   0.396909   0.012843  -0.038966
     5  C    0.015703  -0.174333  -0.080568   0.012843   7.160794  -0.053404
     6  C    0.016835   0.001479   0.378098  -0.038966  -0.053404   5.732071
     7  C   -0.000235   0.011727   0.328011  -0.039031   0.314391  -0.147096
     8  C   -0.000093   0.568842   0.009270  -0.001129  -0.565939   0.062451
     9  C    0.003856   0.022560   0.021993   0.000825  -0.631632  -0.123856
    10  H    0.010610  -0.000072  -0.000782   0.000016  -0.106510   0.025107
    11  H    0.005537  -0.000034   0.001822   0.000009  -0.020219  -0.010917
    12  C   -0.245308  -0.003381  -0.092094   0.021541   0.215876  -0.263153
    13  C    0.707066   0.000013   0.001428   0.000592   0.060943   0.116277
    14  C   -0.000013  -0.090821  -0.058059   0.000654   0.044848  -0.003141
    15  H    0.000000   0.003659   0.002406   0.000589  -0.006276   0.003935
    16  H    0.000000   0.003068  -0.000570   0.000794  -0.018305   0.000407
    17  H    0.000000   0.053018   0.003613   0.000648   0.007382   0.000107
    18  C   -0.000347  -0.098944  -0.000463   0.000031  -0.181961  -0.002332
    19  H    0.000000   0.000329   0.000010  -0.000001  -0.003402   0.000046
    20  H    0.000810   0.008623   0.000063  -0.000002   0.088903  -0.001415
    21  H    0.000010  -0.000001   0.000011  -0.000001  -0.006382   0.000095
    22  C   -0.117929   0.000000   0.000617   0.000135   0.000592  -0.017830
    23  H    0.002178   0.000000   0.000071  -0.000019  -0.000122   0.006376
    24  H    0.003913  -0.000000  -0.000014  -0.000058  -0.000365  -0.029412
    25  H    0.010281   0.000000   0.000022  -0.000002  -0.000068  -0.000394
    26  C    0.000973   0.000009  -0.037811  -0.014583   0.001962   0.280843
    27  H   -0.000019  -0.000000  -0.003040   0.000662   0.000259  -0.031652
    28  H   -0.000110  -0.000000   0.000210   0.000810   0.000601  -0.025878
    29  H    0.000018   0.000000   0.005043   0.003785  -0.000609  -0.048019
               7          8          9         10         11         12
     1  O   -0.000235  -0.000093   0.003856   0.010610   0.005537  -0.245308
     2  O    0.011727   0.568842   0.022560  -0.000072  -0.000034  -0.003381
     3  N    0.328011   0.009270   0.021993  -0.000782   0.001822  -0.092094
     4  H   -0.039031  -0.001129   0.000825   0.000016   0.000009   0.021541
     5  C    0.314391  -0.565939  -0.631632  -0.106510  -0.020219   0.215876
     6  C   -0.147096   0.062451  -0.123856   0.025107  -0.010917  -0.263153
     7  C    5.563852  -0.220334  -0.283893   0.010564   0.003139   0.047166
     8  C   -0.220334   5.863186   0.217001   0.009272  -0.012197  -0.106683
     9  C   -0.283893   0.217001   6.493481   0.498617   0.402031  -0.132061
    10  H    0.010564   0.009272   0.498617   0.520178  -0.039458  -0.074006
    11  H    0.003139  -0.012197   0.402031  -0.039458   0.551148  -0.025867
    12  C    0.047166  -0.106683  -0.132061  -0.074006  -0.025867   7.574754
    13  C    0.028463  -0.012260  -0.221168  -0.005148  -0.008146  -0.528062
    14  C    0.261091  -0.119453   0.023590  -0.000207  -0.000477   0.008183
    15  H   -0.032463   0.009514   0.000262   0.000052  -0.000038  -0.001723
    16  H   -0.013964   0.007403  -0.001792  -0.000011   0.000140   0.000075
    17  H   -0.052092  -0.026229   0.002619  -0.000009  -0.000014  -0.000512
    18  C    0.029657   0.337327  -0.008685  -0.012100  -0.002958   0.009997
    19  H   -0.000523  -0.019513  -0.002119   0.000321   0.000720  -0.000249
    20  H    0.004832  -0.146244  -0.015525  -0.001345  -0.003758   0.006184
    21  H   -0.001416  -0.011617  -0.001265   0.000526   0.000094  -0.000540
    22  C    0.000553  -0.000022   0.019844   0.000502   0.000966  -0.313173
    23  H   -0.000004   0.000000  -0.001999  -0.000140   0.000210   0.003835
    24  H    0.000028  -0.000003   0.001952   0.000009  -0.000142   0.052715
    25  H    0.000010   0.000000  -0.000344  -0.000021  -0.000077   0.025482
    26  C    0.006812   0.001041   0.025333  -0.000158  -0.000351  -0.109837
    27  H   -0.000948  -0.000010   0.000088   0.000043  -0.000014  -0.010957
    28  H   -0.001219   0.000009  -0.001565   0.000023  -0.000042   0.002918
    29  H    0.003398   0.000009  -0.000542  -0.000010   0.000049   0.022581
              13         14         15         16         17         18
     1  O    0.707066  -0.000013   0.000000   0.000000   0.000000  -0.000347
     2  O    0.000013  -0.090821   0.003659   0.003068   0.053018  -0.098944
     3  N    0.001428  -0.058059   0.002406  -0.000570   0.003613  -0.000463
     4  H    0.000592   0.000654   0.000589   0.000794   0.000648   0.000031
     5  C    0.060943   0.044848  -0.006276  -0.018305   0.007382  -0.181961
     6  C    0.116277  -0.003141   0.003935   0.000407   0.000107  -0.002332
     7  C    0.028463   0.261091  -0.032463  -0.013964  -0.052092   0.029657
     8  C   -0.012260  -0.119453   0.009514   0.007403  -0.026229   0.337327
     9  C   -0.221168   0.023590   0.000262  -0.001792   0.002619  -0.008685
    10  H   -0.005148  -0.000207   0.000052  -0.000011  -0.000009  -0.012100
    11  H   -0.008146  -0.000477  -0.000038   0.000140  -0.000014  -0.002958
    12  C   -0.528062   0.008183  -0.001723   0.000075  -0.000512   0.009997
    13  C    5.612260   0.000101  -0.000034  -0.000019   0.000001   0.000881
    14  C    0.000101   5.309003   0.367034   0.378300   0.391168  -0.005880
    15  H   -0.000034   0.367034   0.546927  -0.027426  -0.011079   0.000192
    16  H   -0.000019   0.378300  -0.027426   0.519679  -0.008650   0.000161
    17  H    0.000001   0.391168  -0.011079  -0.008650   0.425788   0.002878
    18  C    0.000881  -0.005880   0.000192   0.000161   0.002878   5.174489
    19  H   -0.000027  -0.000095  -0.000010   0.000018   0.000019   0.403587
    20  H    0.002230   0.000670  -0.000015  -0.000021  -0.000302   0.392761
    21  H   -0.000025   0.000053   0.000008  -0.000011  -0.000033   0.393620
    22  C    0.371002   0.000018  -0.000002   0.000000   0.000000   0.000012
    23  H   -0.031214   0.000001  -0.000000   0.000000  -0.000000  -0.000000
    24  H   -0.062339   0.000001   0.000001  -0.000000   0.000000   0.000001
    25  H   -0.037356   0.000000  -0.000000   0.000000  -0.000000   0.000000
    26  C   -0.063702  -0.001311   0.000264  -0.000176   0.000016  -0.000014
    27  H    0.004259  -0.000048  -0.000024   0.000011  -0.000000  -0.000000
    28  H   -0.009527   0.000002   0.000009  -0.000004  -0.000000  -0.000000
    29  H    0.000329   0.000517   0.000024  -0.000016   0.000003   0.000001
              19         20         21         22         23         24
     1  O    0.000000   0.000810   0.000010  -0.117929   0.002178   0.003913
     2  O    0.000329   0.008623  -0.000001   0.000000   0.000000  -0.000000
     3  N    0.000010   0.000063   0.000011   0.000617   0.000071  -0.000014
     4  H   -0.000001  -0.000002  -0.000001   0.000135  -0.000019  -0.000058
     5  C   -0.003402   0.088903  -0.006382   0.000592  -0.000122  -0.000365
     6  C    0.000046  -0.001415   0.000095  -0.017830   0.006376  -0.029412
     7  C   -0.000523   0.004832  -0.001416   0.000553  -0.000004   0.000028
     8  C   -0.019513  -0.146244  -0.011617  -0.000022   0.000000  -0.000003
     9  C   -0.002119  -0.015525  -0.001265   0.019844  -0.001999   0.001952
    10  H    0.000321  -0.001345   0.000526   0.000502  -0.000140   0.000009
    11  H    0.000720  -0.003758   0.000094   0.000966   0.000210  -0.000142
    12  C   -0.000249   0.006184  -0.000540  -0.313173   0.003835   0.052715
    13  C   -0.000027   0.002230  -0.000025   0.371002  -0.031214  -0.062339
    14  C   -0.000095   0.000670   0.000053   0.000018   0.000001   0.000001
    15  H   -0.000010  -0.000015   0.000008  -0.000002  -0.000000   0.000001
    16  H    0.000018  -0.000021  -0.000011   0.000000   0.000000  -0.000000
    17  H    0.000019  -0.000302  -0.000033   0.000000  -0.000000   0.000000
    18  C    0.403587   0.392761   0.393620   0.000012  -0.000000   0.000001
    19  H    0.492978  -0.020377  -0.013900  -0.000000   0.000000   0.000000
    20  H   -0.020377   0.562962  -0.017661   0.000059  -0.000001  -0.000001
    21  H   -0.013900  -0.017661   0.497428  -0.000001  -0.000000   0.000000
    22  C   -0.000000   0.000059  -0.000001   5.370689   0.398603   0.371110
    23  H    0.000000  -0.000001  -0.000000   0.398603   0.498422  -0.025648
    24  H    0.000000  -0.000001   0.000000   0.371110  -0.025648   0.544527
    25  H   -0.000000  -0.000001   0.000000   0.366942  -0.008080  -0.018908
    26  C    0.000000  -0.000014   0.000001  -0.013139  -0.012569   0.026994
    27  H    0.000000   0.000000  -0.000000  -0.010676   0.000948  -0.002298
    28  H   -0.000000  -0.000000   0.000000   0.015892  -0.000801  -0.009187
    29  H    0.000000  -0.000000  -0.000000   0.001410   0.000239   0.000898
              25         26         27         28         29
     1  O    0.010281   0.000973  -0.000019  -0.000110   0.000018
     2  O    0.000000   0.000009  -0.000000  -0.000000   0.000000
     3  N    0.000022  -0.037811  -0.003040   0.000210   0.005043
     4  H   -0.000002  -0.014583   0.000662   0.000810   0.003785
     5  C   -0.000068   0.001962   0.000259   0.000601  -0.000609
     6  C   -0.000394   0.280843  -0.031652  -0.025878  -0.048019
     7  C    0.000010   0.006812  -0.000948  -0.001219   0.003398
     8  C    0.000000   0.001041  -0.000010   0.000009   0.000009
     9  C   -0.000344   0.025333   0.000088  -0.001565  -0.000542
    10  H   -0.000021  -0.000158   0.000043   0.000023  -0.000010
    11  H   -0.000077  -0.000351  -0.000014  -0.000042   0.000049
    12  C    0.025482  -0.109837  -0.010957   0.002918   0.022581
    13  C   -0.037356  -0.063702   0.004259  -0.009527   0.000329
    14  C    0.000000  -0.001311  -0.000048   0.000002   0.000517
    15  H   -0.000000   0.000264  -0.000024   0.000009   0.000024
    16  H    0.000000  -0.000176   0.000011  -0.000004  -0.000016
    17  H   -0.000000   0.000016  -0.000000  -0.000000   0.000003
    18  C    0.000000  -0.000014  -0.000000  -0.000000   0.000001
    19  H   -0.000000   0.000000   0.000000  -0.000000   0.000000
    20  H   -0.000001  -0.000014   0.000000  -0.000000  -0.000000
    21  H    0.000000   0.000001  -0.000000   0.000000  -0.000000
    22  C    0.366942  -0.013139  -0.010676   0.015892   0.001410
    23  H   -0.008080  -0.012569   0.000948  -0.000801   0.000239
    24  H   -0.018908   0.026994  -0.002298  -0.009187   0.000898
    25  H    0.506625   0.001297   0.000212   0.000758  -0.000070
    26  C    0.001297   5.183791   0.422128   0.395791   0.376139
    27  H    0.000212   0.422128   0.479914  -0.025633  -0.014609
    28  H    0.000758   0.395791  -0.025633   0.509457  -0.020558
    29  H   -0.000070   0.376139  -0.014609  -0.020558   0.518500
 Mulliken charges:
               1
     1  O   -0.364635
     2  O   -0.403229
     3  N   -0.070462
     4  H    0.293607
     5  C   -0.075000
     6  C    0.173337
     7  C    0.179521
     8  C    0.156400
     9  C   -0.307606
    10  H    0.164139
    11  H    0.158844
    12  C   -0.083700
    13  C    0.073183
    14  C   -0.505726
    15  H    0.144214
    16  H    0.160908
    17  H    0.211662
    18  C   -0.431910
    19  H    0.162187
    20  H    0.138584
    21  H    0.161008
    22  C   -0.446174
    23  H    0.169712
    24  H    0.146229
    25  H    0.153693
    26  C   -0.469729
    27  H    0.191404
    28  H    0.168046
    29  H    0.151490
 Sum of Mulliken charges =  -0.00000
 Mulliken charges with hydrogens summed into heavy atoms:
               1
     1  O   -0.364635
     2  O   -0.403229
     3  N    0.223146
     5  C   -0.075000
     6  C    0.173337
     7  C    0.179521
     8  C    0.156400
     9  C    0.015377
    12  C   -0.083700
    13  C    0.073183
    14  C    0.011058
    18  C    0.029870
    22  C    0.023460
    26  C    0.041212
 Electronic spatial extent (au):  <R**2>=          50655.9571
 Charge=             -0.0000 electrons
 Dipole moment (field-independent basis, Debye):
    X=              1.0361    Y=              9.0383    Z=             -0.3837  Tot=              9.1056
 Quadrupole moment (field-independent basis, Debye-Ang):
   XX=           -107.4592   YY=            131.6437   ZZ=            -83.6854
   XY=              1.6691   XZ=              0.8227   YZ=             -0.8402
 Traceless Quadrupole moment (field-independent basis, Debye-Ang):
   XX=            -87.6256   YY=            151.4773   ZZ=            -63.8518
   XY=              1.6691   XZ=              0.8227   YZ=             -0.8402
 Octapole moment (field-independent basis, Debye-Ang**2):
  XXX=            536.9285  YYY=           1059.7905  ZZZ=            -95.1428  XYY=              1.7691
  XXY=          -1114.4994  XXZ=            -41.1062  XZZ=            128.0196  YZZ=           -936.3806
  YYZ=             -0.4157  XYZ=             12.7395
 Hexadecapole moment (field-independent basis, Debye-Ang**3):
 XXXX=          -4692.3850 YYYY=          -2153.8111 ZZZZ=           -229.8953 XXXY=           5359.0442
 XXXZ=             50.8892 YYYX=            621.0779 YYYZ=           -230.9428 ZZZX=              7.6507
 ZZZY=          -1070.4028 XXYY=         -12330.1091 XXZZ=           -659.6831 YYZZ=         -10752.2926
 XXYZ=           -453.4045 YYXZ=            174.0656 ZZXY=           1360.4854
 N-N= 8.979947086646D+02 E-N=-3.271331064770D+03  KE= 6.299075094029D+02
 No NMR shielding tensors so no spin-rotation constants.
 Leave Link  601 at Mon Mar  9 21:33:12 2026, MaxMem=  2147483648 cpu:               3.6 elap:               0.1
 (Enter /data/home/wyx/g16/l9999.exe)
 1\1\GINC-CN013\SP\RPBE1PBE\TZVP\C11H15N1O2\WYX\09-Mar-2026\0\\#p PBE1P
 BE/TZVP em=gd3bj SCRF=(Solvent=Water,NonEquilibrium=Read) Geom=Check G
 uess=Read NoSymm\\Title Card Required\\0,1\O,0,1.385315417,9.824086118
 8,0.6889993483\O,0,-4.9030260754,9.7483497138,0.1951667044\N,0,-2.0869
 414834,12.909280699,0.1865649915\H,0,-2.3982698188,13.8650968104,0.110
 7183678\C,0,-2.6773899738,10.6059252065,0.2327868792\C,0,-0.7539460999
 ,12.7114117163,0.377154134\C,0,-3.0600258657,11.9451994759,0.146221762
 1\C,0,-3.612330246,9.5860314191,0.238914833\C,0,-1.2102524536,10.24984
 55192,0.2810185995\H,0,-1.019126927,9.5393883104,1.0901940118\H,0,-0.9
 21058118,9.7189842911,-0.6356810934\C,0,-0.2791574268,11.4249604152,0.
 4755023243\C,0,1.0891177093,11.0279531621,0.7145201407\C,0,-4.44180693
 51,12.4619667391,-0.018368426\H,0,-4.6733795282,13.2373709648,0.719951
 1947\H,0,-4.5990543103,12.8909798919,-1.0157200977\H,0,-5.1790166732,1
 1.6624717226,0.1066166245\C,0,-3.2900926918,8.1121060254,0.2859835338\
 H,0,-3.7461405228,7.5979252223,-0.5639775201\H,0,-2.2109509102,7.97970
 72877,0.2504912122\H,0,-3.6853908676,7.6656163809,1.2026632835\C,0,2.1
 973595831,12.0109388532,1.0139047754\H,0,2.5077418523,12.5387131597,0.
 1082330196\H,0,1.915642782,12.7580455778,1.7548859076\H,0,3.0510728855
 ,11.4447705868,1.3843516997\C,0,0.0214752256,13.9894862553,0.461044611
 \H,0,0.3188624929,14.211988279,1.4886124187\H,0,0.9209460684,13.963986
 1243,-0.1499559704\H,0,-0.5893481188,14.8232485213,0.1112027304\\Versi
 on=ES64L-G16RevA.03\HF=-632.8931236\RMSD=7.665e-09\Dipole=0.4076443,3.
 5559395,-0.1509577\Quadrupole=-65.1474647,112.6196911,-47.4722263,1.24
 09562,0.611628,-0.6246394\PG=C01 [X(C11H15N1O2)]\\@


 SUCCESS-- IF YOU HAVE TRIED TO DO SOMETHING AND FAILED
           YOU ARE BETTER OFF THAN IF YOU HAD TRIED TO DO
           NOTHING AND SUCCEEDED.

                   -- FROM THE BACK OF A SUGAR PACKET
 Job cpu time:       0 days  0 hours 13 minutes 17.7 seconds.
 Elapsed time:       0 days  0 hours  0 minutes 25.9 seconds.
 File lengths (MBytes):  RWF=    340 Int=      0 D2E=      0 Chk=     67 Scr=      1
 Normal termination of Gaussian 16 at Mon Mar  9 21:33:13 2026.
