 Entering Gaussian System, Link 0=g16
 Input=DDL-S1min-S2-cLR-1.gjf
 Output=DDL-S1min-S2-cLR-1.log
 Initial command:
 /data/home/wyx/g16/l1.exe "/scr/tmp/wyx/13951/Gau-2996757.inp" -scrdir="/scr/tmp/wyx/13951/"
 Entering Link 1 = /data/home/wyx/g16/l1.exe PID=   2996758.
  
 Copyright (c) 1988,1990,1992,1993,1995,1998,2003,2009,2016,
            Gaussian, Inc.  All Rights Reserved.
  
 This is part of the Gaussian(R) 16 program.  It is based on
 the Gaussian(R) 09 system (copyright 2009, Gaussian, Inc.),
 the Gaussian(R) 03 system (copyright 2003, Gaussian, Inc.),
 the Gaussian(R) 98 system (copyright 1998, Gaussian, Inc.),
 the Gaussian(R) 94 system (copyright 1995, Gaussian, Inc.),
 the Gaussian 92(TM) system (copyright 1992, Gaussian, Inc.),
 the Gaussian 90(TM) system (copyright 1990, Gaussian, Inc.),
 the Gaussian 88(TM) system (copyright 1988, Gaussian, Inc.),
 the Gaussian 86(TM) system (copyright 1986, Carnegie Mellon
 University), and the Gaussian 82(TM) system (copyright 1983,
 Carnegie Mellon University). Gaussian is a federally registered
 trademark of Gaussian, Inc.
  
 This software contains proprietary and confidential information,
 including trade secrets, belonging to Gaussian, Inc.
  
 This software is provided under written license and may be
 used, copied, transmitted, or stored only in accord with that
 written license.
  
 The following legend is applicable only to US Government
 contracts under FAR:
  
                    RESTRICTED RIGHTS LEGEND
  
 Use, reproduction and disclosure by the US Government is
 subject to restrictions as set forth in subparagraphs (a)
 and (c) of the Commercial Computer Software - Restricted
 Rights clause in FAR 52.227-19.
  
 Gaussian, Inc.
 340 Quinnipiac St., Bldg. 40, Wallingford CT 06492
  
  
 ---------------------------------------------------------------
 Warning -- This program may not be used in any manner that
 competes with the business of Gaussian, Inc. or will provide
 assistance to any competitor of Gaussian, Inc.  The licensee
 of this program is prohibited from giving any competitor of
 Gaussian, Inc. access to this program.  By using this program,
 the user acknowledges that Gaussian, Inc. is engaged in the
 business of creating and licensing software in the field of
 computational chemistry and represents and warrants to the
 licensee that it is not a competitor of Gaussian, Inc. and that
 it will not use this program in any manner prohibited above.
 ---------------------------------------------------------------
  

 Cite this work as:
 Gaussian 16, Revision A.03,
 M. J. Frisch, G. W. Trucks, H. B. Schlegel, G. E. Scuseria, 
 M. A. Robb, J. R. Cheeseman, G. Scalmani, V. Barone, 
 G. A. Petersson, H. Nakatsuji, X. Li, M. Caricato, A. V. Marenich, 
 J. Bloino, B. G. Janesko, R. Gomperts, B. Mennucci, H. P. Hratchian, 
 J. V. Ortiz, A. F. Izmaylov, J. L. Sonnenberg, D. Williams-Young, 
 F. Ding, F. Lipparini, F. Egidi, J. Goings, B. Peng, A. Petrone, 
 T. Henderson, D. Ranasinghe, V. G. Zakrzewski, J. Gao, N. Rega, 
 G. Zheng, W. Liang, M. Hada, M. Ehara, K. Toyota, R. Fukuda, 
 J. Hasegawa, M. Ishida, T. Nakajima, Y. Honda, O. Kitao, H. Nakai, 
 T. Vreven, K. Throssell, J. A. Montgomery, Jr., J. E. Peralta, 
 F. Ogliaro, M. J. Bearpark, J. J. Heyd, E. N. Brothers, K. N. Kudin, 
 V. N. Staroverov, T. A. Keith, R. Kobayashi, J. Normand, 
 K. Raghavachari, A. P. Rendell, J. C. Burant, S. S. Iyengar, 
 J. Tomasi, M. Cossi, J. M. Millam, M. Klene, C. Adamo, R. Cammi, 
 J. W. Ochterski, R. L. Martin, K. Morokuma, O. Farkas, 
 J. B. Foresman, and D. J. Fox, Gaussian, Inc., Wallingford CT, 2016.
 
 ******************************************
 Gaussian 16:  ES64L-G16RevA.03 25-Dec-2016
                 9-Mar-2026 
 ******************************************
 %nprocshared=32
 Will use up to   32 processors via shared memory.
 %mem=16GB
 %oldchk=DDL-S1min-S2-cLR.chk
 %chk=DDL-S1min-S2-cLR-1.chk
 Copying data from "DDL-S1min-S2-cLR.chk" to current chk file "DDL-S1min-S2-cLR-1.chk"
 IOpt=  2 FromEx=T IUOpen= 4 IOptOp= 5 NList=   0 IFRang= 0 IUIn= 4 IUOut= 2.
 ----------------------------------------------------------------------
 #p PBE1PBE/TZVP em=gd3bj SCRF=(Solvent=Water,NonEquilibrium=Read) Geom
 =Check Guess=Read NoSymm
 ----------------------------------------------------------------------
 1/29=2,38=1,172=1/1;
 2/12=2,15=1,40=1/2;
 3/5=19,7=101,11=2,14=-4,25=1,30=1,70=6002201,72=1,74=-13,116=-2,124=41/1,2,3;
 4/5=1/1;
 5/5=2,38=6,53=1/2;
 6/7=2,8=2,9=2,10=2,28=1/1;
 99/5=1,9=1/99;
 Leave Link    1 at Mon Mar  9 18:08:40 2026, MaxMem=  2147483648 cpu:               1.7 elap:               0.1
 (Enter /data/home/wyx/g16/l101.exe)
 -------------------
 Title Card Required
 -------------------
 Structure from the checkpoint file:  "DDL-S1min-S2-cLR-1.chk"
 Charge =  0 Multiplicity = 1
 Redundant internal coordinates found in file.  (old form).
 O,0,1.4122821611,9.8372741487,0.3115336699
 O,0,-4.8774867351,9.7327856618,0.195336467
 N,0,-2.1233034365,12.9218775758,0.2512185742
 H,0,-2.4356792294,13.8842985524,0.2123101102
 C,0,-2.6971876152,10.636005638,0.1857723283
 C,0,-0.772008184,12.7443260687,0.3780959345
 C,0,-3.0932698791,11.9915533235,0.1629657207
 C,0,-3.6520503798,9.5454434418,0.1851478574
 C,0,-1.2603613101,10.3279458854,0.219162525
 H,0,-1.0511244986,9.5195418323,0.9372051078
 H,0,-0.9663610119,9.8222839257,-0.7276374646
 C,0,-0.2995681139,11.4266509131,0.424364746
 C,0,1.0734178798,10.9953030787,0.6156108823
 C,0,-4.4819306555,12.5084351291,0.0340414391
 H,0,-4.4788149474,13.5982391263,-0.0375298349
 H,0,-4.9707352957,12.0992854751,-0.8512843389
 H,0,-5.0943688008,12.2150965664,0.8883619036
 C,0,-3.129054749,8.1282692255,0.2077211649
 H,0,-3.9269192362,7.4624462331,-0.1191931143
 H,0,-2.2540047675,7.9759829419,-0.4254075348
 H,0,-2.8490325813,7.8455573825,1.2284742628
 C,0,2.1036285306,11.9050179838,1.2351563942
 H,0,2.6851723779,12.4158245512,0.460306743
 H,0,1.6770347052,12.6599871956,1.8934493666
 H,0,2.7963085177,11.2831885612,1.8042815723
 C,0,0.026943434,14.0010792626,0.3952873849
 H,0,0.2742965469,14.3310466207,1.4099627016
 H,0,0.9621969862,13.8789263541,-0.1497199308
 H,0,-0.5271907426,14.812161795,-0.082994638
 Recover connectivity data from disk.
 ITRead=  0  0  0  0  0  0  0  0  0  0  0  0  0  0  0  0  0  0  0  0
 ITRead=  0  0  0  0  0  0  0  0  0
 MicOpt= -1 -1 -1 -1 -1 -1 -1 -1 -1 -1 -1 -1 -1 -1 -1 -1 -1 -1 -1 -1
 MicOpt= -1 -1 -1 -1 -1 -1 -1 -1 -1
                           ----------------------------
                           !    Current Parameters    !
                           ! (Angstroms and Degrees)  !
 --------------------------                            --------------------------
 ! Name  Definition              Value                                          !
 --------------------------------------------------------------------------------
 ! R1    R(1,13)                 1.2443                                         !
 ! R2    R(2,8)                  1.2397                                         !
 ! R3    R(3,4)                  1.0126                                         !
 ! R4    R(3,6)                  1.3688                                         !
 ! R5    R(3,7)                  1.3469                                         !
 ! R6    R(5,7)                  1.4124                                         !
 ! R7    R(5,8)                  1.4495                                         !
 ! R8    R(5,9)                  1.4699                                         !
 ! R9    R(6,12)                 1.4006                                         !
 ! R10   R(6,26)                 1.4893                                         !
 ! R11   R(7,14)                 1.4873                                         !
 ! R12   R(8,18)                 1.5108                                         !
 ! R13   R(9,10)                 1.1013                                         !
 ! R14   R(9,11)                 1.1129                                         !
 ! R15   R(9,12)                 1.4739                                         !
 ! R16   R(12,13)                1.4518                                         !
 ! R17   R(13,22)                1.5076                                         !
 ! R18   R(14,15)                1.0922                                         !
 ! R19   R(14,16)                1.0909                                         !
 ! R20   R(14,17)                1.0913                                         !
 ! R21   R(18,19)                1.0894                                         !
 ! R22   R(18,20)                1.0908                                         !
 ! R23   R(18,21)                1.0956                                         !
 ! R24   R(22,23)                1.0952                                         !
 ! R25   R(22,24)                1.0887                                         !
 ! R26   R(22,25)                1.091                                          !
 ! R27   R(26,27)                1.0953                                         !
 ! R28   R(26,28)                1.0893                                         !
 ! R29   R(26,29)                1.0926                                         !
 ! A1    A(4,3,6)              115.556                                          !
 ! A2    A(4,3,7)              115.5829                                         !
 ! A3    A(6,3,7)              128.8598                                         !
 ! A4    A(7,5,8)              122.5023                                         !
 ! A5    A(7,5,9)              118.4011                                         !
 ! A6    A(8,5,9)              119.0956                                         !
 ! A7    A(3,6,12)             117.2647                                         !
 ! A8    A(3,6,26)             114.9108                                         !
 ! A9    A(12,6,26)            127.7751                                         !
 ! A10   A(3,7,5)              117.3806                                         !
 ! A11   A(3,7,14)             115.9772                                         !
 ! A12   A(5,7,14)             126.6378                                         !
 ! A13   A(2,8,5)              122.511                                          !
 ! A14   A(2,8,18)             118.9355                                         !
 ! A15   A(5,8,18)             118.5356                                         !
 ! A16   A(5,9,10)             110.7551                                         !
 ! A17   A(5,9,11)             109.5201                                         !
 ! A18   A(5,9,12)             118.9569                                         !
 ! A19   A(10,9,11)             99.8441                                         !
 ! A20   A(10,9,12)            109.4243                                         !
 ! A21   A(11,9,12)            106.5551                                         !
 ! A22   A(6,12,9)             118.4786                                         !
 ! A23   A(6,12,13)            127.0768                                         !
 ! A24   A(9,12,13)            114.415                                          !
 ! A25   A(1,13,12)            120.1233                                         !
 ! A26   A(1,13,22)            118.419                                          !
 ! A27   A(12,13,22)           121.4068                                         !
 ! A28   A(7,14,15)            110.4745                                         !
 ! A29   A(7,14,16)            110.9985                                         !
 ! A30   A(7,14,17)            111.2654                                         !
 ! A31   A(15,14,16)           108.8042                                         !
 ! A32   A(15,14,17)           108.7303                                         !
 ! A33   A(16,14,17)           106.4414                                         !
 ! A34   A(8,18,19)            108.3789                                         !
 ! A35   A(8,18,20)            113.5789                                         !
 ! A36   A(8,18,21)            110.1492                                         !
 ! A37   A(19,18,20)           109.1497                                         !
 ! A38   A(19,18,21)           108.0034                                         !
 ! A39   A(20,18,21)           107.4415                                         !
 ! A40   A(13,22,23)           110.7044                                         !
 ! A41   A(13,22,24)           113.5264                                         !
 ! A42   A(13,22,25)           107.716                                          !
 ! A43   A(23,22,24)           108.2047                                         !
 ! A44   A(23,22,25)           107.3228                                         !
 ! A45   A(24,22,25)           109.1827                                         !
 ! A46   A(6,26,27)            112.71                                           !
 ! A47   A(6,26,28)            111.1111                                         !
 ! A48   A(6,26,29)            110.4452                                         !
 ! A49   A(27,26,28)           107.6609                                         !
 ! A50   A(27,26,29)           107.2441                                         !
 ! A51   A(28,26,29)           107.4383                                         !
 ! D1    D(4,3,6,12)          -179.4894                                         !
 ! D2    D(4,3,6,26)            -1.8446                                         !
 ! D3    D(7,3,6,12)             0.0659                                         !
 ! D4    D(7,3,6,26)           177.7106                                         !
 ! D5    D(4,3,7,5)            178.7428                                         !
 ! D6    D(4,3,7,14)            -0.5452                                         !
 ! D7    D(6,3,7,5)             -0.8123                                         !
 ! D8    D(6,3,7,14)           179.8996                                         !
 ! D9    D(8,5,7,3)            175.9059                                         !
 ! D10   D(8,5,7,14)            -4.8917                                         !
 ! D11   D(9,5,7,3)             -3.7334                                         !
 ! D12   D(9,5,7,14)           175.4691                                         !
 ! D13   D(7,5,8,2)             -1.6869                                         !
 ! D14   D(7,5,8,18)           179.8752                                         !
 ! D15   D(9,5,8,2)            177.9499                                         !
 ! D16   D(9,5,8,18)            -0.488                                          !
 ! D17   D(7,5,9,10)           136.8123                                         !
 ! D18   D(7,5,9,11)          -114.0201                                         !
 ! D19   D(7,5,9,12)             8.7771                                         !
 ! D20   D(8,5,9,10)           -42.8395                                         !
 ! D21   D(8,5,9,11)            66.3281                                         !
 ! D22   D(8,5,9,12)          -170.8747                                         !
 ! D23   D(3,6,12,9)             5.1523                                         !
 ! D24   D(3,6,12,13)         -176.9475                                         !
 ! D25   D(26,6,12,9)         -172.145                                          !
 ! D26   D(26,6,12,13)           5.7553                                         !
 ! D27   D(3,6,26,27)           97.3565                                         !
 ! D28   D(3,6,26,28)         -141.7044                                         !
 ! D29   D(3,6,26,29)          -22.5761                                         !
 ! D30   D(12,6,26,27)         -85.2924                                         !
 ! D31   D(12,6,26,28)          35.6467                                         !
 ! D32   D(12,6,26,29)         154.775                                          !
 ! D33   D(3,7,14,15)            3.9254                                         !
 ! D34   D(3,7,14,16)          124.7132                                         !
 ! D35   D(3,7,14,17)         -116.9469                                         !
 ! D36   D(5,7,14,15)         -175.2868                                         !
 ! D37   D(5,7,14,16)          -54.499                                          !
 ! D38   D(5,7,14,17)           63.8409                                         !
 ! D39   D(2,8,18,19)           19.7481                                         !
 ! D40   D(2,8,18,20)          141.2259                                         !
 ! D41   D(2,8,18,21)          -98.2101                                         !
 ! D42   D(5,8,18,19)         -161.7571                                         !
 ! D43   D(5,8,18,20)          -40.2793                                         !
 ! D44   D(5,8,18,21)           80.2847                                         !
 ! D45   D(5,9,12,6)            -9.5151                                         !
 ! D46   D(5,9,12,13)          172.3246                                         !
 ! D47   D(10,9,12,6)         -138.1657                                         !
 ! D48   D(10,9,12,13)          43.6739                                         !
 ! D49   D(11,9,12,6)          114.7397                                         !
 ! D50   D(11,9,12,13)         -63.4206                                         !
 ! D51   D(6,12,13,1)         -162.1318                                         !
 ! D52   D(6,12,13,22)          20.5039                                         !
 ! D53   D(9,12,13,1)           15.8413                                         !
 ! D54   D(9,12,13,22)        -161.523                                          !
 ! D55   D(1,13,22,23)          86.3972                                         !
 ! D56   D(1,13,22,24)        -151.6777                                         !
 ! D57   D(1,13,22,25)         -30.661                                          !
 ! D58   D(12,13,22,23)        -96.1948                                         !
 ! D59   D(12,13,22,24)         25.7302                                         !
 ! D60   D(12,13,22,25)        146.7469                                         !
 --------------------------------------------------------------------------------
 NAtoms=     29 NQM=       29 NQMF=       0 NMMI=      0 NMMIF=      0
                NMic=       0 NMicF=      0.
                    Isotopes and Nuclear Properties:
 (Nuclear quadrupole moments (NQMom) in fm**2, nuclear magnetic moments (NMagM)
  in nuclear magnetons)

  Atom         1           2           3           4           5           6           7           8           9          10
 IAtWgt=          16          16          14           1          12          12          12          12          12           1
 AtmWgt=  15.9949146  15.9949146  14.0030740   1.0078250  12.0000000  12.0000000  12.0000000  12.0000000  12.0000000   1.0078250
 NucSpn=           0           0           2           1           0           0           0           0           0           1
 AtZEff=   5.6000000   5.6000000   4.5500000   1.0000000   3.6000000   3.6000000   3.6000000   3.6000000   3.6000000   1.0000000
 NQMom=    0.0000000   0.0000000   2.0440000   0.0000000   0.0000000   0.0000000   0.0000000   0.0000000   0.0000000   0.0000000
 NMagM=    0.0000000   0.0000000   0.4037610   2.7928460   0.0000000   0.0000000   0.0000000   0.0000000   0.0000000   2.7928460
 AtZNuc=   8.0000000   8.0000000   7.0000000   1.0000000   6.0000000   6.0000000   6.0000000   6.0000000   6.0000000   1.0000000

  Atom        11          12          13          14          15          16          17          18          19          20
 IAtWgt=           1          12          12          12           1           1           1          12           1           1
 AtmWgt=   1.0078250  12.0000000  12.0000000  12.0000000   1.0078250   1.0078250   1.0078250  12.0000000   1.0078250   1.0078250
 NucSpn=           1           0           0           0           1           1           1           0           1           1
 AtZEff=   1.0000000   3.6000000   3.6000000   3.6000000   1.0000000   1.0000000   1.0000000   3.6000000   1.0000000   1.0000000
 NQMom=    0.0000000   0.0000000   0.0000000   0.0000000   0.0000000   0.0000000   0.0000000   0.0000000   0.0000000   0.0000000
 NMagM=    2.7928460   0.0000000   0.0000000   0.0000000   2.7928460   2.7928460   2.7928460   0.0000000   2.7928460   2.7928460
 AtZNuc=   1.0000000   6.0000000   6.0000000   6.0000000   1.0000000   1.0000000   1.0000000   6.0000000   1.0000000   1.0000000

  Atom        21          22          23          24          25          26          27          28          29
 IAtWgt=           1          12           1           1           1          12           1           1           1
 AtmWgt=   1.0078250  12.0000000   1.0078250   1.0078250   1.0078250  12.0000000   1.0078250   1.0078250   1.0078250
 NucSpn=           1           0           1           1           1           0           1           1           1
 AtZEff=   1.0000000   3.6000000   1.0000000   1.0000000   1.0000000   3.6000000   1.0000000   1.0000000   1.0000000
 NQMom=    0.0000000   0.0000000   0.0000000   0.0000000   0.0000000   0.0000000   0.0000000   0.0000000   0.0000000
 NMagM=    2.7928460   0.0000000   2.7928460   2.7928460   2.7928460   0.0000000   2.7928460   2.7928460   2.7928460
 AtZNuc=   1.0000000   6.0000000   1.0000000   1.0000000   1.0000000   6.0000000   1.0000000   1.0000000   1.0000000
 Leave Link  101 at Mon Mar  9 18:08:42 2026, MaxMem=  2147483648 cpu:               6.6 elap:               0.2
 (Enter /data/home/wyx/g16/l202.exe)
                          Input orientation:                          
 ---------------------------------------------------------------------
 Center     Atomic      Atomic             Coordinates (Angstroms)
 Number     Number       Type             X           Y           Z
 ---------------------------------------------------------------------
      1          8           0        1.412282    9.837274    0.311534
      2          8           0       -4.877487    9.732786    0.195336
      3          7           0       -2.123303   12.921878    0.251219
      4          1           0       -2.435679   13.884299    0.212310
      5          6           0       -2.697188   10.636006    0.185772
      6          6           0       -0.772008   12.744326    0.378096
      7          6           0       -3.093270   11.991553    0.162966
      8          6           0       -3.652050    9.545443    0.185148
      9          6           0       -1.260361   10.327946    0.219163
     10          1           0       -1.051124    9.519542    0.937205
     11          1           0       -0.966361    9.822284   -0.727637
     12          6           0       -0.299568   11.426651    0.424365
     13          6           0        1.073418   10.995303    0.615611
     14          6           0       -4.481931   12.508435    0.034041
     15          1           0       -4.478815   13.598239   -0.037530
     16          1           0       -4.970735   12.099285   -0.851284
     17          1           0       -5.094369   12.215097    0.888362
     18          6           0       -3.129055    8.128269    0.207721
     19          1           0       -3.926919    7.462446   -0.119193
     20          1           0       -2.254005    7.975983   -0.425408
     21          1           0       -2.849033    7.845557    1.228474
     22          6           0        2.103629   11.905018    1.235156
     23          1           0        2.685172   12.415825    0.460307
     24          1           0        1.677035   12.659987    1.893449
     25          1           0        2.796309   11.283189    1.804282
     26          6           0        0.026943   14.001079    0.395287
     27          1           0        0.274297   14.331047    1.409963
     28          1           0        0.962197   13.878926   -0.149720
     29          1           0       -0.527191   14.812162   -0.082995
 ---------------------------------------------------------------------
                    Distance matrix (angstroms):
                    1          2          3          4          5
     1  O    0.000000
     2  O    6.291710   0.000000
     3  N    4.692417   4.214138   0.000000
     4  H    5.585254   4.816406   1.012594   0.000000
     5  C    4.188261   2.360000   2.357719   3.258911   0.000000
     6  C    3.636826   5.094873   1.368803   2.023567   2.861524
     7  C    4.996298   2.878630   1.346895   2.004332   1.412413
     8  C    5.074308   1.239716   3.706985   4.506214   1.449513
     9  C    2.718881   3.665840   2.733894   3.745539   1.469859
    10  H    2.561404   3.903446   3.632635   4.636115   2.126186
    11  H    2.595774   4.019552   3.450240   4.420674   2.119486
    12  C    2.338649   4.886612   2.364676   3.263123   2.535868
    13  C    1.244316   6.097856   3.750133   4.563191   3.811997
    14  C    6.477179   2.808329   2.404417   2.472231   2.591201
    15  H    6.997980   3.892929   2.467646   2.078137   3.463941
    16  H    6.871081   2.589292   3.162284   3.277806   2.895806
    17  H    6.951495   2.586347   3.119731   3.211217   2.955273
    18  C    4.853372   2.373108   4.898174   5.797643   2.544746
    19  H    5.859386   2.481320   5.761564   6.601051   3.417122
    20  H    4.177218   3.217815   4.993674   5.945409   2.765081
    21  H    4.792340   2.956963   5.220224   6.137577   2.982765
    22  C    2.367827   7.384835   4.457476   5.056588   5.075375
    23  H    2.879463   8.028868   4.839550   5.333014   5.675643
    24  H    3.246577   7.376574   4.148262   4.608642   5.113363
    25  H    2.496897   7.992471   5.412937   6.055893   5.763412
    26  C    4.389015   6.504748   2.410185   2.472171   4.334571
    27  H    4.763985   7.011433   3.012795   2.996318   4.897110
    28  H    4.092711   7.170178   3.255304   3.417112   4.901039
    29  H    5.354131   6.693475   2.496487   2.142537   4.713958
                    6          7          8          9         10
     6  C    0.000000
     7  C    2.449735   0.000000
     8  C    4.308680   2.509219   0.000000
     9  C    2.470353   2.475945   2.516673   0.000000
    10  H    3.284774   3.298582   2.707596   1.101309   0.000000
    11  H    3.130295   3.165856   2.850043   1.112906   1.694266
    12  C    1.400574   2.862204   3.851662   1.473901   2.113033
    13  C    2.553643   4.307980   4.961597   2.459484   2.606717
    14  C    3.733302   1.487336   3.080723   3.894523   4.638924
    15  H    3.826530   2.131050   4.142255   4.595558   5.416174
    16  H    4.422303   2.136630   3.055361   4.248573   5.021665
    17  H    4.384433   2.140226   3.114778   4.325365   4.859653
    18  C    5.185815   3.863709   1.510767   2.886299   2.604915
    19  H    6.172440   4.613827   2.122982   3.928881   3.690232
    20  H    5.057571   4.144316   2.188725   2.633349   2.384577
    21  H    5.388424   4.287685   2.150112   3.115259   2.473769
    22  C    3.115811   5.307055   6.308562   3.851730   3.966326
    23  H    3.473726   5.801622   6.962413   4.470417   4.751400
    24  H    2.881184   5.118318   6.404516   4.107304   4.268449
    25  H    4.111181   6.154903   6.871876   4.458886   4.320302
    26  C    1.489311   3.718588   5.782028   3.896163   4.641129
    27  H    2.162680   4.285876   6.310180   4.449494   5.013065
    28  H    2.138545   4.484056   6.338966   4.205390   4.923322
    29  H    2.132718   3.821137   6.129843   4.553793   5.415454
                   11         12         13         14         15
    11  H    0.000000
    12  C    2.084638   0.000000
    13  C    2.709426   1.451801   0.000000
    14  C    4.489409   4.337599   5.787028   0.000000
    15  H    5.203020   4.732362   6.166779   1.092156   0.000000
    16  H    4.608149   4.888714   6.316830   1.090933   1.775118
    17  H    5.037604   4.881296   6.293162   1.091326   1.774617
    18  C    2.902038   4.351121   5.103629   4.587624   5.639377
    19  H    3.834572   5.400745   6.166392   5.078732   6.161105
    20  H    2.271166   4.055742   4.612131   5.071279   6.058877
    21  H    3.358314   4.468847   5.067753   5.082859   6.111653
    22  C    4.197044   2.581002   1.507565   6.721338   6.914860
    23  H    4.633720   3.144588   2.154009   7.180365   7.277957
    24  H    4.680833   2.754321   2.183666   6.435310   6.519469
    25  H    4.764718   3.392522   2.112858   7.589977   7.853607
    26  C    4.439588   2.595214   3.190351   4.763237   4.544389
    27  H    5.141742   3.120295   3.520905   5.276056   5.022381
    28  H    4.528761   2.816963   2.985529   5.616987   5.449402
    29  H    5.050477   3.430876   4.197429   4.578299   4.134127
                   16         17         18         19         20
    16  H    0.000000
    17  H    1.747875   0.000000
    18  C    4.503582   4.585618   0.000000
    19  H    4.808928   4.996578   1.089395   0.000000
    20  H    4.956170   5.269131   1.090759   1.776550   0.000000
    21  H    5.188566   4.924437   1.095571   1.767716   1.762497
    22  C    7.378184   7.213015   6.534556   7.611715   6.097849
    23  H    7.773892   7.793894   7.228566   8.282001   6.700161
    24  H    7.213931   6.860032   6.817378   7.903762   6.539883
    25  H    8.248940   7.998134   6.900178   7.968665   6.435432
    26  C    5.490679   5.446163   6.669738   7.658423   6.494463
    27  H    6.132239   5.794125   7.176533   8.195499   7.081506
    28  H    6.233699   6.366155   7.066552   8.066945   6.727904
    29  H    5.262609   5.342976   7.178345   8.098011   7.059212
                   21         22         23         24         25
    21  H    0.000000
    22  C    6.403758   0.000000
    23  H    7.218369   1.095221   0.000000
    24  H    6.641251   1.088720   1.769140   0.000000
    25  H    6.634662   1.091046   1.761103   1.776598   0.000000
    26  C    6.845136   3.067813   3.095713   2.601119   4.128145
    27  H    7.200673   3.043457   3.222149   2.234698   3.975609
    28  H    7.268179   2.667782   2.341248   2.484219   3.730944
    29  H    7.459523   4.136450   4.044365   3.660163   5.202029
                   26         27         28         29
    26  C    0.000000
    27  H    1.095275   0.000000
    28  H    1.089336   1.763584   0.000000
    29  H    1.092554   1.761470   1.758879   0.000000
 Symmetry turned off by external request.
 Stoichiometry    C11H15NO2
 Framework group  C1[X(C11H15NO2)]
 Deg. of freedom    81
 Full point group                 C1      NOp   1
 Rotational constants (GHZ):           1.0673839           0.4900681           0.3426993
 Leave Link  202 at Mon Mar  9 18:08:43 2026, MaxMem=  2147483648 cpu:               0.1 elap:               0.0
 (Enter /data/home/wyx/g16/l301.exe)
 Standard basis: TZVP (5D, 7F)
 Ernie: Thresh=  0.10000D-02 Tol=  0.10000D-05 Strict=F.
   356 basis functions,   610 primitive gaussians,   370 cartesian basis functions
    52 alpha electrons       52 beta electrons
       nuclear repulsion energy       898.1359226693 Hartrees.
 IExCor= 1009 DFT=T Ex+Corr=PBE1PBE ExCW=0 ScaHFX=  0.250000
 ScaDFX=  0.750000  0.750000  1.000000  1.000000 ScalE2=  1.000000  1.000000
 IRadAn=      5 IRanWt=     -1 IRanGd=            0 ICorTp=0 IEmpDi=141
 NAtoms=   29 NActive=   29 NUniq=   29 SFac= 1.00D+00 NAtFMM=   60 NAOKFM=F Big=F
 Integral buffers will be    131072 words long.
 Raffenetti 2 integral format.
 Two-electron integral symmetry is turned off.
 R6Disp:  Grimme-D3(BJ) Dispersion energy=       -0.0288694653 Hartrees.
 Nuclear repulsion after empirical dispersion term =      898.1070532040 Hartrees.
 ------------------------------------------------------------------------------
 Polarizable Continuum Model (PCM)
 =================================
 Model                : PCM.
 Atomic radii         : UFF (Universal Force Field).
 Polarization charges : Total charges.
 Charge compensation  : None.
 Solution method      : On-the-fly selection.
 Cavity type          : Scaled VdW (van der Waals Surface) (Alpha=1.100).
 Cavity algorithm     : GePol (No added spheres)
                        Default sphere list used, NSphG=   29.
                        Lebedev-Laikov grids with approx.  5.0 points / Ang**2.
                        Smoothing algorithm: York/Karplus (Gamma=1.0000).
                        Polarization charges: spherical gaussians, with
                                              point-specific exponents (IZeta= 3).
                        Self-potential: point-specific (ISelfS= 7).
                        Self-field    : sphere-specific E.n sum rule (ISelfD= 2).
 Solvent              : Water, Eps=  78.355300 Eps(inf)=   1.777849
 ------------------------------------------------------------------------------
 GePol: Number of generator spheres                  =      29
 GePol: Total number of spheres                      =      29
 GePol: Number of exposed spheres                    =      29 (100.00%)
 GePol: Number of points                             =    2096
 GePol: Average weight of points                     =       0.13
 GePol: Minimum weight of points                     =   0.78D-08
 GePol: Maximum weight of points                     =    0.20577
 GePol: Number of points with low weight             =     141
 GePol: Fraction of low-weight points (<1% of avg)   =       6.73%
 GePol: Cavity surface area                          =    271.017 Ang**2
 GePol: Cavity volume                                =    290.426 Ang**3
 Leave Link  301 at Mon Mar  9 18:08:43 2026, MaxMem=  2147483648 cpu:               1.1 elap:               0.0
 (Enter /data/home/wyx/g16/l302.exe)
 NPDir=0 NMtPBC=     1 NCelOv=     1 NCel=       1 NClECP=     1 NCelD=      1
         NCelK=      1 NCelE2=     1 NClLst=     1 CellRange=     0.0.
 One-electron integrals computed using PRISM.
 NBasis=   356 RedAO= T EigKep=  3.87D-05  NBF=   356
 NBsUse=   356 1.00D-06 EigRej= -1.00D+00 NBFU=   356
 Precomputing XC quadrature grid using
 IXCGrd= 4 IRadAn=           5 IRanWt=          -1 IRanGd=           0 AccXCQ= 0.00D+00.
 Generated NRdTot=       0 NPtTot=           0 NUsed=           0 NTot=          32
 NSgBfM=   365   365   365   365   365 MxSgAt=    29 MxSgA2=    29.
 Leave Link  302 at Mon Mar  9 18:08:43 2026, MaxMem=  2147483648 cpu:               6.3 elap:               0.2
 (Enter /data/home/wyx/g16/l303.exe)
 DipDrv:  MaxL=1.
 Leave Link  303 at Mon Mar  9 18:08:43 2026, MaxMem=  2147483648 cpu:               1.1 elap:               0.0
 (Enter /data/home/wyx/g16/l401.exe)
 Initial guess from the checkpoint file:  "DDL-S1min-S2-cLR-1.chk"
 B after Tr=     0.000000    0.000000    0.000000
         Rot=    1.000000    0.000000    0.000000    0.000000 Ang=   0.00 deg.
 Guess basis will be translated and rotated to current coordinates.
 JPrj=2 DoOrth=T DoCkMO=T.
 Leave Link  401 at Mon Mar  9 18:08:43 2026, MaxMem=  2147483648 cpu:               4.5 elap:               0.2
 (Enter /data/home/wyx/g16/l502.exe)
 Two-electron integral symmetry not used.
 Closed shell SCF:
 Using DIIS extrapolation, IDIIS=  1040.
 NGot=  2147483648 LenX=  2147195087 LenY=  2147057746
 Requested convergence on RMS density matrix=1.00D-08 within 128 cycles.
 Requested convergence on MAX density matrix=1.00D-06.
 Requested convergence on             energy=1.00D-06.
 No special actions if energy rises.
 Fock matrices will be formed incrementally for  20 cycles.

 Cycle   1  Pass 1  IDiag  1:
 FoFJK:  IHMeth= 1 ICntrl=       0 DoSepK=F KAlg= 0 I1Cent=           0 FoldK=F
 IRaf= 870000000 NMat=       1 IRICut=       1 DoRegI=T DoRafI=F ISym2E= 0 IDoP0=0 IntGTp=1.
 FoFCou: FMM=F IPFlag=           0 FMFlag=      100000 FMFlg1=           0
         NFxFlg=           0 DoJE=F BraDBF=F KetDBF=F FulRan=T
         wScrn=  0.000000 ICntrl=         0 IOpCl=  0 I1Cent=           0 NGrid=           0
         NMat0=    1 NMatS0=      1 NMatT0=    0 NMatD0=    1 NMtDS0=    0 NMtDT0=    0
 Symmetry not used in FoFCou.
 Inv3:  Mode=1 IEnd=    13179648.
 Iteration    1 A*A^-1 deviation from unit magnitude is 2.89D-15 for    184.
 Iteration    1 A*A^-1 deviation from orthogonality  is 2.43D-15 for   1737    757.
 Iteration    1 A^-1*A deviation from unit magnitude is 3.11D-15 for     77.
 Iteration    1 A^-1*A deviation from orthogonality  is 2.44D-15 for   1838    637.
 NEqPCM:  Using non-equilibrium solvation (IEInf=1, Eps=  78.3553, EpsInf=   1.7778)
 Inv3:  Mode=1 IEnd=    13179648.
 Iteration    1 A*A^-1 deviation from unit magnitude is 3.11D-15 for   1152.
 Iteration    1 A*A^-1 deviation from orthogonality  is 2.44D-15 for   1902     71.
 Iteration    1 A^-1*A deviation from unit magnitude is 3.22D-15 for    231.
 Iteration    1 A^-1*A deviation from orthogonality  is 1.77D-15 for    592    363.
 E= -632.899984526183    
 DIIS: error= 1.27D-03 at cycle   1 NSaved=   1.
 NSaved= 1 IEnMin= 1 EnMin= -632.899984526183     IErMin= 1 ErrMin= 1.27D-03
 ErrMax= 1.27D-03  0.00D+00 EMaxC= 1.00D-01 BMatC= 2.03D-04 BMatP= 2.03D-04
 IDIUse=3 WtCom= 9.87D-01 WtEn= 1.27D-02
 Coeff-Com:  0.100D+01
 Coeff-En:   0.100D+01
 Coeff:      0.100D+01
 Gap=     0.131 Goal=   None    Shift=    0.000
 GapD=    0.131 DampG=1.000 DampE=1.000 DampFc=1.0000 IDamp=-1.
 RMSDP=7.14D-04 MaxDP=5.00D-02              OVMax= 3.14D-02

 Cycle   2  Pass 1  IDiag  1:
 RMSU=  7.09D-04    CP:  1.01D+00
 E= -632.900142193874     Delta-E=       -0.000157667690 Rises=F Damp=F
 DIIS: error= 1.21D-03 at cycle   2 NSaved=   2.
 NSaved= 2 IEnMin= 2 EnMin= -632.900142193874     IErMin= 2 ErrMin= 1.21D-03
 ErrMax= 1.21D-03  0.00D+00 EMaxC= 1.00D-01 BMatC= 4.45D-04 BMatP= 2.03D-04
 IDIUse=3 WtCom= 2.23D-01 WtEn= 7.77D-01
 Coeff-Com:  0.628D+00 0.372D+00
 Coeff-En:   0.389D+00 0.611D+00
 Coeff:      0.442D+00 0.558D+00
 Gap=     0.131 Goal=   None    Shift=    0.000
 RMSDP=3.36D-04 MaxDP=2.02D-02 DE=-1.58D-04 OVMax= 1.47D-02

 Cycle   3  Pass 1  IDiag  1:
 RMSU=  2.90D-04    CP:  9.97D-01  8.41D-01
 E= -632.900377452272     Delta-E=       -0.000235258399 Rises=F Damp=F
 DIIS: error= 9.73D-04 at cycle   3 NSaved=   3.
 NSaved= 3 IEnMin= 3 EnMin= -632.900377452272     IErMin= 3 ErrMin= 9.73D-04
 ErrMax= 9.73D-04  0.00D+00 EMaxC= 1.00D-01 BMatC= 2.66D-04 BMatP= 2.03D-04
 IDIUse=3 WtCom= 2.43D-01 WtEn= 7.57D-01
 Coeff-Com:  0.163D+00 0.389D+00 0.448D+00
 Coeff-En:   0.000D+00 0.358D+00 0.642D+00
 Coeff:      0.396D-01 0.365D+00 0.595D+00
 Gap=     0.131 Goal=   None    Shift=    0.000
 RMSDP=1.24D-04 MaxDP=8.18D-03 DE=-2.35D-04 OVMax= 7.78D-03

 Cycle   4  Pass 1  IDiag  1:
 RMSU=  6.45D-05    CP:  1.00D+00  8.64D-01  6.97D-01
 E= -632.900569246890     Delta-E=       -0.000191794618 Rises=F Damp=F
 DIIS: error= 3.36D-04 at cycle   4 NSaved=   4.
 NSaved= 4 IEnMin= 4 EnMin= -632.900569246890     IErMin= 4 ErrMin= 3.36D-04
 ErrMax= 3.36D-04  0.00D+00 EMaxC= 1.00D-01 BMatC= 3.31D-05 BMatP= 2.03D-04
 IDIUse=3 WtCom= 9.97D-01 WtEn= 3.36D-03
 Coeff-Com:  0.393D-01 0.170D+00 0.337D+00 0.454D+00
 Coeff-En:   0.000D+00 0.000D+00 0.117D+00 0.883D+00
 Coeff:      0.392D-01 0.169D+00 0.336D+00 0.455D+00
 Gap=     0.131 Goal=   None    Shift=    0.000
 RMSDP=4.82D-05 MaxDP=3.13D-03 DE=-1.92D-04 OVMax= 1.81D-03

 Cycle   5  Pass 1  IDiag  1:
 RMSU=  1.68D-05    CP:  1.00D+00  8.66D-01  7.70D-01  4.75D-01
 E= -632.900594376929     Delta-E=       -0.000025130039 Rises=F Damp=F
 DIIS: error= 4.54D-05 at cycle   5 NSaved=   5.
 NSaved= 5 IEnMin= 5 EnMin= -632.900594376929     IErMin= 5 ErrMin= 4.54D-05
 ErrMax= 4.54D-05  0.00D+00 EMaxC= 1.00D-01 BMatC= 1.04D-06 BMatP= 3.31D-05
 IDIUse=1 WtCom= 1.00D+00 WtEn= 0.00D+00
 Coeff-Com: -0.461D-02 0.212D-01 0.104D+00 0.255D+00 0.624D+00
 Coeff:     -0.461D-02 0.212D-01 0.104D+00 0.255D+00 0.624D+00
 Gap=     0.131 Goal=   None    Shift=    0.000
 RMSDP=1.36D-05 MaxDP=6.85D-04 DE=-2.51D-05 OVMax= 2.87D-04

 Cycle   6  Pass 1  IDiag  1:
 RMSU=  6.19D-06    CP:  1.00D+00  8.66D-01  7.95D-01  6.22D-01  8.82D-01
 E= -632.900595263436     Delta-E=       -0.000000886507 Rises=F Damp=F
 DIIS: error= 1.77D-05 at cycle   6 NSaved=   6.
 NSaved= 6 IEnMin= 6 EnMin= -632.900595263436     IErMin= 6 ErrMin= 1.77D-05
 ErrMax= 1.77D-05  0.00D+00 EMaxC= 1.00D-01 BMatC= 1.37D-07 BMatP= 1.04D-06
 IDIUse=1 WtCom= 1.00D+00 WtEn= 0.00D+00
 Coeff-Com: -0.391D-02-0.449D-02 0.243D-01 0.945D-01 0.332D+00 0.558D+00
 Coeff:     -0.391D-02-0.449D-02 0.243D-01 0.945D-01 0.332D+00 0.558D+00
 Gap=     0.131 Goal=   None    Shift=    0.000
 RMSDP=2.70D-06 MaxDP=1.72D-04 DE=-8.87D-07 OVMax= 2.49D-04

 Cycle   7  Pass 1  IDiag  1:
 RMSU=  2.04D-06    CP:  1.00D+00  8.65D-01  7.96D-01  6.12D-01  9.25D-01
                    CP:  8.39D-01
 E= -632.900595386577     Delta-E=       -0.000000123140 Rises=F Damp=F
 DIIS: error= 9.49D-06 at cycle   7 NSaved=   7.
 NSaved= 7 IEnMin= 7 EnMin= -632.900595386577     IErMin= 7 ErrMin= 9.49D-06
 ErrMax= 9.49D-06  0.00D+00 EMaxC= 1.00D-01 BMatC= 3.26D-08 BMatP= 1.37D-07
 IDIUse=1 WtCom= 1.00D+00 WtEn= 0.00D+00
 Coeff-Com: -0.112D-02-0.594D-02-0.134D-02 0.119D-01 0.584D-01 0.339D+00
 Coeff-Com:  0.600D+00
 Coeff:     -0.112D-02-0.594D-02-0.134D-02 0.119D-01 0.584D-01 0.339D+00
 Coeff:      0.600D+00
 Gap=     0.131 Goal=   None    Shift=    0.000
 RMSDP=1.78D-06 MaxDP=1.03D-04 DE=-1.23D-07 OVMax= 8.42D-05

 Cycle   8  Pass 1  IDiag  1:
 RMSU=  7.07D-07    CP:  1.00D+00  8.65D-01  7.99D-01  6.28D-01  9.50D-01
                    CP:  9.37D-01  7.40D-01
 E= -632.900595411425     Delta-E=       -0.000000024848 Rises=F Damp=F
 DIIS: error= 3.45D-06 at cycle   8 NSaved=   8.
 NSaved= 8 IEnMin= 8 EnMin= -632.900595411425     IErMin= 8 ErrMin= 3.45D-06
 ErrMax= 3.45D-06  0.00D+00 EMaxC= 1.00D-01 BMatC= 5.37D-09 BMatP= 3.26D-08
 IDIUse=1 WtCom= 1.00D+00 WtEn= 0.00D+00
 Coeff-Com: -0.222D-03-0.397D-02-0.447D-02-0.603D-02-0.167D-01 0.158D+00
 Coeff-Com:  0.366D+00 0.508D+00
 Coeff:     -0.222D-03-0.397D-02-0.447D-02-0.603D-02-0.167D-01 0.158D+00
 Coeff:      0.366D+00 0.508D+00
 Gap=     0.131 Goal=   None    Shift=    0.000
 RMSDP=5.02D-07 MaxDP=2.23D-05 DE=-2.48D-08 OVMax= 1.83D-05

 Cycle   9  Pass 1  IDiag  1:
 RMSU=  2.47D-07    CP:  1.00D+00  8.65D-01  8.00D-01  6.29D-01  9.51D-01
                    CP:  9.54D-01  8.40D-01  8.10D-01
 E= -632.900595416267     Delta-E=       -0.000000004842 Rises=F Damp=F
 DIIS: error= 1.65D-06 at cycle   9 NSaved=   9.
 NSaved= 9 IEnMin= 9 EnMin= -632.900595416267     IErMin= 9 ErrMin= 1.65D-06
 ErrMax= 1.65D-06  0.00D+00 EMaxC= 1.00D-01 BMatC= 6.82D-10 BMatP= 5.37D-09
 IDIUse=1 WtCom= 1.00D+00 WtEn= 0.00D+00
 Coeff-Com:  0.126D-03-0.945D-03-0.106D-02-0.387D-02-0.232D-01 0.253D-01
 Coeff-Com:  0.627D-01 0.222D+00 0.719D+00
 Coeff:      0.126D-03-0.945D-03-0.106D-02-0.387D-02-0.232D-01 0.253D-01
 Coeff:      0.627D-01 0.222D+00 0.719D+00
 Gap=     0.131 Goal=   None    Shift=    0.000
 RMSDP=3.07D-07 MaxDP=1.25D-05 DE=-4.84D-09 OVMax= 1.49D-05

 Cycle  10  Pass 1  IDiag  1:
 RMSU=  7.52D-08    CP:  1.00D+00  8.65D-01  8.00D-01  6.31D-01  9.53D-01
                    CP:  9.76D-01  8.67D-01  8.74D-01  9.55D-01
 E= -632.900595416869     Delta-E=       -0.000000000603 Rises=F Damp=F
 DIIS: error= 4.16D-07 at cycle  10 NSaved=  10.
 NSaved=10 IEnMin=10 EnMin= -632.900595416869     IErMin=10 ErrMin= 4.16D-07
 ErrMax= 4.16D-07  0.00D+00 EMaxC= 1.00D-01 BMatC= 8.70D-11 BMatP= 6.82D-10
 IDIUse=1 WtCom= 1.00D+00 WtEn= 0.00D+00
 Coeff-Com:  0.778D-04-0.127D-03-0.731D-04-0.132D-02-0.114D-01-0.401D-02
 Coeff-Com: -0.147D-01 0.370D-01 0.370D+00 0.625D+00
 Coeff:      0.778D-04-0.127D-03-0.731D-04-0.132D-02-0.114D-01-0.401D-02
 Coeff:     -0.147D-01 0.370D-01 0.370D+00 0.625D+00
 Gap=     0.131 Goal=   None    Shift=    0.000
 RMSDP=9.50D-08 MaxDP=4.54D-06 DE=-6.03D-10 OVMax= 2.98D-06

 Cycle  11  Pass 1  IDiag  1:
 RMSU=  3.32D-08    CP:  1.00D+00  8.65D-01  8.01D-01  6.32D-01  9.52D-01
                    CP:  9.82D-01  8.76D-01  8.92D-01  1.01D+00  8.54D-01
 E= -632.900595416952     Delta-E=       -0.000000000083 Rises=F Damp=F
 DIIS: error= 8.88D-08 at cycle  11 NSaved=  11.
 NSaved=11 IEnMin=11 EnMin= -632.900595416952     IErMin=11 ErrMin= 8.88D-08
 ErrMax= 8.88D-08  0.00D+00 EMaxC= 1.00D-01 BMatC= 4.91D-12 BMatP= 8.70D-11
 IDIUse=1 WtCom= 1.00D+00 WtEn= 0.00D+00
 Coeff-Com:  0.270D-04 0.309D-04 0.948D-04-0.564D-04-0.248D-02-0.270D-02
 Coeff-Com: -0.121D-01-0.109D-01 0.886D-01 0.276D+00 0.663D+00
 Coeff:      0.270D-04 0.309D-04 0.948D-04-0.564D-04-0.248D-02-0.270D-02
 Coeff:     -0.121D-01-0.109D-01 0.886D-01 0.276D+00 0.663D+00
 Gap=     0.131 Goal=   None    Shift=    0.000
 RMSDP=1.84D-08 MaxDP=8.23D-07 DE=-8.25D-11 OVMax= 1.15D-06

 Cycle  12  Pass 1  IDiag  1:
 RMSU=  1.03D-08    CP:  1.00D+00  8.65D-01  8.01D-01  6.32D-01  9.52D-01
                    CP:  9.82D-01  8.78D-01  8.99D-01  1.03D+00  8.89D-01
                    CP:  8.24D-01
 E= -632.900595416956     Delta-E=       -0.000000000004 Rises=F Damp=F
 DIIS: error= 5.59D-08 at cycle  12 NSaved=  12.
 NSaved=12 IEnMin=12 EnMin= -632.900595416956     IErMin=12 ErrMin= 5.59D-08
 ErrMax= 5.59D-08  0.00D+00 EMaxC= 1.00D-01 BMatC= 9.57D-13 BMatP= 4.91D-12
 IDIUse=1 WtCom= 1.00D+00 WtEn= 0.00D+00
 Coeff-Com:  0.824D-05 0.251D-04 0.542D-04 0.707D-04-0.653D-03-0.112D-02
 Coeff-Com: -0.586D-02-0.946D-02 0.264D-01 0.109D+00 0.379D+00 0.502D+00
 Coeff:      0.824D-05 0.251D-04 0.542D-04 0.707D-04-0.653D-03-0.112D-02
 Coeff:     -0.586D-02-0.946D-02 0.264D-01 0.109D+00 0.379D+00 0.502D+00
 Gap=     0.131 Goal=   None    Shift=    0.000
 RMSDP=6.76D-09 MaxDP=5.57D-07 DE=-3.75D-12 OVMax= 4.30D-07

 Error on total polarization charges =  0.00766
 SCF Done:  E(RPBE1PBE) =  -632.900595417     A.U. after   12 cycles
            NFock= 12  Conv=0.68D-08     -V/T= 2.0048
 KE= 6.299047386248D+02 PE=-3.271596885077D+03 EE= 1.110684497831D+03
 Leave Link  502 at Mon Mar  9 18:09:09 2026, MaxMem=  2147483648 cpu:             779.9 elap:              25.2
 (Enter /data/home/wyx/g16/l601.exe)
 Copying SCF densities to generalized density rwf, IOpCl= 0 IROHF=0.

 **********************************************************************

            Population analysis using the SCF density.

 **********************************************************************

 Alpha  occ. eigenvalues --  -19.19206 -19.17036 -14.45093 -10.31482 -10.31306
 Alpha  occ. eigenvalues --  -10.30174 -10.29804 -10.24516 -10.24164 -10.23049
 Alpha  occ. eigenvalues --  -10.22812 -10.22809 -10.22555 -10.20798  -1.06359
 Alpha  occ. eigenvalues --   -1.04587  -1.03375  -0.86054  -0.85014  -0.78268
 Alpha  occ. eigenvalues --   -0.76972  -0.75866  -0.72504  -0.68336  -0.66805
 Alpha  occ. eigenvalues --   -0.63188  -0.56173  -0.53006  -0.51854  -0.49641
 Alpha  occ. eigenvalues --   -0.49421  -0.48452  -0.46876  -0.46149  -0.45590
 Alpha  occ. eigenvalues --   -0.44748  -0.43914  -0.43676  -0.43121  -0.42477
 Alpha  occ. eigenvalues --   -0.41880  -0.40155  -0.39078  -0.38953  -0.38431
 Alpha  occ. eigenvalues --   -0.37026  -0.36943  -0.35732  -0.28192  -0.27545
 Alpha  occ. eigenvalues --   -0.25249  -0.20929
 Alpha virt. eigenvalues --   -0.07871  -0.02029   0.03103   0.04851   0.05143
 Alpha virt. eigenvalues --    0.05479   0.07200   0.08049   0.08997   0.10149
 Alpha virt. eigenvalues --    0.10617   0.11368   0.11986   0.13207   0.13873
 Alpha virt. eigenvalues --    0.14294   0.14396   0.14785   0.15145   0.16247
 Alpha virt. eigenvalues --    0.16356   0.18150   0.18875   0.19577   0.19935
 Alpha virt. eigenvalues --    0.20194   0.21309   0.22055   0.22755   0.23388
 Alpha virt. eigenvalues --    0.23892   0.24272   0.24805   0.25603   0.26665
 Alpha virt. eigenvalues --    0.27826   0.28018   0.28178   0.29132   0.29642
 Alpha virt. eigenvalues --    0.31181   0.31800   0.32902   0.33537   0.34418
 Alpha virt. eigenvalues --    0.35953   0.36759   0.37282   0.37657   0.38456
 Alpha virt. eigenvalues --    0.40117   0.40830   0.41232   0.42071   0.42638
 Alpha virt. eigenvalues --    0.43069   0.43566   0.43713   0.44011   0.44650
 Alpha virt. eigenvalues --    0.45424   0.46243   0.47109   0.47426   0.47671
 Alpha virt. eigenvalues --    0.48161   0.48496   0.49126   0.49514   0.49778
 Alpha virt. eigenvalues --    0.50045   0.50780   0.51359   0.52365   0.53754
 Alpha virt. eigenvalues --    0.54213   0.55154   0.57029   0.57585   0.58914
 Alpha virt. eigenvalues --    0.59681   0.60469   0.61705   0.62595   0.62933
 Alpha virt. eigenvalues --    0.64018   0.65033   0.65608   0.66614   0.67388
 Alpha virt. eigenvalues --    0.68664   0.69823   0.70389   0.71213   0.72298
 Alpha virt. eigenvalues --    0.74605   0.75340   0.79365   0.82539   0.83202
 Alpha virt. eigenvalues --    0.87118   0.92151   0.97262   1.00690   1.15690
 Alpha virt. eigenvalues --    1.18634   1.21089   1.22356   1.23286   1.24590
 Alpha virt. eigenvalues --    1.25726   1.28015   1.29632   1.30220   1.31201
 Alpha virt. eigenvalues --    1.31840   1.32964   1.33292   1.33717   1.34391
 Alpha virt. eigenvalues --    1.34462   1.34869   1.35112   1.36099   1.37083
 Alpha virt. eigenvalues --    1.37869   1.38217   1.39536   1.40533   1.41786
 Alpha virt. eigenvalues --    1.43266   1.44173   1.44360   1.45126   1.45560
 Alpha virt. eigenvalues --    1.46132   1.47405   1.48119   1.50519   1.53686
 Alpha virt. eigenvalues --    1.54140   1.54372   1.55717   1.55987   1.56962
 Alpha virt. eigenvalues --    1.57403   1.57668   1.57825   1.58709   1.59950
 Alpha virt. eigenvalues --    1.61081   1.61448   1.61701   1.62314   1.63309
 Alpha virt. eigenvalues --    1.63905   1.64675   1.65093   1.65147   1.67013
 Alpha virt. eigenvalues --    1.68273   1.69493   1.70361   1.71316   1.73332
 Alpha virt. eigenvalues --    1.76283   1.77483   1.78639   1.80773   1.81850
 Alpha virt. eigenvalues --    1.81971   1.82902   1.83372   1.84672   1.85234
 Alpha virt. eigenvalues --    1.85961   1.88464   1.89400   1.94184   1.94689
 Alpha virt. eigenvalues --    1.96346   1.98108   2.00669   2.01683   2.04155
 Alpha virt. eigenvalues --    2.04570   2.05709   2.10408   2.12404   2.14323
 Alpha virt. eigenvalues --    2.14878   2.15164   2.16604   2.16952   2.20947
 Alpha virt. eigenvalues --    2.21181   2.21567   2.23305   2.25357   2.25990
 Alpha virt. eigenvalues --    2.28004   2.28806   2.31380   2.31892   2.32892
 Alpha virt. eigenvalues --    2.33542   2.34407   2.35439   2.36383   2.38724
 Alpha virt. eigenvalues --    2.39896   2.40895   2.42363   2.43873   2.45867
 Alpha virt. eigenvalues --    2.47348   2.47979   2.49191   2.50607   2.52161
 Alpha virt. eigenvalues --    2.53086   2.55070   2.55525   2.56126   2.57218
 Alpha virt. eigenvalues --    2.59267   2.59604   2.60975   2.62138   2.63051
 Alpha virt. eigenvalues --    2.65577   2.66177   2.69083   2.69402   2.70277
 Alpha virt. eigenvalues --    2.70974   2.71633   2.72308   2.72692   2.73938
 Alpha virt. eigenvalues --    2.75751   2.76105   2.76842   2.78148   2.78863
 Alpha virt. eigenvalues --    2.80373   2.81188   2.82631   2.83502   2.87285
 Alpha virt. eigenvalues --    2.91843   2.93784   2.95744   3.02327   3.05047
 Alpha virt. eigenvalues --    3.06852   3.09308   3.11018   3.13864   3.15999
 Alpha virt. eigenvalues --    3.16350   3.16835   3.18261   3.20266   3.20637
 Alpha virt. eigenvalues --    3.23730   3.25183   3.26648   3.29260   3.30552
 Alpha virt. eigenvalues --    3.32468   3.32931   3.33669   3.34021   3.35620
 Alpha virt. eigenvalues --    3.36437   3.38058   3.39248   3.41936   3.42404
 Alpha virt. eigenvalues --    3.43522   3.44089   3.49575   3.52145   3.54014
 Alpha virt. eigenvalues --    3.55388   3.85158   3.94982   4.25806   4.31090
 Alpha virt. eigenvalues --   21.71508  21.83927  22.09915  22.12840  22.14514
 Alpha virt. eigenvalues --   22.16956  22.17990  22.19905  22.21447  22.27641
 Alpha virt. eigenvalues --   22.29768  31.95625  43.70850  43.74358
          Condensed to atoms (all electrons):
               1          2          3          4          5          6
     1  O    7.946067   0.000000  -0.000125   0.000019   0.018308   0.005330
     2  O    0.000000   7.948439   0.000463   0.000039  -0.179068   0.001064
     3  N   -0.000125   0.000463   6.250822   0.357526  -0.113118   0.320491
     4  H    0.000019   0.000039   0.357526   0.408586   0.019190  -0.043744
     5  C    0.018308  -0.179068  -0.113118   0.019190   7.050164  -0.097202
     6  C    0.005330   0.001064   0.320491  -0.043744  -0.097202   5.593175
     7  C   -0.000237  -0.049293   0.384095  -0.029890   0.462839  -0.109201
     8  C   -0.000783   0.667002   0.007017  -0.000818  -0.325402   0.039188
     9  C    0.006291   0.027573   0.020023   0.000253  -0.692623  -0.048024
    10  H    0.006442   0.000077  -0.000874   0.000028  -0.089218   0.029136
    11  H    0.010845   0.000170   0.003081   0.000035  -0.058133  -0.022650
    12  C   -0.219804  -0.002936  -0.075285   0.016961   0.197043  -0.061823
    13  C    0.677553   0.000006   0.004372   0.000658   0.076923   0.096311
    14  C   -0.000007   0.014086  -0.041660  -0.015591  -0.119488   0.018737
    15  H   -0.000000   0.003912   0.006114   0.004375   0.020167   0.005987
    16  H    0.000000   0.001235  -0.000764   0.000762   0.002095  -0.001756
    17  H   -0.000000   0.002616  -0.002203   0.000909  -0.005510  -0.001344
    18  C    0.000444  -0.099594  -0.000619   0.000038  -0.265598  -0.000410
    19  H    0.000002   0.007521   0.000007  -0.000001   0.020653   0.000030
    20  H    0.000140   0.004037   0.000097   0.000001   0.035572  -0.001154
    21  H   -0.000009   0.000896   0.000016  -0.000001   0.004658   0.000162
    22  C   -0.103366  -0.000000   0.000007   0.000151   0.004473  -0.032653
    23  H    0.001735   0.000000  -0.000002  -0.000011   0.000023   0.004257
    24  H    0.005405  -0.000000   0.000219  -0.000062  -0.000851  -0.021300
    25  H    0.005125   0.000000   0.000019  -0.000002  -0.000151  -0.000653
    26  C    0.000914   0.000010  -0.037010  -0.008487   0.001047   0.278001
    27  H   -0.000057  -0.000000  -0.002271   0.000630   0.000258  -0.021856
    28  H   -0.000306  -0.000000   0.001065   0.000569   0.000014  -0.044485
    29  H    0.000028   0.000000   0.003633   0.003101  -0.000064  -0.041885
               7          8          9         10         11         12
     1  O   -0.000237  -0.000783   0.006291   0.006442   0.010845  -0.219804
     2  O   -0.049293   0.667002   0.027573   0.000077   0.000170  -0.002936
     3  N    0.384095   0.007017   0.020023  -0.000874   0.003081  -0.075285
     4  H   -0.029890  -0.000818   0.000253   0.000028   0.000035   0.016961
     5  C    0.462839  -0.325402  -0.692623  -0.089218  -0.058133   0.197043
     6  C   -0.109201   0.039188  -0.048024   0.029136  -0.022650  -0.061823
     7  C    5.508017  -0.240726  -0.257845   0.014717  -0.008477   0.009304
     8  C   -0.240726   5.415678   0.222221  -0.009256  -0.000720  -0.055220
     9  C   -0.257845   0.222221   6.487318   0.490605   0.416894  -0.190280
    10  H    0.014717  -0.009256   0.490605   0.551574  -0.054804  -0.097526
    11  H   -0.008477  -0.000720   0.416894  -0.054804   0.596472  -0.007586
    12  C    0.009304  -0.055220  -0.190280  -0.097526  -0.007586   7.356747
    13  C    0.023754  -0.010995  -0.213008   0.002550  -0.014873  -0.530417
    14  C    0.339388  -0.018074   0.013760   0.000326  -0.000660  -0.001664
    15  H   -0.083750   0.005605   0.000887  -0.000003   0.000041  -0.001629
    16  H   -0.011544  -0.009209  -0.001026  -0.000070   0.000195   0.000566
    17  H   -0.008287  -0.003408   0.001189   0.000077  -0.000074   0.000223
    18  C   -0.000265   0.356382   0.012177   0.008910  -0.012284   0.000390
    19  H    0.000150  -0.041425  -0.003049   0.000444   0.000210  -0.000252
    20  H    0.003615  -0.056026   0.002048  -0.007198   0.002858   0.008332
    21  H   -0.000490  -0.019664  -0.010664   0.000799   0.000417  -0.002316
    22  C   -0.000470  -0.000056   0.006177  -0.002546   0.004688  -0.234657
    23  H   -0.000011   0.000000  -0.001208  -0.000166   0.000202  -0.008958
    24  H    0.000032   0.000014   0.001887   0.000193  -0.000272   0.064334
    25  H    0.000016   0.000002   0.000666   0.000036  -0.000155   0.015716
    26  C    0.004599   0.000908   0.026727  -0.000087  -0.000555  -0.097215
    27  H   -0.000653  -0.000016  -0.000264   0.000036  -0.000011  -0.010980
    28  H   -0.000599   0.000001   0.000190   0.000028  -0.000159  -0.005609
    29  H    0.002345  -0.000002  -0.000747  -0.000017   0.000101   0.020305
              13         14         15         16         17         18
     1  O    0.677553  -0.000007  -0.000000   0.000000  -0.000000   0.000444
     2  O    0.000006   0.014086   0.003912   0.001235   0.002616  -0.099594
     3  N    0.004372  -0.041660   0.006114  -0.000764  -0.002203  -0.000619
     4  H    0.000658  -0.015591   0.004375   0.000762   0.000909   0.000038
     5  C    0.076923  -0.119488   0.020167   0.002095  -0.005510  -0.265598
     6  C    0.096311   0.018737   0.005987  -0.001756  -0.001344  -0.000410
     7  C    0.023754   0.339388  -0.083750  -0.011544  -0.008287  -0.000265
     8  C   -0.010995  -0.018074   0.005605  -0.009209  -0.003408   0.356382
     9  C   -0.213008   0.013760   0.000887  -0.001026   0.001189   0.012177
    10  H    0.002550   0.000326  -0.000003  -0.000070   0.000077   0.008910
    11  H   -0.014873  -0.000660   0.000041   0.000195  -0.000074  -0.012284
    12  C   -0.530417  -0.001664  -0.001629   0.000566   0.000223   0.000390
    13  C    5.680271   0.000090  -0.000039  -0.000002   0.000002   0.001943
    14  C    0.000090   4.988989   0.386149   0.396966   0.394140   0.002386
    15  H   -0.000039   0.386149   0.575536  -0.025718  -0.024027   0.000245
    16  H   -0.000002   0.396966  -0.025718   0.505626  -0.019281  -0.000113
    17  H    0.000002   0.394140  -0.024027  -0.019281   0.500292  -0.000045
    18  C    0.001943   0.002386   0.000245  -0.000113  -0.000045   5.276403
    19  H   -0.000019  -0.000037  -0.000004   0.000044  -0.000035   0.386126
    20  H    0.000922  -0.000015  -0.000014  -0.000028   0.000008   0.361542
    21  H   -0.000184  -0.000194  -0.000005   0.000010  -0.000008   0.394891
    22  C    0.303766  -0.000012   0.000001   0.000000  -0.000000   0.000032
    23  H   -0.017176  -0.000001   0.000000  -0.000000   0.000000  -0.000001
    24  H   -0.091873   0.000004   0.000000  -0.000000   0.000000  -0.000001
    25  H   -0.023785   0.000000   0.000000  -0.000000  -0.000000  -0.000000
    26  C   -0.064777   0.000157   0.000305  -0.000003  -0.000043   0.000008
    27  H    0.005291  -0.000067  -0.000009   0.000004  -0.000007   0.000001
    28  H    0.000763   0.000051  -0.000005  -0.000002   0.000001  -0.000000
    29  H   -0.001772  -0.000203   0.000095  -0.000000   0.000002  -0.000000
              19         20         21         22         23         24
     1  O    0.000002   0.000140  -0.000009  -0.103366   0.001735   0.005405
     2  O    0.007521   0.004037   0.000896  -0.000000   0.000000  -0.000000
     3  N    0.000007   0.000097   0.000016   0.000007  -0.000002   0.000219
     4  H   -0.000001   0.000001  -0.000001   0.000151  -0.000011  -0.000062
     5  C    0.020653   0.035572   0.004658   0.004473   0.000023  -0.000851
     6  C    0.000030  -0.001154   0.000162  -0.032653   0.004257  -0.021300
     7  C    0.000150   0.003615  -0.000490  -0.000470  -0.000011   0.000032
     8  C   -0.041425  -0.056026  -0.019664  -0.000056   0.000000   0.000014
     9  C   -0.003049   0.002048  -0.010664   0.006177  -0.001208   0.001887
    10  H    0.000444  -0.007198   0.000799  -0.002546  -0.000166   0.000193
    11  H    0.000210   0.002858   0.000417   0.004688   0.000202  -0.000272
    12  C   -0.000252   0.008332  -0.002316  -0.234657  -0.008958   0.064334
    13  C   -0.000019   0.000922  -0.000184   0.303766  -0.017176  -0.091873
    14  C   -0.000037  -0.000015  -0.000194  -0.000012  -0.000001   0.000004
    15  H   -0.000004  -0.000014  -0.000005   0.000001   0.000000   0.000000
    16  H    0.000044  -0.000028   0.000010   0.000000  -0.000000  -0.000000
    17  H   -0.000035   0.000008  -0.000008  -0.000000   0.000000   0.000000
    18  C    0.386126   0.361542   0.394891   0.000032  -0.000001  -0.000001
    19  H    0.497945  -0.021967  -0.006651  -0.000000   0.000000  -0.000000
    20  H   -0.021967   0.543971  -0.021449   0.000040   0.000000  -0.000000
    21  H   -0.006651  -0.021449   0.490172  -0.000012   0.000000   0.000000
    22  C   -0.000000   0.000040  -0.000012   5.376966   0.393726   0.385247
    23  H    0.000000   0.000000   0.000000   0.393726   0.496207  -0.022238
    24  H   -0.000000  -0.000000   0.000000   0.385247  -0.022238   0.536351
    25  H   -0.000000  -0.000001   0.000000   0.370958  -0.009710  -0.019660
    26  C    0.000000  -0.000016   0.000002  -0.013038  -0.005413   0.019449
    27  H    0.000000  -0.000000  -0.000000  -0.007852   0.000085  -0.001363
    28  H   -0.000000  -0.000000   0.000000   0.003926  -0.000122  -0.007077
    29  H    0.000000   0.000000  -0.000000   0.001989   0.000230   0.000653
              25         26         27         28         29
     1  O    0.005125   0.000914  -0.000057  -0.000306   0.000028
     2  O    0.000000   0.000010  -0.000000  -0.000000   0.000000
     3  N    0.000019  -0.037010  -0.002271   0.001065   0.003633
     4  H   -0.000002  -0.008487   0.000630   0.000569   0.003101
     5  C   -0.000151   0.001047   0.000258   0.000014  -0.000064
     6  C   -0.000653   0.278001  -0.021856  -0.044485  -0.041885
     7  C    0.000016   0.004599  -0.000653  -0.000599   0.002345
     8  C    0.000002   0.000908  -0.000016   0.000001  -0.000002
     9  C    0.000666   0.026727  -0.000264   0.000190  -0.000747
    10  H    0.000036  -0.000087   0.000036   0.000028  -0.000017
    11  H   -0.000155  -0.000555  -0.000011  -0.000159   0.000101
    12  C    0.015716  -0.097215  -0.010980  -0.005609   0.020305
    13  C   -0.023785  -0.064777   0.005291   0.000763  -0.001772
    14  C    0.000000   0.000157  -0.000067   0.000051  -0.000203
    15  H    0.000000   0.000305  -0.000009  -0.000005   0.000095
    16  H   -0.000000  -0.000003   0.000004  -0.000002  -0.000000
    17  H   -0.000000  -0.000043  -0.000007   0.000001   0.000002
    18  C   -0.000000   0.000008   0.000001  -0.000000  -0.000000
    19  H   -0.000000   0.000000   0.000000  -0.000000   0.000000
    20  H   -0.000001  -0.000016  -0.000000  -0.000000   0.000000
    21  H    0.000000   0.000002  -0.000000   0.000000  -0.000000
    22  C    0.370958  -0.013038  -0.007852   0.003926   0.001989
    23  H   -0.009710  -0.005413   0.000085  -0.000122   0.000230
    24  H   -0.019660   0.019449  -0.001363  -0.007077   0.000653
    25  H    0.500688   0.001709   0.000198   0.000676  -0.000055
    26  C    0.001709   5.171559   0.404611   0.423831   0.379175
    27  H    0.000198   0.404611   0.485573  -0.024116  -0.015631
    28  H    0.000676   0.423831  -0.024116   0.500800  -0.022308
    29  H   -0.000055   0.379175  -0.015631  -0.022308   0.513212
 Mulliken charges:
               1
     1  O   -0.359951
     2  O   -0.348254
     3  N   -0.085135
     4  H    0.284775
     5  C    0.032999
     6  C    0.158271
     7  C    0.048867
     8  C    0.077783
     9  C   -0.318147
    10  H    0.155788
    11  H    0.145205
    12  C   -0.085766
    13  C    0.093747
    14  C   -0.357558
    15  H    0.125784
    16  H    0.162014
    17  H    0.164811
    18  C   -0.422985
    19  H    0.160310
    20  H    0.144686
    21  H    0.169623
    22  C   -0.457486
    23  H    0.168554
    24  H    0.150910
    25  H    0.158367
    26  C   -0.486366
    27  H    0.188466
    28  H    0.172873
    29  H    0.157816
 Sum of Mulliken charges =  -0.00000
 Mulliken charges with hydrogens summed into heavy atoms:
               1
     1  O   -0.359951
     2  O   -0.348254
     3  N    0.199640
     5  C    0.032999
     6  C    0.158271
     7  C    0.048867
     8  C    0.077783
     9  C   -0.017154
    12  C   -0.085766
    13  C    0.093747
    14  C    0.095051
    18  C    0.051634
    22  C    0.020344
    26  C    0.032789
 Electronic spatial extent (au):  <R**2>=          50674.3154
 Charge=             -0.0000 electrons
 Dipole moment (field-independent basis, Debye):
    X=              0.4281    Y=              8.6115    Z=              0.6059  Tot=              8.6433
 Quadrupole moment (field-independent basis, Debye-Ang):
   XX=           -103.8372   YY=            122.8306   ZZ=            -83.1796
   XY=             -4.6871   XZ=              1.9117   YZ=              8.7947
 Traceless Quadrupole moment (field-independent basis, Debye-Ang):
   XX=            -82.4418   YY=            144.2260   ZZ=            -61.7842
   XY=             -4.6871   XZ=              1.9117   YZ=              8.7947
 Octapole moment (field-independent basis, Debye-Ang**2):
  XXX=            514.4424  YYY=            922.4759  ZZZ=            -86.5421  XYY=            -64.2214
  XXY=          -1076.3329  XXZ=            -35.1470  XZZ=            130.6262  YZZ=           -933.7297
  YYZ=             96.4122  XYZ=             21.2462
 Hexadecapole moment (field-independent basis, Debye-Ang**3):
 XXXX=          -4520.4051 YYYY=          -4058.5912 ZZZZ=           -229.9524 XXXY=           5151.6436
 XXXZ=             46.5453 YYYX=            -36.2457 YYYZ=            762.9725 ZZZX=              4.9738
 ZZZY=           -996.1770 XXYY=         -11926.8171 XXZZ=           -650.5083 YYZZ=         -10760.8332
 XXYZ=           -389.3894 YYXZ=            231.3090 ZZXY=           1395.3329
 N-N= 8.981070532040D+02 E-N=-3.271596892635D+03  KE= 6.299047386248D+02
 No NMR shielding tensors so no spin-rotation constants.
 Leave Link  601 at Mon Mar  9 18:09:09 2026, MaxMem=  2147483648 cpu:               3.6 elap:               0.1
 (Enter /data/home/wyx/g16/l9999.exe)
 1\1\GINC-CN013\SP\RPBE1PBE\TZVP\C11H15N1O2\WYX\09-Mar-2026\0\\#p PBE1P
 BE/TZVP em=gd3bj SCRF=(Solvent=Water,NonEquilibrium=Read) Geom=Check G
 uess=Read NoSymm\\Title Card Required\\0,1\O,0,1.4122821611,9.83727414
 87,0.3115336699\O,0,-4.8774867351,9.7327856618,0.195336467\N,0,-2.1233
 034365,12.9218775758,0.2512185742\H,0,-2.4356792294,13.8842985524,0.21
 23101102\C,0,-2.6971876152,10.636005638,0.1857723283\C,0,-0.772008184,
 12.7443260687,0.3780959345\C,0,-3.0932698791,11.9915533235,0.162965720
 7\C,0,-3.6520503798,9.5454434418,0.1851478574\C,0,-1.2603613101,10.327
 9458854,0.219162525\H,0,-1.0511244986,9.5195418323,0.9372051078\H,0,-0
 .9663610119,9.8222839257,-0.7276374646\C,0,-0.2995681139,11.4266509131
 ,0.424364746\C,0,1.0734178798,10.9953030787,0.6156108823\C,0,-4.481930
 6555,12.5084351291,0.0340414391\H,0,-4.4788149474,13.5982391263,-0.037
 5298349\H,0,-4.9707352957,12.0992854751,-0.8512843389\H,0,-5.094368800
 8,12.2150965664,0.8883619036\C,0,-3.129054749,8.1282692255,0.207721164
 9\H,0,-3.9269192362,7.4624462331,-0.1191931143\H,0,-2.2540047675,7.975
 9829419,-0.4254075348\H,0,-2.8490325813,7.8455573825,1.2284742628\C,0,
 2.1036285306,11.9050179838,1.2351563942\H,0,2.6851723779,12.4158245512
 ,0.460306743\H,0,1.6770347052,12.6599871956,1.8934493666\H,0,2.7963085
 177,11.2831885612,1.8042815723\C,0,0.026943434,14.0010792626,0.3952873
 849\H,0,0.2742965469,14.3310466207,1.4099627016\H,0,0.9621969862,13.87
 89263541,-0.1497199308\H,0,-0.5271907426,14.812161795,-0.082994638\\Ve
 rsion=ES64L-G16RevA.03\HF=-632.9005954\RMSD=6.764e-09\Dipole=0.1684234
 ,3.3880052,0.2383688\Quadrupole=-61.2934214,107.2284773,-45.9350559,-3
 .484772,1.4213167,6.5386374\PG=C01 [X(C11H15N1O2)]\\@


 Age does not diminish the extreme disappointment of
 having a scoop of ice cream fall from the cone.
 -- Jim Fiebig
 Job cpu time:       0 days  0 hours 13 minutes 25.6 seconds.
 Elapsed time:       0 days  0 hours  0 minutes 26.1 seconds.
 File lengths (MBytes):  RWF=    337 Int=      0 D2E=      0 Chk=     67 Scr=      1
 Normal termination of Gaussian 16 at Mon Mar  9 18:09:10 2026.
