 Entering Gaussian System, Link 0=g16
 Input=DDL-S1-opt-freq.gjf
 Output=DDL-S1-opt-freq.log
 Initial command:
 /data/home/wyx/g16/l1.exe "/scr/tmp/wyx/13951/Gau-2974824.inp" -scrdir="/scr/tmp/wyx/13951/"
 Entering Link 1 = /data/home/wyx/g16/l1.exe PID=   2974825.
  
 Copyright (c) 1988,1990,1992,1993,1995,1998,2003,2009,2016,
            Gaussian, Inc.  All Rights Reserved.
  
 This is part of the Gaussian(R) 16 program.  It is based on
 the Gaussian(R) 09 system (copyright 2009, Gaussian, Inc.),
 the Gaussian(R) 03 system (copyright 2003, Gaussian, Inc.),
 the Gaussian(R) 98 system (copyright 1998, Gaussian, Inc.),
 the Gaussian(R) 94 system (copyright 1995, Gaussian, Inc.),
 the Gaussian 92(TM) system (copyright 1992, Gaussian, Inc.),
 the Gaussian 90(TM) system (copyright 1990, Gaussian, Inc.),
 the Gaussian 88(TM) system (copyright 1988, Gaussian, Inc.),
 the Gaussian 86(TM) system (copyright 1986, Carnegie Mellon
 University), and the Gaussian 82(TM) system (copyright 1983,
 Carnegie Mellon University). Gaussian is a federally registered
 trademark of Gaussian, Inc.
  
 This software contains proprietary and confidential information,
 including trade secrets, belonging to Gaussian, Inc.
  
 This software is provided under written license and may be
 used, copied, transmitted, or stored only in accord with that
 written license.
  
 The following legend is applicable only to US Government
 contracts under FAR:
  
                    RESTRICTED RIGHTS LEGEND
  
 Use, reproduction and disclosure by the US Government is
 subject to restrictions as set forth in subparagraphs (a)
 and (c) of the Commercial Computer Software - Restricted
 Rights clause in FAR 52.227-19.
  
 Gaussian, Inc.
 340 Quinnipiac St., Bldg. 40, Wallingford CT 06492
  
  
 ---------------------------------------------------------------
 Warning -- This program may not be used in any manner that
 competes with the business of Gaussian, Inc. or will provide
 assistance to any competitor of Gaussian, Inc.  The licensee
 of this program is prohibited from giving any competitor of
 Gaussian, Inc. access to this program.  By using this program,
 the user acknowledges that Gaussian, Inc. is engaged in the
 business of creating and licensing software in the field of
 computational chemistry and represents and warrants to the
 licensee that it is not a competitor of Gaussian, Inc. and that
 it will not use this program in any manner prohibited above.
 ---------------------------------------------------------------
  

 Cite this work as:
 Gaussian 16, Revision A.03,
 M. J. Frisch, G. W. Trucks, H. B. Schlegel, G. E. Scuseria, 
 M. A. Robb, J. R. Cheeseman, G. Scalmani, V. Barone, 
 G. A. Petersson, H. Nakatsuji, X. Li, M. Caricato, A. V. Marenich, 
 J. Bloino, B. G. Janesko, R. Gomperts, B. Mennucci, H. P. Hratchian, 
 J. V. Ortiz, A. F. Izmaylov, J. L. Sonnenberg, D. Williams-Young, 
 F. Ding, F. Lipparini, F. Egidi, J. Goings, B. Peng, A. Petrone, 
 T. Henderson, D. Ranasinghe, V. G. Zakrzewski, J. Gao, N. Rega, 
 G. Zheng, W. Liang, M. Hada, M. Ehara, K. Toyota, R. Fukuda, 
 J. Hasegawa, M. Ishida, T. Nakajima, Y. Honda, O. Kitao, H. Nakai, 
 T. Vreven, K. Throssell, J. A. Montgomery, Jr., J. E. Peralta, 
 F. Ogliaro, M. J. Bearpark, J. J. Heyd, E. N. Brothers, K. N. Kudin, 
 V. N. Staroverov, T. A. Keith, R. Kobayashi, J. Normand, 
 K. Raghavachari, A. P. Rendell, J. C. Burant, S. S. Iyengar, 
 J. Tomasi, M. Cossi, J. M. Millam, M. Klene, C. Adamo, R. Cammi, 
 J. W. Ochterski, R. L. Martin, K. Morokuma, O. Farkas, 
 J. B. Foresman, and D. J. Fox, Gaussian, Inc., Wallingford CT, 2016.
 
 ******************************************
 Gaussian 16:  ES64L-G16RevA.03 25-Dec-2016
                 9-Mar-2026 
 ******************************************
 %nprocshared=32
 Will use up to   32 processors via shared memory.
 %mem=16GB
 %oldchk=DDL-S0-TD.chk
 %chk=DDL-S1-opt-freq.chk
 Copying data from "DDL-S0-TD.chk" to current chk file "DDL-S1-opt-freq.chk"
 IOpt=  2 FromEx=T IUOpen= 4 IOptOp= 5 NList=   0 IFRang= 0 IUIn= 4 IUOut= 2.
 ----------------------------------------------------------------------
 #p PBE1PBE/TZVP em=gd3bj TD=(NStates=6,Root=1) SCRF=Solvent=Water Geom
 =Check Guess=Read Opt Freq NoSymm
 ----------------------------------------------------------------------
 1/18=20,19=15,26=3,29=2,38=1/1,3;
 2/9=110,12=2,15=1,40=1/2;
 3/5=19,7=101,11=9,14=-4,25=1,30=1,70=2201,71=1,72=1,74=-13,116=-2,124=41/1,2,3,8;
 4/5=1/1;
 5/5=2,38=6,53=1/2;
 8/6=1,10=1,107=1,108=6/1;
 9/8=1,15=2,41=6,42=1,70=2/14;
 10/5=4,28=1,31=1/2;
 6/7=2,8=2,9=2,10=2/1;
 7/12=6,13=5,14=1,30=1/1,2,3,16;
 1/18=20,19=15,26=3/3(2);
 2/9=110,15=1/2;
 99//99;
 2/9=110,15=1/2;
 3/5=19,7=101,11=9,14=-2,25=1,30=1,70=2205,71=1,72=1,74=-13,124=41/1,2,3,8;
 4/5=5,16=3,69=1/1;
 5/5=2,38=5,53=1/2;
 8/6=1,10=1,107=1,108=6/1;
 9/8=1,15=2,41=6,42=1,49=4,70=2/14;
 10/5=4,28=1,31=1/2;
 7/12=6,13=5,14=1,30=1/1,2,3,16;
 1/18=20,19=15,26=3/3(-8);
 2/9=110,15=1/2;
 6/7=2,8=2,9=2,10=2/1;
 99//99;
 Leave Link    1 at Mon Mar  9 16:02:21 2026, MaxMem=  2147483648 cpu:               1.8 elap:               0.1
 (Enter /data/home/wyx/g16/l101.exe)
 -------------------
 Title Card Required
 -------------------
 Structure from the checkpoint file:  "DDL-S1-opt-freq.chk"
 Charge =  0 Multiplicity = 1
 Redundant internal coordinates found in file.  (old form).
 O,0,1.3644070797,9.8115008122,0.6284601384
 O,0,-4.8637797045,9.7750484722,0.5014790221
 N,0,-2.0719648649,12.9022269166,-0.0137995473
 H,0,-2.3775184668,13.8602450757,-0.0805864101
 C,0,-2.6806100795,10.6367172334,0.1570472511
 C,0,-0.7430185617,12.6899049036,0.2725552744
 C,0,-3.0504623559,11.9419540053,0.0782681594
 C,0,-3.6685376385,9.5714471078,0.299884465
 C,0,-1.2236967019,10.2805212789,-0.0077530695
 H,0,-0.9659970367,9.4165774211,0.6051335545
 H,0,-1.0189558656,9.965099165,-1.0427004414
 C,0,-0.2964076043,11.4103539521,0.3722763126
 C,0,1.0502212452,10.9944093593,0.753606099
 C,0,-4.438640054,12.48682028,0.0873447278
 H,0,-4.4440432103,13.5240817971,-0.2533991572
 H,0,-5.0980697073,11.8918837685,-0.5407670448
 H,0,-4.854848073,12.4527314067,1.0967594793
 C,0,-3.1665410735,8.1538117688,0.1893832097
 H,0,-4.0167493261,7.4747075873,0.1569812269
 H,0,-2.5450369501,8.0143509255,-0.6985278088
 H,0,-2.5455916359,7.9034722961,1.0550127586
 C,0,2.0686783049,11.9441988173,1.3316134323
 H,0,2.571663286,12.4952348986,0.531956495
 H,0,1.6366586121,12.668426471,2.0206426045
 H,0,2.8206250393,11.3507438401,1.8503447964
 C,0,0.018499962,13.9656201331,0.439752079
 H,0,0.056668807,14.2611099178,1.4917202867
 H,0,1.0348814074,13.8949255556,0.0658899735
 H,0,-0.4810058628,14.7677092833,-0.1065778669
 Recover connectivity data from disk.
 ITRead=  0  0  0  0  0  0  0  0  0  0  0  0  0  0  0  0  0  0  0  0
 ITRead=  0  0  0  0  0  0  0  0  0
 MicOpt= -1 -1 -1 -1 -1 -1 -1 -1 -1 -1 -1 -1 -1 -1 -1 -1 -1 -1 -1 -1
 MicOpt= -1 -1 -1 -1 -1 -1 -1 -1 -1
 NAtoms=     29 NQM=       29 NQMF=       0 NMMI=      0 NMMIF=      0
                NMic=       0 NMicF=      0.
                    Isotopes and Nuclear Properties:
 (Nuclear quadrupole moments (NQMom) in fm**2, nuclear magnetic moments (NMagM)
  in nuclear magnetons)

  Atom         1           2           3           4           5           6           7           8           9          10
 IAtWgt=          16          16          14           1          12          12          12          12          12           1
 AtmWgt=  15.9949146  15.9949146  14.0030740   1.0078250  12.0000000  12.0000000  12.0000000  12.0000000  12.0000000   1.0078250
 NucSpn=           0           0           2           1           0           0           0           0           0           1
 AtZEff=   5.6000000   5.6000000   4.5500000   1.0000000   3.6000000   3.6000000   3.6000000   3.6000000   3.6000000   1.0000000
 NQMom=    0.0000000   0.0000000   2.0440000   0.0000000   0.0000000   0.0000000   0.0000000   0.0000000   0.0000000   0.0000000
 NMagM=    0.0000000   0.0000000   0.4037610   2.7928460   0.0000000   0.0000000   0.0000000   0.0000000   0.0000000   2.7928460
 AtZNuc=   8.0000000   8.0000000   7.0000000   1.0000000   6.0000000   6.0000000   6.0000000   6.0000000   6.0000000   1.0000000

  Atom        11          12          13          14          15          16          17          18          19          20
 IAtWgt=           1          12          12          12           1           1           1          12           1           1
 AtmWgt=   1.0078250  12.0000000  12.0000000  12.0000000   1.0078250   1.0078250   1.0078250  12.0000000   1.0078250   1.0078250
 NucSpn=           1           0           0           0           1           1           1           0           1           1
 AtZEff=   1.0000000   3.6000000   3.6000000   3.6000000   1.0000000   1.0000000   1.0000000   3.6000000   1.0000000   1.0000000
 NQMom=    0.0000000   0.0000000   0.0000000   0.0000000   0.0000000   0.0000000   0.0000000   0.0000000   0.0000000   0.0000000
 NMagM=    2.7928460   0.0000000   0.0000000   0.0000000   2.7928460   2.7928460   2.7928460   0.0000000   2.7928460   2.7928460
 AtZNuc=   1.0000000   6.0000000   6.0000000   6.0000000   1.0000000   1.0000000   1.0000000   6.0000000   1.0000000   1.0000000

  Atom        21          22          23          24          25          26          27          28          29
 IAtWgt=           1          12           1           1           1          12           1           1           1
 AtmWgt=   1.0078250  12.0000000   1.0078250   1.0078250   1.0078250  12.0000000   1.0078250   1.0078250   1.0078250
 NucSpn=           1           0           1           1           1           0           1           1           1
 AtZEff=   1.0000000   3.6000000   1.0000000   1.0000000   1.0000000   3.6000000   1.0000000   1.0000000   1.0000000
 NQMom=    0.0000000   0.0000000   0.0000000   0.0000000   0.0000000   0.0000000   0.0000000   0.0000000   0.0000000
 NMagM=    2.7928460   0.0000000   2.7928460   2.7928460   2.7928460   0.0000000   2.7928460   2.7928460   2.7928460
 AtZNuc=   1.0000000   6.0000000   1.0000000   1.0000000   1.0000000   6.0000000   1.0000000   1.0000000   1.0000000
 Leave Link  101 at Mon Mar  9 16:02:25 2026, MaxMem=  2147483648 cpu:               6.6 elap:               0.2
 (Enter /data/home/wyx/g16/l103.exe)

 GradGradGradGradGradGradGradGradGradGradGradGradGradGradGradGradGradGrad
 Berny optimization.
 Initialization pass.
                           ----------------------------
                           !    Initial Parameters    !
                           ! (Angstroms and Degrees)  !
 --------------------------                            --------------------------
 ! Name  Definition              Value          Derivative Info.                !
 --------------------------------------------------------------------------------
 ! R1    R(1,13)                 1.2303         estimate D2E/DX2                !
 ! R2    R(2,8)                  1.2291         estimate D2E/DX2                !
 ! R3    R(3,4)                  1.0078         estimate D2E/DX2                !
 ! R4    R(3,6)                  1.3759         estimate D2E/DX2                !
 ! R5    R(3,7)                  1.3741         estimate D2E/DX2                !
 ! R6    R(5,7)                  1.3589         estimate D2E/DX2                !
 ! R7    R(5,8)                  1.4599         estimate D2E/DX2                !
 ! R8    R(5,9)                  1.5089         estimate D2E/DX2                !
 ! R9    R(6,12)                 1.3589         estimate D2E/DX2                !
 ! R10   R(6,26)                 1.4951         estimate D2E/DX2                !
 ! R11   R(7,14)                 1.4913         estimate D2E/DX2                !
 ! R12   R(8,18)                 1.5079         estimate D2E/DX2                !
 ! R13   R(9,10)                 1.0902         estimate D2E/DX2                !
 ! R14   R(9,11)                 1.1011         estimate D2E/DX2                !
 ! R15   R(9,12)                 1.5102         estimate D2E/DX2                !
 ! R16   R(12,13)                1.4601         estimate D2E/DX2                !
 ! R17   R(13,22)                1.5078         estimate D2E/DX2                !
 ! R18   R(14,15)                1.0918         estimate D2E/DX2                !
 ! R19   R(14,16)                1.0878         estimate D2E/DX2                !
 ! R20   R(14,17)                1.0924         estimate D2E/DX2                !
 ! R21   R(18,19)                1.0886         estimate D2E/DX2                !
 ! R22   R(18,20)                1.0928         estimate D2E/DX2                !
 ! R23   R(18,21)                1.0943         estimate D2E/DX2                !
 ! R24   R(22,23)                1.0937         estimate D2E/DX2                !
 ! R25   R(22,24)                1.089          estimate D2E/DX2                !
 ! R26   R(22,25)                1.0894         estimate D2E/DX2                !
 ! R27   R(26,27)                1.0933         estimate D2E/DX2                !
 ! R28   R(26,28)                1.0853         estimate D2E/DX2                !
 ! R29   R(26,29)                1.0915         estimate D2E/DX2                !
 ! A1    A(4,3,6)              116.9573         estimate D2E/DX2                !
 ! A2    A(4,3,7)              116.9284         estimate D2E/DX2                !
 ! A3    A(6,3,7)              124.4729         estimate D2E/DX2                !
 ! A4    A(7,5,8)              121.4915         estimate D2E/DX2                !
 ! A5    A(7,5,9)              118.8955         estimate D2E/DX2                !
 ! A6    A(8,5,9)              119.4626         estimate D2E/DX2                !
 ! A7    A(3,6,12)             118.555          estimate D2E/DX2                !
 ! A8    A(3,6,26)             112.5542         estimate D2E/DX2                !
 ! A9    A(12,6,26)            128.8901         estimate D2E/DX2                !
 ! A10   A(3,7,5)              118.7716         estimate D2E/DX2                !
 ! A11   A(3,7,14)             114.0758         estimate D2E/DX2                !
 ! A12   A(5,7,14)             127.1515         estimate D2E/DX2                !
 ! A13   A(2,8,5)              123.5905         estimate D2E/DX2                !
 ! A14   A(2,8,18)             119.4378         estimate D2E/DX2                !
 ! A15   A(5,8,18)             116.9717         estimate D2E/DX2                !
 ! A16   A(5,9,10)             110.728          estimate D2E/DX2                !
 ! A17   A(5,9,11)             110.4758         estimate D2E/DX2                !
 ! A18   A(5,9,12)             112.8783         estimate D2E/DX2                !
 ! A19   A(10,9,11)            104.9182         estimate D2E/DX2                !
 ! A20   A(10,9,12)            107.8344         estimate D2E/DX2                !
 ! A21   A(11,9,12)            109.6723         estimate D2E/DX2                !
 ! A22   A(6,12,9)             118.9578         estimate D2E/DX2                !
 ! A23   A(6,12,13)            126.194          estimate D2E/DX2                !
 ! A24   A(9,12,13)            114.7647         estimate D2E/DX2                !
 ! A25   A(1,13,12)            118.8728         estimate D2E/DX2                !
 ! A26   A(1,13,22)            118.1741         estimate D2E/DX2                !
 ! A27   A(12,13,22)           122.9321         estimate D2E/DX2                !
 ! A28   A(7,14,15)            110.476          estimate D2E/DX2                !
 ! A29   A(7,14,16)            111.1582         estimate D2E/DX2                !
 ! A30   A(7,14,17)            110.419          estimate D2E/DX2                !
 ! A31   A(15,14,16)           109.6568         estimate D2E/DX2                !
 ! A32   A(15,14,17)           108.4301         estimate D2E/DX2                !
 ! A33   A(16,14,17)           106.5899         estimate D2E/DX2                !
 ! A34   A(8,18,19)            109.1868         estimate D2E/DX2                !
 ! A35   A(8,18,20)            111.6454         estimate D2E/DX2                !
 ! A36   A(8,18,21)            110.2423         estimate D2E/DX2                !
 ! A37   A(19,18,20)           109.901          estimate D2E/DX2                !
 ! A38   A(19,18,21)           108.9047         estimate D2E/DX2                !
 ! A39   A(20,18,21)           106.9068         estimate D2E/DX2                !
 ! A40   A(13,22,23)           110.3492         estimate D2E/DX2                !
 ! A41   A(13,22,24)           113.173          estimate D2E/DX2                !
 ! A42   A(13,22,25)           107.7958         estimate D2E/DX2                !
 ! A43   A(23,22,24)           108.0595         estimate D2E/DX2                !
 ! A44   A(23,22,25)           107.7699         estimate D2E/DX2                !
 ! A45   A(24,22,25)           109.5633         estimate D2E/DX2                !
 ! A46   A(6,26,27)            110.8538         estimate D2E/DX2                !
 ! A47   A(6,26,28)            112.514          estimate D2E/DX2                !
 ! A48   A(6,26,29)            109.7528         estimate D2E/DX2                !
 ! A49   A(27,26,28)           108.4431         estimate D2E/DX2                !
 ! A50   A(27,26,29)           107.3956         estimate D2E/DX2                !
 ! A51   A(28,26,29)           107.6999         estimate D2E/DX2                !
 ! D1    D(4,3,6,12)           179.8954         estimate D2E/DX2                !
 ! D2    D(4,3,6,26)             0.1852         estimate D2E/DX2                !
 ! D3    D(7,3,6,12)            14.9899         estimate D2E/DX2                !
 ! D4    D(7,3,6,26)          -164.7204         estimate D2E/DX2                !
 ! D5    D(4,3,7,5)            179.3707         estimate D2E/DX2                !
 ! D6    D(4,3,7,14)            -0.9781         estimate D2E/DX2                !
 ! D7    D(6,3,7,5)            -15.7197         estimate D2E/DX2                !
 ! D8    D(6,3,7,14)           163.9315         estimate D2E/DX2                !
 ! D9    D(8,5,7,3)            178.0091         estimate D2E/DX2                !
 ! D10   D(8,5,7,14)            -1.5913         estimate D2E/DX2                !
 ! D11   D(9,5,7,3)             -6.4727         estimate D2E/DX2                !
 ! D12   D(9,5,7,14)           173.9269         estimate D2E/DX2                !
 ! D13   D(7,5,8,2)             -8.0802         estimate D2E/DX2                !
 ! D14   D(7,5,8,18)           171.9139         estimate D2E/DX2                !
 ! D15   D(9,5,8,2)            176.4264         estimate D2E/DX2                !
 ! D16   D(9,5,8,18)            -3.5795         estimate D2E/DX2                !
 ! D17   D(7,5,9,10)           147.0474         estimate D2E/DX2                !
 ! D18   D(7,5,9,11)           -97.1593         estimate D2E/DX2                !
 ! D19   D(7,5,9,12)            26.0427         estimate D2E/DX2                !
 ! D20   D(8,5,9,10)           -37.3418         estimate D2E/DX2                !
 ! D21   D(8,5,9,11)            78.4516         estimate D2E/DX2                !
 ! D22   D(8,5,9,12)          -158.3465         estimate D2E/DX2                !
 ! D23   D(3,6,12,9)             7.8203         estimate D2E/DX2                !
 ! D24   D(3,6,12,13)         -175.6897         estimate D2E/DX2                !
 ! D25   D(26,6,12,9)         -172.5235         estimate D2E/DX2                !
 ! D26   D(26,6,12,13)           3.9666         estimate D2E/DX2                !
 ! D27   D(3,6,26,27)           93.7015         estimate D2E/DX2                !
 ! D28   D(3,6,26,28)         -144.6729         estimate D2E/DX2                !
 ! D29   D(3,6,26,29)          -24.7698         estimate D2E/DX2                !
 ! D30   D(12,6,26,27)         -85.9716         estimate D2E/DX2                !
 ! D31   D(12,6,26,28)          35.6541         estimate D2E/DX2                !
 ! D32   D(12,6,26,29)         155.5571         estimate D2E/DX2                !
 ! D33   D(3,7,14,15)           15.5455         estimate D2E/DX2                !
 ! D34   D(3,7,14,16)          137.5205         estimate D2E/DX2                !
 ! D35   D(3,7,14,17)         -104.3953         estimate D2E/DX2                !
 ! D36   D(5,7,14,15)         -164.8381         estimate D2E/DX2                !
 ! D37   D(5,7,14,16)          -42.8631         estimate D2E/DX2                !
 ! D38   D(5,7,14,17)           75.2211         estimate D2E/DX2                !
 ! D39   D(2,8,18,19)            8.8204         estimate D2E/DX2                !
 ! D40   D(2,8,18,20)          130.546          estimate D2E/DX2                !
 ! D41   D(2,8,18,21)         -110.7805         estimate D2E/DX2                !
 ! D42   D(5,8,18,19)         -171.1739         estimate D2E/DX2                !
 ! D43   D(5,8,18,20)          -49.4483         estimate D2E/DX2                !
 ! D44   D(5,8,18,21)           69.2252         estimate D2E/DX2                !
 ! D45   D(5,9,12,6)           -26.755          estimate D2E/DX2                !
 ! D46   D(5,9,12,13)          156.3641         estimate D2E/DX2                !
 ! D47   D(10,9,12,6)         -149.3912         estimate D2E/DX2                !
 ! D48   D(10,9,12,13)          33.7279         estimate D2E/DX2                !
 ! D49   D(11,9,12,6)           96.8919         estimate D2E/DX2                !
 ! D50   D(11,9,12,13)         -79.9891         estimate D2E/DX2                !
 ! D51   D(6,12,13,1)         -170.3207         estimate D2E/DX2                !
 ! D52   D(6,12,13,22)          11.3754         estimate D2E/DX2                !
 ! D53   D(9,12,13,1)            6.2973         estimate D2E/DX2                !
 ! D54   D(9,12,13,22)        -172.0066         estimate D2E/DX2                !
 ! D55   D(1,13,22,23)          98.9392         estimate D2E/DX2                !
 ! D56   D(1,13,22,24)        -139.835          estimate D2E/DX2                !
 ! D57   D(1,13,22,25)         -18.5072         estimate D2E/DX2                !
 ! D58   D(12,13,22,23)        -82.7456         estimate D2E/DX2                !
 ! D59   D(12,13,22,24)         38.4802         estimate D2E/DX2                !
 ! D60   D(12,13,22,25)        159.808          estimate D2E/DX2                !
 --------------------------------------------------------------------------------
 Trust Radius=3.00D-01 FncErr=1.00D-07 GrdErr=1.00D-06 EigMax=2.50D+02 EigMin=1.00D-04
 Number of steps in this run=    150 maximum allowed number of steps=    174.
 GradGradGradGradGradGradGradGradGradGradGradGradGradGradGradGradGradGrad

 Leave Link  103 at Mon Mar  9 16:02:25 2026, MaxMem=  2147483648 cpu:               0.2 elap:               0.0
 (Enter /data/home/wyx/g16/l202.exe)
                          Input orientation:                          
 ---------------------------------------------------------------------
 Center     Atomic      Atomic             Coordinates (Angstroms)
 Number     Number       Type             X           Y           Z
 ---------------------------------------------------------------------
      1          8           0        1.364407    9.811501    0.628460
      2          8           0       -4.863780    9.775048    0.501479
      3          7           0       -2.071965   12.902227   -0.013800
      4          1           0       -2.377518   13.860245   -0.080586
      5          6           0       -2.680610   10.636717    0.157047
      6          6           0       -0.743019   12.689905    0.272555
      7          6           0       -3.050462   11.941954    0.078268
      8          6           0       -3.668538    9.571447    0.299884
      9          6           0       -1.223697   10.280521   -0.007753
     10          1           0       -0.965997    9.416577    0.605134
     11          1           0       -1.018956    9.965099   -1.042700
     12          6           0       -0.296408   11.410354    0.372276
     13          6           0        1.050221   10.994409    0.753606
     14          6           0       -4.438640   12.486820    0.087345
     15          1           0       -4.444043   13.524082   -0.253399
     16          1           0       -5.098070   11.891884   -0.540767
     17          1           0       -4.854848   12.452731    1.096759
     18          6           0       -3.166541    8.153812    0.189383
     19          1           0       -4.016749    7.474708    0.156981
     20          1           0       -2.545037    8.014351   -0.698528
     21          1           0       -2.545592    7.903472    1.055013
     22          6           0        2.068678   11.944199    1.331613
     23          1           0        2.571663   12.495235    0.531956
     24          1           0        1.636659   12.668426    2.020643
     25          1           0        2.820625   11.350744    1.850345
     26          6           0        0.018500   13.965620    0.439752
     27          1           0        0.056669   14.261110    1.491720
     28          1           0        1.034881   13.894926    0.065890
     29          1           0       -0.481006   14.767709   -0.106578
 ---------------------------------------------------------------------
                    Distance matrix (angstroms):
                    1          2          3          4          5
     1  O    0.000000
     2  O    6.229588   0.000000
     3  N    4.666234   4.223623   0.000000
     4  H    5.558515   4.817585   1.007781   0.000000
     5  C    4.155163   2.372201   2.352057   3.246454   0.000000
     6  C    3.585125   5.052669   1.375928   2.041077   2.825453
     7  C    4.932810   2.857045   1.374066   2.039100   1.358911
     8  C    5.049368   1.229104   3.706958   4.495028   1.459864
     9  C    2.706110   3.710125   2.755528   3.761786   1.508851
    10  H    2.363745   3.915604   3.708908   4.712620   2.151609
    11  H    2.914925   4.147684   3.285450   4.235979   2.156748
    12  C    2.319540   4.853020   2.351030   3.246240   2.515802
    13  C    1.230304   6.043659   3.738546   4.545139   3.795119
    14  C    6.412916   2.775961   2.404983   2.482482   2.553118
    15  H    6.949750   3.847242   2.463913   2.100808   3.408084
    16  H    6.889027   2.371110   3.233543   3.389338   2.811850
    17  H    6.773074   2.743068   3.029823   3.082921   2.984674
    18  C    4.844607   2.367790   4.877174   5.767046   2.530216
    19  H    5.885553   2.475421   5.767956   6.596863   3.432721
    20  H    4.502710   3.149070   4.958224   5.880850   2.761737
    21  H    4.371568   3.030378   5.133637   6.066381   2.880139
    22  C    2.353470   7.311177   4.457901   5.043234   5.064075
    23  H    2.944352   7.917459   4.693269   5.170383   5.583997
    24  H    3.189721   7.275658   4.236450   4.684999   5.122464
    25  H    2.445985   7.959418   5.460730   6.086607   5.800058
    26  C    4.370788   6.434389   2.388840   2.454131   4.294964
    27  H    4.717459   6.731726   2.940108   2.925425   4.733949
    28  H    4.135146   7.208143   3.262560   3.415718   4.942581
    29  H    5.339460   6.671214   2.453525   2.102600   4.687521
                    6          7          8          9         10
     6  C    0.000000
     7  C    2.433408   0.000000
     8  C    4.276001   2.459763   0.000000
     9  C    2.472803   2.470796   2.564113   0.000000
    10  H    3.297727   3.316641   2.724131   1.090155   0.000000
    11  H    3.038191   3.048203   2.996294   1.101148   1.737538
    12  C    1.358917   2.820258   3.841625   1.510235   2.116062
    13  C    2.514324   4.262573   4.949482   2.502001   2.564514
    14  C    3.705828   1.491308   3.022852   3.900341   4.664091
    15  H    3.830152   2.134291   4.065815   4.577298   5.450273
    16  H    4.501644   2.139721   2.852137   4.229818   4.951187
    17  H    4.200322   2.134016   3.216231   4.373066   4.958134
    18  C    5.143590   3.791549   1.507946   2.887283   2.570957
    19  H    6.158649   4.571236   2.130256   3.962432   3.644007
    20  H    5.104026   4.035459   2.164169   2.712681   2.481761
    21  H    5.174113   4.185482   2.147875   2.920144   2.233159
    22  C    3.095694   5.270340   6.293653   3.924469   4.015706
    23  H    3.330511   5.667473   6.895107   4.427302   4.690259
    24  H    2.952818   5.125396   6.379451   4.242418   4.399091
    25  H    4.120962   6.161124   6.905002   4.577602   4.430582
    26  C    1.495097   3.693836   5.737819   3.914494   4.657293
    27  H    2.143490   4.126814   6.106601   4.442166   5.030047
    28  H    2.157710   4.528166   6.392916   4.262689   4.934562
    29  H    2.128301   3.823764   6.109559   4.549309   5.419996
                   11         12         13         14         15
    11  H    0.000000
    12  C    2.147789   0.000000
    13  C    2.927062   1.460079   0.000000
    14  C    4.396626   4.289295   5.727023   0.000000
    15  H    5.002057   4.697041   6.131904   1.091809   0.000000
    16  H    4.539119   4.911362   6.346837   1.087806   1.781685
    17  H    5.047739   4.731892   6.092151   1.092387   1.771858
    18  C    3.067721   4.344673   5.115508   4.517036   5.537858
    19  H    4.077751   5.420019   6.198262   5.030320   6.078316
    20  H    2.500559   4.211388   4.890330   4.919991   5.844784
    21  H    3.313808   4.221750   4.751274   5.052434   6.075139
    22  C    4.368946   2.607480   1.507796   6.647393   6.886497
    23  H    4.666227   3.070553   2.148579   7.024393   7.134105
    24  H    4.872816   2.834890   2.179822   6.378078   6.548156
    25  H    5.003209   3.450237   2.112851   7.556174   7.869215
    26  C    4.390689   2.575482   3.160862   4.709261   4.537588
    27  H    5.102545   3.082958   3.493321   5.032711   4.883140
    28  H    4.570641   2.835366   2.980970   5.651784   5.500735
    29  H    4.922477   3.396353   4.162015   4.571972   4.156180
                   16         17         18         19         20
    16  H    0.000000
    17  H    1.747913   0.000000
    18  C    4.270492   4.706848   0.000000
    19  H    4.600821   5.134814   1.088617   0.000000
    20  H    4.645226   5.315779   1.092750   1.785791   0.000000
    21  H    4.996907   5.101977   1.094332   1.776121   1.757043
    22  C    7.407484   6.946149   6.563478   7.641240   6.391521
    23  H    7.767855   7.448079   7.203631   8.291772   6.911804
    24  H    7.247096   6.560468   6.841490   7.899935   6.822088
    25  H    8.289510   7.790710   6.987512   8.039952   6.813120
    26  C    5.607235   5.144902   6.632065   7.648212   6.579134
    27  H    6.026240   5.248736   7.027393   8.026800   7.112528
    28  H    6.480224   6.150734   7.115307   8.169851   6.926854
    29  H    5.456755   5.092901   7.144462   8.109181   7.086500
                   21         22         23         24         25
    21  H    0.000000
    22  C    6.139663   0.000000
    23  H    6.895228   1.093657   0.000000
    24  H    6.413146   1.088994   1.766470   0.000000
    25  H    6.427481   1.089355   1.763516   1.779625   0.000000
    26  C    6.610805   3.014099   2.947741   2.607751   4.084024
    27  H    6.883461   3.072766   3.219419   2.304944   4.029677
    28  H    7.049515   2.544824   2.130270   2.384847   3.584134
    29  H    7.261512   4.067124   3.858841   3.662862   5.138674
                   26         27         28         29
    26  C    0.000000
    27  H    1.093347   0.000000
    28  H    1.085266   1.767479   0.000000
    29  H    1.091480   1.760765   1.757672   0.000000
 Symmetry turned off by external request.
 Stoichiometry    C11H15NO2
 Framework group  C1[X(C11H15NO2)]
 Deg. of freedom    81
 Full point group                 C1      NOp   1
 Rotational constants (GHZ):           1.0757038           0.4933401           0.3484176
 Leave Link  202 at Mon Mar  9 16:02:25 2026, MaxMem=  2147483648 cpu:               0.1 elap:               0.0
 (Enter /data/home/wyx/g16/l301.exe)
 Standard basis: TZVP (5D, 7F)
 Ernie: Thresh=  0.10000D-02 Tol=  0.10000D-05 Strict=F.
   356 basis functions,   610 primitive gaussians,   370 cartesian basis functions
    52 alpha electrons       52 beta electrons
       nuclear repulsion energy       901.2163189977 Hartrees.
 IExCor= 1009 DFT=T Ex+Corr=PBE1PBE ExCW=0 ScaHFX=  0.250000
 ScaDFX=  0.750000  0.750000  1.000000  1.000000 ScalE2=  1.000000  1.000000
 IRadAn=      5 IRanWt=     -1 IRanGd=            0 ICorTp=0 IEmpDi=141
 NAtoms=   29 NActive=   29 NUniq=   29 SFac= 1.00D+00 NAtFMM=   60 NAOKFM=F Big=F
 Integral buffers will be    131072 words long.
 Regular integral format.
 Two-electron integral symmetry is turned off.
 R6Disp:  Grimme-D3(BJ) Dispersion energy=       -0.0290282675 Hartrees.
 Nuclear repulsion after empirical dispersion term =      901.1872907303 Hartrees.
 ------------------------------------------------------------------------------
 Polarizable Continuum Model (PCM)
 =================================
 Model                : PCM.
 Atomic radii         : UFF (Universal Force Field).
 Polarization charges : Total charges.
 Charge compensation  : None.
 Solution method      : On-the-fly selection.
 Cavity type          : Scaled VdW (van der Waals Surface) (Alpha=1.100).
 Cavity algorithm     : GePol (No added spheres)
                        Default sphere list used, NSphG=   29.
                        Lebedev-Laikov grids with approx.  5.0 points / Ang**2.
                        Smoothing algorithm: York/Karplus (Gamma=1.0000).
                        Polarization charges: spherical gaussians, with
                                              point-specific exponents (IZeta= 3).
                        Self-potential: point-specific (ISelfS= 7).
                        Self-field    : sphere-specific E.n sum rule (ISelfD= 2).
 1st derivatives      : Analytical E(r).r(x)/FMM algorithm (CHGder, D1EAlg=3).
                        Cavity 1st derivative terms included.
 Solvent              : Water, Eps=  78.355300 Eps(inf)=   1.777849
 ------------------------------------------------------------------------------
 GePol: Number of generator spheres                  =      29
 GePol: Total number of spheres                      =      29
 GePol: Number of exposed spheres                    =      29 (100.00%)
 GePol: Number of points                             =    2075
 GePol: Average weight of points                     =       0.13
 GePol: Minimum weight of points                     =   0.21D-09
 GePol: Maximum weight of points                     =    0.20577
 GePol: Number of points with low weight             =     109
 GePol: Fraction of low-weight points (<1% of avg)   =       5.25%
 GePol: Cavity surface area                          =    269.488 Ang**2
 GePol: Cavity volume                                =    285.976 Ang**3
 Leave Link  301 at Mon Mar  9 16:02:25 2026, MaxMem=  2147483648 cpu:               1.2 elap:               0.0
 (Enter /data/home/wyx/g16/l302.exe)
 NPDir=0 NMtPBC=     1 NCelOv=     1 NCel=       1 NClECP=     1 NCelD=      1
         NCelK=      1 NCelE2=     1 NClLst=     1 CellRange=     0.0.
 One-electron integrals computed using PRISM.
 NBasis=   356 RedAO= T EigKep=  4.78D-05  NBF=   356
 NBsUse=   356 1.00D-06 EigRej= -1.00D+00 NBFU=   356
 Precomputing XC quadrature grid using
 IXCGrd= 4 IRadAn=           5 IRanWt=          -1 IRanGd=           0 AccXCQ= 0.00D+00.
 Generated NRdTot=       0 NPtTot=           0 NUsed=           0 NTot=          32
 NSgBfM=   366   366   366   366   366 MxSgAt=    29 MxSgA2=    29.
 Leave Link  302 at Mon Mar  9 16:02:26 2026, MaxMem=  2147483648 cpu:               6.3 elap:               0.2
 (Enter /data/home/wyx/g16/l303.exe)
 DipDrv:  MaxL=1.
 Leave Link  303 at Mon Mar  9 16:02:26 2026, MaxMem=  2147483648 cpu:               1.1 elap:               0.1
 (Enter /data/home/wyx/g16/l308.exe)
 Leave Link  308 at Mon Mar  9 16:02:26 2026, MaxMem=  2147483648 cpu:               1.3 elap:               0.1
 (Enter /data/home/wyx/g16/l401.exe)
 Initial guess from the checkpoint file:  "DDL-S1-opt-freq.chk"
 B after Tr=    -2.898352   21.175905    0.707533
         Rot=    0.983405    0.025107    0.056958   -0.170414 Ang=  20.91 deg.
 Guess basis will be translated and rotated to current coordinates.
 JPrj=2 DoOrth=T DoCkMO=T.
 Leave Link  401 at Mon Mar  9 16:02:26 2026, MaxMem=  2147483648 cpu:               4.5 elap:               0.2
 (Enter /data/home/wyx/g16/l502.exe)
 Two-electron integral symmetry not used.
 Closed shell SCF:
 Using DIIS extrapolation, IDIIS=  1040.
 NGot=  2147483648 LenX=  2147195087 LenY=  2147057746
 Requested convergence on RMS density matrix=1.00D-08 within 128 cycles.
 Requested convergence on MAX density matrix=1.00D-06.
 Requested convergence on             energy=1.00D-06.
 No special actions if energy rises.
 Fock matrices will be formed incrementally for  20 cycles.

 Cycle   1  Pass 1  IDiag  1:
 FoFJK:  IHMeth= 1 ICntrl=       0 DoSepK=F KAlg= 0 I1Cent=           0 FoldK=F
 IRaf= 870000000 NMat=       1 IRICut=       1 DoRegI=T DoRafI=F ISym2E= 0 IDoP0=0 IntGTp=1.
 FoFCou: FMM=F IPFlag=           0 FMFlag=      100000 FMFlg1=           0
         NFxFlg=           0 DoJE=F BraDBF=F KetDBF=F FulRan=T
         wScrn=  0.000000 ICntrl=         0 IOpCl=  0 I1Cent=           0 NGrid=           0
         NMat0=    1 NMatS0=      1 NMatT0=    0 NMatD0=    1 NMtDS0=    0 NMtDT0=    0
 Symmetry not used in FoFCou.
 Inv3:  Mode=1 IEnd=    12916875.
 Iteration    1 A*A^-1 deviation from unit magnitude is 3.77D-15 for    922.
 Iteration    1 A*A^-1 deviation from orthogonality  is 2.08D-15 for   1769    201.
 Iteration    1 A^-1*A deviation from unit magnitude is 3.77D-15 for    922.
 Iteration    1 A^-1*A deviation from orthogonality  is 2.62D-15 for   1688    476.
 E= -632.914800599033    
 DIIS: error= 4.74D-06 at cycle   1 NSaved=   1.
 NSaved= 1 IEnMin= 1 EnMin= -632.914800599033     IErMin= 1 ErrMin= 4.74D-06
 ErrMax= 4.74D-06  0.00D+00 EMaxC= 1.00D-01 BMatC= 1.74D-08 BMatP= 1.74D-08
 IDIUse=1 WtCom= 1.00D+00 WtEn= 0.00D+00
 Coeff-Com:  0.100D+01
 Coeff:      0.100D+01
 Gap=     0.155 Goal=   None    Shift=    0.000
 RMSDP=6.67D-06 MaxDP=2.14D-04              OVMax= 9.19D-05

 Cycle   2  Pass 1  IDiag  1:
 RMSU=  6.64D-06    CP:  1.00D+00
 E= -632.914800628276     Delta-E=       -0.000000029243 Rises=F Damp=F
 DIIS: error= 3.91D-06 at cycle   2 NSaved=   2.
 NSaved= 2 IEnMin= 2 EnMin= -632.914800628276     IErMin= 2 ErrMin= 3.91D-06
 ErrMax= 3.91D-06  0.00D+00 EMaxC= 1.00D-01 BMatC= 9.53D-09 BMatP= 1.74D-08
 IDIUse=1 WtCom= 1.00D+00 WtEn= 0.00D+00
 Coeff-Com:  0.393D+00 0.607D+00
 Coeff:      0.393D+00 0.607D+00
 Gap=     0.155 Goal=   None    Shift=    0.000
 RMSDP=1.03D-06 MaxDP=4.22D-05 DE=-2.92D-08 OVMax= 5.35D-05

 Cycle   3  Pass 1  IDiag  1:
 RMSU=  1.03D-06    CP:  1.00D+00  9.87D-01
 E= -632.914800634572     Delta-E=       -0.000000006296 Rises=F Damp=F
 DIIS: error= 2.86D-06 at cycle   3 NSaved=   3.
 NSaved= 3 IEnMin= 3 EnMin= -632.914800634572     IErMin= 3 ErrMin= 2.86D-06
 ErrMax= 2.86D-06  0.00D+00 EMaxC= 1.00D-01 BMatC= 3.98D-09 BMatP= 9.53D-09
 IDIUse=1 WtCom= 1.00D+00 WtEn= 0.00D+00
 Coeff-Com:  0.692D-01 0.377D+00 0.554D+00
 Coeff:      0.692D-01 0.377D+00 0.554D+00
 Gap=     0.155 Goal=   None    Shift=    0.000
 RMSDP=3.30D-07 MaxDP=1.04D-05 DE=-6.30D-09 OVMax= 2.75D-05

 Cycle   4  Pass 1  IDiag  1:
 RMSU=  2.33D-07    CP:  1.00D+00  1.01D+00  8.31D-01
 E= -632.914800638304     Delta-E=       -0.000000003733 Rises=F Damp=F
 DIIS: error= 6.12D-07 at cycle   4 NSaved=   4.
 NSaved= 4 IEnMin= 4 EnMin= -632.914800638304     IErMin= 4 ErrMin= 6.12D-07
 ErrMax= 6.12D-07  0.00D+00 EMaxC= 1.00D-01 BMatC= 2.71D-10 BMatP= 3.98D-09
 IDIUse=1 WtCom= 1.00D+00 WtEn= 0.00D+00
 Coeff-Com: -0.490D-02 0.110D+00 0.265D+00 0.629D+00
 Coeff:     -0.490D-02 0.110D+00 0.265D+00 0.629D+00
 Gap=     0.155 Goal=   None    Shift=    0.000
 RMSDP=1.21D-07 MaxDP=5.02D-06 DE=-3.73D-09 OVMax= 5.63D-06

 Cycle   5  Pass 1  IDiag  1:
 RMSU=  7.69D-08    CP:  1.00D+00  1.02D+00  8.64D-01  7.93D-01
 E= -632.914800638519     Delta-E=       -0.000000000215 Rises=F Damp=F
 DIIS: error= 2.51D-07 at cycle   5 NSaved=   5.
 NSaved= 5 IEnMin= 5 EnMin= -632.914800638519     IErMin= 5 ErrMin= 2.51D-07
 ErrMax= 2.51D-07  0.00D+00 EMaxC= 1.00D-01 BMatC= 3.54D-11 BMatP= 2.71D-10
 IDIUse=1 WtCom= 1.00D+00 WtEn= 0.00D+00
 Coeff-Com: -0.845D-02 0.214D-01 0.849D-01 0.328D+00 0.575D+00
 Coeff:     -0.845D-02 0.214D-01 0.849D-01 0.328D+00 0.575D+00
 Gap=     0.155 Goal=   None    Shift=    0.000
 RMSDP=3.27D-08 MaxDP=1.55D-06 DE=-2.15D-10 OVMax= 1.23D-06

 Cycle   6  Pass 1  IDiag  1:
 RMSU=  2.54D-08    CP:  1.00D+00  1.02D+00  8.71D-01  8.09D-01  8.41D-01
 E= -632.914800638540     Delta-E=       -0.000000000020 Rises=F Damp=F
 DIIS: error= 1.02D-07 at cycle   6 NSaved=   6.
 NSaved= 6 IEnMin= 6 EnMin= -632.914800638540     IErMin= 6 ErrMin= 1.02D-07
 ErrMax= 1.02D-07  0.00D+00 EMaxC= 1.00D-01 BMatC= 3.35D-12 BMatP= 3.54D-11
 IDIUse=1 WtCom= 1.00D+00 WtEn= 0.00D+00
 Coeff-Com: -0.354D-02 0.158D-02 0.184D-01 0.101D+00 0.283D+00 0.600D+00
 Coeff:     -0.354D-02 0.158D-02 0.184D-01 0.101D+00 0.283D+00 0.600D+00
 Gap=     0.155 Goal=   None    Shift=    0.000
 RMSDP=1.84D-08 MaxDP=1.64D-06 DE=-2.05D-11 OVMax= 5.65D-07

 Cycle   7  Pass 1  IDiag  1:
 RMSU=  1.13D-08    CP:  1.00D+00  1.02D+00  8.82D-01  8.22D-01  9.26D-01
                    CP:  8.16D-01
 E= -632.914800638548     Delta-E=       -0.000000000008 Rises=F Damp=F
 DIIS: error= 5.36D-08 at cycle   7 NSaved=   7.
 NSaved= 7 IEnMin= 7 EnMin= -632.914800638548     IErMin= 7 ErrMin= 5.36D-08
 ErrMax= 5.36D-08  0.00D+00 EMaxC= 1.00D-01 BMatC= 7.91D-13 BMatP= 3.35D-12
 IDIUse=1 WtCom= 1.00D+00 WtEn= 0.00D+00
 Coeff-Com: -0.833D-03-0.198D-02-0.362D-03 0.145D-01 0.907D-01 0.368D+00
 Coeff-Com:  0.530D+00
 Coeff:     -0.833D-03-0.198D-02-0.362D-03 0.145D-01 0.907D-01 0.368D+00
 Coeff:      0.530D+00
 Gap=     0.155 Goal=   None    Shift=    0.000
 RMSDP=5.11D-09 MaxDP=2.96D-07 DE=-8.07D-12 OVMax= 2.83D-07

 Error on total polarization charges =  0.01430
 SCF Done:  E(RPBE1PBE) =  -632.914800639     A.U. after    7 cycles
            NFock=  7  Conv=0.51D-08     -V/T= 2.0045
 KE= 6.300511590282D+02 PE=-3.277853577754D+03 EE= 1.113700327357D+03
 Leave Link  502 at Mon Mar  9 16:02:40 2026, MaxMem=  2147483648 cpu:             450.6 elap:              14.5
 (Enter /data/home/wyx/g16/l801.exe)
 DoSCS=F DFT=T ScalE2(SS,OS)=  1.000000  1.000000
 ExpMin= 9.52D-02 ExpMax= 2.70D+04 ExpMxC= 9.22D+02 IAcc=3 IRadAn=         5 AccDes= 0.00D+00
 HarFok:  IExCor=  205 AccDes= 0.00D+00 IRadAn=         5 IDoV=-2 UseB2=F ITyADJ=14
 ICtDFT= 12500011 ScaDFX=  1.000000  1.000000  1.000000  1.000000
 Largest valence mixing into a core orbital is  6.45D-05
 Largest core mixing into a valence orbital is  1.52D-05
 Range of M.O.s used for correlation:    15   356
 NBasis=   356 NAE=    52 NBE=    52 NFC=    14 NFV=     0
 NROrb=    342 NOA=    38 NOB=    38 NVA=   304 NVB=   304

 **** Warning!!: The largest alpha MO coefficient is  0.48273035D+02

 Leave Link  801 at Mon Mar  9 16:02:41 2026, MaxMem=  2147483648 cpu:               1.6 elap:               0.1
 (Enter /data/home/wyx/g16/l914.exe)
 RHF ground state
 Two-electron integral symmetry not used.
 MDV=  2147483648 DFT=T DoStab=F Mixed=T DoRPA=T DoScal=F NonHer=T
 NEqPCM:  Using equilibrium solvation (IEInf=0, Eps=  78.3553, EpsInf=   1.7778)
 Making orbital integer symmetry assigments:
    24 initial guesses have been made.
 Convergence on wavefunction:    0.000001000000000
 Davidson Disk Diagonalization:  ConvIn= 1.00D-06 SkipCon=T Conv= 1.00D-06.
 Max sub-space:  2000 roots to seek:    24 dimension of matrix:        23104
 Iteration     1 Dimension    24 NMult     0 NNew     24
 CISAX will form    24 AO SS matrices at one time.
 NMat=    24 NSing=    24 JSym2X= 0.
 FoFJK:  IHMeth= 1 ICntrl=       0 DoSepK=F KAlg= 0 I1Cent=           0 FoldK=F
 IRaf= 870000000 NMat=      48 IRICut=      60 DoRegI=T DoRafI=T ISym2E= 0 IDoP0=3 IntGTp=3.
 FoFCou: FMM=F IPFlag=           0 FMFlag=      100000 FMFlg1=           0
         NFxFlg=           0 DoJE=F BraDBF=F KetDBF=F FulRan=T
         wScrn=  0.000000 ICntrl=         0 IOpCl=  0 I1Cent=           0 NGrid=           0
         NMat0=   48 NMatS0=     24 NMatT0=    0 NMatD0=   48 NMtDS0=    0 NMtDT0=    0
 Symmetry not used in FoFCou.
 Raff kept on since  85.54% of shell-pairs survive, threshold=   0.20 IRatSp=86.
 New state      3 was old state      4
 New state      4 was old state      3
 New state      5 was old state      6
 New state      6 was old state      7
 Excitation Energies [eV] at current iteration:
 Root      1 :     3.584250305358366
 Root      2 :     3.924846011782412
 Root      3 :     4.093834502414083
 Root      4 :     4.835984829516244
 Root      5 :     5.480503958762108
 Root      6 :     5.719829004872427
 Root      7 :     5.886653037221600
 Root      8 :     6.042590029179405
 Root      9 :     6.428804377876722
 Root     10 :     6.489732442963815
 Root     11 :     6.654226290545385
 Root     12 :     6.867184678298042
 Root     13 :     6.975422626183841
 Root     14 :     7.133614088229884
 Root     15 :     7.179585786201882
 Root     16 :     7.187572986457339
 Root     17 :     7.424966410516944
 Root     18 :     7.559074016650617
 Root     19 :     7.600489742453294
 Root     20 :     7.699207319056395
 Root     21 :     7.763862961201603
 Root     22 :     7.831684506211834
 Root     23 :     8.139225554262319
 Root     24 :     8.186592914209639
 Iteration     2 Dimension    36 NMult    24 NNew     12
 CISAX will form    12 AO SS matrices at one time.
 NMat=    12 NSing=    12 JSym2X= 0.
 Root      1 not converged, maximum delta is    0.083424366013014
 Root      2 not converged, maximum delta is    0.075207295972341
 Root      3 not converged, maximum delta is    0.049345328304783
 Root      4 not converged, maximum delta is    0.104971456351440
 New state      5 was old state      8
 Root      5 not converged, maximum delta is    0.399928995857146
 New state      6 was old state      5
 Root      6 not converged, maximum delta is    0.300658022647586
 Excitation Energies [eV] at current iteration:
 Root      1 :     3.227489796383820   Change is   -0.356760508974545
 Root      2 :     3.825176523349823   Change is   -0.099669488432589
 Root      3 :     3.990929783991930   Change is   -0.102904718422152
 Root      4 :     4.627164558862869   Change is   -0.208820270653374
 Root      5 :     5.250619658210105   Change is   -0.791970370969300
 Root      6 :     5.453556921986056   Change is   -0.026947036776053
 Iteration     3 Dimension    48 NMult    36 NNew     12
 CISAX will form    12 AO SS matrices at one time.
 NMat=    12 NSing=    12 JSym2X= 0.
 Root      1 not converged, maximum delta is    0.006924890769726
 Root      2 not converged, maximum delta is    0.004078110002896
 Root      3 not converged, maximum delta is    0.003128584105666
 Root      4 not converged, maximum delta is    0.023523492244872
 Root      5 not converged, maximum delta is    0.104609636575815
 Root      6 not converged, maximum delta is    0.089558302970753
 Excitation Energies [eV] at current iteration:
 Root      1 :     3.217698571248188   Change is   -0.009791225135633
 Root      2 :     3.822000637731935   Change is   -0.003175885617888
 Root      3 :     3.987841303800071   Change is   -0.003088480191859
 Root      4 :     4.615344072231974   Change is   -0.011820486630896
 Root      5 :     5.170479683360559   Change is   -0.080139974849546
 Root      6 :     5.427688884112924   Change is   -0.025868037873132
 Iteration     4 Dimension    60 NMult    48 NNew     12
 CISAX will form    12 AO SS matrices at one time.
 NMat=    12 NSing=    12 JSym2X= 0.
 Root      1 not converged, maximum delta is    0.001965922432967
 Root      2 not converged, maximum delta is    0.001286744750547
 Root      3 not converged, maximum delta is    0.000861707327466
 Root      4 not converged, maximum delta is    0.002939652501882
 Root      5 not converged, maximum delta is    0.009347337162427
 Root      6 not converged, maximum delta is    0.006043699382900
 Excitation Energies [eV] at current iteration:
 Root      1 :     3.216677693095994   Change is   -0.001020878152194
 Root      2 :     3.821585372671523   Change is   -0.000415265060411
 Root      3 :     3.987594057638231   Change is   -0.000247246161841
 Root      4 :     4.614041831072593   Change is   -0.001302241159380
 Root      5 :     5.161430942468223   Change is   -0.009048740892337
 Root      6 :     5.426262847744300   Change is   -0.001426036368624
 Iteration     5 Dimension    72 NMult    60 NNew     12
 CISAX will form    12 AO SS matrices at one time.
 NMat=    12 NSing=    12 JSym2X= 0.
 Root      1 not converged, maximum delta is    0.000233649033384
 Root      2 not converged, maximum delta is    0.000127152507049
 Root      3 not converged, maximum delta is    0.000122069032394
 Root      4 not converged, maximum delta is    0.000366042444801
 Root      5 not converged, maximum delta is    0.000846573599558
 Root      6 not converged, maximum delta is    0.000469921199478
 Excitation Energies [eV] at current iteration:
 Root      1 :     3.216625131502215   Change is   -0.000052561593779
 Root      2 :     3.821569040858745   Change is   -0.000016331812778
 Root      3 :     3.987582059769648   Change is   -0.000011997868583
 Root      4 :     4.613951095156841   Change is   -0.000090735915753
 Root      5 :     5.160782460400109   Change is   -0.000648482068113
 Root      6 :     5.426147310333309   Change is   -0.000115537410992
 Iteration     6 Dimension    84 NMult    72 NNew     12
 CISAX will form    12 AO SS matrices at one time.
 NMat=    12 NSing=    12 JSym2X= 0.
 Root      1 not converged, maximum delta is    0.000050341886207
 Root      2 not converged, maximum delta is    0.000027130296767
 Root      3 not converged, maximum delta is    0.000038446732009
 Root      4 not converged, maximum delta is    0.000081203217700
 Root      5 not converged, maximum delta is    0.000255002511294
 Root      6 not converged, maximum delta is    0.000147339628943
 Excitation Energies [eV] at current iteration:
 Root      1 :     3.216623024348547   Change is   -0.000002107153668
 Root      2 :     3.821568255530675   Change is   -0.000000785328070
 Root      3 :     3.987581268655910   Change is   -0.000000791113739
 Root      4 :     4.613946226544703   Change is   -0.000004868612137
 Root      5 :     5.160732255149739   Change is   -0.000050205250370
 Root      6 :     5.426137872595205   Change is   -0.000009437738103
 Iteration     7 Dimension    96 NMult    84 NNew     12
 CISAX will form    12 AO SS matrices at one time.
 NMat=    12 NSing=    12 JSym2X= 0.
 Root      1 not converged, maximum delta is    0.000008549345502
 Root      2 not converged, maximum delta is    0.000006566081886
 Root      3 not converged, maximum delta is    0.000006021871887
 Root      4 not converged, maximum delta is    0.000017121376590
 Root      5 not converged, maximum delta is    0.000064147021520
 Root      6 not converged, maximum delta is    0.000033434159643
 Excitation Energies [eV] at current iteration:
 Root      1 :     3.216622929695138   Change is   -0.000000094653409
 Root      2 :     3.821568213313852   Change is   -0.000000042216823
 Root      3 :     3.987581235697233   Change is   -0.000000032958677
 Root      4 :     4.613945954130471   Change is   -0.000000272414232
 Root      5 :     5.160729169104746   Change is   -0.000003086044993
 Root      6 :     5.426137220753960   Change is   -0.000000651841246
 Iteration     8 Dimension   108 NMult    96 NNew     12
 CISAX will form    12 AO SS matrices at one time.
 NMat=    12 NSing=    12 JSym2X= 0.
 Root      1 not converged, maximum delta is    0.000001589963016
 Root      2 has converged.
 Root      3 not converged, maximum delta is    0.000001478270721
 Root      4 not converged, maximum delta is    0.000007577038888
 Root      5 not converged, maximum delta is    0.000029299384765
 Root      6 not converged, maximum delta is    0.000011988734841
 Excitation Energies [eV] at current iteration:
 Root      1 :     3.216622926769107   Change is   -0.000000002926031
 Root      2 :     3.821568211446378   Change is   -0.000000001867474
 Root      3 :     3.987581233993597   Change is   -0.000000001703635
 Root      4 :     4.613945936984249   Change is   -0.000000017146222
 Root      5 :     5.160728971343747   Change is   -0.000000197760999
 Root      6 :     5.426137175151910   Change is   -0.000000045602050
 Iteration     9 Dimension   118 NMult   108 NNew     10
 CISAX will form    10 AO SS matrices at one time.
 NMat=    10 NSing=    10 JSym2X= 0.
 Root      1 has converged.
 Root      2 has converged.
 Root      3 has converged.
 Root      4 has converged.
 Root      5 not converged, maximum delta is    0.000005259162828
 Root      6 not converged, maximum delta is    0.000002407309607
 Excitation Energies [eV] at current iteration:
 Root      1 :     3.216622926684641   Change is   -0.000000000084466
 Root      2 :     3.821568211416391   Change is   -0.000000000029987
 Root      3 :     3.987581233924864   Change is   -0.000000000068733
 Root      4 :     4.613945936124089   Change is   -0.000000000860161
 Root      5 :     5.160728955648885   Change is   -0.000000015694862
 Root      6 :     5.426137170885893   Change is   -0.000000004266017
 Iteration    10 Dimension   122 NMult   118 NNew      4
 CISAX will form     4 AO SS matrices at one time.
 NMat=     4 NSing=     4 JSym2X= 0.
 Root      1 has converged.
 Root      2 has converged.
 Root      3 has converged.
 Root      4 has converged.
 Root      5 not converged, maximum delta is    0.000001653614855
 Root      6 has converged.
 Excitation Energies [eV] at current iteration:
 Root      1 :     3.216622926684513   Change is   -0.000000000000128
 Root      2 :     3.821568211415552   Change is   -0.000000000000839
 Root      3 :     3.987581233923957   Change is   -0.000000000000907
 Root      4 :     4.613945936105345   Change is   -0.000000000018743
 Root      5 :     5.160728954565907   Change is   -0.000000001082978
 Root      6 :     5.426137170538345   Change is   -0.000000000347548
 Iteration    11 Dimension   124 NMult   122 NNew      2
 CISAX will form     2 AO SS matrices at one time.
 NMat=     2 NSing=     2 JSym2X= 0.
 Root      1 has converged.
 Root      2 has converged.
 Root      3 has converged.
 Root      4 has converged.
 Root      5 has converged.
 Root      6 has converged.
 Excitation Energies [eV] at current iteration:
 Root      1 :     3.216622926684564   Change is    0.000000000000051
 Root      2 :     3.821568211415208   Change is   -0.000000000000344
 Root      3 :     3.987581233923772   Change is   -0.000000000000185
 Root      4 :     4.613945936101675   Change is   -0.000000000003670
 Root      5 :     5.160728954476112   Change is   -0.000000000089795
 Root      6 :     5.426137170512802   Change is   -0.000000000025543
 Convergence achieved on expansion vectors.
 ***********************************************************************
 Excited states from <AA,BB:AA,BB> singles matrix:
 ***********************************************************************
 
 1PDM for each excited state written to RWF  633
 Ground to excited state transition densities written to RWF  633
 Ground to excited state transition electric dipole moments (Au):
       state          X           Y           Z        Dip. S.      Osc.
         1        -1.7048     -0.3921     -0.1472      3.0818      0.2429
         2        -0.2335     -0.1082      0.0175      0.0666      0.0062
         3        -0.0475      0.1226     -0.0370      0.0187      0.0018
         4         0.1584     -0.8994      0.1739      0.8643      0.0977
         5         0.5795     -2.0659      0.2366      4.6599      0.5892
         6         0.1234     -0.5238      0.1041      0.3004      0.0399
 Ground to excited state transition velocity dipole moments (Au):
       state          X           Y           Z        Dip. S.      Osc.
         1         0.1932      0.0479      0.0154      0.0399      0.2248
         2         0.0314      0.0153      0.0007      0.0012      0.0058
         3         0.0076     -0.0173      0.0019      0.0004      0.0016
         4        -0.0232      0.1443     -0.0251      0.0220      0.0864
         5        -0.1062      0.3825     -0.0424      0.1594      0.5603
         6        -0.0249      0.1007     -0.0201      0.0112      0.0373
 Ground to excited state transition magnetic dipole moments (Au):
       state          X           Y           Z
         1         0.3591      0.1055     -5.5645
         2         0.7188      0.2114     -1.0307
         3         0.5781     -0.7563     -0.1958
         4        -0.6198     -0.1096      0.0375
         5        -1.0451     -0.2194      1.4432
         6        -0.0027     -0.2230      0.1762
 Ground to excited state transition velocity quadrupole moments (Au):
       state          XX          YY          ZZ          XY          XZ          YZ
         1        -0.9571      1.7871      0.0382      3.4956      0.1882      0.3382
         2        -0.1536      0.6051     -0.0021      0.5485      0.0157      0.0964
         3        -0.0199     -0.7658      0.0377      0.1813      0.0474      0.0589
         4        -0.6345      6.1203     -0.0363     -1.2104      0.0273     -0.4882
         5        -0.4399     16.5245     -0.0176     -3.6345     -0.0001     -0.6361
         6        -0.0715      4.2738     -0.0031     -0.9991      0.0759     -0.3039
 <0|del|b> * <b|rxdel|0> + <0|del|b> * <b|delr+rdel|0>
 Rotatory Strengths (R) in cgs (10**-40 erg-esu-cm/Gauss)
       state          XX          YY          ZZ    R(velocity)    E-M Angle
         1      -107.0110    -13.7075     54.1708    -22.1825       90.57
         2         6.6369     61.4592     57.8685     41.9882       55.75
         3        33.5556      9.9872     39.2095     27.5841       22.05
         4        20.1583    -11.5899    -18.3760     -3.2692       91.44
         5        16.6803    -68.0405    -75.5438    -42.3013       92.72
         6       -24.0437    -28.3300    -39.5403    -30.6380      149.70
 1/2[<0|r|b>*<b|rxdel|0> + (<0|rxdel|b>*<b|r|0>)*]
 Rotatory Strengths (R) in cgs (10**-40 erg-esu-cm/Gauss)
       state          XX          YY          ZZ     R(length)
         1       432.8996     29.2529   -579.0963    -38.9813
         2       118.7061     16.1765     12.7756     49.2194
         3        19.4356     65.5524     -5.1239     26.6214
         4        69.4304    -69.7066     -4.6104     -1.6289
         5       428.2908   -320.5625   -241.4544    -44.5754
         6         0.2386    -82.5787    -12.9687    -31.7696
  1/2[<0|del|b>*<b|r|0> + (<0|r|b>*<b|del|0>)*] (Au)
       state          X           Y           Z        Dip. S.   Osc.(frdel)
         1        -0.3294     -0.0188     -0.0023      0.3505      0.2336
         2        -0.0073     -0.0017      0.0000      0.0090      0.0060
         3        -0.0004     -0.0021     -0.0001      0.0026      0.0017
         4        -0.0037     -0.1298     -0.0044      0.1378      0.0919
         5        -0.0616     -0.7902     -0.0100      0.8618      0.5745
         6        -0.0031     -0.0527     -0.0021      0.0579      0.0386

 Excitation energies and oscillator strengths:
 
 Excited state symmetry could not be determined.
 Excited State   1:      Singlet-?Sym    3.2166 eV  385.45 nm  f=0.2429  <S**2>=0.000
      52 -> 53         0.70382
 This state for optimization and/or second-order correction.
 Total Energy, E(TD-HF/TD-DFT) =  -632.796591921    
 Copying the excited state density for this state as the 1-particle RhoCI density.
 
 Excited state symmetry could not be determined.
 Excited State   2:      Singlet-?Sym    3.8216 eV  324.43 nm  f=0.0062  <S**2>=0.000
      50 -> 54         0.15265
      51 -> 53         0.64293
      51 -> 54         0.21622
 
 Excited state symmetry could not be determined.
 Excited State   3:      Singlet-?Sym    3.9876 eV  310.93 nm  f=0.0018  <S**2>=0.000
      50 -> 53         0.63230
      50 -> 54        -0.19900
      51 -> 54         0.18963
 
 Excited state symmetry could not be determined.
 Excited State   4:      Singlet-?Sym    4.6139 eV  268.72 nm  f=0.0977  <S**2>=0.000
      49 -> 53        -0.24547
      52 -> 54         0.65540
 
 Excited state symmetry could not be determined.
 Excited State   5:      Singlet-?Sym    5.1607 eV  240.25 nm  f=0.5892  <S**2>=0.000
      49 -> 53         0.62738
      51 -> 53         0.13088
      51 -> 54        -0.10367
      52 -> 54         0.24067
 
 Excited state symmetry could not be determined.
 Excited State   6:      Singlet-?Sym    5.4261 eV  228.49 nm  f=0.0399  <S**2>=0.000
      49 -> 53         0.12224
      50 -> 53        -0.19030
      51 -> 53        -0.21857
      51 -> 54         0.61018
 SavETr:  write IOETrn=   770 NScale= 10 NData=  16 NLR=1 NState=    6 LETran=     118.
 The selected state is a singlet.
 CISGrd: IGrad=2 NXY=2 DFT=T
 CISAX will form     1 AO SS matrices at one time.
 NMat=     1 NSing=     1 JSym2X= 0.
 GePol: Maximum number of non-zero 1st derivatives   =     197
 Leave Link  914 at Mon Mar  9 16:06:21 2026, MaxMem=  2147483648 cpu:            7023.3 elap:             220.4
 (Enter /data/home/wyx/g16/l1002.exe)
 Minotr:  Closed shell wavefunction.
          Computing CIS/TDA/TD derivatives.
          Using Z-Vector for PSCF gradient.
          Skipping F1 and S1 gradient terms here.
          IDoAtm=11111111111111111111111111111
 NEqPCM:  Using equilibrium solvation (IEInf=0, Eps=  78.3553, EpsInf=   1.7778)
          Frozen-core window.
          Direct CPHF calculation.
          Differentiating once with respect to electric field.
                with respect to dipole field.
          Differentiating once with respect to nuclear coordinates.
          Requested convergence is 1.0D-10 RMS, and 1.0D-09 maximum.
          NewPWx=F KeepS1=T KeepF1=T KeepIn=T MapXYZ=F SortEE=F KeepMc=T.
 Keep R1 ints in memory in canonical form, NReq=2056144452.
 FoFCou: FMM=F IPFlag=           0 FMFlag=           0 FMFlg1=           0
         NFxFlg=           0 DoJE=F BraDBF=F KetDBF=F FulRan=T
         wScrn=  0.000000 ICntrl=       600 IOpCl=  0 I1Cent=           0 NGrid=           0
         NMat0=    1 NMatS0=  63546 NMatT0=    0 NMatD0=    1 NMtDS0=    0 NMtDT0=    0
 Symmetry not used in FoFCou.
 Two-electron integral symmetry not used.
          MDV=    2147483648 using IRadAn=       5.
          Solving linear equations separately, MaxMat=       0.
          There are     1 degrees of freedom in the 1st order CPHF.  IDoFFX=0 NUNeed=     1.
 LinEq1:  Iter=  0 NonCon=     1 RMS=4.80D-03 Max=3.12D-01 NDo=     1
 AX will form     1 AO Fock derivatives at one time.
 LinEq1:  Iter=  1 NonCon=     1 RMS=2.21D-03 Max=1.46D-01 NDo=     1
 LinEq1:  Iter=  2 NonCon=     1 RMS=1.39D-03 Max=8.50D-02 NDo=     1
 LinEq1:  Iter=  3 NonCon=     1 RMS=7.14D-04 Max=3.48D-02 NDo=     1
 LinEq1:  Iter=  4 NonCon=     1 RMS=3.19D-04 Max=8.24D-03 NDo=     1
 LinEq1:  Iter=  5 NonCon=     1 RMS=1.18D-04 Max=3.37D-03 NDo=     1
 LinEq1:  Iter=  6 NonCon=     1 RMS=6.94D-05 Max=3.36D-03 NDo=     1
 LinEq1:  Iter=  7 NonCon=     1 RMS=4.44D-05 Max=1.54D-03 NDo=     1
 LinEq1:  Iter=  8 NonCon=     1 RMS=2.60D-05 Max=1.02D-03 NDo=     1
 LinEq1:  Iter=  9 NonCon=     1 RMS=1.37D-05 Max=6.37D-04 NDo=     1
 LinEq1:  Iter= 10 NonCon=     1 RMS=8.52D-06 Max=3.33D-04 NDo=     1
 LinEq1:  Iter= 11 NonCon=     1 RMS=5.60D-06 Max=2.26D-04 NDo=     1
 LinEq1:  Iter= 12 NonCon=     1 RMS=2.88D-06 Max=8.62D-05 NDo=     1
 LinEq1:  Iter= 13 NonCon=     1 RMS=1.03D-06 Max=2.63D-05 NDo=     1
 LinEq1:  Iter= 14 NonCon=     1 RMS=6.17D-07 Max=2.23D-05 NDo=     1
 LinEq1:  Iter= 15 NonCon=     1 RMS=2.70D-07 Max=9.81D-06 NDo=     1
 LinEq1:  Iter= 16 NonCon=     1 RMS=1.08D-07 Max=4.09D-06 NDo=     1
 LinEq1:  Iter= 17 NonCon=     1 RMS=6.30D-08 Max=2.02D-06 NDo=     1
 LinEq1:  Iter= 18 NonCon=     1 RMS=1.80D-08 Max=3.20D-07 NDo=     1
 LinEq1:  Iter= 19 NonCon=     1 RMS=9.16D-09 Max=2.27D-07 NDo=     1
 LinEq1:  Iter= 20 NonCon=     1 RMS=3.77D-09 Max=5.89D-08 NDo=     1
 LinEq1:  Iter= 21 NonCon=     1 RMS=1.00D-09 Max=1.73D-08 NDo=     1
 LinEq1:  Iter= 22 NonCon=     1 RMS=3.71D-10 Max=5.89D-09 NDo=     1
 LinEq1:  Iter= 23 NonCon=     1 RMS=1.49D-10 Max=2.63D-09 NDo=     1
 LinEq1:  Iter= 24 NonCon=     0 RMS=3.09D-11 Max=7.52D-10 NDo=     1
 Linear equations converged to 1.000D-10 1.000D-09 after    24 iterations.
 End of Minotr F.D. properties file   721 does not exist.
 End of Minotr F.D. properties file   722 does not exist.
 End of Minotr F.D. properties file   788 does not exist.
 Leave Link 1002 at Mon Mar  9 16:07:53 2026, MaxMem=  2147483648 cpu:             959.4 elap:              91.2
 (Enter /data/home/wyx/g16/l601.exe)
 Copying SCF densities to generalized density rwf, IOpCl= 0 IROHF=0.

 **********************************************************************

            Population analysis using the SCF density.

 **********************************************************************

 Alpha  occ. eigenvalues --  -19.18495 -19.18157 -14.44044 -10.30839 -10.30605
 Alpha  occ. eigenvalues --  -10.29801 -10.29311 -10.23415 -10.23168 -10.22859
 Alpha  occ. eigenvalues --  -10.22725 -10.22582 -10.21870 -10.21583  -1.06505
 Alpha  occ. eigenvalues --   -1.06170  -1.02094  -0.85378  -0.84511  -0.77893
 Alpha  occ. eigenvalues --   -0.76556  -0.75578  -0.72545  -0.68174  -0.65445
 Alpha  occ. eigenvalues --   -0.62954  -0.56001  -0.52744  -0.51194  -0.49444
 Alpha  occ. eigenvalues --   -0.48969  -0.48328  -0.46948  -0.46110  -0.45059
 Alpha  occ. eigenvalues --   -0.44518  -0.43946  -0.43534  -0.43010  -0.42519
 Alpha  occ. eigenvalues --   -0.41401  -0.39917  -0.39495  -0.38109  -0.37788
 Alpha  occ. eigenvalues --   -0.37050  -0.36784  -0.36730  -0.27986  -0.26958
 Alpha  occ. eigenvalues --   -0.26073  -0.21975
 Alpha virt. eigenvalues --   -0.06442  -0.01864   0.03672   0.05207   0.05829
 Alpha virt. eigenvalues --    0.06033   0.07440   0.08635   0.09777   0.10403
 Alpha virt. eigenvalues --    0.11215   0.11753   0.12553   0.12761   0.13782
 Alpha virt. eigenvalues --    0.14146   0.14431   0.14878   0.15031   0.16216
 Alpha virt. eigenvalues --    0.16618   0.18303   0.19326   0.20085   0.20256
 Alpha virt. eigenvalues --    0.20709   0.21740   0.22208   0.22577   0.23146
 Alpha virt. eigenvalues --    0.23246   0.23290   0.25216   0.25948   0.26729
 Alpha virt. eigenvalues --    0.27651   0.28336   0.29479   0.29781   0.30587
 Alpha virt. eigenvalues --    0.31408   0.31852   0.32843   0.34164   0.35220
 Alpha virt. eigenvalues --    0.36537   0.37156   0.37782   0.38698   0.39133
 Alpha virt. eigenvalues --    0.39997   0.40300   0.41574   0.42081   0.42403
 Alpha virt. eigenvalues --    0.43202   0.43855   0.44000   0.44439   0.44972
 Alpha virt. eigenvalues --    0.45491   0.46076   0.46492   0.47125   0.47441
 Alpha virt. eigenvalues --    0.48891   0.49225   0.49458   0.49882   0.50291
 Alpha virt. eigenvalues --    0.50737   0.51566   0.52172   0.52757   0.54064
 Alpha virt. eigenvalues --    0.54425   0.55006   0.56750   0.56838   0.58211
 Alpha virt. eigenvalues --    0.58802   0.61053   0.62064   0.62581   0.63751
 Alpha virt. eigenvalues --    0.64315   0.65878   0.67327   0.68320   0.68807
 Alpha virt. eigenvalues --    0.69523   0.69638   0.70755   0.71943   0.73218
 Alpha virt. eigenvalues --    0.73923   0.75423   0.77788   0.78975   0.80114
 Alpha virt. eigenvalues --    0.84802   0.88558   0.93470   0.94724   1.19335
 Alpha virt. eigenvalues --    1.20032   1.21644   1.22015   1.23783   1.26497
 Alpha virt. eigenvalues --    1.27228   1.27631   1.28922   1.30031   1.30918
 Alpha virt. eigenvalues --    1.31462   1.32064   1.32965   1.34358   1.34463
 Alpha virt. eigenvalues --    1.34964   1.35399   1.36021   1.36730   1.36918
 Alpha virt. eigenvalues --    1.38147   1.39289   1.39779   1.40341   1.41982
 Alpha virt. eigenvalues --    1.43224   1.44025   1.44496   1.45987   1.46483
 Alpha virt. eigenvalues --    1.47194   1.47712   1.49371   1.49624   1.52531
 Alpha virt. eigenvalues --    1.53175   1.55216   1.55500   1.55936   1.56653
 Alpha virt. eigenvalues --    1.57385   1.57979   1.59064   1.59796   1.60578
 Alpha virt. eigenvalues --    1.61404   1.62177   1.62473   1.62975   1.63358
 Alpha virt. eigenvalues --    1.63550   1.64746   1.65298   1.66874   1.67215
 Alpha virt. eigenvalues --    1.67897   1.69686   1.70930   1.71602   1.73521
 Alpha virt. eigenvalues --    1.74214   1.78527   1.79735   1.81625   1.81864
 Alpha virt. eigenvalues --    1.82341   1.82546   1.83579   1.84636   1.86293
 Alpha virt. eigenvalues --    1.86765   1.88951   1.90018   1.92639   1.94465
 Alpha virt. eigenvalues --    1.95689   1.98777   1.99512   2.01459   2.04663
 Alpha virt. eigenvalues --    2.05929   2.07601   2.08883   2.11499   2.13972
 Alpha virt. eigenvalues --    2.14886   2.15662   2.16020   2.17603   2.20229
 Alpha virt. eigenvalues --    2.21660   2.22429   2.23701   2.24575   2.26218
 Alpha virt. eigenvalues --    2.27104   2.29018   2.29871   2.30651   2.31933
 Alpha virt. eigenvalues --    2.33731   2.34761   2.35577   2.38209   2.38904
 Alpha virt. eigenvalues --    2.40042   2.42069   2.44708   2.45200   2.46965
 Alpha virt. eigenvalues --    2.47777   2.48081   2.49557   2.51447   2.52613
 Alpha virt. eigenvalues --    2.53303   2.54210   2.55116   2.55781   2.56743
 Alpha virt. eigenvalues --    2.58881   2.60334   2.61704   2.62395   2.64009
 Alpha virt. eigenvalues --    2.65292   2.66406   2.67989   2.68194   2.69176
 Alpha virt. eigenvalues --    2.70929   2.71582   2.72224   2.73217   2.73879
 Alpha virt. eigenvalues --    2.75603   2.75877   2.77545   2.78409   2.79232
 Alpha virt. eigenvalues --    2.79939   2.81151   2.81792   2.85780   2.87045
 Alpha virt. eigenvalues --    2.92967   2.94983   2.96134   2.99068   3.04727
 Alpha virt. eigenvalues --    3.06882   3.09675   3.11450   3.11842   3.14015
 Alpha virt. eigenvalues --    3.15081   3.16879   3.19472   3.20250   3.21207
 Alpha virt. eigenvalues --    3.22031   3.24131   3.27898   3.29230   3.31226
 Alpha virt. eigenvalues --    3.31771   3.33463   3.34268   3.34521   3.36014
 Alpha virt. eigenvalues --    3.37275   3.39135   3.39690   3.40755   3.42265
 Alpha virt. eigenvalues --    3.42522   3.44306   3.49881   3.52283   3.53604
 Alpha virt. eigenvalues --    3.54430   3.83813   3.93942   4.29256   4.30424
 Alpha virt. eigenvalues --   21.66385  21.82413  22.11116  22.14128  22.14678
 Alpha virt. eigenvalues --   22.17287  22.18685  22.20721  22.24237  22.27444
 Alpha virt. eigenvalues --   22.33424  31.98001  43.69815  43.71978
          Condensed to atoms (all electrons):
               1          2          3          4          5          6
     1  O    7.957390   0.000000  -0.000221   0.000019   0.013544   0.020560
     2  O    0.000000   7.971156   0.000424   0.000053  -0.197549   0.000633
     3  N   -0.000221   0.000424   6.292813   0.364561  -0.098206   0.326956
     4  H    0.000019   0.000053   0.364561   0.406890   0.020814  -0.043346
     5  C    0.013544  -0.197549  -0.098206   0.020814   6.803545  -0.041463
     6  C    0.020560   0.000633   0.326956  -0.043346  -0.041463   5.721286
     7  C   -0.000875  -0.026471   0.362352  -0.038097   0.318547  -0.080700
     8  C    0.000160   0.690806   0.007373  -0.000528  -0.208728   0.030127
     9  C   -0.030441   0.016100   0.018936  -0.000546  -0.332878  -0.194171
    10  H    0.021583   0.000072  -0.000945   0.000042  -0.090633   0.025315
    11  H    0.002792   0.000094   0.003614  -0.000018  -0.015473  -0.016778
    12  C   -0.208389  -0.001719  -0.078566   0.017968   0.104120  -0.250618
    13  C    0.679122  -0.000026   0.000429   0.000395   0.069129   0.182349
    14  C   -0.000002  -0.005041  -0.046226  -0.012077  -0.095909   0.010318
    15  H   -0.000000   0.004122   0.004473   0.003061   0.014607   0.006041
    16  H    0.000000   0.002714   0.001706   0.000656  -0.003669  -0.000889
    17  H   -0.000000   0.000921  -0.003420   0.000980   0.003155  -0.001865
    18  C   -0.000381  -0.107175  -0.000766   0.000033  -0.294235   0.000206
    19  H   -0.000004   0.010150   0.000003  -0.000001   0.024970   0.000047
    20  H    0.000110   0.003110   0.000122  -0.000000   0.036337  -0.000985
    21  H    0.000070   0.001279   0.000015  -0.000001   0.007347   0.000214
    22  C   -0.107528   0.000000   0.000474   0.000139   0.004048  -0.010141
    23  H    0.001267  -0.000000  -0.000057  -0.000020  -0.000152   0.008996
    24  H    0.004342  -0.000000  -0.000150  -0.000054  -0.000456  -0.034875
    25  H    0.008658   0.000000   0.000031  -0.000002  -0.000128  -0.001023
    26  C    0.000981   0.000000  -0.041237  -0.008791   0.000991   0.266848
    27  H   -0.000035  -0.000000  -0.002401   0.000626   0.000055  -0.030073
    28  H   -0.000184   0.000000   0.003015   0.000786   0.000190  -0.037657
    29  H    0.000024  -0.000000   0.001793   0.002257  -0.000544  -0.041818
               7          8          9         10         11         12
     1  O   -0.000875   0.000160  -0.030441   0.021583   0.002792  -0.208389
     2  O   -0.026471   0.690806   0.016100   0.000072   0.000094  -0.001719
     3  N    0.362352   0.007373   0.018936  -0.000945   0.003614  -0.078566
     4  H   -0.038097  -0.000528  -0.000546   0.000042  -0.000018   0.017968
     5  C    0.318547  -0.208728  -0.332878  -0.090633  -0.015473   0.104120
     6  C   -0.080700   0.030127  -0.194171   0.025315  -0.016778  -0.250618
     7  C    5.490698  -0.168608  -0.182705   0.016914  -0.005245  -0.010973
     8  C   -0.168608   5.371765   0.040224  -0.008644  -0.006920  -0.026734
     9  C   -0.182705   0.040224   6.183621   0.487631   0.376753   0.124660
    10  H    0.016914  -0.008644   0.487631   0.508507  -0.034060  -0.093027
    11  H   -0.005245  -0.006920   0.376753  -0.034060   0.558576  -0.021959
    12  C   -0.010973  -0.026734   0.124660  -0.093027  -0.021959   7.141884
    13  C    0.012018  -0.004844  -0.260782  -0.002299   0.003317  -0.341844
    14  C    0.314291  -0.045388   0.013868   0.000376  -0.001401  -0.003469
    15  H   -0.061005   0.006045  -0.000414  -0.000003   0.000089  -0.000897
    16  H   -0.026322  -0.008632  -0.001218  -0.000064   0.000214   0.000078
    17  H   -0.020553  -0.003233   0.001039   0.000060  -0.000083   0.000708
    18  C    0.008019   0.341422   0.012313   0.012515  -0.006771  -0.003664
    19  H    0.000305  -0.044913   0.000317   0.000422  -0.000071  -0.000276
    20  H   -0.000833  -0.046245  -0.006081  -0.004274   0.002406   0.006457
    21  H    0.001838  -0.019878  -0.009366  -0.002129   0.000824  -0.003864
    22  C   -0.000636   0.000004   0.002522   0.001950   0.001205  -0.265173
    23  H    0.000060   0.000003  -0.001652  -0.000146   0.000163  -0.007149
    24  H    0.000066  -0.000019   0.003107  -0.000125  -0.000096   0.061869
    25  H    0.000011   0.000003   0.000168  -0.000148  -0.000033   0.024422
    26  C    0.003925   0.000359   0.020988  -0.000168  -0.000665  -0.097722
    27  H   -0.000453  -0.000016   0.000547   0.000043  -0.000034  -0.013841
    28  H   -0.000906   0.000008  -0.001620   0.000009  -0.000092  -0.002205
    29  H    0.003945  -0.000006  -0.000753  -0.000009   0.000112   0.022063
              13         14         15         16         17         18
     1  O    0.679122  -0.000002  -0.000000   0.000000  -0.000000  -0.000381
     2  O   -0.000026  -0.005041   0.004122   0.002714   0.000921  -0.107175
     3  N    0.000429  -0.046226   0.004473   0.001706  -0.003420  -0.000766
     4  H    0.000395  -0.012077   0.003061   0.000656   0.000980   0.000033
     5  C    0.069129  -0.095909   0.014607  -0.003669   0.003155  -0.294235
     6  C    0.182349   0.010318   0.006041  -0.000889  -0.001865   0.000206
     7  C    0.012018   0.314291  -0.061005  -0.026322  -0.020553   0.008019
     8  C   -0.004844  -0.045388   0.006045  -0.008632  -0.003233   0.341422
     9  C   -0.260782   0.013868  -0.000414  -0.001218   0.001039   0.012313
    10  H   -0.002299   0.000376  -0.000003  -0.000064   0.000060   0.012515
    11  H    0.003317  -0.001401   0.000089   0.000214  -0.000083  -0.006771
    12  C   -0.341844  -0.003469  -0.000897   0.000078   0.000708  -0.003664
    13  C    5.416469  -0.000063  -0.000005   0.000006  -0.000032   0.000053
    14  C   -0.000063   5.069773   0.373160   0.414408   0.396709   0.002790
    15  H   -0.000005   0.373160   0.567150  -0.023700  -0.023680   0.000318
    16  H    0.000006   0.414408  -0.023700   0.507042  -0.023898  -0.000041
    17  H   -0.000032   0.396709  -0.023680  -0.023898   0.513797  -0.000208
    18  C    0.000053   0.002790   0.000318  -0.000041  -0.000208   5.339961
    19  H   -0.000019   0.000076  -0.000006   0.000029  -0.000018   0.375338
    20  H    0.000413   0.000004  -0.000017  -0.000060   0.000010   0.368361
    21  H    0.000099  -0.000317  -0.000007   0.000033  -0.000006   0.387225
    22  C    0.339193  -0.000020   0.000002  -0.000000   0.000000  -0.000002
    23  H   -0.018376  -0.000000   0.000000  -0.000000   0.000000  -0.000002
    24  H   -0.073459  -0.000005   0.000000   0.000000   0.000000   0.000005
    25  H   -0.035832   0.000001  -0.000000   0.000000  -0.000000  -0.000000
    26  C   -0.062021   0.000892  -0.000093   0.000073  -0.000169   0.000026
    27  H    0.005054  -0.000053   0.000005   0.000004  -0.000022   0.000000
    28  H   -0.008273   0.000110  -0.000013  -0.000001   0.000002  -0.000000
    29  H    0.000325  -0.000284   0.000130  -0.000005   0.000004   0.000000
              19         20         21         22         23         24
     1  O   -0.000004   0.000110   0.000070  -0.107528   0.001267   0.004342
     2  O    0.010150   0.003110   0.001279   0.000000  -0.000000  -0.000000
     3  N    0.000003   0.000122   0.000015   0.000474  -0.000057  -0.000150
     4  H   -0.000001  -0.000000  -0.000001   0.000139  -0.000020  -0.000054
     5  C    0.024970   0.036337   0.007347   0.004048  -0.000152  -0.000456
     6  C    0.000047  -0.000985   0.000214  -0.010141   0.008996  -0.034875
     7  C    0.000305  -0.000833   0.001838  -0.000636   0.000060   0.000066
     8  C   -0.044913  -0.046245  -0.019878   0.000004   0.000003  -0.000019
     9  C    0.000317  -0.006081  -0.009366   0.002522  -0.001652   0.003107
    10  H    0.000422  -0.004274  -0.002129   0.001950  -0.000146  -0.000125
    11  H   -0.000071   0.002406   0.000824   0.001205   0.000163  -0.000096
    12  C   -0.000276   0.006457  -0.003864  -0.265173  -0.007149   0.061869
    13  C   -0.000019   0.000413   0.000099   0.339193  -0.018376  -0.073459
    14  C    0.000076   0.000004  -0.000317  -0.000020  -0.000000  -0.000005
    15  H   -0.000006  -0.000017  -0.000007   0.000002   0.000000   0.000000
    16  H    0.000029  -0.000060   0.000033  -0.000000  -0.000000   0.000000
    17  H   -0.000018   0.000010  -0.000006   0.000000   0.000000   0.000000
    18  C    0.375338   0.368361   0.387225  -0.000002  -0.000002   0.000005
    19  H    0.511770  -0.017907  -0.008636  -0.000000   0.000000   0.000000
    20  H   -0.017907   0.529592  -0.022933   0.000015   0.000000  -0.000000
    21  H   -0.008636  -0.022933   0.501353  -0.000010   0.000000  -0.000000
    22  C   -0.000000   0.000015  -0.000010   5.347931   0.395814   0.385912
    23  H    0.000000   0.000000   0.000000   0.395814   0.492848  -0.023666
    24  H    0.000000  -0.000000  -0.000000   0.385912  -0.023666   0.531135
[...]
 ,-0.00004063,-0.00009370,0.00000068,-0.11378063,-0.06667355,0.10394027
 ,0.12387577,-0.00049305,0.00138562,-0.00311031,-0.00058997,-0.00001781
 ,-0.00004998,0.00171011,0.00044451,-0.00004008,0.00006800,0.00000856,-
 0.00005200,0.00006570,-0.00063034,0.00000682,-0.00134634,0.00128332,0.
 00018005,-0.00059727,-0.00031138,-0.00012791,0.00076745,0.00021968,0.0
 0018629,-0.00043849,0.00023734,-0.00013974,-0.00018195,-0.00000512,-0.
 00006434,0.00013086,-0.00007224,-0.00009738,0.00031574,-0.00123368,-0.
 00091157,-0.00831643,-0.01089443,0.01330449,0.00003936,-0.00007414,0.0
 0001173,-0.00001709,0.00003637,-0.00000523,-0.00005479,0.00004544,-0.0
 0001860,-0.00008035,0.00004497,0.00000937,0.00002448,-0.00005741,0.000
 03956,-0.00000050,-0.00002676,-0.00002471,0.00000752,-0.00002694,0.000
 00358,-0.00002009,-0.00005364,-0.00000275,-0.06617798,-0.09876482,0.09
 048521,0.07246651,0.10636428,0.00055965,0.00032897,-0.00186785,-0.0002
 5818,-0.00000330,-0.00010259,0.00109139,0.00026798,0.00018934,0.000044
 55,0.00000203,-0.00007045,-0.00004308,0.00001554,0.00003816,-0.0009129
 1,0.00015139,-0.00040587,-0.00041431,-0.00043213,0.00003548,0.00033814
 ,0.00007456,0.00022833,-0.00006388,-0.00023154,-0.00008943,-0.00017052
 ,0.00003125,-0.00004651,0.00027442,0.00004595,-0.00003478,-0.00005984,
 0.00093181,-0.00098461,-0.00707404,-0.00773364,0.01297330,0.00000453,-
 0.00005033,-0.00002604,-0.00001059,0.00002038,-0.00000040,-0.00003991,
 0.00003699,-0.00001385,-0.00003298,0.00002543,0.00000496,0.00001641,-0
 .00000832,0.00001785,0.00000202,-0.00001072,-0.00001002,0.00000516,-0.
 00001928,-0.00000190,-0.00000433,-0.00002883,0.00000618,0.09842685,0.0
 8579228,-0.17662380,-0.10838810,-0.09639005,0.19159760,-0.00342907,-0.
 00577857,-0.00131235,0.00017774,0.00003245,0.00009907,-0.00034455,0.00
 009407,0.00014676,-0.00003661,-0.00001866,0.00005574,0.00018210,0.0000
 9474,-0.00011459,-0.00031394,-0.00039171,-0.00030840,0.00005782,0.0001
 4792,0.00008361,-0.00015495,-0.00015380,-0.00023088,0.00038681,0.00026
 259,-0.00014923,0.00015678,-0.00003595,0.00001757,-0.00024888,-0.00006
 323,0.00006287,-0.00059658,0.00015903,0.00075336,0.01480654,-0.0137644
 3,-0.01278389,-0.00000040,0.00001369,-0.00001963,0.00000142,-0.0000078
 5,-0.00000313,0.00000182,-0.00000622,-0.00000510,0.00001478,0.00000056
 ,-0.00000312,0.00000022,-0.00000662,0.00001558,0.00000122,0.00000686,-
 0.00000242,-0.00001151,0.00001311,0.00001031,-0.00000781,0.00000143,-0
 .00000076,-0.09245263,0.07877149,0.06544954,-0.00669741,0.01221293,0.0
 0872731,0.09772970,-0.00495427,-0.00366259,-0.00332384,-0.00048517,0.0
 0002186,0.00008659,0.00085158,0.00018126,-0.00001627,0.00003917,0.0000
 0642,-0.00004019,-0.00006458,-0.00036036,-0.00012869,-0.00080840,0.000
 66439,-0.00031627,-0.00036752,-0.00008644,0.00008340,0.00061292,0.0001
 1394,-0.00018909,-0.00002135,0.00019079,0.00046874,-0.00001615,0.00004
 419,-0.00009313,0.00005843,-0.00008338,-0.00001488,-0.00029692,-0.0002
 6532,0.00067489,0.01185703,-0.01223981,-0.00675329,0.00002605,-0.00003
 872,0.00003017,-0.00000831,0.00002235,-0.00000459,-0.00002970,0.000014
 86,-0.00001590,-0.00004588,0.00003225,-0.00000354,0.00001936,-0.000020
 53,0.00004743,-0.00000325,-0.00001638,-0.00001472,0.00000489,-0.000012
 73,0.00000610,-0.00000438,-0.00004791,0.00000653,0.07757020,-0.1761119
 1,-0.11884337,-0.00624671,0.01089062,0.00980123,-0.08517483,0.19334951
 ,-0.00238129,-0.00244300,0.00015977,0.00000779,0.00003321,0.00006501,0
 .00005370,0.00023677,0.00007582,-0.00008985,-0.00002089,-0.00001449,0.
 00019807,-0.00016341,-0.00012528,-0.00067074,-0.00040207,-0.00056964,-
 0.00003171,0.00020083,0.00008744,0.00003132,-0.00009361,-0.00013006,-0
 .00003048,0.00025326,0.00021809,0.00003304,0.00004041,-0.00006466,-0.0
 0002245,-0.00005753,-0.00000749,-0.00059692,-0.00005517,0.00077936,0.0
 0968537,-0.00441060,-0.00637693,0.00001535,0.00001248,-0.00000715,-0.0
 0000515,-0.00000088,-0.00000107,-0.00000052,-0.00000064,-0.00000827,0.
 00000456,0.00000719,-0.00000211,0.00001145,-0.00000389,0.00002322,0.00
 000104,0.00000352,-0.00000678,-0.00000581,0.00000142,0.00000799,-0.000
 00877,-0.00001031,0.00000096,0.06311903,-0.11696334,-0.14772392,0.0082
 0835,-0.01591349,-0.01314822,-0.07151446,0.12711159,0.15469562,0.00319
 361,0.00239568,0.00390294,-0.00063193,-0.00008956,0.00006500,0.0010060
 9,0.00032886,0.00007247,0.00003309,0.00001037,-0.00003141,-0.00036223,
 -0.00062261,-0.00005242,-0.00042074,0.00045552,0.00006618,-0.00026582,
 -0.00045773,-0.00000632,0.00059406,0.00042298,-0.00010450,-0.00089676,
 0.00065942,0.00032307,-0.00004025,-0.00004691,0.00001049,0.00006452,0.
 00007460,-0.00001958,-0.00071474,-0.00440526,-0.00140493,-0.02061823,0
 .01282730,-0.01447675,0.00000287,-0.00004328,0.00000797,-0.00001338,0.
 00003533,-0.00000438,-0.00003923,0.00002702,-0.00001157,-0.00004837,0.
 00003245,-0.00000217,0.00000445,-0.00004133,0.00002388,-0.00000624,-0.
 00002683,-0.00001189,0.00000581,-0.00000469,0.00000665,0.00000468,-0.0
 0004539,0.00000904,-0.15046635,0.10111843,-0.09129022,0.01125794,-0.01
 023761,0.00892529,-0.00723932,0.00482621,-0.00616240,0.16545315,-0.000
 22797,0.00138523,0.00082597,0.00015604,-0.00003875,0.00003615,-0.00033
 591,0.00001907,0.00000965,-0.00007836,-0.00001700,0.00001823,-0.000016
 43,-0.00008574,0.00003576,0.00014288,-0.00045820,-0.00010711,0.0001794
 2,-0.00000319,-0.00001670,-0.00031924,0.00000907,-0.00009618,-0.000777
 13,0.00037983,0.00022832,0.00006931,0.00000422,0.00000830,-0.00004456,
 0.00008454,0.00003489,-0.00114631,-0.00263920,-0.00038340,-0.01464361,
 0.01018281,-0.01275291,-0.00000864,0.00003676,-0.00001286,-0.00000162,
 -0.00000626,-0.00000012,0.00001596,-0.00001199,0.00000597,0.00002191,-
 0.00001185,-0.00000151,-0.00001655,0.00000241,-0.00001246,-0.00000009,
 0.00000297,0.00000611,-0.00000411,0.00001416,0.00000525,0.00000438,0.0
 0001861,-0.00000324,0.10303311,-0.13640755,0.08169498,0.00946529,-0.00
 833461,0.00651604,0.01086318,-0.01040734,0.01217146,-0.10707231,0.1466
 0019,0.00135968,0.00031796,0.00185174,-0.00058871,-0.00001189,0.000154
 40,0.00131434,0.00041667,0.00021882,0.00003209,0.00000573,-0.00002944,
 -0.00014240,-0.00056736,-0.00010372,-0.00071340,0.00020530,-0.00011081
 ,-0.00050239,-0.00035518,0.00002805,0.00068970,0.00021038,-0.00034289,
 -0.00033339,0.00064558,0.00044599,0.00004189,-0.00002739,0.00000655,-0
 .00011048,-0.00005573,-0.00005211,-0.00073882,-0.00260982,-0.00033777,
 -0.00802266,0.00884726,-0.00773996,0.00002070,-0.00006271,0.00001131,-
 0.00001445,0.00003450,-0.00000769,-0.00005123,0.00003052,-0.00002415,-
 0.00006039,0.00005220,-0.00000194,0.00001674,-0.00003587,0.00007133,-0
 .00000180,-0.00002384,-0.00002047,0.00000150,-0.00001262,0.00000971,-0
 .00000533,-0.00006262,0.00000938,-0.09085068,0.07974910,-0.12021306,-0
 .01474047,0.01253923,-0.01177460,0.01278957,-0.01075049,0.01201161,0.1
 0027660,-0.08859117,0.12571460,-0.00004601,0.00023496,0.00021695,0.001
 71445,-0.00018638,-0.00008535,-0.04042606,-0.03669165,-0.00290954,0.00
 044017,-0.00266671,0.00055782,-0.00050464,0.00025964,-0.00022072,-0.12
 186000,-0.05138064,-0.00541312,0.00075409,0.00412349,-0.00059009,-0.00
 176760,-0.00007106,0.00015371,-0.00145087,0.00341720,-0.00009302,0.000
 19332,0.00056345,0.00019242,-0.00007077,0.00038775,-0.00003719,0.01516
 693,0.00235485,0.00267250,-0.00133276,0.00083244,-0.00103174,-0.000549
 71,-0.00065100,-0.00033574,0.00013160,-0.00005467,0.00005188,-0.000135
 46,-0.00004663,0.00005722,0.00008830,-0.00012100,-0.00007265,-0.000074
 66,-0.00006950,-0.00004941,0.00003776,0.00003259,0.00003251,-0.0000196
 8,0.00006112,-0.00002422,-0.00003406,0.00014923,-0.00003233,-0.0003727
 0,0.00119579,-0.00102160,-0.00016669,-0.00019455,-0.00010650,-0.001003
 39,0.00116898,-0.00001300,0.00009681,0.00020725,0.00050196,0.57182486,
 0.00032824,-0.00135722,-0.00023115,0.00277815,-0.00019347,-0.00008622,
 -0.01008066,0.00059185,0.00066508,0.00245713,0.00255437,-0.00092487,0.
 00131878,0.00108260,0.00006240,-0.06754985,-0.18963579,-0.00509950,0.0
 0528919,0.00003074,0.00150841,-0.00342922,-0.00052042,0.00014287,0.002
 28029,-0.00038433,0.00083086,-0.00057664,-0.00069497,-0.00029449,-0.00
 054133,-0.00059054,-0.00007712,-0.01246477,-0.02362848,-0.00028051,-0.
 00306705,0.00290025,-0.00085084,-0.00003179,0.00074404,-0.00019396,-0.
 00001581,-0.00017954,0.00001184,0.00029486,-0.00016918,0.00012326,0.00
 033300,-0.00022020,0.00002171,-0.00015646,-0.00013251,-0.00023171,-0.0
 0003440,0.00007697,0.00007155,-0.00008494,0.00016875,0.00007706,-0.000
 03677,0.00026974,-0.00009701,0.00268782,-0.00120756,0.00225314,-0.0001
 1403,-0.00014069,0.00051412,0.00121398,-0.00081530,-0.00059536,-0.0000
 8791,-0.00071476,-0.00007273,-0.03776991,0.51659812,0.00040793,0.00006
 920,-0.00000395,-0.00017570,-0.00006999,0.00009864,0.00244266,0.000161
 40,0.00190694,-0.00148076,-0.00101996,-0.00227539,-0.00060050,0.000430
 27,-0.00073834,-0.00236707,0.00741469,-0.06132016,-0.00160386,-0.00157
 740,0.00382987,0.00023413,0.00036918,-0.00051778,-0.00055358,0.0000936
 5,0.00394353,-0.00032095,-0.00054556,0.00010413,0.00022566,0.00079549,
 0.00017849,0.00399923,-0.00283218,0.00340319,-0.00174621,-0.00031462,-
 0.00129883,0.00005474,-0.00016386,0.00133632,0.00000176,0.00009323,-0.
 00003515,0.00034762,-0.00021964,0.00008811,-0.00045060,0.00029641,0.00
 000769,0.00005185,-0.00008313,0.00001615,0.00003007,0.00000299,0.00000
 065,-0.00007961,-0.00004954,0.00002575,0.00001720,0.00001582,0.0000414
 2,-0.00144445,0.00084968,-0.00079239,0.00058848,0.00007501,-0.00069406
 ,-0.00143424,0.00114905,-0.00003744,0.00002726,0.00070204,-0.00028666,
 -0.00253861,-0.00491378,0.53472897,0.00017092,-0.00066539,-0.00011677,
 -0.00093755,0.00005075,0.00004593,0.00174122,-0.00131910,0.00001678,0.
 00003228,-0.00005690,-0.00063822,-0.00017956,-0.00035699,0.00003956,-0
 .00775307,-0.00808946,-0.01521674,-0.00147941,-0.00020000,0.00060943,0
 .00106630,0.00011272,-0.00008342,0.00000203,-0.00052425,0.00011736,-0.
 00004257,-0.00001724,0.00001793,0.00001891,0.00010814,0.00008054,-0.00
 048597,0.00165752,-0.00033640,0.00029257,0.00041542,0.00029059,0.00003
 874,-0.00018455,0.00018090,0.00000290,0.00005234,-0.00001314,-0.000044
 83,0.00002815,-0.00001539,-0.00017977,0.00008399,0.00001001,0.00002145
 ,0.00001712,0.00002317,-0.00000420,-0.00003430,-0.00001836,0.00001379,
 -0.00003755,0.00000058,0.00001853,-0.00007493,0.00003021,-0.00021969,-
 0.00002002,0.00011479,-0.00002470,0.00014731,0.00012382,-0.00053135,0.
 00109140,-0.00033773,0.00008757,-0.00021188,-0.00008862,-0.05362864,-0
 .01520673,-0.05426825,0.05967315,0.00009742,0.00097656,0.00036102,-0.0
 0223023,0.00000954,0.00009930,0.00792192,0.00065949,-0.00036219,-0.000
 05366,0.00003449,-0.00018590,-0.00125833,-0.00005209,-0.00016556,-0.01
 310606,-0.01030985,-0.02357799,-0.00293681,-0.00297812,0.00021367,0.00
 265963,0.00081022,-0.00025583,0.00019579,-0.00048846,0.00079723,0.0000
 2308,-0.00014059,0.00006167,0.00016193,0.00015676,0.00006493,-0.001287
 50,-0.00101698,0.00022587,-0.00002447,-0.00093035,-0.00090480,0.000092
 31,-0.00028365,0.00041024,-0.00004969,0.00014845,-0.00002967,-0.000094
 20,0.00007857,-0.00004870,-0.00032468,0.00021910,0.00000514,0.00006876
 ,-0.00003377,0.00011442,-0.00000091,-0.00007882,-0.00004635,0.00002933
 ,-0.00009927,-0.00001423,0.00003344,-0.00017824,0.00005537,0.00032760,
 -0.00018012,-0.00036724,-0.00001463,-0.00006363,0.00000657,0.00120628,
 -0.00099849,0.00076736,-0.00014552,0.00031321,0.00018221,-0.01596735,-
 0.06327838,-0.07127538,0.02055717,0.07231129,0.00007582,-0.00017588,0.
 00014175,-0.00065469,0.00002378,-0.00000462,0.00174248,0.00014625,-0.0
 0037711,0.00016052,-0.00006971,-0.00010774,-0.00022937,-0.00018062,0.0
 0038514,-0.00263593,-0.00452957,0.00766997,-0.00056178,-0.00027016,-0.
 00078038,0.00076799,0.00014996,0.00009063,0.00005481,-0.00035784,-0.00
 016182,0.00003272,0.00000314,-0.00001953,0.00009591,0.00002356,0.00001
 144,-0.00138630,0.00177962,-0.00086432,0.00065566,0.00016873,-0.000211
 31,0.00004071,-0.00005382,0.00000422,-0.00001450,0.00002761,-0.0000152
 8,-0.00005644,0.00005086,-0.00001132,-0.00006466,0.00003046,0.00001720
 ,0.00001426,0.00001167,-0.00001380,-0.00000273,-0.00002750,-0.00001246
 ,0.00001874,-0.00003473,-0.00001097,0.00001262,-0.00004228,0.00001321,
 -0.00036133,0.00034898,-0.00090063,-0.00006912,-0.00010688,0.00015027,
 -0.00046874,0.00065423,0.00078292,-0.00001145,0.00015426,0.00020323,-0
 .05060688,-0.06651241,-0.27207473,0.05939231,0.07593397,0.29366006,0.0
 0011587,-0.00031482,-0.00027044,-0.00075761,0.00002996,0.00001283,-0.0
 0136987,-0.00330579,0.00175275,0.00067298,-0.00021071,0.00012339,-0.00
 015334,-0.00048263,-0.00007011,-0.01556910,0.00020951,0.00511602,-0.00
 057063,0.00082356,0.00011705,0.00091327,0.00011510,-0.00003344,-0.0000
 4590,-0.00038725,-0.00035413,0.00003393,0.00009326,0.00001846,0.000034
 13,0.00000454,0.00002281,0.00024564,0.00206141,-0.00087179,0.00044261,
 -0.00025085,0.00104168,-0.00003555,-0.00022283,-0.00023224,0.00002457,
 0.00003179,0.00000718,-0.00015654,0.00006604,-0.00002950,-0.00003785,0
 .00001771,-0.00000517,0.00001307,0.00001453,0.00004548,-0.00000392,-0.
 00002741,-0.00001162,0.00001794,-0.00002572,-0.00000512,0.00001565,-0.
 00006804,0.00002691,-0.00124838,0.00080312,-0.00099392,-0.00045083,0.0
 0096639,-0.00084021,-0.00019293,0.00018860,-0.00007904,-0.00005040,0.0
 0034021,-0.00018197,-0.24719607,0.02931348,0.12120672,0.00622768,-0.00
 057515,-0.00396919,0.27077350,0.00027563,0.00002227,-0.00000009,-0.000
 32604,-0.00007036,-0.00006032,-0.00124402,-0.00396224,0.00110676,-0.00
 045080,-0.00055349,0.00020568,-0.00060698,0.00058707,0.00026276,-0.026
 37847,0.00523991,0.01325619,-0.00116771,-0.00062917,-0.00076632,0.0003
 6734,0.00029316,0.00017647,0.00006562,0.00005254,-0.00035244,0.0000576
 6,0.00014362,0.00003102,0.00007021,0.00006116,-0.00002054,0.00061469,0
 .00064420,-0.00048247,-0.00046090,-0.00051490,-0.00011280,-0.00008445,
 -0.00023707,-0.00035685,0.00000624,0.00003051,0.00000267,-0.00017118,0
 .00007312,-0.00001422,0.00001640,-0.00001797,0.00000036,-0.00000411,-0
 .00000619,-0.00002602,0.00000134,-0.00002209,-0.00000371,0.00002138,-0
 .00001475,-0.00001424,0.00001207,-0.00001056,0.00000543,0.00069099,-0.
 00065700,0.00091271,0.00096457,-0.00025077,0.00041562,0.00014660,-0.00
 023950,0.00023229,0.00018015,-0.00002207,-0.00001093,0.03070973,-0.050
 77332,-0.01708331,0.00779933,-0.00160296,-0.00360633,-0.02985514,0.054
 59995,-0.00031974,-0.00005960,0.00002836,0.00018293,-0.00003823,-0.000
 01440,-0.00226728,-0.00115693,-0.00066793,0.00041196,0.00003316,0.0000
 6094,0.00005061,-0.00002370,0.00004694,-0.00273203,0.00038652,0.001850
 25,0.00015869,0.00011223,-0.00024699,-0.00019129,0.00002921,0.00005772
 ,-0.00011084,0.00011062,0.00005284,-0.00001056,-0.00003202,-0.00001583
 ,0.00003226,-0.00000653,-0.00000927,-0.00029292,0.00023185,0.00015756,
 0.00095923,0.00047659,-0.00035954,-0.00007141,-0.00000879,0.00006523,0
 .00001143,-0.00000495,0.00000254,0.00002204,-0.00000978,0.00001690,-0.
 00000814,-0.00000507,0.00000284,-0.00001689,-0.00002650,-0.00001270,-0
 .00000082,0.00000089,0.00000325,-0.00000051,0.00001060,-0.00000060,-0.
 00000563,0.00001944,-0.00001127,0.00053058,-0.00002166,0.00037455,-0.0
 0081078,0.00019880,0.00054368,0.00014199,0.00020136,-0.00103808,-0.000
 04344,-0.00052051,0.00008066,0.12126378,-0.01557669,-0.11301359,0.0258
 8683,-0.00416132,-0.01521694,-0.12892445,0.01918084,0.11957429,0.00018
 073,0.00014676,0.00012692,0.00017378,0.00001061,-0.00002293,0.00138693
 ,-0.00253581,0.00071788,-0.00106972,0.00018057,0.00018554,0.00019525,0
 .00023977,0.00035507,0.00763612,-0.01484654,0.00867119,0.00022033,-0.0
 0061831,0.00003173,-0.00026298,-0.00009748,0.00011888,0.00025291,-0.00
 045807,-0.00045206,-0.00001849,-0.00004181,-0.00003504,-0.00008933,-0.
 00015234,-0.00002546,-0.00201928,-0.00175794,-0.00044279,-0.00056068,-
 0.00028668,-0.00016422,0.00003930,0.00013042,-0.00021036,-0.00002369,-
 0.00000389,-0.00001340,-0.00000067,0.00003114,0.00000399,0.00007535,-0
 .00003951,0.00002230,-0.00002161,0.00000204,-0.00007898,-0.00000799,-0
 .00000465,0.00000595,-0.00000372,0.00001033,0.00000484,-0.00000251,0.0
 0002900,-0.00000741,-0.00042197,0.00047366,-0.00091977,0.00039267,-0.0
 0017591,-0.00012016,-0.00025560,0.00021259,0.00058124,0.00000934,0.000
 40578,0.00010244,-0.11980849,0.10295335,-0.06057091,-0.00389671,0.0046
 9452,-0.00197143,-0.01169192,0.01874988,-0.01384560,0.12959267,0.00010
 354,0.00014625,0.00002916,-0.00116201,-0.00000265,0.00005505,0.0072317
 8,0.00266937,-0.00046668,-0.00184356,-0.00017764,0.00075529,-0.0003418
 5,0.00029830,-0.00006586,0.01201199,-0.02313716,0.01035235,-0.00167400
 ,-0.00175615,-0.00033652,0.00128194,0.00043101,-0.00011109,0.00089619,
 -0.00061833,-0.00004100,-0.00003576,-0.00018690,-0.00007134,-0.0000268
 1,-0.00024979,0.00001037,-0.00471891,-0.00205907,0.00072612,0.00003452
 ,0.00004196,-0.00014437,0.00007738,-0.00009187,0.00013976,-0.00006107,
 0.00008785,-0.00001329,-0.00006071,0.00005823,-0.00003931,-0.00011976,
 0.00010882,-0.00000264,0.00002476,-0.00002265,0.00006883,-0.00002133,-
 0.00003674,-0.00002491,0.00003097,-0.00002714,0.00000246,0.00001223,-0
 .00009975,0.00000631,-0.00014746,0.00015022,0.00006186,-0.00003177,-0.
 00000232,-0.00006999,0.00016093,-0.00012574,0.00006240,-0.00006739,0.0
 0010540,0.00001370,0.10017261,-0.19038079,0.08763022,-0.00512207,0.006
 99607,-0.00353937,0.00064710,-0.00216310,0.00066017,-0.10725147,0.2100
 4429,0.00017967,-0.00038352,-0.00006685,0.00057677,0.00000818,-0.00001
 737,-0.00252500,-0.00115934,0.00024344,0.00095411,0.00085747,0.0001353
 3,0.00043743,-0.00015973,0.00011353,0.00213682,-0.00386869,0.00001165,
 0.00084906,0.00111652,-0.00003700,-0.00068145,-0.00028153,0.00005524,-
 0.00011241,-0.00021733,0.00002621,-0.00004304,-0.00007364,0.00003289,-
 0.00002977,0.00003539,0.00006668,-0.00036856,0.00044493,-0.00000716,-0
 .00019162,0.00024930,0.00005041,-0.00003151,0.00005595,-0.00011132,0.0
 0002633,-0.00004507,0.00001230,0.00001740,-0.00002758,0.00001940,0.000
 06391,-0.00005841,0.00000699,-0.00003119,0.00000959,-0.00005175,-0.000
 00158,0.00001752,0.00001468,-0.00001189,0.00002563,0.00000696,-0.00000
 232,0.00005332,-0.00000786,0.00002796,-0.00017192,-0.00056338,-0.00012
 023,0.00001488,0.00010985,-0.00000235,0.00018694,0.00035374,-0.0000834
 2,0.00004480,0.00022789,-0.06051904,0.08975605,-0.09662137,-0.01584771
 ,0.02209621,-0.01234709,0.00738106,-0.01287822,0.00768859,0.06795255,-
 0.09564769,0.10065536\\-0.00000220,0.00000224,-0.00000187,-0.00000325,
 -0.00000135,0.00000336,-0.00000110,0.00000203,0.00000413,0.00000030,0.
 00000024,0.00000071,-0.00000284,-0.00000127,0.00000269,-0.00000015,-0.
 00000644,0.00000099,0.00000011,0.00000158,-0.00000282,0.00000530,0.000
 00220,-0.00000146,0.00000061,-0.00000785,0.00000720,-0.00000059,0.0000
 0219,-0.00000378,-0.00000027,0.00000208,-0.00000513,-0.00000090,0.0000
 1098,-0.00000320,0.00000312,-0.00000563,-0.00000248,0.00000145,-0.0000
 0074,0.00000094,-0.00000044,0.00000062,0.00000532,-0.00000104,0.000000
 93,0.00000472,0.00000020,-0.00000031,0.00000452,-0.00000016,0.00000046
 ,-0.00000242,-0.00000027,-0.00000023,-0.00000032,-0.00000110,-0.000000
 57,0.00000043,-0.00000055,-0.00000012,0.00000046,0.00000296,-0.0000015
 4,-0.00000589,-0.00000054,0.00000175,-0.00000068,-0.00000206,0.0000012
 6,-0.00000119,0.00000105,-0.00000042,-0.00000371,0.00000185,-0.0000012
 4,-0.00000053,0.00000080,-0.00000024,-0.00000031,-0.00000025,-0.000000
 97,-0.00000004,-0.00000005,0.00000035,0.00000038\\\@


 THERE ARE TWO THINGS THAT EVERYBODY THINKS THEY CAN DO BETTER THAN
 ANYONE ELSE - PUNCH THE FIRE, AND EDIT A DAILY PAPER.
 -- UNCLE ESEK, "CENTURY MAGAZINE", 1885
 Job cpu time:       0 days  5 hours  5 minutes 53.4 seconds.
 Elapsed time:       0 days  0 hours 11 minutes 15.6 seconds.
 File lengths (MBytes):  RWF=   1417 Int=      0 D2E=      0 Chk=     67 Scr=      1
 Normal termination of Gaussian 16 at Mon Mar  9 17:50:13 2026.
