 Entering Gaussian System, Link 0=g16
 Input=h2o-s1-freq.gjf
 Output=h2o-s1-freq.log
 Initial command:
 /data/home/wyx/g16/l1.exe "/scr/tmp/wyx/16267/Gau-89861.inp" -scrdir="/scr/tmp/wyx/16267/"
 Entering Link 1 = /data/home/wyx/g16/l1.exe PID=     89862.
  
 Copyright (c) 1988,1990,1992,1993,1995,1998,2003,2009,2016,
            Gaussian, Inc.  All Rights Reserved.
  
 This is part of the Gaussian(R) 16 program.  It is based on
 the Gaussian(R) 09 system (copyright 2009, Gaussian, Inc.),
 the Gaussian(R) 03 system (copyright 2003, Gaussian, Inc.),
 the Gaussian(R) 98 system (copyright 1998, Gaussian, Inc.),
 the Gaussian(R) 94 system (copyright 1995, Gaussian, Inc.),
 the Gaussian 92(TM) system (copyright 1992, Gaussian, Inc.),
 the Gaussian 90(TM) system (copyright 1990, Gaussian, Inc.),
 the Gaussian 88(TM) system (copyright 1988, Gaussian, Inc.),
 the Gaussian 86(TM) system (copyright 1986, Carnegie Mellon
 University), and the Gaussian 82(TM) system (copyright 1983,
 Carnegie Mellon University). Gaussian is a federally registered
 trademark of Gaussian, Inc.
  
 This software contains proprietary and confidential information,
 including trade secrets, belonging to Gaussian, Inc.
  
 This software is provided under written license and may be
 used, copied, transmitted, or stored only in accord with that
 written license.
  
 The following legend is applicable only to US Government
 contracts under FAR:
  
                    RESTRICTED RIGHTS LEGEND
  
 Use, reproduction and disclosure by the US Government is
 subject to restrictions as set forth in subparagraphs (a)
 and (c) of the Commercial Computer Software - Restricted
 Rights clause in FAR 52.227-19.
  
 Gaussian, Inc.
 340 Quinnipiac St., Bldg. 40, Wallingford CT 06492
  
  
 ---------------------------------------------------------------
 Warning -- This program may not be used in any manner that
 competes with the business of Gaussian, Inc. or will provide
 assistance to any competitor of Gaussian, Inc.  The licensee
 of this program is prohibited from giving any competitor of
 Gaussian, Inc. access to this program.  By using this program,
 the user acknowledges that Gaussian, Inc. is engaged in the
 business of creating and licensing software in the field of
 computational chemistry and represents and warrants to the
 licensee that it is not a competitor of Gaussian, Inc. and that
 it will not use this program in any manner prohibited above.
 ---------------------------------------------------------------
  

 Cite this work as:
 Gaussian 16, Revision A.03,
 M. J. Frisch, G. W. Trucks, H. B. Schlegel, G. E. Scuseria, 
 M. A. Robb, J. R. Cheeseman, G. Scalmani, V. Barone, 
 G. A. Petersson, H. Nakatsuji, X. Li, M. Caricato, A. V. Marenich, 
 J. Bloino, B. G. Janesko, R. Gomperts, B. Mennucci, H. P. Hratchian, 
 J. V. Ortiz, A. F. Izmaylov, J. L. Sonnenberg, D. Williams-Young, 
 F. Ding, F. Lipparini, F. Egidi, J. Goings, B. Peng, A. Petrone, 
 T. Henderson, D. Ranasinghe, V. G. Zakrzewski, J. Gao, N. Rega, 
 G. Zheng, W. Liang, M. Hada, M. Ehara, K. Toyota, R. Fukuda, 
 J. Hasegawa, M. Ishida, T. Nakajima, Y. Honda, O. Kitao, H. Nakai, 
 T. Vreven, K. Throssell, J. A. Montgomery, Jr., J. E. Peralta, 
 F. Ogliaro, M. J. Bearpark, J. J. Heyd, E. N. Brothers, K. N. Kudin, 
 V. N. Staroverov, T. A. Keith, R. Kobayashi, J. Normand, 
 K. Raghavachari, A. P. Rendell, J. C. Burant, S. S. Iyengar, 
 J. Tomasi, M. Cossi, J. M. Millam, M. Klene, C. Adamo, R. Cammi, 
 J. W. Ochterski, R. L. Martin, K. Morokuma, O. Farkas, 
 J. B. Foresman, and D. J. Fox, Gaussian, Inc., Wallingford CT, 2016.
 
 ******************************************
 Gaussian 16:  ES64L-G16RevA.03 25-Dec-2016
                28-Jun-2026 
 ******************************************
 %nprocshared=16
 Will use up to   16 processors via shared memory.
 %mem=16GB
 %chk=h2o-s1-freq=intmodes.chk
 ----------------------------------------------------------------------
 #p freq=intmodes td=(root=1,nstates=6) cam-b3lyp tzvp geom=connectivit
 y
 ----------------------------------------------------------------------
 1/10=4,18=20,30=1,38=1,57=2/1,3;
 2/9=110,12=2,17=6,18=5,40=1/2;
 3/5=19,7=101,11=9,25=1,30=1,71=2,74=-40,140=1/1,2,3,8;
 4//1;
 5/5=2,38=5,98=1/2;
 8/6=1,10=1,107=1,108=6/1;
 9/8=1,15=3,41=6,42=1,70=2/14;
 10/5=2004,20=4,28=1/2;
 11/6=1,8=1,12=-1,16=1,42=3/1,2,10;
 10/6=3,21=1,28=1/2,14;
 6/7=2,8=2,9=2,10=2/1;
 7/8=21,10=1,12=6,13=8,14=1,25=1,44=2/1,2,3,16;
 1/10=4,18=20,30=1/3;
 99//99;
 Leave Link    1 at Sun Jun 28 19:33:34 2026, MaxMem=  2147483648 cpu:               0.4 elap:               0.0
 (Enter /data/home/wyx/g16/l101.exe)
 -------------------
 Title Card Required
 -------------------
 Symbolic Z-matrix:
 Charge =  0 Multiplicity = 1
 O                    -2.1152   -2.90503   0.05539 
 O                    -1.00714  -8.94683  -0.96441 
 O                    -7.17346  -8.12245  -0.95467 
 O                    -0.19803  -1.71013   1.72416 
 O                     1.47085  -10.05456  -0.42944 
 H                    -7.81209  -7.93657  -1.64744 
 H                    -0.87291  -2.06891   1.12157 
 H                     1.27118  -10.95918  -0.17063 
 H                    -7.49416  -8.90482  -0.49678 
 H                    -0.17513  -0.76766   1.52372 
 H                     0.59702  -9.71229  -0.70908 
 N                    -4.58964  -6.83548  -0.52522 
 H                    -5.4905   -7.29173  -0.66711 
 C                    -2.2381   -6.99209  -0.55804 
 C                    -4.63744  -5.49801  -0.20298 
 C                    -3.5015   -7.60431  -0.70053 
 C                    -1.00389  -7.73332  -0.72403 
 C                    -2.17743  -5.552    -0.29794 
 H                    -1.43557  -5.32342   0.47907 
 H                    -1.69004  -5.02545  -1.14464 
 C                    -3.42737  -4.82165  -0.03238 
 C                    -3.21204  -3.42453   0.30991 
 C                    -3.75249  -9.02434  -1.08962 
 H                    -4.82305  -9.20593  -1.17161 
 H                    -3.27879  -9.25652  -2.04303 
 H                    -3.31978  -9.71763  -0.37163 
 C                     0.31551  -7.02028  -0.58653 
 H                     1.07412  -7.57953  -1.12665 
 H                     0.29096  -5.99751  -0.94997 
 H                     0.61664  -6.99854   0.46295 
 C                    -4.21756  -2.57009   1.04222 
 H                    -5.18033  -3.03066   1.23096 
 H                    -3.76929  -2.29096   1.9981 
 H                    -4.35996  -1.64456   0.48706 
 C                    -6.00655  -4.91244  -0.14687 
 H                    -6.37305  -4.78353   0.87498 
 H                    -6.01556  -3.93441  -0.62403 
 H                    -6.72315  -5.5498   -0.66411 
 
 Add virtual bond connecting atoms H11        and O2         Dist= 3.39D+00.
 Add virtual bond connecting atoms H7         and O1         Dist= 3.47D+00.
 Add virtual bond connecting atoms H13        and O3         Dist= 3.59D+00.
 ITRead=  0  0  0  0  0  0  0  0  0  0  0  0  0  0  0  0  0  0  0  0
 ITRead=  0  0  0  0  0  0  0  0  0  0  0  0  0  0  0  0  0  0
 MicOpt= -1 -1 -1 -1 -1 -1 -1 -1 -1 -1 -1 -1 -1 -1 -1 -1 -1 -1 -1 -1
 MicOpt= -1 -1 -1 -1 -1 -1 -1 -1 -1 -1 -1 -1 -1 -1 -1 -1 -1 -1
 NAtoms=     38 NQM=       38 NQMF=       0 NMMI=      0 NMMIF=      0
                NMic=       0 NMicF=      0.
                    Isotopes and Nuclear Properties:
 (Nuclear quadrupole moments (NQMom) in fm**2, nuclear magnetic moments (NMagM)
  in nuclear magnetons)

  Atom         1           2           3           4           5           6           7           8           9          10
 IAtWgt=          16          16          16          16          16           1           1           1           1           1
 AtmWgt=  15.9949146  15.9949146  15.9949146  15.9949146  15.9949146   1.0078250   1.0078250   1.0078250   1.0078250   1.0078250
 NucSpn=           0           0           0           0           0           1           1           1           1           1
 AtZEff=  -0.0000000  -0.0000000  -0.0000000  -0.0000000  -0.0000000  -0.0000000  -0.0000000  -0.0000000  -0.0000000  -0.0000000
 NQMom=    0.0000000   0.0000000   0.0000000   0.0000000   0.0000000   0.0000000   0.0000000   0.0000000   0.0000000   0.0000000
 NMagM=    0.0000000   0.0000000   0.0000000   0.0000000   0.0000000   2.7928460   2.7928460   2.7928460   2.7928460   2.7928460
 AtZNuc=   8.0000000   8.0000000   8.0000000   8.0000000   8.0000000   1.0000000   1.0000000   1.0000000   1.0000000   1.0000000

  Atom        11          12          13          14          15          16          17          18          19          20
 IAtWgt=           1          14           1          12          12          12          12          12           1           1
 AtmWgt=   1.0078250  14.0030740   1.0078250  12.0000000  12.0000000  12.0000000  12.0000000  12.0000000   1.0078250   1.0078250
 NucSpn=           1           2           1           0           0           0           0           0           1           1
 AtZEff=  -0.0000000  -0.0000000  -0.0000000  -0.0000000  -0.0000000  -0.0000000  -0.0000000  -0.0000000  -0.0000000  -0.0000000
 NQMom=    0.0000000   2.0440000   0.0000000   0.0000000   0.0000000   0.0000000   0.0000000   0.0000000   0.0000000   0.0000000
 NMagM=    2.7928460   0.4037610   2.7928460   0.0000000   0.0000000   0.0000000   0.0000000   0.0000000   2.7928460   2.7928460
 AtZNuc=   1.0000000   7.0000000   1.0000000   6.0000000   6.0000000   6.0000000   6.0000000   6.0000000   1.0000000   1.0000000

  Atom        21          22          23          24          25          26          27          28          29          30
 IAtWgt=          12          12          12           1           1           1          12           1           1           1
 AtmWgt=  12.0000000  12.0000000  12.0000000   1.0078250   1.0078250   1.0078250  12.0000000   1.0078250   1.0078250   1.0078250
 NucSpn=           0           0           0           1           1           1           0           1           1           1
 AtZEff=  -0.0000000  -0.0000000  -0.0000000  -0.0000000  -0.0000000  -0.0000000  -0.0000000  -0.0000000  -0.0000000  -0.0000000
 NQMom=    0.0000000   0.0000000   0.0000000   0.0000000   0.0000000   0.0000000   0.0000000   0.0000000   0.0000000   0.0000000
 NMagM=    0.0000000   0.0000000   0.0000000   2.7928460   2.7928460   2.7928460   0.0000000   2.7928460   2.7928460   2.7928460
 AtZNuc=   6.0000000   6.0000000   6.0000000   1.0000000   1.0000000   1.0000000   6.0000000   1.0000000   1.0000000   1.0000000

  Atom        31          32          33          34          35          36          37          38
 IAtWgt=          12           1           1           1          12           1           1           1
 AtmWgt=  12.0000000   1.0078250   1.0078250   1.0078250  12.0000000   1.0078250   1.0078250   1.0078250
 NucSpn=           0           1           1           1           0           1           1           1
 AtZEff=  -0.0000000  -0.0000000  -0.0000000  -0.0000000  -0.0000000  -0.0000000  -0.0000000  -0.0000000
 NQMom=    0.0000000   0.0000000   0.0000000   0.0000000   0.0000000   0.0000000   0.0000000   0.0000000
 NMagM=    0.0000000   2.7928460   2.7928460   2.7928460   0.0000000   2.7928460   2.7928460   2.7928460
 AtZNuc=   6.0000000   1.0000000   1.0000000   1.0000000   6.0000000   1.0000000   1.0000000   1.0000000
 Leave Link  101 at Sun Jun 28 19:33:35 2026, MaxMem=  2147483648 cpu:               5.2 elap:               0.4
 (Enter /data/home/wyx/g16/l103.exe)

 GradGradGradGradGradGradGradGradGradGradGradGradGradGradGradGradGradGrad
 Berny optimization.
 Initialization pass.
                           ----------------------------
                           !    Initial Parameters    !
                           ! (Angstroms and Degrees)  !
 --------------------------                            --------------------------
 ! Name  Definition              Value          Derivative Info.                !
 --------------------------------------------------------------------------------
 ! R1    R(1,7)                  1.8382         calculate D2E/DX2 analytically  !
 ! R2    R(1,22)                 1.2401         calculate D2E/DX2 analytically  !
 ! R3    R(2,11)                 1.7957         calculate D2E/DX2 analytically  !
 ! R4    R(2,17)                 1.2371         calculate D2E/DX2 analytically  !
 ! R5    R(3,6)                  0.9604         calculate D2E/DX2 analytically  !
 ! R6    R(3,9)                  0.9616         calculate D2E/DX2 analytically  !
 ! R7    R(3,13)                 1.8987         calculate D2E/DX2 analytically  !
 ! R8    R(4,7)                  0.9733         calculate D2E/DX2 analytically  !
 ! R9    R(4,10)                 0.9638         calculate D2E/DX2 analytically  !
 ! R10   R(5,8)                  0.9619         calculate D2E/DX2 analytically  !
 ! R11   R(5,11)                 0.9792         calculate D2E/DX2 analytically  !
 ! R12   R(12,13)                1.0197         calculate D2E/DX2 analytically  !
 ! R13   R(12,15)                1.3766         calculate D2E/DX2 analytically  !
 ! R14   R(12,16)                1.3438         calculate D2E/DX2 analytically  !
 ! R15   R(14,16)                1.4111         calculate D2E/DX2 analytically  !
 ! R16   R(14,17)                1.4492         calculate D2E/DX2 analytically  !
 ! R17   R(14,18)                1.4646         calculate D2E/DX2 analytically  !
 ! R18   R(15,21)                1.3967         calculate D2E/DX2 analytically  !
 ! R19   R(15,35)                1.4901         calculate D2E/DX2 analytically  !
 ! R20   R(16,23)                1.4936         calculate D2E/DX2 analytically  !
 ! R21   R(17,27)                1.506          calculate D2E/DX2 analytically  !
 ! R22   R(18,19)                1.0983         calculate D2E/DX2 analytically  !
 ! R23   R(18,20)                1.1098         calculate D2E/DX2 analytically  !
 ! R24   R(18,21)                1.4718         calculate D2E/DX2 analytically  !
 ! R25   R(21,22)                1.4545         calculate D2E/DX2 analytically  !
 ! R26   R(22,31)                1.5091         calculate D2E/DX2 analytically  !
 ! R27   R(23,24)                1.0889         calculate D2E/DX2 analytically  !
 ! R28   R(23,25)                1.0896         calculate D2E/DX2 analytically  !
 ! R29   R(23,26)                1.0878         calculate D2E/DX2 analytically  !
 ! R30   R(27,28)                1.0863         calculate D2E/DX2 analytically  !
 ! R31   R(27,29)                1.0857         calculate D2E/DX2 analytically  !
 ! R32   R(27,30)                1.092          calculate D2E/DX2 analytically  !
 ! R33   R(31,32)                1.0838         calculate D2E/DX2 analytically  !
 ! R34   R(31,33)                1.092          calculate D2E/DX2 analytically  !
 ! R35   R(31,34)                1.0886         calculate D2E/DX2 analytically  !
 ! R36   R(35,36)                1.0932         calculate D2E/DX2 analytically  !
 ! R37   R(35,37)                1.0883         calculate D2E/DX2 analytically  !
 ! R38   R(35,38)                1.0896         calculate D2E/DX2 analytically  !
 ! A1    A(7,1,22)             132.0104         calculate D2E/DX2 analytically  !
 ! A2    A(11,2,17)            112.8409         calculate D2E/DX2 analytically  !
 ! A3    A(6,3,9)              106.2125         calculate D2E/DX2 analytically  !
 ! A4    A(6,3,13)             127.8781         calculate D2E/DX2 analytically  !
 ! A5    A(9,3,13)             125.4135         calculate D2E/DX2 analytically  !
 ! A6    A(7,4,10)             104.3704         calculate D2E/DX2 analytically  !
 ! A7    A(8,5,11)             102.7283         calculate D2E/DX2 analytically  !
 ! A8    A(13,12,15)           115.8875         calculate D2E/DX2 analytically  !
 ! A9    A(13,12,16)           116.181          calculate D2E/DX2 analytically  !
 ! A10   A(15,12,16)           127.9176         calculate D2E/DX2 analytically  !
 ! A11   A(16,14,17)           121.9384         calculate D2E/DX2 analytically  !
 ! A12   A(16,14,18)           118.7896         calculate D2E/DX2 analytically  !
 ! A13   A(17,14,18)           119.2065         calculate D2E/DX2 analytically  !
 ! A14   A(12,15,21)           117.9693         calculate D2E/DX2 analytically  !
 ! A15   A(12,15,35)           114.9943         calculate D2E/DX2 analytically  !
 ! A16   A(21,15,35)           126.949          calculate D2E/DX2 analytically  !
 ! A17   A(12,16,14)           117.6176         calculate D2E/DX2 analytically  !
 ! A18   A(12,16,23)           116.2221         calculate D2E/DX2 analytically  !
 ! A19   A(14,16,23)           126.1025         calculate D2E/DX2 analytically  !
 ! A20   A(2,17,14)            121.4486         calculate D2E/DX2 analytically  !
 ! A21   A(2,17,27)            118.9781         calculate D2E/DX2 analytically  !
 ! A22   A(14,17,27)           119.5695         calculate D2E/DX2 analytically  !
 ! A23   A(14,18,19)           110.9919         calculate D2E/DX2 analytically  !
 ! A24   A(14,18,20)           110.4388         calculate D2E/DX2 analytically  !
 ! A25   A(14,18,21)           118.9971         calculate D2E/DX2 analytically  !
 ! A26   A(19,18,20)            98.2998         calculate D2E/DX2 analytically  !
 ! A27   A(19,18,21)           110.041          calculate D2E/DX2 analytically  !
 ! A28   A(20,18,21)           105.9722         calculate D2E/DX2 analytically  !
 ! A29   A(15,21,18)           118.2564         calculate D2E/DX2 analytically  !
 ! A30   A(15,21,22)           128.4744         calculate D2E/DX2 analytically  !
 ! A31   A(18,21,22)           113.1654         calculate D2E/DX2 analytically  !
 ! A32   A(1,22,21)            119.0169         calculate D2E/DX2 analytically  !
 ! A33   A(1,22,31)            116.8563         calculate D2E/DX2 analytically  !
 ! A34   A(21,22,31)           124.0155         calculate D2E/DX2 analytically  !
 ! A35   A(16,23,24)           110.0821         calculate D2E/DX2 analytically  !
 ! A36   A(16,23,25)           110.9447         calculate D2E/DX2 analytically  !
 ! A37   A(16,23,26)           111.5392         calculate D2E/DX2 analytically  !
 ! A38   A(24,23,25)           109.0246         calculate D2E/DX2 analytically  !
 ! A39   A(24,23,26)           109.5404         calculate D2E/DX2 analytically  !
 ! A40   A(25,23,26)           105.5918         calculate D2E/DX2 analytically  !
 ! A41   A(17,27,28)           108.8244         calculate D2E/DX2 analytically  !
 ! A42   A(17,27,29)           113.306          calculate D2E/DX2 analytically  !
 ! A43   A(17,27,30)           109.8001         calculate D2E/DX2 analytically  !
 ! A44   A(28,27,29)           109.5328         calculate D2E/DX2 analytically  !
 ! A45   A(28,27,30)           107.1889         calculate D2E/DX2 analytically  !
 ! A46   A(29,27,30)           108.0097         calculate D2E/DX2 analytically  !
 ! A47   A(22,31,32)           115.8353         calculate D2E/DX2 analytically  !
 ! A48   A(22,31,33)           107.2153         calculate D2E/DX2 analytically  !
 ! A49   A(22,31,34)           108.7266         calculate D2E/DX2 analytically  !
 ! A50   A(32,31,33)           108.7128         calculate D2E/DX2 analytically  !
 ! A51   A(32,31,34)           109.5056         calculate D2E/DX2 analytically  !
 ! A52   A(33,31,34)           106.4255         calculate D2E/DX2 analytically  !
 ! A53   A(15,35,36)           112.9274         calculate D2E/DX2 analytically  !
 ! A54   A(15,35,37)           110.1366         calculate D2E/DX2 analytically  !
 ! A55   A(15,35,38)           110.8855         calculate D2E/DX2 analytically  !
 ! A56   A(36,35,37)           107.5236         calculate D2E/DX2 analytically  !
 ! A57   A(36,35,38)           106.9897         calculate D2E/DX2 analytically  !
 ! A58   A(37,35,38)           108.1859         calculate D2E/DX2 analytically  !
 ! A59   L(1,7,4,5,-1)         175.2379         calculate D2E/DX2 analytically  !
 ! A60   L(2,11,5,28,-1)       177.2711         calculate D2E/DX2 analytically  !
 ! A61   L(3,13,12,23,-1)      180.4097         calculate D2E/DX2 analytically  !
 ! A62   L(1,7,4,5,-2)         182.935          calculate D2E/DX2 analytically  !
 ! A63   L(2,11,5,28,-2)       170.8527         calculate D2E/DX2 analytically  !
 ! A64   L(3,13,12,23,-2)      179.1396         calculate D2E/DX2 analytically  !
 ! D1    D(22,1,4,10)         -112.1686         calculate D2E/DX2 analytically  !
 ! D2    D(7,1,22,21)         -122.4694         calculate D2E/DX2 analytically  !
 ! D3    D(7,1,22,31)           53.8502         calculate D2E/DX2 analytically  !
 ! D4    D(17,2,5,8)           149.8858         calculate D2E/DX2 analytically  !
 ! D5    D(11,2,17,14)        -165.1698         calculate D2E/DX2 analytically  !
 ! D6    D(11,2,17,27)          14.1184         calculate D2E/DX2 analytically  !
 ! D7    D(6,3,12,15)           64.6829         calculate D2E/DX2 analytically  !
 ! D8    D(6,3,12,16)         -113.5496         calculate D2E/DX2 analytically  !
 ! D9    D(9,3,12,15)         -124.5441         calculate D2E/DX2 analytically  !
 ! D10   D(9,3,12,16)           57.2234         calculate D2E/DX2 analytically  !
 ! D11   D(13,12,15,21)       -178.4044         calculate D2E/DX2 analytically  !
 ! D12   D(13,12,15,35)         -1.5653         calculate D2E/DX2 analytically  !
 ! D13   D(16,12,15,21)          0.176          calculate D2E/DX2 analytically  !
 ! D14   D(16,12,15,35)        177.0151         calculate D2E/DX2 analytically  !
 ! D15   D(13,12,16,14)        177.8178         calculate D2E/DX2 analytically  !
 ! D16   D(13,12,16,23)          0.4117         calculate D2E/DX2 analytically  !
 ! D17   D(15,12,16,14)         -0.7591         calculate D2E/DX2 analytically  !
 ! D18   D(15,12,16,23)       -178.1652         calculate D2E/DX2 analytically  !
 ! D19   D(17,14,16,12)        179.8741         calculate D2E/DX2 analytically  !
 ! D20   D(17,14,16,23)         -3.0062         calculate D2E/DX2 analytically  !
 ! D21   D(18,14,16,12)         -3.0953         calculate D2E/DX2 analytically  !
 ! D22   D(18,14,16,23)        174.0245         calculate D2E/DX2 analytically  !
 ! D23   D(16,14,17,2)          -1.9141         calculate D2E/DX2 analytically  !
 ! D24   D(16,14,17,27)        178.8018         calculate D2E/DX2 analytically  !
 ! D25   D(18,14,17,2)        -178.9328         calculate D2E/DX2 analytically  !
 ! D26   D(18,14,17,27)          1.7831         calculate D2E/DX2 analytically  !
 ! D27   D(16,14,18,19)        136.541          calculate D2E/DX2 analytically  !
 ! D28   D(16,14,18,20)       -115.5206         calculate D2E/DX2 analytically  !
 ! D29   D(16,14,18,21)          7.3192         calculate D2E/DX2 analytically  !
 ! D30   D(17,14,18,19)        -46.3458         calculate D2E/DX2 analytically  !
 ! D31   D(17,14,18,20)         61.5926         calculate D2E/DX2 analytically  !
 ! D32   D(17,14,18,21)       -175.5675         calculate D2E/DX2 analytically  !
 ! D33   D(12,15,21,18)          4.1791         calculate D2E/DX2 analytically  !
 ! D34   D(12,15,21,22)       -179.8026         calculate D2E/DX2 analytically  !
 ! D35   D(35,15,21,18)       -172.2356         calculate D2E/DX2 analytically  !
 ! D36   D(35,15,21,22)          3.7827         calculate D2E/DX2 analytically  !
 ! D37   D(12,15,35,36)        102.4816         calculate D2E/DX2 analytically  !
 ! D38   D(12,15,35,37)       -137.2994         calculate D2E/DX2 analytically  !
 ! D39   D(12,15,35,38)        -17.5828         calculate D2E/DX2 analytically  !
 ! D40   D(21,15,35,36)        -81.012          calculate D2E/DX2 analytically  !
 ! D41   D(21,15,35,37)         39.2069         calculate D2E/DX2 analytically  !
 ! D42   D(21,15,35,38)        158.9236         calculate D2E/DX2 analytically  !
 ! D43   D(12,16,23,24)          0.1215         calculate D2E/DX2 analytically  !
 ! D44   D(12,16,23,25)        120.8897         calculate D2E/DX2 analytically  !
 ! D45   D(12,16,23,26)       -121.6923         calculate D2E/DX2 analytically  !
 ! D46   D(14,16,23,24)       -177.0336         calculate D2E/DX2 analytically  !
 ! D47   D(14,16,23,25)        -56.2655         calculate D2E/DX2 analytically  !
 ! D48   D(14,16,23,26)         61.1525         calculate D2E/DX2 analytically  !
 ! D49   D(2,17,27,28)          24.0515         calculate D2E/DX2 analytically  !
 ! D50   D(2,17,27,29)         146.1571         calculate D2E/DX2 analytically  !
 ! D51   D(2,17,27,30)         -92.9861         calculate D2E/DX2 analytically  !
 ! D52   D(14,17,27,28)       -156.6467         calculate D2E/DX2 analytically  !
 ! D53   D(14,17,27,29)        -34.5411         calculate D2E/DX2 analytically  !
 ! D54   D(14,17,27,30)         86.3158         calculate D2E/DX2 analytically  !
 ! D55   D(14,18,21,15)         -7.8488         calculate D2E/DX2 analytically  !
 ! D56   D(14,18,21,22)        175.5411         calculate D2E/DX2 analytically  !
 ! D57   D(19,18,21,15)       -137.5031         calculate D2E/DX2 analytically  !
 ! D58   D(19,18,21,22)         45.8867         calculate D2E/DX2 analytically  !
 ! D59   D(20,18,21,15)        117.1754         calculate D2E/DX2 analytically  !
 ! D60   D(20,18,21,22)        -59.4347         calculate D2E/DX2 analytically  !
 ! D61   D(15,21,22,1)        -159.7537         calculate D2E/DX2 analytically  !
 ! D62   D(15,21,22,31)         24.208          calculate D2E/DX2 analytically  !
 ! D63   D(18,21,22,1)          16.4318         calculate D2E/DX2 analytically  !
 ! D64   D(18,21,22,31)       -159.6065         calculate D2E/DX2 analytically  !
 ! D65   D(1,22,31,32)         178.3075         calculate D2E/DX2 analytically  !
 ! D66   D(1,22,31,33)         -60.146          calculate D2E/DX2 analytically  !
 ! D67   D(1,22,31,34)          54.5382         calculate D2E/DX2 analytically  !
 ! D68   D(21,22,31,32)         -5.5756         calculate D2E/DX2 analytically  !
 ! D69   D(21,22,31,33)        115.9709         calculate D2E/DX2 analytically  !
 ! D70   D(21,22,31,34)       -129.3449         calculate D2E/DX2 analytically  !
 --------------------------------------------------------------------------------
 Trust Radius=3.00D-01 FncErr=1.00D-07 GrdErr=1.00D-07 EigMax=2.50D+02 EigMin=1.00D-04
 Number of steps in this run=      2 maximum allowed number of steps=      2.
 GradGradGradGradGradGradGradGradGradGradGradGradGradGradGradGradGradGrad

 Leave Link  103 at Sun Jun 28 19:33:35 2026, MaxMem=  2147483648 cpu:               0.2 elap:               0.0
 (Enter /data/home/wyx/g16/l202.exe)
                          Input orientation:                          
 ---------------------------------------------------------------------
 Center     Atomic      Atomic             Coordinates (Angstroms)
 Number     Number       Type             X           Y           Z
 ---------------------------------------------------------------------
      1          8           0       -2.115197   -2.905028    0.055388
      2          8           0       -1.007145   -8.946826   -0.964409
      3          8           0       -7.173464   -8.122447   -0.954671
      4          8           0       -0.198032   -1.710126    1.724156
      5          8           0        1.470845  -10.054558   -0.429437
      6          1           0       -7.812095   -7.936567   -1.647436
      7          1           0       -0.872906   -2.068914    1.121568
      8          1           0        1.271182  -10.959180   -0.170631
      9          1           0       -7.494161   -8.904825   -0.496777
     10          1           0       -0.175126   -0.767665    1.523715
     11          1           0        0.597016   -9.712287   -0.709082
     12          7           0       -4.589637   -6.835479   -0.525221
     13          1           0       -5.490496   -7.291728   -0.667108
     14          6           0       -2.238100   -6.992086   -0.558042
     15          6           0       -4.637443   -5.498010   -0.202984
     16          6           0       -3.501501   -7.604310   -0.700531
     17          6           0       -1.003888   -7.733323   -0.724035
     18          6           0       -2.177432   -5.552005   -0.297944
     19          1           0       -1.435570   -5.323422    0.479070
     20          1           0       -1.690045   -5.025446   -1.144644
     21          6           0       -3.427375   -4.821651   -0.032378
     22          6           0       -3.212042   -3.424531    0.309910
     23          6           0       -3.752488   -9.024339   -1.089617
     24          1           0       -4.823051   -9.205935   -1.171611
     25          1           0       -3.278790   -9.256519   -2.043034
     26          1           0       -3.319779   -9.717627   -0.371632
     27          6           0        0.315512   -7.020284   -0.586534
     28          1           0        1.074117   -7.579533   -1.126647
     29          1           0        0.290964   -5.997511   -0.949966
     30          1           0        0.616637   -6.998544    0.462950
     31          6           0       -4.217560   -2.570092    1.042218
     32          1           0       -5.180332   -3.030660    1.230960
     33          1           0       -3.769289   -2.290965    1.998099
     34          1           0       -4.359956   -1.644565    0.487056
     35          6           0       -6.006547   -4.912437   -0.146866
     36          1           0       -6.373053   -4.783532    0.874983
     37          1           0       -6.015560   -3.934415   -0.624031
     38          1           0       -6.723146   -5.549803   -0.664111
 ---------------------------------------------------------------------
                    Distance matrix (angstroms):
                    1          2          3          4          5
     1  O    0.000000
     2  O    6.226643   0.000000
     3  O    7.336739   6.221188   0.000000
     4  O    2.808576   7.762272   9.846351   0.000000
     5  O    8.013147   2.766532   8.873162   8.777964   0.000000
     6  H    7.789136   6.913356   0.960377  10.397603   9.599082
     7  H    1.838236   7.188532   8.980705   0.973291   8.465772
     8  H    8.740024   3.141723   8.942808   9.554779   0.961866
     9  H    8.076862   6.503985   0.961576  10.484738   9.038681
    10  H    3.238546   8.589627  10.450452   0.963812   9.631739
    11  H    7.367448   1.795677   7.935255   8.401627   0.979249
    12  N    4.680642   4.181497   2.918369   7.114431   6.863023
    13  H    5.581916   4.788337   1.898728   8.054974   7.493329
    14  C    4.134664   2.345505   5.078666   6.104867   4.811605
    15  C    3.626574   5.064895   3.726138   6.145755   7.623949
    16  C    4.957469   2.844959   3.717037   7.178678   5.549904
    17  C    5.015470   1.237085   6.186136   6.551484   3.405763
    18  C    2.671180   3.652199   5.656748   4.771472   5.796568
    19  H    2.547554   3.923804   6.543209   4.017169   5.626391
    20  H    2.473258   3.984477   6.300428   4.631141   5.982868
    21  C    2.324426   4.872706   5.077308   4.816187   7.178686
    22  C    1.240054   6.081217   6.273950   3.744801   8.150664
    23  C    6.437214   2.749290   3.540437   8.605184   5.364736
    24  H    6.967024   3.830301   2.597201   9.271646   6.394068
    25  H    6.789607   2.533715   4.199897   8.979468   5.079330
    26  H    6.931441   2.508744   4.211344   8.846338   4.802806
    27  C    4.822421   2.367229   7.578592   5.813845   3.250583
    28  H    5.780997   2.495488   8.267220   6.647961   2.601777
    29  H    4.045219   3.222383   7.760996   5.076585   4.257076
    30  H    4.938208   2.910296   7.997405   5.497426   3.296247
    31  C    2.346475   7.415932   6.599514   4.166676   9.515301
    32  H    3.285241   7.565458   5.888621   5.177873   9.814796
    33  H    2.624351   7.791430   7.369765   3.628539   9.676017
    34  H    2.610373   8.165238   7.208145   4.342387  10.274540
    35  C    4.383287   6.476009   3.509759   6.891616   9.079243
    36  H    4.725447   7.036288   3.890584   6.949662   9.540019
    37  H    4.090731   7.093965   4.357715   6.656206   9.671622
    38  H    5.361502   6.656021   2.627871   7.938769   9.353576
                    6          7          8          9         10
     6  H    0.000000
     7  H    9.499952   0.000000
     8  H    9.686231   9.236001   0.000000
     9  H    1.537082   9.653483   9.008773   0.000000
    10  H   10.944069   1.530316  10.432142  11.129422   0.000000
    11  H    8.645625   7.995818   1.516302   8.134139   9.251370
    12  N    3.585526   6.264674   7.174946   3.566407   7.778458
    13  H    2.601285   7.197172   7.708241   2.577939   8.695761
    14  C    5.757451   5.377961   5.310648   5.593613   6.879898
    15  C    4.255751   5.261642   8.045948   4.455731   6.728293
    16  C    4.425861   6.392978   5.857854   4.204068   7.921601
    17  C    6.873548   5.958937   3.986020   6.599069   7.366113
    18  C    6.265516   3.981046   6.414568   6.288763   5.497052
    19  H    7.211839   3.364702   6.285729   7.105297   4.840963
    20  H    6.797567   3.813727   6.702743   7.011211   5.248220
    21  C    5.615771   3.928672   7.730771   5.781585   5.425251
    22  C    6.734253   2.822772   8.780726   7.001493   4.213682
    23  C    4.239672   7.845971   5.461264   3.790232   9.370149
    24  H    3.282086   8.473452   6.419930   2.771443  10.003619
    25  H    4.738104   8.213687   5.206457   4.503771   9.716742
    26  H    4.998075   8.168209   4.760124   4.254618   9.673831
    27  C    8.247611   5.370849   4.074455   8.034335   6.617335
    28  H    8.908617   6.261972   3.517786   8.693016   7.415293
    29  H    8.360979   4.591266   5.117260   8.322621   5.804104
    30  H    8.739402   5.191702   4.064049   8.386896   6.369927
    31  C    6.996712   3.382926  10.098222   7.296127   4.452174
    32  H    6.267317   4.414843  10.317360   6.545586   5.500813
    33  H    7.842642   3.034246  10.259030   7.990133   3.932365
    34  H    7.487497   3.569621  10.904326   7.968848   4.399593
    35  C    3.828456   6.004067   9.461977   4.274880   7.346798
    36  H    4.286615   6.138532   9.882624   4.485941   7.413659
    37  H    4.504677   5.742308  10.131609   5.187237   6.982248
    38  H    2.801675   7.037794   9.665100   3.446540   8.398333
                   11         12         13         14         15
    11  H    0.000000
    12  N    5.933902   0.000000
    13  H    6.551234   1.019726   0.000000
    14  C    3.931945   2.356975   3.267990   0.000000
    15  C    6.739127   1.376570   2.039739   2.848715   0.000000
    16  C    4.608848   1.343828   2.013685   1.411136   2.444262
    17  C    2.545470   3.701790   4.508647   1.449229   4.297772
    18  C    5.017424   2.741841   3.760228   1.464638   2.462435
    19  H    4.980487   3.639101   4.650847   2.122285   3.278364
    20  H    5.233244   3.473836   4.450562   2.124180   3.130047
    21  C    6.369613   2.376815   3.280340   2.530116   1.396722
    22  C    7.421802   3.772238   4.593597   3.798599   2.567906
    23  C    4.419985   2.410492   2.490206   2.589594   3.742227
    24  H    5.463282   2.468069   2.089065   3.458261   3.836847
    25  H    4.124200   3.143805   3.262701   2.901016   4.399785
    26  H    3.931308   3.153237   3.268685   2.938257   4.423782
    27  C    2.709454   4.909012   5.812908   2.553927   5.195786
    28  H    2.225000   5.743992   6.586968   3.411625   6.148805
    29  H    3.735138   4.970198   5.931297   2.745715   5.009659
    30  H    2.956086   5.301732   6.217722   3.031829   5.504582
    31  C    8.789661   4.559477   5.180348   5.102267   3.209289
    32  H    9.043542   4.231990   4.674994   5.248824   2.904951
    33  H    9.026044   5.262387   5.922289   5.565872   3.985423
    34  H    9.544132   5.293680   5.873727   5.847263   3.924563
    35  C    8.183012   2.418445   2.489575   4.323794   1.490131
    36  H    8.682382   3.058044   3.073760   4.901949   2.164448
    37  H    8.781640   3.234067   3.398396   4.860341   2.126339
    38  H    8.420990   2.494817   2.133949   4.712438   2.136698
                   16         17         18         19         20
    16  C    0.000000
    17  C    2.501053   0.000000
    18  C    2.475316   2.513346   0.000000
    19  H    3.295752   2.727899   1.098344   0.000000
    20  H    3.182632   2.824946   1.109825   1.670328   0.000000
    21  C    2.862711   3.850911   1.471836   2.116752   2.072917
    22  C    4.309911   4.950826   2.442550   2.605812   2.644831
    23  C    1.493608   3.058623   3.894182   4.639577   4.499760
    24  H    2.129228   4.117635   4.594975   5.410516   5.224265
    25  H    2.140493   3.038925   4.240490   5.022720   4.607949
    26  H    2.146464   3.070017   4.320046   4.856231   5.026942
    27  C    3.863117   1.506037   2.907559   2.661041   2.883249
    28  H    4.595484   2.122228   3.920483   3.737231   3.763546
    29  H    4.126356   2.177322   2.591638   2.340397   2.215222
    30  H    4.322002   2.138910   3.237013   2.649122   3.434859
    31  C    5.375246   6.332953   3.853565   3.954419   4.147223
    32  H    5.240936   6.586329   4.208579   4.454811   4.669558
    33  H    5.965396   6.684064   4.294206   4.116976   4.655908
    34  H    6.137253   7.057118   4.543977   4.699584   4.606650
    35  C    3.718599   5.772098   3.885099   4.631904   4.431763
    36  H    4.322597   6.331355   4.423748   4.982667   5.105681
    37  H    4.449098   6.289560   4.177817   4.911464   4.491266
    38  H    3.821168   6.122194   4.560438   5.414478   5.083106
                   21         22         23         24         25
    21  C    0.000000
    22  C    1.454467   0.000000
    23  C    4.345807   5.797293   0.000000
    24  H    4.740012   6.181819   1.088947   0.000000
    25  H    4.871639   6.289108   1.089634   1.773888   0.000000
    26  H    4.908895   6.330811   1.087836   1.778095   1.734326
    27  C    4.376103   5.116316   4.562669   5.614643   4.476734
    28  H    5.391360   6.139943   5.038348   6.117499   4.753930
    29  H    4.006327   4.525325   5.052791   6.041213   4.955711
    30  H    4.619334   5.239826   5.059996   6.093814   5.152937
    31  C    2.616996   1.509108   6.813099   7.021543   7.423502
    32  H    2.806516   2.208536   6.583920   6.635813   7.286715
    33  H    3.262532   2.108430   7.407604   7.679472   8.067855
    34  H    3.351626   2.125410   7.570732   7.754995   8.093956
    35  C    2.583308   3.198713   4.783022   4.569999   5.468744
    36  H    3.082495   3.486858   5.358307   5.113580   6.172269
    37  H    2.799275   2.998656   5.589776   5.432388   6.150469
    38  H    3.433861   4.218216   4.591107   4.151532   5.244498
                   26         27         28         29         30
    26  H    0.000000
    27  C    4.531797   0.000000
    28  H    4.944473   1.086261   0.000000
    29  H    5.216435   1.085703   1.774074   0.000000
    30  H    4.856471   1.092047   1.753184   1.761948   0.000000
    31  C    7.341133   6.557880   7.602652   6.003565   6.581504
    32  H    7.123587   7.030269   8.085091   6.594977   7.066738
    33  H    7.808521   6.762572   7.822504   6.238207   6.614706
    34  H    8.184964   7.204925   8.207133   6.530255   7.309730
    35  C    5.509909   6.678679   7.629494   6.440575   6.970673
    36  H    5.934798   7.202499   8.202712   7.015220   7.343828
    37  H    6.385647   7.043186   7.987680   6.643406   7.386234
    38  H    5.388804   7.191039   8.070381   7.034195   7.565813
                   31         32         33         34         35
    31  C    0.000000
    32  H    1.083825   0.000000
    33  H    1.092047   1.768246   0.000000
    34  H    1.088615   1.774167   1.746417   0.000000
    35  C    3.178203   2.474292   4.059349   3.713773   0.000000
    36  H    3.094097   2.149852   3.775429   3.749155   1.093215
    37  H    2.805453   2.226066   3.823902   3.036273   1.088253
    38  H    4.250670   3.509651   5.141270   4.707519   1.089629
                   36         37         38
    36  H    0.000000
    37  H    1.759501   0.000000
    38  H    1.754579   1.764019   0.000000
 Stoichiometry    C11H21NO5
 Framework group  C1[X(C11H21NO5)]
 Deg. of freedom   108
 Full point group                 C1      NOp   1
 Largest Abelian subgroup         C1      NOp   1
 Largest concise Abelian subgroup C1      NOp   1
                         Standard orientation:                         
 ---------------------------------------------------------------------
 Center     Atomic      Atomic             Coordinates (Angstroms)
 Number     Number       Type             X           Y           Z
 ---------------------------------------------------------------------
      1          8           0        2.733896   -1.737776   -0.622730
      2          8           0       -3.363067   -0.577307   -0.121289
      3          8           0       -0.364380    4.866035    0.163472
      4          8           0        3.475222   -4.193810    0.520263
      5          8           0       -5.155890   -2.595280    0.484740
      6          1           0       -0.111686    5.511944   -0.500811
      7          1           0        3.267034   -3.347374    0.087250
      8          1           0       -5.847066   -2.151038    0.984853
      9          1           0       -0.857909    5.348512    0.833004
     10          1           0        4.277696   -4.496455    0.080517
     11          1           0       -4.587018   -1.852338    0.196037
     12          7           0       -0.048901    1.967529    0.036939
     13          1           0       -0.164045    2.979313    0.090563
     14          6           0       -1.055765   -0.156148   -0.140686
     15          6           0        1.249442    1.511341    0.003103
     16          6           0       -1.180080    1.244162   -0.018296
     17          6           0       -2.213238   -1.025798   -0.205730
     18          6           0        0.282628   -0.736877   -0.269614
     19          1           0        0.385855   -1.631056    0.359788
     20          1           0        0.400113   -1.223675   -1.260036
     21          6           0        1.457356    0.134392   -0.104668
     22          6           0        2.718042   -0.589174   -0.155616
     23          6           0       -2.458559    2.016263   -0.003596
     24          1           0       -2.250099    3.083739    0.049735
     25          1           0       -3.046396    1.813423   -0.898361
     26          1           0       -3.090415    1.726677    0.833234
     27          6           0       -2.019088   -2.510903   -0.363579
     28          1           0       -2.918471   -2.937729   -0.798196
     29          1           0       -1.161527   -2.769165   -0.977289
     30          1           0       -1.883972   -2.972575    0.616813
     31          6           0        4.016203   -0.063961    0.406820
     32          1           0        3.990708    0.951550    0.784662
     33          1           0        4.310732   -0.732503    1.218529
     34          1           0        4.787499   -0.148431   -0.356756
     35          6           0        2.291514    2.576455    0.013595
     36          1           0        2.761367    2.702940    0.992552
     37          1           0        3.078449    2.337702   -0.699164
     38          1           0        1.864480    3.540421   -0.261547
 ---------------------------------------------------------------------
 Rotational constants (GHZ):           0.3711710           0.2878833           0.1654874
 Leave Link  202 at Sun Jun 28 19:33:35 2026, MaxMem=  2147483648 cpu:               0.2 elap:               0.0
 (Enter /data/home/wyx/g16/l301.exe)
 Standard basis: TZVP (5D, 7F)
 Ernie: Thresh=  0.10000D-02 Tol=  0.10000D-05 Strict=F.
 There are   466 symmetry adapted cartesian basis functions of A   symmetry.
 There are   449 symmetry adapted basis functions of A   symmetry.
   449 basis functions,   763 primitive gaussians,   466 cartesian basis functions
    67 alpha electrons       67 beta electrons
       nuclear repulsion energy      1262.3484434160 Hartrees.
 IExCor=20419 DFT=T Ex+Corr=CAM-B3LYP ExCW=0 ScaHFX=  1.000000
 ScaDFX=  1.000000  1.000000  1.000000  0.810000 ScalE2=  1.000000  1.000000
 IRadAn=      5 IRanWt=     -1 IRanGd=            0 ICorTp=0 IEmpDi=  4
 HFx  wShort=  0.000000 wLong=  0.330000 cFull=  0.190000 cShort=  0.000000 cLong=  0.460000
 DFx  wShort=  0.000000 wLong=  0.330000 cFull=  0.190000 cShort=  0.000000 cLong=  0.460000
 NAtoms=   38 NActive=   38 NUniq=   38 SFac= 1.00D+00 NAtFMM=   60 NAOKFM=F Big=F
 Integral buffers will be    131072 words long.
 Raffenetti 1 integral format.
 Two-electron integral symmetry is turned on.
 Leave Link  301 at Sun Jun 28 19:33:35 2026, MaxMem=  2147483648 cpu:               1.0 elap:               0.1
 (Enter /data/home/wyx/g16/l302.exe)
 NPDir=0 NMtPBC=     1 NCelOv=     1 NCel=       1 NClECP=     1 NCelD=      1
         NCelK=      1 NCelE2=     1 NClLst=     1 CellRange=     0.0.
 One-electron integrals computed using PRISM.
 One-electron integral symmetry used in STVInt
 NBasis=   449 RedAO= T EigKep=  3.51D-05  NBF=   449
 NBsUse=   449 1.00D-06 EigRej= -1.00D+00 NBFU=   449
 Precomputing XC quadrature grid using
 IXCGrd= 4 IRadAn=           5 IRanWt=          -1 IRanGd=           0 AccXCQ= 0.00D+00.
 Generated NRdTot=       0 NPtTot=           0 NUsed=           0 NTot=          32
 NSgBfM=   456   456   456   456   456 MxSgAt=    38 MxSgA2=    38.
 Leave Link  302 at Sun Jun 28 19:33:36 2026, MaxMem=  2147483648 cpu:               6.2 elap:               0.4
 (Enter /data/home/wyx/g16/l303.exe)
 DipDrv:  MaxL=1.
 Leave Link  303 at Sun Jun 28 19:33:36 2026, MaxMem=  2147483648 cpu:               1.1 elap:               0.1
 (Enter /data/home/wyx/g16/l308.exe)
 Leave Link  308 at Sun Jun 28 19:33:36 2026, MaxMem=  2147483648 cpu:               1.3 elap:               0.1
 (Enter /data/home/wyx/g16/l401.exe)
 ExpMin= 9.52D-02 ExpMax= 2.70D+04 ExpMxC= 9.22D+02 IAcc=3 IRadAn=         5 AccDes= 0.00D+00
 Harris functional with IExCor=20419 and IRadAn=       5 diagonalized for initial guess.
 HarFok:  IExCor=20419 AccDes= 0.00D+00 IRadAn=         5 IDoV= 1 UseB2=F ITyADJ=14
 ICtDFT=  3500011 ScaDFX=  1.000000  1.000000  1.000000  1.000000
 FoFCou: FMM=F IPFlag=           0 FMFlag=      100000 FMFlg1=           0
         NFxFlg=           0 DoJE=T BraDBF=F KetDBF=T FulRan=T
         wScrn=  0.000000 ICntrl=       500 IOpCl=  0 I1Cent=   200000004 NGrid=           0
         NMat0=    1 NMatS0=      1 NMatT0=    0 NMatD0=    1 NMtDS0=    0 NMtDT0=    0
 Petite list used in FoFCou.
 Harris En= -830.455452088237    
 JPrj=0 DoOrth=F DoCkMO=F.
 Leave Link  401 at Sun Jun 28 19:33:38 2026, MaxMem=  2147483648 cpu:              19.0 elap:               1.2
 (Enter /data/home/wyx/g16/l502.exe)
 Integral symmetry usage will be decided dynamically.
 Closed shell SCF:
 Using DIIS extrapolation, IDIIS=  1040.
 NGot=  2147483648 LenX=  2147037048 LenY=  2146819426
 Requested convergence on RMS density matrix=1.00D-08 within 128 cycles.
 Requested convergence on MAX density matrix=1.00D-06.
 Requested convergence on             energy=1.00D-06.
 No special actions if energy rises.
 Fock matrices will be formed incrementally for  20 cycles.
 Integral accuracy reduced to 1.0D-05 until final iterations.

 Cycle   1  Pass 0  IDiag  1:
 FoFJK:  IHMeth= 1 ICntrl=       0 DoSepK=T KAlg= 0 I1Cent=           0 FoldK=F
 IRaf=         1 NMat=       1 IRICut=       1 DoRegI=T DoRafI=F ISym2E= 0 IDoP0=0 IntGTp=1.
 FoFCou: FMM=F IPFlag=           0 FMFlag=      100000 FMFlg1=           0
         NFxFlg=           0 DoJE=T BraDBF=F KetDBF=F FulRan=T
         wScrn=  0.000000 ICntrl=       500 IOpCl=  0 I1Cent=           0 NGrid=           0
         NMat0=    1 NMatS0=      1 NMatT0=    0 NMatD0=    1 NMtDS0=    0 NMtDT0=    0
 Symmetry not used in FoFCou.
 E= -862.360806981127    
 DIIS: error= 4.22D-02 at cycle   1 NSaved=   1.
 NSaved= 1 IEnMin= 1 EnMin= -862.360806981127     IErMin= 1 ErrMin= 4.22D-02
 ErrMax= 4.22D-02  0.00D+00 EMaxC= 1.00D-01 BMatC= 1.42D+00 BMatP= 1.42D+00
 IDIUse=3 WtCom= 5.78D-01 WtEn= 4.22D-01
 Coeff-Com:  0.100D+01
 Coeff-En:   0.100D+01
 Coeff:      0.100D+01
 Gap=     0.185 Goal=   None    Shift=    0.000
 GapD=    0.185 DampG=1.000 DampE=0.500 DampFc=0.5000 IDamp=-1.
 Damping current iteration by 5.00D-01
 RMSDP=3.50D-03 MaxDP=1.47D-01              OVMax= 1.94D-01

 Cycle   2  Pass 0  IDiag  1:
 RMSU=  1.64D-03    CP:  9.49D-01
 E= -862.474373341203     Delta-E=       -0.113566360076 Rises=F Damp=T
 DIIS: error= 1.90D-02 at cycle   2 NSaved=   2.
 NSaved= 2 IEnMin= 2 EnMin= -862.474373341203     IErMin= 2 ErrMin= 1.90D-02
 ErrMax= 1.90D-02  0.00D+00 EMaxC= 1.00D-01 BMatC= 2.96D-01 BMatP= 1.42D+00
 IDIUse=3 WtCom= 8.10D-01 WtEn= 1.90D-01
 Coeff-Com: -0.597D+00 0.160D+01
 Coeff-En:   0.000D+00 0.100D+01
 Coeff:     -0.484D+00 0.148D+01
 Gap=     0.218 Goal=   None    Shift=    0.000
 RMSDP=1.83D-03 MaxDP=1.37D-01 DE=-1.14D-01 OVMax= 1.99D-01

 Cycle   3  Pass 0  IDiag  1:
 RMSU=  1.77D-03    CP:  9.14D-01  1.16D+00
 E= -862.505517361148     Delta-E=       -0.031144019945 Rises=F Damp=F
 DIIS: error= 1.96D-02 at cycle   3 NSaved=   3.
 NSaved= 3 IEnMin= 3 EnMin= -862.505517361148     IErMin= 2 ErrMin= 1.90D-02
 ErrMax= 1.96D-02  0.00D+00 EMaxC= 1.00D-01 BMatC= 1.11D-01 BMatP= 2.96D-01
 IDIUse=3 WtCom= 8.04D-01 WtEn= 1.96D-01
 Coeff-Com: -0.392D+00 0.859D+00 0.532D+00
 Coeff-En:   0.000D+00 0.312D+00 0.688D+00
 Coeff:     -0.315D+00 0.752D+00 0.563D+00
 Gap=     0.213 Goal=   None    Shift=    0.000
 RMSDP=1.33D-03 MaxDP=1.04D-01 DE=-3.11D-02 OVMax= 1.21D-01

 Cycle   4  Pass 0  IDiag  1:
 RMSU=  5.42D-04    CP:  8.85D-01  1.61D+00  4.96D-01
 E= -862.595149873926     Delta-E=       -0.089632512779 Rises=F Damp=F
 DIIS: error= 6.27D-03 at cycle   4 NSaved=   4.
 NSaved= 4 IEnMin= 4 EnMin= -862.595149873926     IErMin= 4 ErrMin= 6.27D-03
 ErrMax= 6.27D-03  0.00D+00 EMaxC= 1.00D-01 BMatC= 1.09D-02 BMatP= 1.11D-01
 IDIUse=3 WtCom= 9.37D-01 WtEn= 6.27D-02
 Coeff-Com: -0.161D+00 0.348D+00 0.333D+00 0.480D+00
 Coeff-En:   0.000D+00 0.000D+00 0.410D-01 0.959D+00
 Coeff:     -0.151D+00 0.327D+00 0.314D+00 0.510D+00
 Gap=     0.207 Goal=   None    Shift=    0.000
 RMSDP=3.67D-04 MaxDP=2.88D-02 DE=-8.96D-02 OVMax= 3.04D-02

 Cycle   5  Pass 0  IDiag  1:
 RMSU=  1.42D-04    CP:  8.89D-01  1.56D+00  6.53D-01  6.95D-01
 E= -862.604512982284     Delta-E=       -0.009363108357 Rises=F Damp=F
 DIIS: error= 5.11D-04 at cycle   5 NSaved=   5.
 NSaved= 5 IEnMin= 5 EnMin= -862.604512982284     IErMin= 5 ErrMin= 5.11D-04
 ErrMax= 5.11D-04  0.00D+00 EMaxC= 1.00D-01 BMatC= 1.35D-04 BMatP= 1.09D-02
 IDIUse=3 WtCom= 9.95D-01 WtEn= 5.11D-03
 Coeff-Com: -0.361D-02 0.744D-02 0.198D-01 0.125D+00 0.852D+00
 Coeff-En:   0.000D+00 0.000D+00 0.000D+00 0.000D+00 0.100D+01
 Coeff:     -0.359D-02 0.740D-02 0.197D-01 0.124D+00 0.852D+00
 Gap=     0.208 Goal=   None    Shift=    0.000
 RMSDP=7.94D-05 MaxDP=6.74D-03 DE=-9.36D-03 OVMax= 4.03D-03

 Cycle   6  Pass 0  IDiag  1:
 RMSU=  4.57D-05    CP:  8.86D-01  1.58D+00  6.48D-01  7.72D-01  9.82D-01
 E= -862.604624415309     Delta-E=       -0.000111433025 Rises=F Damp=F
 DIIS: error= 2.24D-04 at cycle   6 NSaved=   6.
 NSaved= 6 IEnMin= 6 EnMin= -862.604624415309     IErMin= 6 ErrMin= 2.24D-04
 ErrMax= 2.24D-04  0.00D+00 EMaxC= 1.00D-01 BMatC= 3.45D-05 BMatP= 1.35D-04
 IDIUse=3 WtCom= 9.98D-01 WtEn= 2.24D-03
 Coeff-Com:  0.144D-01-0.313D-01-0.226D-01 0.194D-01 0.492D+00 0.528D+00
 Coeff-En:   0.000D+00 0.000D+00 0.000D+00 0.000D+00 0.000D+00 0.100D+01
 Coeff:      0.143D-01-0.312D-01-0.225D-01 0.193D-01 0.491D+00 0.529D+00
 Gap=     0.208 Goal=   None    Shift=    0.000
 RMSDP=2.83D-05 MaxDP=1.63D-03 DE=-1.11D-04 OVMax= 1.81D-03

 Cycle   7  Pass 0  IDiag  1:
 RMSU=  2.03D-05    CP:  8.86D-01  1.58D+00  6.52D-01  7.71D-01  1.09D+00
                    CP:  8.03D-01
 E= -862.604650393514     Delta-E=       -0.000025978205 Rises=F Damp=F
 DIIS: error= 4.91D-05 at cycle   7 NSaved=   7.
 NSaved= 7 IEnMin= 7 EnMin= -862.604650393514     IErMin= 7 ErrMin= 4.91D-05
 ErrMax= 4.91D-05  0.00D+00 EMaxC= 1.00D-01 BMatC= 1.87D-06 BMatP= 3.45D-05
 IDIUse=1 WtCom= 1.00D+00 WtEn= 0.00D+00
 Coeff-Com:  0.517D-02-0.112D-01-0.917D-02-0.642D-02 0.850D-01 0.217D+00
 Coeff-Com:  0.720D+00
 Coeff:      0.517D-02-0.112D-01-0.917D-02-0.642D-02 0.850D-01 0.217D+00
 Coeff:      0.720D+00
 Gap=     0.208 Goal=   None    Shift=    0.000
 RMSDP=9.57D-06 MaxDP=3.75D-04 DE=-2.60D-05 OVMax= 4.45D-04

 Initial convergence to 1.0D-05 achieved.  Increase integral accuracy.
 Cycle   8  Pass 1  IDiag  1:
 E= -862.604615201466     Delta-E=        0.000035192048 Rises=F Damp=F
 DIIS: error= 1.79D-04 at cycle   1 NSaved=   1.
 NSaved= 1 IEnMin= 1 EnMin= -862.604615201466     IErMin= 1 ErrMin= 1.79D-04
 ErrMax= 1.79D-04  0.00D+00 EMaxC= 1.00D-01 BMatC= 7.15D-06 BMatP= 7.15D-06
 IDIUse=3 WtCom= 9.98D-01 WtEn= 1.79D-03
 Coeff-Com:  0.100D+01
 Coeff-En:   0.100D+01
 Coeff:      0.100D+01
 Gap=     0.208 Goal=   None    Shift=    0.000
 RMSDP=9.57D-06 MaxDP=3.75D-04 DE= 3.52D-05 OVMax= 5.82D-04

 Cycle   9  Pass 1  IDiag  1:
 RMSU=  3.32D-04    CP:  1.00D+00
 E= -862.604621315976     Delta-E=       -0.000006114510 Rises=F Damp=F
 DIIS: error= 2.84D-05 at cycle   2 NSaved=   2.
 NSaved= 2 IEnMin= 2 EnMin= -862.604621315976     IErMin= 2 ErrMin= 2.84D-05
 ErrMax= 2.84D-05  0.00D+00 EMaxC= 1.00D-01 BMatC= 3.96D-07 BMatP= 7.15D-06
 IDIUse=1 WtCom= 1.00D+00 WtEn= 0.00D+00
 Coeff-Com:  0.665D-01 0.933D+00
 Coeff:      0.665D-01 0.933D+00
 Gap=     0.208 Goal=   None    Shift=    0.000
 RMSDP=1.44D-05 MaxDP=6.41D-04 DE=-6.11D-06 OVMax= 1.85D-04

 Cycle  10  Pass 1  IDiag  1:
 RMSU=  5.62D-06    CP:  1.00D+00  1.04D+00
 E= -862.604621220695     Delta-E=        0.000000095280 Rises=F Damp=F
 DIIS: error= 3.02D-05 at cycle   3 NSaved=   3.
 NSaved= 3 IEnMin= 2 EnMin= -862.604621315976     IErMin= 2 ErrMin= 2.84D-05
 ErrMax= 3.02D-05  0.00D+00 EMaxC= 1.00D-01 BMatC= 5.82D-07 BMatP= 3.96D-07
 IDIUse=1 WtCom= 1.00D+00 WtEn= 0.00D+00
 Coeff-Com: -0.126D-01 0.553D+00 0.460D+00
 Coeff:     -0.126D-01 0.553D+00 0.460D+00
 Gap=     0.208 Goal=   None    Shift=    0.000
 RMSDP=2.82D-06 MaxDP=2.15D-04 DE= 9.53D-08 OVMax= 1.20D-04

 Cycle  11  Pass 1  IDiag  1:
 RMSU=  2.17D-06    CP:  1.00D+00  1.04D+00  7.80D-01
 E= -862.604621622304     Delta-E=       -0.000000401608 Rises=F Damp=F
 DIIS: error= 3.79D-06 at cycle   4 NSaved=   4.
 NSaved= 4 IEnMin= 4 EnMin= -862.604621622304     IErMin= 4 ErrMin= 3.79D-06
 ErrMax= 3.79D-06  0.00D+00 EMaxC= 1.00D-01 BMatC= 1.10D-08 BMatP= 3.96D-07
 IDIUse=1 WtCom= 1.00D+00 WtEn= 0.00D+00
 Coeff-Com: -0.835D-02 0.288D+00 0.255D+00 0.466D+00
 Coeff:     -0.835D-02 0.288D+00 0.255D+00 0.466D+00
 Gap=     0.208 Goal=   None    Shift=    0.000
 RMSDP=4.46D-07 MaxDP=3.22D-05 DE=-4.02D-07 OVMax= 2.11D-05

 Cycle  12  Pass 1  IDiag  1:
 RMSU=  2.90D-07    CP:  1.00D+00  1.04D+00  8.26D-01  9.42D-01
 E= -862.604621630653     Delta-E=       -0.000000008350 Rises=F Damp=F
 DIIS: error= 2.13D-06 at cycle   5 NSaved=   5.
 NSaved= 5 IEnMin= 5 EnMin= -862.604621630653     IErMin= 5 ErrMin= 2.13D-06
 ErrMax= 2.13D-06  0.00D+00 EMaxC= 1.00D-01 BMatC= 4.05D-10 BMatP= 1.10D-08
 IDIUse=1 WtCom= 1.00D+00 WtEn= 0.00D+00
 Coeff-Com:  0.193D-02-0.944D-01-0.757D-01 0.162D-01 0.115D+01
 Coeff:      0.193D-02-0.944D-01-0.757D-01 0.162D-01 0.115D+01
 Gap=     0.208 Goal=   None    Shift=    0.000
 RMSDP=4.42D-07 MaxDP=1.91D-05 DE=-8.35D-09 OVMax= 3.85D-05

 Cycle  13  Pass 1  IDiag  1:
 RMSU=  2.94D-07    CP:  1.00D+00  1.04D+00  8.50D-01  1.05D+00  1.26D+00
 E= -862.604621632129     Delta-E=       -0.000000001476 Rises=F Damp=F
 DIIS: error= 7.82D-07 at cycle   6 NSaved=   6.
 NSaved= 6 IEnMin= 6 EnMin= -862.604621632129     IErMin= 6 ErrMin= 7.82D-07
 ErrMax= 7.82D-07  0.00D+00 EMaxC= 1.00D-01 BMatC= 1.25D-10 BMatP= 4.05D-10
 IDIUse=1 WtCom= 1.00D+00 WtEn= 0.00D+00
 Coeff-Com:  0.159D-02-0.669D-01-0.556D-01-0.396D-01 0.534D+00 0.627D+00
 Coeff:      0.159D-02-0.669D-01-0.556D-01-0.396D-01 0.534D+00 0.627D+00
 Gap=     0.208 Goal=   None    Shift=    0.000
 RMSDP=7.16D-08 MaxDP=4.55D-06 DE=-1.48D-09 OVMax= 1.07D-05

 Cycle  14  Pass 1  IDiag  1:
 RMSU=  4.60D-08    CP:  1.00D+00  1.04D+00  8.52D-01  1.05D+00  1.40D+00
                    CP:  1.11D+00
 E= -862.604621632291     Delta-E=       -0.000000000162 Rises=F Damp=F
 DIIS: error= 2.30D-07 at cycle   7 NSaved=   7.
 NSaved= 7 IEnMin= 7 EnMin= -862.604621632291     IErMin= 7 ErrMin= 2.30D-07
 ErrMax= 2.30D-07  0.00D+00 EMaxC= 1.00D-01 BMatC= 1.67D-11 BMatP= 1.25D-10
 IDIUse=1 WtCom= 1.00D+00 WtEn= 0.00D+00
 Coeff-Com:  0.351D-03-0.127D-01-0.111D-01-0.242D-01 0.129D-01 0.260D+00
 Coeff-Com:  0.775D+00
 Coeff:      0.351D-03-0.127D-01-0.111D-01-0.242D-01 0.129D-01 0.260D+00
 Coeff:      0.775D+00
 Gap=     0.208 Goal=   None    Shift=    0.000
 RMSDP=5.69D-08 MaxDP=4.82D-06 DE=-1.62D-10 OVMax= 3.07D-06

 Cycle  15  Pass 1  IDiag  1:
 RMSU=  2.54D-08    CP:  1.00D+00  1.04D+00  8.50D-01  1.05D+00  1.43D+00
                    CP:  1.24D+00  1.17D+00
 E= -862.604621632318     Delta-E=       -0.000000000027 Rises=F Damp=F
 DIIS: error= 1.20D-07 at cycle   8 NSaved=   8.
 NSaved= 8 IEnMin= 8 EnMin= -862.604621632318     IErMin= 8 ErrMin= 1.20D-07
 ErrMax= 1.20D-07  0.00D+00 EMaxC= 1.00D-01 BMatC= 3.69D-12 BMatP= 1.67D-11
 IDIUse=1 WtCom= 1.00D+00 WtEn= 0.00D+00
 Coeff-Com: -0.329D-04 0.251D-02 0.184D-02-0.674D-02-0.590D-01 0.681D-01
 Coeff-Com:  0.434D+00 0.559D+00
 Coeff:     -0.329D-04 0.251D-02 0.184D-02-0.674D-02-0.590D-01 0.681D-01
 Coeff:      0.434D+00 0.559D+00
 Gap=     0.208 Goal=   None    Shift=    0.000
 RMSDP=1.26D-08 MaxDP=6.63D-07 DE=-2.73D-11 OVMax= 1.20D-06

 Cycle  16  Pass 1  IDiag  1:
 RMSU=  6.69D-09    CP:  1.00D+00  1.04D+00  8.49D-01  1.04D+00  1.44D+00
                    CP:  1.25D+00  1.21D+00  9.27D-01
 E= -862.604621632336     Delta-E=       -0.000000000018 Rises=F Damp=F
 DIIS: error= 2.95D-08 at cycle   9 NSaved=   9.
 NSaved= 9 IEnMin= 9 EnMin= -862.604621632336     IErMin= 9 ErrMin= 2.95D-08
 ErrMax= 2.95D-08  0.00D+00 EMaxC= 1.00D-01 BMatC= 1.65D-13 BMatP= 3.69D-12
 IDIUse=1 WtCom= 1.00D+00 WtEn= 0.00D+00
 Coeff-Com: -0.370D-04 0.189D-02 0.150D-02-0.139D-02-0.277D-01 0.111D-01
 Coeff-Com:  0.124D+00 0.225D+00 0.666D+00
 Coeff:     -0.370D-04 0.189D-02 0.150D-02-0.139D-02-0.277D-01 0.111D-01
 Coeff:      0.124D+00 0.225D+00 0.666D+00
 Gap=     0.208 Goal=   None    Shift=    0.000
 RMSDP=3.95D-09 MaxDP=2.80D-07 DE=-1.82D-11 OVMax= 2.97D-07

 SCF Done:  E(RCAM-B3LYP) =  -862.604621632     A.U. after   16 cycles
            NFock= 16  Conv=0.40D-08     -V/T= 2.0040
 KE= 8.591739511360D+02 PE=-4.543356828836D+03 EE= 1.559229812652D+03
 Leave Link  502 at Sun Jun 28 19:34:53 2026, MaxMem=  2147483648 cpu:            1198.3 elap:              75.1
 (Enter /data/home/wyx/g16/l801.exe)
 DoSCS=F DFT=T ScalE2(SS,OS)=  1.000000  1.000000
 ExpMin= 9.52D-02 ExpMax= 2.70D+04 ExpMxC= 9.22D+02 IAcc=3 IRadAn=         5 AccDes= 0.00D+00
 HarFok:  IExCor=  205 AccDes= 0.00D+00 IRadAn=         5 IDoV=-2 UseB2=F ITyADJ=14
 ICtDFT= 12500011 ScaDFX=  1.000000  1.000000  1.000000  1.000000
 Largest valence mixing into a core orbital is  5.60D-05
 Largest core mixing into a valence orbital is  1.16D-05
 Range of M.O.s used for correlation:    18   449
 NBasis=   449 NAE=    67 NBE=    67 NFC=    17 NFV=     0
 NROrb=    432 NOA=    50 NOB=    50 NVA=   382 NVB=   382

 **** Warning!!: The largest alpha MO coefficient is  0.45874684D+02

 Leave Link  801 at Sun Jun 28 19:34:53 2026, MaxMem=  2147483648 cpu:               1.5 elap:               0.1
 (Enter /data/home/wyx/g16/l914.exe)
 RHF ground state
 Two-electron integrals replicated using symmetry.
 MDV=  2147483648 DFT=T DoStab=F Mixed=T DoRPA=T DoScal=F NonHer=T
 Making orbital integer symmetry assigments:
 Orbital symmetries:
       Occupied  (A) (A) (A) (A) (A) (A) (A) (A) (A) (A) (A) (A)
                 (A) (A) (A) (A) (A) (A) (A) (A) (A) (A) (A) (A)
                 (A) (A) (A) (A) (A) (A) (A) (A) (A) (A) (A) (A)
                 (A) (A) (A) (A) (A) (A) (A) (A) (A) (A) (A) (A)
                 (A) (A) (A) (A) (A) (A) (A) (A) (A) (A) (A) (A)
                 (A) (A) (A) (A) (A) (A) (A)
       Virtual   (A) (A) (A) (A) (A) (A) (A) (A) (A) (A) (A) (A)
                 (A) (A) (A) (A) (A) (A) (A) (A) (A) (A) (A) (A)
                 (A) (A) (A) (A) (A) (A) (A) (A) (A) (A) (A) (A)
                 (A) (A) (A) (A) (A) (A) (A) (A) (A) (A) (A) (A)
                 (A) (A) (A) (A) (A) (A) (A) (A) (A) (A) (A) (A)
                 (A) (A) (A) (A) (A) (A) (A) (A) (A) (A) (A) (A)
                 (A) (A) (A) (A) (A) (A) (A) (A) (A) (A) (A) (A)
                 (A) (A) (A) (A) (A) (A) (A) (A) (A) (A) (A) (A)
                 (A) (A) (A) (A) (A) (A) (A) (A) (A) (A) (A) (A)
                 (A) (A) (A) (A) (A) (A) (A) (A) (A) (A) (A) (A)
                 (A) (A) (A) (A) (A) (A) (A) (A) (A) (A) (A) (A)
                 (A) (A) (A) (A) (A) (A) (A) (A) (A) (A) (A) (A)
                 (A) (A) (A) (A) (A) (A) (A) (A) (A) (A) (A) (A)
                 (A) (A) (A) (A) (A) (A) (A) (A) (A) (A) (A) (A)
                 (A) (A) (A) (A) (A) (A) (A) (A) (A) (A) (A) (A)
                 (A) (A) (A) (A) (A) (A) (A) (A) (A) (A) (A) (A)
                 (A) (A) (A) (A) (A) (A) (A) (A) (A) (A) (A) (A)
                 (A) (A) (A) (A) (A) (A) (A) (A) (A) (A) (A) (A)
                 (A) (A) (A) (A) (A) (A) (A) (A) (A) (A) (A) (A)
                 (A) (A) (A) (A) (A) (A) (A) (A) (A) (A) (A) (A)
                 (A) (A) (A) (A) (A) (A) (A) (A) (A) (A) (A) (A)
                 (A) (A) (A) (A) (A) (A) (A) (A) (A) (A) (A) (A)
                 (A) (A) (A) (A) (A) (A) (A) (A) (A) (A) (A) (A)
                 (A) (A) (A) (A) (A) (A) (A) (A) (A) (A) (A) (A)
                 (A) (A) (A) (A) (A) (A) (A) (A) (A) (A) (A) (A)
                 (A) (A) (A) (A) (A) (A) (A) (A) (A) (A) (A) (A)
                 (A) (A) (A) (A) (A) (A) (A) (A) (A) (A) (A) (A)
                 (A) (A) (A) (A) (A) (A) (A) (A) (A) (A) (A) (A)
                 (A) (A) (A) (A) (A) (A) (A) (A) (A) (A) (A) (A)
                 (A) (A) (A) (A) (A) (A) (A) (A) (A) (A) (A) (A)
                 (A) (A) (A) (A) (A) (A) (A) (A) (A) (A) (A) (A)
                 (A) (A) (A) (A) (A) (A) (A) (A) (A) (A)
    24 initial guesses have been made.
 Convergence on wavefunction:    0.000001000000000
 Davidson Disk Diagonalization:  ConvIn= 1.00D-06 SkipCon=T Conv= 1.00D-06.
 Max sub-space:  2000 roots to seek:    24 dimension of matrix:        38200
 Iteration     1 Dimension    24 NMult     0 NNew     24
 CISAX will form    24 AO SS matrices at one time.
 NMat=    24 NSing=    24 JSym2X= 0.
 FoFJK:  IHMeth= 1 ICntrl=       0 DoSepK=T KAlg= 0 I1Cent=           0 FoldK=F
 IRaf=         1 NMat=      48 IRICut=       1 DoRegI=T DoRafI=F ISym2E= 0 IDoP0=3 IntGTp=3.
 FoFCou: FMM=F IPFlag=           0 FMFlag=      100000 FMFlg1=           0
         NFxFlg=           0 DoJE=F BraDBF=F KetDBF=F FulRan=T
         wScrn=  0.000000 ICntrl=       500 IOpCl=  0 I1Cent=           0 NGrid=           0
         NMat0=   24 NMatS0=     24 NMatT0=    0 NMatD0=   24 NMtDS0=    0 NMtDT0=    0
 Symmetry not used in FoFCou.
 New state      2 was old state      4
 New state      3 was old state      6
 New state      4 was old state      3
 New state      5 was old state      2
 New state      6 was old state      9
 Excitation Energies [eV] at current iteration:
 Root      1 :     3.299401740993956
 Root      2 :     4.209206168614147
 Root      3 :     4.336359047472825
 Root      4 :     5.144413166441971
 Root      5 :     5.213781521460455
 Root      6 :     5.995062849027974
 Root      7 :     6.316851169186127
 Root      8 :     6.336863044696774
 Root      9 :     6.402228220200990
 Root     10 :     6.523456292971646
 Root     11 :     6.594764320007333
 Root     12 :     7.064664900532644
 Root     13 :     7.094395151104254
 Root     14 :     7.210513342853881
 Root     15 :     7.268242109910494
 Root     16 :     7.302344184957829
 Root     17 :     7.345622582946582
 Root     18 :     7.403564382716537
 Root     19 :     7.652958235571275
 Root     20 :     7.896564112321522
 Root     21 :     8.010038426663918
 Root     22 :     8.016531798394810
 Root     23 :     8.368006951807129
 Root     24 :     8.591013636623360
 Iteration     2 Dimension    36 NMult    24 NNew     12
 CISAX will form    12 AO SS matrices at one time.
 NMat=    12 NSing=    12 JSym2X= 0.
 Root      1 not converged, maximum delta is    0.040501727470751
 Root      2 not converged, maximum delta is    0.095160089153930
 Root      3 not converged, maximum delta is    0.128911086161209
 Root      4 not converged, maximum delta is    0.168806414047653
 Root      5 not converged, maximum delta is    0.136609017911467
 Root      6 not converged, maximum delta is    0.315981793573637
 Excitation Energies [eV] at current iteration:
 Root      1 :     2.820504651819074   Change is   -0.478897089174881
 Root      2 :     3.978182290747947   Change is   -0.231023877866199
 Root      3 :     4.061532760703178   Change is   -0.274826286769646
 Root      4 :     4.823004224032851   Change is   -0.321408942409120
 Root      5 :     5.151843627513257   Change is   -0.061937893947198
 Root      6 :     5.606153529527665   Change is   -0.388909319500310
 Iteration     3 Dimension    48 NMult    36 NNew     12
 CISAX will form    12 AO SS matrices at one time.
 NMat=    12 NSing=    12 JSym2X= 0.
 Root      1 not converged, maximum delta is    0.005624781776306
 Root      2 not converged, maximum delta is    0.015174643295761
 Root      3 not converged, maximum delta is    0.015291275419175
 Root      4 not converged, maximum delta is    0.063945094647359
 Root      5 not converged, maximum delta is    0.007897877338614
 Root      6 not converged, maximum delta is    0.180468652570880
 Excitation Energies [eV] at current iteration:
 Root      1 :     2.801957554951875   Change is   -0.018547096867199
 Root      2 :     3.961684466606176   Change is   -0.016497824141771
 Root      3 :     4.045018965227428   Change is   -0.016513795475751
 Root      4 :     4.781841162816646   Change is   -0.041163061216204
 Root      5 :     5.149490423745846   Change is   -0.002353203767411
 Root      6 :     5.330822074606802   Change is   -0.275331454920862
 Iteration     4 Dimension    60 NMult    48 NNew     12
 CISAX will form    12 AO SS matrices at one time.
 NMat=    12 NSing=    12 JSym2X= 0.
 Root      1 not converged, maximum delta is    0.001604148227141
 Root      2 not converged, maximum delta is    0.002308687674994
 Root      3 not converged, maximum delta is    0.002302826560753
 Root      4 not converged, maximum delta is    0.011944955834918
 Root      5 not converged, maximum delta is    0.002063848411625
 Root      6 not converged, maximum delta is    0.021319219569592
 Excitation Energies [eV] at current iteration:
 Root      1 :     2.800478807633459   Change is   -0.001478747318417
 Root      2 :     3.960288948685940   Change is   -0.001395517920236
 Root      3 :     4.043519810869860   Change is   -0.001499154357568
 Root      4 :     4.774877317810074   Change is   -0.006963845006572
 Root      5 :     5.149355706780349   Change is   -0.000134716965498
 Root      6 :     5.295482924776277   Change is   -0.035339149830526
 Iteration     5 Dimension    72 NMult    60 NNew     12
 CISAX will form    12 AO SS matrices at one time.
 NMat=    12 NSing=    12 JSym2X= 0.
 Root      1 not converged, maximum delta is    0.000637990646004
 Root      2 not converged, maximum delta is    0.000373870033665
 Root      3 not converged, maximum delta is    0.000298923819089
 Root      4 not converged, maximum delta is    0.001237328804686
 Root      5 not converged, maximum delta is    0.000244054766445
 Root      6 not converged, maximum delta is    0.003032354953227
 Excitation Energies [eV] at current iteration:
 Root      1 :     2.800342678598378   Change is   -0.000136129035081
 Root      2 :     3.960182929433019   Change is   -0.000106019252921
 Root      3 :     4.043448954996310   Change is   -0.000070855873549
 Root      4 :     4.774231563610449   Change is   -0.000645754199625
 Root      5 :     5.149347858080681   Change is   -0.000007848699668
 Root      6 :     5.292383261710043   Change is   -0.003099663066234
 Iteration     6 Dimension    84 NMult    72 NNew     12
 CISAX will form    12 AO SS matrices at one time.
 NMat=    12 NSing=    12 JSym2X= 0.
 Root      1 not converged, maximum delta is    0.000144098101324
 Root      2 not converged, maximum delta is    0.000278838154683
 Root      3 not converged, maximum delta is    0.000097002447639
 Root      4 not converged, maximum delta is    0.000441999368132
 Root      5 not converged, maximum delta is    0.000043238241704
 Root      6 not converged, maximum delta is    0.000882610985139
 Excitation Energies [eV] at current iteration:
 Root      1 :     2.800333070512799   Change is   -0.000009608085579
 Root      2 :     3.960175106698093   Change is   -0.000007822734926
 Root      3 :     4.043443528297699   Change is   -0.000005426698611
 Root      4 :     4.774181886078432   Change is   -0.000049677532017
 Root      5 :     5.149347166325642   Change is   -0.000000691755039
 Root      6 :     5.292125693600157   Change is   -0.000257568109886
 Iteration     7 Dimension    96 NMult    84 NNew     12
 CISAX will form    12 AO SS matrices at one time.
 NMat=    12 NSing=    12 JSym2X= 0.
 Root      1 not converged, maximum delta is    0.000022264015483
 Root      2 not converged, maximum delta is    0.000082333369881
 Root      3 not converged, maximum delta is    0.000028403474022
 Root      4 not converged, maximum delta is    0.000097376289142
 Root      5 not converged, maximum delta is    0.000019678726572
 Root      6 not converged, maximum delta is    0.000304745875502
 Excitation Energies [eV] at current iteration:
 Root      1 :     2.800332510189609   Change is   -0.000000560323190
 Root      2 :     3.960174689976292   Change is   -0.000000416721802
 Root      3 :     4.043443129373118   Change is   -0.000000398924581
 Root      4 :     4.774177977614264   Change is   -0.000003908464169
 Root      5 :     5.149347105957207   Change is   -0.000000060368434
 Root      6 :     5.292104638897388   Change is   -0.000021054702769
 Iteration     8 Dimension   108 NMult    96 NNew     12
 CISAX will form    12 AO SS matrices at one time.
 NMat=    12 NSing=    12 JSym2X= 0.
 Root      1 not converged, maximum delta is    0.000007986508242
 Root      2 not converged, maximum delta is    0.000018899841949
 Root      3 not converged, maximum delta is    0.000004440656024
 Root      4 not converged, maximum delta is    0.000023653701506
 Root      5 not converged, maximum delta is    0.000009656002663
 Root      6 not converged, maximum delta is    0.000112336151956
 Excitation Energies [eV] at current iteration:
 Root      1 :     2.800332471224292   Change is   -0.000000038965317
 Root      2 :     3.960174654603398   Change is   -0.000000035372894
 Root      3 :     4.043443110283649   Change is   -0.000000019089469
 Root      4 :     4.774177709644483   Change is   -0.000000267969781
 Root      5 :     5.149347100503253   Change is   -0.000000005453955
 Root      6 :     5.292102663356519   Change is   -0.000001975540870
 Iteration     9 Dimension   120 NMult   108 NNew     12
 CISAX will form    12 AO SS matrices at one time.
 NMat=    12 NSing=    12 JSym2X= 0.
 Root      1 not converged, maximum delta is    0.000001353662913
 Root      2 not converged, maximum delta is    0.000004922204668
 Root      3 not converged, maximum delta is    0.000001544915543
 Root      4 not converged, maximum delta is    0.000009063020560
 Root      5 not converged, maximum delta is    0.000002639213541
 Root      6 not converged, maximum delta is    0.000028444339040
 Excitation Energies [eV] at current iteration:
 Root      1 :     2.800332469959650   Change is   -0.000000001264642
 Root      2 :     3.960174652522932   Change is   -0.000000002080465
 Root      3 :     4.043443109492831   Change is   -0.000000000790818
 Root      4 :     4.774177691234558   Change is   -0.000000018409924
 Root      5 :     5.149347100000495   Change is   -0.000000000502758
 Root      6 :     5.292102511766701   Change is   -0.000000151589818
 Iteration    10 Dimension   132 NMult   120 NNew     12
 CISAX will form    12 AO SS matrices at one time.
 NMat=    12 NSing=    12 JSym2X= 0.
 Root      1 has converged.
 Root      2 has converged.
 Root      3 has converged.
 Root      4 not converged, maximum delta is    0.000002654298867
 Root      5 has converged.
 Root      6 not converged, maximum delta is    0.000007809900945
 Excitation Energies [eV] at current iteration:
 Root      1 :     2.800332469917171   Change is   -0.000000000042479
 Root      2 :     3.960174652437927   Change is   -0.000000000085006
 Root      3 :     4.043443109452047   Change is   -0.000000000040784
 Root      4 :     4.774177690064635   Change is   -0.000000001169924
 Root      5 :     5.149347099968422   Change is   -0.000000000032073
 Root      6 :     5.292102501287698   Change is   -0.000000010479003
 Iteration    11 Dimension   136 NMult   132 NNew      4
 CISAX will form     4 AO SS matrices at one time.
 NMat=     4 NSing=     4 JSym2X= 0.
 Root      1 has converged.
 Root      2 has converged.
 Root      3 has converged.
 Root      4 has converged.
 Root      5 has converged.
 Root      6 not converged, maximum delta is    0.000002034555931
 Excitation Energies [eV] at current iteration:
 Root      1 :     2.800332469917054   Change is   -0.000000000000117
 Root      2 :     3.960174652437241   Change is   -0.000000000000685
 Root      3 :     4.043443109451559   Change is   -0.000000000000488
 Root      4 :     4.774177689992039   Change is   -0.000000000072596
 Root      5 :     5.149347099968230   Change is   -0.000000000000192
 Root      6 :     5.292102500467658   Change is   -0.000000000820040
 Iteration    12 Dimension   138 NMult   136 NNew      2
 CISAX will form     2 AO SS matrices at one time.
 NMat=     2 NSing=     2 JSym2X= 0.
 Root      1 has converged.
 Root      2 has converged.
 Root      3 has converged.
 Root      4 has converged.
 Root      5 has converged.
 Root      6 has converged.
 Excitation Energies [eV] at current iteration:
 Root      1 :     2.800332469916996   Change is   -0.000000000000059
 Root      2 :     3.960174652437158   Change is   -0.000000000000083
 Root      3 :     4.043443109451417   Change is   -0.000000000000143
 Root      4 :     4.774177689990316   Change is   -0.000000000001722
 Root      5 :     5.149347099968230   Change is    0.000000000000000
 Root      6 :     5.292102500403286   Change is   -0.000000000064373
 Convergence achieved on expansion vectors.
 ***********************************************************************
 Excited states from <AA,BB:AA,BB> singles matrix:
 ***********************************************************************
 
 1PDM for each excited state written to RWF  633
 Ground to excited state transition densities written to RWF  633
 Ground to excited state transition electric dipole moments (Au):
       state          X           Y           Z        Dip. S.      Osc.
         1         1.3960      0.0074     -0.0093      1.9489      0.1337
         2         0.1251     -0.0770      0.0317      0.0226      0.0022
         3        -0.1173      0.0081     -0.0057      0.0139      0.0014
         4         0.0472      1.0813      0.0586      1.1749      0.1374
         5         0.0127     -0.0142     -0.0339      0.0015      0.0002
         6        -0.1500      1.5409      0.1075      2.4085      0.3123
 Ground to excited state transition velocity dipole moments (Au):
       state          X           Y           Z        Dip. S.      Osc.
         1        -0.1369     -0.0035      0.0006      0.0188      0.1216
         2        -0.0191      0.0097      0.0008      0.0005      0.0021
         3         0.0192      0.0014      0.0006      0.0004      0.0017
         4        -0.0151     -0.1796     -0.0114      0.0326      0.1239
         5        -0.0017      0.0015      0.0110      0.0001      0.0004
         6         0.0242     -0.2934     -0.0199      0.0870      0.2984
 Ground to excited state transition magnetic dipole moments (Au):
       state          X           Y           Z
         1        -0.0015     -0.1750      1.5087
         2         0.5294      0.4184      0.3075
         3         0.6003     -0.7508     -0.3519
         4        -0.0302     -0.0300      0.0893
         5         0.0962      0.0247      0.0203
         6        -0.1701      0.0910     -0.3627
 Ground to excited state transition velocity quadrupole moments (Au):
       state          XX          YY          ZZ          XY          XZ          YZ
         1        -0.0870      0.0143     -0.0092      0.4414      0.0276     -0.0022
         2        -0.0417     -0.0649     -0.0084      0.0817     -0.0257      0.0577
         3        -0.0343      0.0280      0.0164     -0.1336      0.0282      0.0251
         4         1.0721     -0.2846     -0.0158      0.1569     -0.0014      0.0002
         5        -0.0530     -0.0034     -0.0084     -0.0293     -0.0178      0.0524
         6         0.8747     -0.4353     -0.0336     -0.2790     -0.0645     -0.0073
 <0|del|b> * <b|rxdel|0> + <0|del|b> * <b|delr+rdel|0>
 Rotatory Strengths (R) in cgs (10**-40 erg-esu-cm/Gauss)
       state          XX          YY          ZZ    R(velocity)    E-M Angle
         1         6.6087      4.0434      1.4608      4.0376       89.51
         2        11.1568    -26.7914    -12.6605     -9.4317      111.53
         3        -3.1736     28.2259     23.8933     16.3152       58.49
         4         4.7140      2.4594     12.2794      6.4843       74.33
         5        -0.0658      0.5387     -0.1223      0.1168       90.00
         6       -59.7164     -4.7869    -21.3041    -28.6025      101.23
 1/2[<0|r|b>*<b|rxdel|0> + (<0|rxdel|b>*<b|r|0>)*]
 Rotatory Strengths (R) in cgs (10**-40 erg-esu-cm/Gauss)
       state          XX          YY          ZZ     R(length)
         1         1.5252      0.9189      9.9169      4.1203
         2       -46.8141     22.7761     -6.8987    -10.3122
         3        49.8033      4.3227     -1.4199     17.5687
         4         1.0086     22.9230     -3.7042      6.7425
         5        -0.8639      0.2490      0.4874     -0.0425
         6       -18.0535    -99.1214     27.5650    -29.8700
  1/2[<0|del|b>*<b|r|0> + (<0|r|b>*<b|del|0>)*] (Au)
       state          X           Y           Z        Dip. S.   Osc.(frdel)
         1        -0.1912     -0.0000     -0.0000      0.1912      0.1275
         2        -0.0024     -0.0007      0.0000      0.0031      0.0021
         3        -0.0022      0.0000     -0.0000      0.0022      0.0015
         4        -0.0007     -0.1942     -0.0007      0.1956      0.1304
         5        -0.0000     -0.0000     -0.0004      0.0004      0.0003
         6        -0.0036     -0.4520     -0.0021      0.4578      0.3052

 Excitation energies and oscillator strengths:
 
 Excited State   1:      Singlet-A      2.8003 eV  442.75 nm  f=0.1337  <S**2>=0.000
      67 -> 68         0.70141
 This state for optimization and/or second-order correction.
 Total Energy, E(TD-HF/TD-DFT) =  -862.501711308    
 Copying the excited state density for this state as the 1-particle RhoCI density.
 
 Excited State   2:      Singlet-A      3.9602 eV  313.08 nm  f=0.0022  <S**2>=0.000
      64 -> 68        -0.27163
[...]
 633,0.01537644,-0.00209629,0.01201504,-0.00721938,0.05155113,-0.003103
 92,0.00287533,-0.00035348,0.00012662,-0.00025901,-0.00017359,-0.000068
 37,0.00001742,-0.00000949,-0.00001882,-0.00003535,-0.00007130,0.000066
 58,-0.00004331,0.00001145,0.00000781,-0.00002049,0.00000675,0.00007432
 ,0.00008371,0.00013089,-0.00001259,0.00000868,-0.00000031,0.00001808,-
 0.00000595,-0.00000313,-0.00000063,0.00001303,0.00002324,-0.00008159,0
 .00005381,-0.00001939,-0.00057076,0.00088991,0.00013139,0.00007145,0.0
 0002274,-0.00000030,0.00068256,0.00025753,0.00013199,-0.00002701,-0.00
 055831,0.00043332,0.00011782,-0.00034514,-0.00015657,-0.00026369,0.000
 24638,0.00043618,-0.00024751,-0.00080216,-0.00082559,0.00010734,-0.000
 21885,-0.00001531,-0.00002421,0.00009402,-0.00008248,0.00279249,0.0001
 9605,-0.00169213,0.00351410,-0.02106888,0.00759634,0.00004912,0.000052
 56,-0.00003126,-0.00001879,-0.00001784,-0.00000191,-0.00002669,-0.0000
 5142,-0.00002515,-0.00000939,-0.00004248,0.00000437,0.00006972,0.00000
 968,0.00002015,0.00001019,0.00000891,-0.00001372,0.00000757,-0.0000034
 3,-0.00000088,0.00001871,-0.00001636,-0.00001251,0.02992764,-0.2403922
 8,0.12414066,0.00242109,-0.00971166,0.00561679,-0.00109043,0.00773554,
 -0.00406086,-0.03416694,0.26134888,-0.00220030,0.00037024,-0.00014908,
 0.00001828,0.00007913,-0.00011712,-0.00000530,0.00002587,0.00000517,0.
 00011145,-0.00014786,-0.00001710,-0.00001308,0.00000669,0.00000571,-0.
 00000561,-0.00001290,-0.00000328,-0.00005784,0.00017798,0.00004824,0.0
 0000284,-0.00000227,-0.00000098,-0.00000078,-0.00000472,-0.00000193,-0
 .00011268,-0.00000756,0.00003408,0.00001184,-0.00000566,-0.00001093,-0
 .00013429,0.00000650,0.00009771,0.00002794,-0.00001514,-0.00003149,-0.
 00000796,-0.00000657,0.00006676,0.00029824,-0.00013485,-0.00012237,0.0
 0014853,0.00002410,-0.00001796,-0.00001356,-0.00017618,0.00033647,0.00
 018472,-0.00053650,-0.00053065,0.00005550,-0.00013951,-0.00004267,-0.0
 0014872,0.00021667,0.00005631,0.00070816,-0.00038739,-0.00166989,0.004
 69097,-0.01787464,0.00883326,0.00000173,0.00000155,-0.00003125,-0.0000
 0148,-0.00000660,0.00000137,-0.00001004,-0.00001024,0.00000154,0.00000
 477,0.00000328,0.00000368,0.00000301,0.00000752,-0.00003043,0.00000211
 ,-0.00000074,0.00000276,0.00000368,-0.00000170,-0.00000184,-0.00000689
 ,-0.00000455,-0.00000191,-0.01661081,0.12219640,-0.11439573,-0.0007057
 2,0.00193986,-0.00293712,-0.00355039,0.02526728,-0.01510772,0.01740690
 ,-0.13096910,0.12553950,-0.00131250,0.00005425,0.00043969,0.00030154,-
 0.00302830,-0.00048414,-0.00010083,0.00164583,-0.00017939,-0.00023588,
 -0.00001380,0.00000855,0.00042089,-0.00022737,0.00007415,-0.00024204,-
 0.00049549,-0.00010860,0.00024711,0.00005563,0.00003719,-0.00006569,0.
 00004117,-0.00000896,0.00028264,0.00010902,0.00012680,0.00005937,0.000
 01717,-0.00001678,-0.00054775,0.00030580,-0.00006841,-0.00720271,0.015
 11726,0.00181416,0.00248135,-0.00187304,0.00069553,0.00271904,-0.00066
 668,-0.00010787,-0.20840637,0.05059560,0.00798866,0.00079872,-0.005857
 29,-0.00178926,-0.00132970,0.00386392,0.00057050,0.00065023,-0.0016199
 6,-0.00146915,-0.00080325,0.00026968,0.00032004,-0.00063439,0.00018335
 ,0.00010849,-0.02442633,0.00821727,0.00048369,0.00284591,0.00136133,0.
 00046913,0.00071933,0.00037809,0.00001404,-0.00017778,-0.00011782,-0.0
 0001859,-0.00015367,-0.00036251,-0.00023925,-0.00015214,-0.00033984,-0
 .00005798,-0.00005301,0.00007419,0.00038117,0.00004100,0.00009133,-0.0
 0008385,0.00015680,0.00012311,-0.00007920,0.00028959,0.00002181,0.0000
 6148,0.00013714,-0.00132084,-0.00202377,-0.00146377,-0.00117428,-0.000
 50278,-0.00043869,-0.00024090,0.00009090,-0.00033947,-0.00019759,0.000
 12593,0.51543913,-0.00042868,-0.00057257,0.00029096,0.00001492,0.00124
 005,0.00017844,-0.00027333,-0.00013077,-0.00031461,0.00000124,-0.00006
 542,-0.00003650,-0.00012939,0.00009310,-0.00001932,-0.00004825,-0.0004
 9294,0.00000172,0.00001012,0.00007433,0.00003435,0.00002042,-0.0000118
 0,0.00000227,0.00006318,0.00007153,-0.00008108,-0.00000414,0.00000715,
 0.00000495,0.00015730,-0.00011061,0.00001325,0.04092373,-0.02921504,-0
 .00571290,0.00235177,0.00009351,0.00127430,-0.00082164,-0.00129200,-0.
 00025202,0.03687004,-0.10603070,-0.01001990,-0.00264967,-0.00016601,-0
 .00151949,0.00004748,-0.00137587,-0.00012376,-0.00304058,-0.00200326,-
 0.00099127,-0.00076676,0.00020113,0.00023793,-0.00037753,0.00004443,-0
 .00007990,-0.00969433,0.01449138,0.00356509,-0.00083642,0.00070330,-0.
 00075452,0.00077451,-0.00033640,-0.00041515,0.00002595,0.00011075,0.00
 007376,0.00005156,-0.00014815,0.00002218,0.00006711,0.00011056,-0.0000
 5253,0.00001237,-0.00005926,-0.00006131,0.00000040,0.00001761,0.000028
 89,-0.00003865,0.00003782,-0.00004050,-0.00009535,-0.00001894,-0.00001
 504,0.00054148,-0.00038026,-0.00082568,-0.00231494,-0.00215877,-0.0011
 1220,-0.00017575,-0.00006923,0.00039415,-0.00006618,-0.00035278,0.0001
 3468,0.03385665,0.58450813,0.00005318,0.00043767,-0.00023774,-0.000036
 78,0.00034178,0.00008713,-0.00009852,0.00154254,0.00029411,0.00001573,
 0.00002940,0.00000002,-0.00003854,0.00001813,-0.00002896,0.00000557,-0
 .00026555,-0.00027780,-0.00004396,-0.00004430,-0.00002583,0.00000652,-
 0.00000051,0.00000668,0.00008587,0.00010649,0.00022368,0.00000313,-0.0
 0000205,0.00000392,0.00005357,-0.00003074,0.00002850,0.00663253,-0.003
 77427,0.00087924,0.00163932,-0.00048642,-0.00216717,-0.00048606,-0.000
 16091,-0.00066774,-0.00526627,-0.00674213,-0.06481802,0.00041619,-0.00
 165226,0.00325687,0.00006332,-0.00039603,-0.00034765,-0.00016559,-0.00
 162980,0.00366978,0.00051636,-0.00029021,0.00009470,-0.00094803,0.0000
 7173,0.00017612,-0.00140140,0.00555812,0.00457354,0.00061752,-0.001432
 61,-0.00092134,0.00020984,-0.00024051,0.00120281,-0.00002556,-0.000014
 84,-0.00002865,0.00013833,0.00033588,0.00014896,-0.00015723,-0.0004094
 9,-0.00007888,0.00003563,0.00003948,-0.00001782,-0.00001419,0.00001638
 ,0.00001282,0.00002712,-0.00005923,0.00001043,-0.00005701,-0.00001443,
 0.00001926,-0.00014206,-0.00032215,-0.00270696,-0.00251688,-0.00276774
 ,-0.00008178,-0.00075328,-0.00042020,-0.00009053,0.00046192,0.00045151
 ,0.00005081,0.00719320,0.00794444,0.54041528,0.00055983,-0.00044311,-0
 .00038760,-0.00025346,0.00138133,0.00020944,0.00011922,-0.00028978,0.0
 0019878,0.00009827,-0.00003652,-0.00005228,-0.00023365,0.00013931,-0.0
 0004423,0.00010758,0.00024138,-0.00001301,-0.00007815,0.00003819,0.000
 03070,0.00003666,-0.00002445,0.00000747,-0.00005177,-0.00000828,-0.000
 01411,-0.00003466,-0.00000434,0.00001487,0.00029900,-0.00018002,0.0000
 3792,0.00077087,-0.00593022,0.00005699,-0.00030312,0.00007285,0.000204
 76,-0.00026915,0.00085321,0.00029759,-0.01352715,0.00977831,0.02687647
 ,-0.00251002,0.00245445,-0.00008640,0.00083308,-0.00161965,-0.00016300
 ,-0.00065567,-0.00017468,-0.00075305,-0.00011124,0.00002538,-0.0000621
 6,0.00022052,-0.00004029,-0.00008194,-0.00021229,0.00082116,-0.0004204
 7,-0.00070983,0.00050887,0.00107265,-0.00023770,-0.00007236,-0.0003896
 5,0.00009793,0.00008083,0.00002993,0.00003245,0.00005422,0.00004795,0.
 00008987,0.00027796,0.00005039,-0.00004352,-0.00003049,-0.00010943,-0.
 00002146,-0.00002685,0.00002760,-0.00005429,-0.00001942,0.00001727,-0.
 00010014,-0.00001962,-0.00002396,-0.00056547,-0.00037688,0.00000653,-0
 .00014895,-0.00135623,-0.00022357,0.00015924,0.00003656,-0.00005564,0.
 00021107,0.00002314,-0.00011166,-0.07023052,0.00824180,0.07850078,0.07
 963501,0.00052921,0.00005768,-0.00006995,-0.00000750,-0.00057873,-0.00
 007598,-0.00018041,0.00005274,0.00050391,0.00007832,0.00003781,0.00003
 136,0.00006032,-0.00004576,0.00001534,0.00009322,0.00011402,-0.0000731
 5,-0.00009135,-0.00005363,-0.00004381,-0.00000923,0.00000562,-0.000003
 52,0.00000803,-0.00016334,-0.00015295,-0.00001807,-0.00001087,0.000000
 21,-0.00007602,0.00005422,-0.00001147,0.00132630,0.00043352,0.00012017
 ,0.00026786,0.00018954,-0.00074259,0.00074725,0.00043450,0.00010016,0.
 00752892,-0.00344138,-0.01261420,-0.00062961,-0.00144047,0.00034679,0.
 00002449,0.00070764,0.00010338,0.00042380,-0.00005327,-0.00004415,-0.0
 0000163,-0.00006512,-0.00001286,-0.00008092,-0.00007408,0.00006965,-0.
 00151863,0.00000977,-0.00018722,-0.00013826,0.00018702,0.00032340,0.00
 014690,0.00004536,0.00011782,-0.00003075,-0.00000293,-0.00002374,-0.00
 002464,-0.00004175,-0.00002483,-0.00001383,-0.00014171,-0.00002144,-0.
 00001757,0.00001582,0.00003052,0.00000773,0.00000748,-0.00001491,0.000
 01907,0.00000155,0.00000867,0.00004702,0.00000584,0.00001066,-0.000369
 17,-0.00055939,0.00037915,-0.00097783,-0.00108020,-0.00040865,0.000284
 81,0.00016193,-0.00010049,-0.00015110,0.00003017,-0.00002741,0.0077146
 8,-0.04736118,-0.02790956,-0.01211853,0.05110055,0.00006700,0.00038757
 ,0.00042049,0.00010114,-0.00074533,-0.00013800,-0.00021199,-0.00004596
 ,0.00038622,-0.00003259,0.00004652,0.00005490,0.00011954,-0.00007326,0
 .00002597,0.00011823,0.00010899,-0.00008343,0.00001442,-0.00005676,-0.
 00004625,-0.00002037,0.00001204,-0.00000465,0.00004299,-0.00013954,-0.
 00012577,0.00002182,0.00000005,-0.00001388,-0.00014910,0.00009252,-0.0
 0002284,-0.00038503,0.00207118,-0.00042277,0.00014716,0.00018847,-0.00
 019277,0.00063484,-0.00006843,0.00041492,0.00594390,-0.00363704,0.0082
 3832,-0.00009128,-0.00069456,-0.00092729,-0.00031267,0.00089547,0.0002
 7261,0.00047801,0.00019141,-0.00022258,-0.00003233,-0.00000174,-0.0000
 2326,-0.00007659,0.00003116,0.00000195,-0.00157349,-0.00093175,-0.0009
 4837,0.00002028,-0.00025635,-0.00074635,0.00008930,0.00006829,0.000036
 84,-0.00003265,-0.00001835,-0.00002537,-0.00005229,-0.00006923,-0.0000
 2685,-0.00001151,-0.00009147,0.00000741,0.00001027,0.00002094,0.000021
 76,0.00001631,0.00001420,-0.00001946,0.00003097,0.00001820,-0.00001056
 ,0.00004844,0.00000655,0.00001002,0.00030135,-0.00023599,-0.00026363,-
 0.00075061,-0.00043665,0.00037708,-0.00011128,-0.00006505,0.00014682,-
 0.00036256,-0.00029743,0.00008976,0.07333106,-0.02478640,-0.27546311,-
 0.08488123,0.03106045,0.29801731,-0.00025129,-0.00038571,0.00009576,-0
 .00010610,0.00015201,0.00009587,0.00013646,-0.00062310,-0.00017745,0.0
 0002420,-0.00000707,-0.00000448,-0.00004536,0.00002628,-0.00001307,0.0
 0004627,0.00008429,0.00014470,-0.00001844,0.00001511,-0.00000747,0.000
 00617,-0.00000521,0.00000253,-0.00004025,0.00003145,-0.00004372,-0.000
 01261,-0.00000620,-0.00000100,0.00006221,-0.00003684,0.00001536,-0.004
 23995,0.00101438,-0.00163384,-0.00074597,0.00010230,-0.00019320,0.0007
 0397,0.00090648,-0.00011040,0.00006994,0.03093045,-0.01179655,-0.00107
 670,0.00083785,0.00090844,0.00029929,-0.00008891,-0.00023736,-0.000193
 54,-0.00016313,0.00035142,0.00018224,-0.00003132,-0.00002842,0.0000791
 7,-0.00009676,0.00000485,0.00119015,-0.00039963,0.00082095,-0.00007966
 ,0.00004664,0.00000922,-0.00026042,-0.00005111,0.00040030,0.00002578,0
 .00001365,-0.00000516,0.00003520,0.00017089,0.00003585,-0.00002372,-0.
 00004443,-0.00000962,-0.00000073,0.00000162,0.00003707,-0.00001180,-0.
 00000613,-0.00000336,-0.00000897,-0.00001891,0.00001444,0.00000696,-0.
 00000978,-0.00000571,-0.00022193,-0.00037626,-0.00083296,-0.00028249,-
 0.00053430,-0.00071186,-0.00004004,-0.00016872,-0.00008518,0.00006045,
 -0.00015049,-0.00009427,-0.04786911,-0.00229654,-0.00064829,-0.0002679
 1,-0.00942948,0.00370216,0.05208913,0.00004165,0.00029419,-0.00016179,
 0.00007589,-0.00085440,-0.00013857,-0.00010553,-0.00028055,-0.00008060
 ,-0.00002805,0.00003333,0.00002029,0.00012012,-0.00007063,0.00001502,0
 .00002197,-0.00003092,0.00011883,0.00001507,-0.00003684,-0.00002154,-0
 .00002121,0.00001193,-0.00000017,0.00001834,-0.00001596,-0.00006759,0.
 00001097,-0.00000224,-0.00000473,-0.00014839,0.00008896,-0.00001639,0.
 00248358,-0.00054243,0.00196366,0.00001753,0.00051995,0.00026391,0.001
 29774,0.00043622,-0.00008327,0.00427293,-0.01185297,0.00173038,-0.0015
 4887,-0.00121747,0.00023263,-0.00022789,0.00112293,0.00012249,0.000522
 84,0.00003205,-0.00047384,-0.00010821,-0.00000882,0.00003901,0.0000319
 2,-0.00008761,0.00004154,-0.00184930,0.00061255,-0.00066628,0.00072030
 ,-0.00041599,0.00091735,0.00019071,0.00012419,-0.00026565,-0.00002828,
 0.00001384,0.00001723,-0.00002945,-0.00016919,-0.00008372,-0.00000891,
 -0.00002976,-0.00000980,0.00000014,0.00001643,0.00010773,0.00001090,0.
 00001246,-0.00001967,0.00002887,0.00001506,-0.00000346,0.00008153,0.00
 000804,0.00001873,-0.00019967,-0.00034361,-0.00183550,-0.00126674,-0.0
 0064890,-0.00076666,-0.00043483,-0.00027639,-0.00008712,0.00002334,-0.
 00000035,-0.00006983,-0.00214822,-0.26519322,0.10917376,-0.00077378,0.
 00352245,-0.00144878,-0.00181226,0.28915609,0.00015722,-0.00057301,-0.
 00015864,0.00000525,0.00015247,0.00001813,-0.00001619,-0.00034922,0.00
 006519,0.00007466,-0.00002310,-0.00003206,-0.00001712,0.00000928,-0.00
 000403,0.00000990,0.00005336,0.00007626,-0.00005229,0.00003461,0.00002
 824,0.00000356,-0.00000190,0.00000073,-0.00002525,-0.00006422,-0.00010
 219,-0.00003267,-0.00000625,0.00000985,0.00001988,-0.00001190,0.000003
 19,0.00142865,-0.00181519,-0.00099865,-0.00010115,0.00030127,0.0001501
 1,-0.00001838,0.00001653,0.00007315,-0.00029379,-0.00343582,0.00305537
 ,-0.00005889,0.00023171,-0.00033995,0.00001716,-0.00017544,0.00001265,
 -0.00018597,-0.00024676,0.00005531,0.00003642,0.00002021,-0.00003764,0
 .00002092,0.00008444,0.00000326,-0.00011331,-0.00045935,-0.00007034,-0
 .00067196,0.00165439,0.00011733,0.00000954,-0.00008339,0.00007030,-0.0
 0000109,0.00001150,0.00000277,0.00000617,0.00001532,0.00002341,0.00000
 537,-0.00001252,-0.00000214,0.00001846,-0.00001204,-0.00001692,0.00000
 134,-0.00000216,0.00000317,-0.00000544,0.00000175,0.00000410,-0.000012
 66,-0.00000128,-0.00000896,-0.00039147,-0.00050010,0.00072487,-0.00013
 485,-0.00008760,-0.00178846,0.00048527,0.00010801,-0.00001437,-0.00006
 040,-0.00018493,0.00004142,-0.00145577,0.10840095,-0.09821239,0.000470
 19,0.02838352,-0.01448177,-0.00104614,-0.11608426,0.10356836,0.0000996
 9,-0.00025635,-0.00004825,-0.00008637,0.00061017,0.00009537,-0.0003363
 7,-0.00095258,0.00027178,0.00001031,-0.00002971,-0.00002659,-0.0000924
 7,0.00006623,-0.00001130,0.00025915,-0.00013859,-0.00025135,-0.0000053
 0,0.00003140,0.00002565,0.00001391,-0.00001142,0.00000003,-0.00014573,
 -0.00021661,-0.00012273,-0.00000512,0.00000117,0.00000497,0.00011728,-
 0.00008037,0.00001157,0.00335627,-0.00563134,-0.00014252,-0.00054763,0
 .00203617,-0.00031923,0.00037909,0.00018314,0.00006691,-0.02233264,-0.
 01764439,-0.01298548,-0.00191194,0.00113886,0.00022810,0.00030451,-0.0
 0060582,-0.00006717,-0.00046227,-0.00100814,-0.00013579,-0.00021442,0.
 00001670,0.00008014,-0.00029707,0.00001758,-0.00001233,-0.00321311,0.0
 0462420,-0.00013108,0.00002870,0.00034986,0.00021927,-0.00006372,-0.00
 009615,-0.00003696,0.00006890,0.00010723,0.00001083,0.00002011,0.00005
 868,0.00004201,0.00006293,0.00006948,0.00001653,-0.00002377,-0.0000027
 3,-0.00002420,-0.00000635,0.00000891,0.00001245,-0.00000296,-0.0000003
 0,-0.00001268,-0.00003794,-0.00001387,0.00000474,0.00004727,0.00011972
 ,0.00024330,0.00009467,-0.00007095,-0.00016628,0.00017036,0.00007521,-
 0.00000908,-0.00000863,-0.00002691,-0.00001524,-0.16140417,-0.09997388
 ,-0.08387599,0.00734955,0.00657660,0.00384837,0.00077937,0.00075328,0.
 00192487,0.17803593,-0.00011515,0.00025098,0.00016403,-0.00004384,0.00
 011201,0.00000534,-0.00046731,-0.00086267,-0.00034805,-0.00006055,-0.0
 0000575,0.00001045,-0.00003020,0.00001625,0.00000217,-0.00030196,-0.00
 021229,-0.00040240,0.00005363,0.00000108,-0.00000676,0.00000655,-0.000
 00396,-0.00000193,-0.00005017,-0.00021174,0.00019820,0.00002158,0.0000
 0803,-0.00000323,0.00003490,-0.00001882,-0.00000034,0.00141300,0.00121
 229,0.00084925,0.00126573,-0.00038497,-0.00006615,-0.00039858,-0.00012
 102,0.00021788,0.00960290,0.00752155,0.00786007,0.00080915,0.00034954,
 0.00008011,0.00008413,-0.00018528,0.00005574,0.00043065,0.00039721,-0.
 00033086,0.00002020,0.00000190,-0.00002991,0.00012262,-0.00003934,-0.0
 0004988,0.00176361,-0.00119403,-0.00061059,0.00026743,-0.00059118,-0.0
 0028508,-0.00005977,0.00003992,-0.00013228,0.00000687,-0.00003489,-0.0
 0001921,-0.00003075,-0.00000803,0.00000712,0.00000969,0.00004119,0.000
 02580,-0.00000412,-0.00000131,-0.00006535,0.00000576,-0.00000514,0.000
 00680,-0.00000343,-0.00001340,0.00000034,-0.00001967,-0.00000346,0.000
 00086,0.00033198,0.00018571,-0.00087843,-0.00075603,-0.00040164,0.0003
 2012,-0.00032860,-0.00012140,0.00011543,-0.00000804,0.00000168,0.00008
 417,-0.10441320,-0.14425962,-0.07700139,-0.00148344,-0.00206143,-0.001
 11392,-0.01759112,-0.01394243,-0.01534889,0.10991553,0.15454446,0.0001
 5426,0.00024358,0.00008013,-0.00006715,0.00034040,0.00005424,0.0002302
 9,-0.00127652,-0.00078550,-0.00001660,-0.00000069,0.00000424,-0.000059
 31,0.00004189,-0.00001218,-0.00024487,-0.00023511,0.00034783,0.0000065
 6,-0.00000964,-0.00001213,0.00000811,-0.00000774,0.00000224,-0.0001119
 5,0.00005609,-0.00000868,0.00000946,0.00000315,0.00000242,0.00007749,-
 0.00005111,0.00001140,0.00164195,-0.00169953,0.00000734,-0.00072623,0.
 00040485,0.00069788,0.00014972,0.00036689,0.00020633,0.00329650,0.0026
 8289,0.00076757,-0.00109876,0.00056221,0.00001334,0.00027591,-0.000368
 38,-0.00003782,0.00023171,-0.00005660,0.00002260,0.00006941,-0.0000253
 8,0.00003774,-0.00003926,-0.00005329,0.00007317,0.00001927,-0.00021599
 ,0.00011859,-0.00002172,-0.00042912,-0.00021426,-0.00009311,-0.0000196
 5,-0.00011111,0.00003408,0.00004322,0.00003100,0.00002747,0.00001035,0
 .00001970,0.00002676,0.00005428,0.00001710,-0.00001108,-0.00000939,-0.
 00004565,-0.00000159,-0.00000666,0.00000834,-0.00000997,-0.00000406,0.
 00000426,-0.00002492,-0.00000404,-0.00000050,0.00055724,-0.00008721,0.
 00004319,-0.00037632,0.00005526,0.00003228,-0.00005231,-0.00003761,0.0
 0004557,-0.00027347,-0.00013419,0.00000689,-0.08564060,-0.07538824,-0.
 10898230,-0.02028489,-0.01904231,-0.01431344,0.01105058,0.00760667,0.0
 0816135,0.09128735,0.08669074,0.11370682\\-0.00055945,0.00002499,0.000
 46677,0.00019672,0.00038556,-0.00043261,0.00057380,0.00075489,-0.00066
 301,0.00178449,-0.00463204,0.00117192,0.00564383,0.00277977,0.00072880
 ,0.00082234,-0.00040057,0.00174311,-0.00071641,0.00122784,0.00011165,-
 0.00369210,-0.00023859,-0.00046065,0.00003799,0.00037163,-0.00093144,-
 0.00081369,0.00349304,-0.00125505,-0.00268311,-0.00038617,-0.00038556,
 -0.00004130,0.00003389,-0.00067357,-0.00000226,-0.00002890,-0.00016981
 ,0.00030857,0.00005024,0.00233072,-0.00020636,0.00011239,-0.00036989,-
 0.00057006,-0.00041168,0.00149083,0.00028456,0.00021006,-0.00001370,0.
 00000515,0.00003596,0.00019612,-0.00049373,-0.00011359,-0.00210871,0.0
 0009961,-0.00051296,0.00126332,-0.00002341,-0.00007320,-0.00020314,-0.
 00004890,0.00004674,-0.00009246,0.00012794,-0.00010001,-0.00014984,0.0
 0049060,0.00026543,0.00017160,0.00000373,-0.00020108,-0.00006920,-0.00
 017223,0.00007134,-0.00070053,-0.00092497,-0.00018649,-0.00006650,-0.0
 0063698,0.00005136,0.00006351,-0.00058155,-0.00137265,0.00004875,-0.00
 011962,-0.00012362,-0.00063747,-0.00019256,0.00117744,-0.00105237,-0.0
 0057610,0.00056521,-0.00063849,-0.00012222,0.00030388,-0.00013555,0.00
 087616,-0.00130644,0.00127626,0.00029756,-0.00068265,0.00022357,0.0003
 0834,-0.00006541,-0.00063082,0.00157787,-0.00104145,0.00058474,-0.0002
 6228,-0.00008414,-0.00003130\\\@


 THERE IS AN OLD, OLD RECIPE IN MAINE FOR STEWING COOT. PLACE THE
 BIRD IN A KETTLE OF WATER WITH A RED BUILDING BRICK FREE OF MORTAR AND
 BLEMISHES. PARBOIL THE COOT AND BRICK TOGETHER FOR THREE HOURS.
 POUR OFF THE WATER, REFILL THE KETTLE, AND AGAIN PARBOIL FOR THREE HOURS.
 ONCE AGAIN POUR OFF THE WATER, FOR THE LAST TIME ADD FRESH WATER,
 AND LET THE COOT AND BRICK SIMMER TOGETHER OVERNIGHT. IN THE MORNING,
 THROW AWAY THE COOT AND EAT THE BRICK.
 Job cpu time:       0 days 10 hours 22 minutes 44.4 seconds.
 Elapsed time:       0 days  0 hours 39 minutes  2.2 seconds.
 File lengths (MBytes):  RWF=   2770 Int=      0 D2E=      0 Chk=     57 Scr=      1
 Normal termination of Gaussian 16 at Sun Jun 28 20:12:44 2026.
