 Entering Gaussian System, Link 0=g16
 Input=h2o-s0-freq.gjf
 Output=h2o-s0-freq.log
 Initial command:
 /data/home/wyx/g16/l1.exe "/scr/tmp/wyx/16266/Gau-36355.inp" -scrdir="/scr/tmp/wyx/16266/"
 Entering Link 1 = /data/home/wyx/g16/l1.exe PID=     36356.
  
 Copyright (c) 1988,1990,1992,1993,1995,1998,2003,2009,2016,
            Gaussian, Inc.  All Rights Reserved.
  
 This is part of the Gaussian(R) 16 program.  It is based on
 the Gaussian(R) 09 system (copyright 2009, Gaussian, Inc.),
 the Gaussian(R) 03 system (copyright 2003, Gaussian, Inc.),
 the Gaussian(R) 98 system (copyright 1998, Gaussian, Inc.),
 the Gaussian(R) 94 system (copyright 1995, Gaussian, Inc.),
 the Gaussian 92(TM) system (copyright 1992, Gaussian, Inc.),
 the Gaussian 90(TM) system (copyright 1990, Gaussian, Inc.),
 the Gaussian 88(TM) system (copyright 1988, Gaussian, Inc.),
 the Gaussian 86(TM) system (copyright 1986, Carnegie Mellon
 University), and the Gaussian 82(TM) system (copyright 1983,
 Carnegie Mellon University). Gaussian is a federally registered
 trademark of Gaussian, Inc.
  
 This software contains proprietary and confidential information,
 including trade secrets, belonging to Gaussian, Inc.
  
 This software is provided under written license and may be
 used, copied, transmitted, or stored only in accord with that
 written license.
  
 The following legend is applicable only to US Government
 contracts under FAR:
  
                    RESTRICTED RIGHTS LEGEND
  
 Use, reproduction and disclosure by the US Government is
 subject to restrictions as set forth in subparagraphs (a)
 and (c) of the Commercial Computer Software - Restricted
 Rights clause in FAR 52.227-19.
  
 Gaussian, Inc.
 340 Quinnipiac St., Bldg. 40, Wallingford CT 06492
  
  
 ---------------------------------------------------------------
 Warning -- This program may not be used in any manner that
 competes with the business of Gaussian, Inc. or will provide
 assistance to any competitor of Gaussian, Inc.  The licensee
 of this program is prohibited from giving any competitor of
 Gaussian, Inc. access to this program.  By using this program,
 the user acknowledges that Gaussian, Inc. is engaged in the
 business of creating and licensing software in the field of
 computational chemistry and represents and warrants to the
 licensee that it is not a competitor of Gaussian, Inc. and that
 it will not use this program in any manner prohibited above.
 ---------------------------------------------------------------
  

 Cite this work as:
 Gaussian 16, Revision A.03,
 M. J. Frisch, G. W. Trucks, H. B. Schlegel, G. E. Scuseria, 
 M. A. Robb, J. R. Cheeseman, G. Scalmani, V. Barone, 
 G. A. Petersson, H. Nakatsuji, X. Li, M. Caricato, A. V. Marenich, 
 J. Bloino, B. G. Janesko, R. Gomperts, B. Mennucci, H. P. Hratchian, 
 J. V. Ortiz, A. F. Izmaylov, J. L. Sonnenberg, D. Williams-Young, 
 F. Ding, F. Lipparini, F. Egidi, J. Goings, B. Peng, A. Petrone, 
 T. Henderson, D. Ranasinghe, V. G. Zakrzewski, J. Gao, N. Rega, 
 G. Zheng, W. Liang, M. Hada, M. Ehara, K. Toyota, R. Fukuda, 
 J. Hasegawa, M. Ishida, T. Nakajima, Y. Honda, O. Kitao, H. Nakai, 
 T. Vreven, K. Throssell, J. A. Montgomery, Jr., J. E. Peralta, 
 F. Ogliaro, M. J. Bearpark, J. J. Heyd, E. N. Brothers, K. N. Kudin, 
 V. N. Staroverov, T. A. Keith, R. Kobayashi, J. Normand, 
 K. Raghavachari, A. P. Rendell, J. C. Burant, S. S. Iyengar, 
 J. Tomasi, M. Cossi, J. M. Millam, M. Klene, C. Adamo, R. Cammi, 
 J. W. Ochterski, R. L. Martin, K. Morokuma, O. Farkas, 
 J. B. Foresman, and D. J. Fox, Gaussian, Inc., Wallingford CT, 2016.
 
 ******************************************
 Gaussian 16:  ES64L-G16RevA.03 25-Dec-2016
                28-Jun-2026 
 ******************************************
 %nprocshared=16
 Will use up to   16 processors via shared memory.
 %mem=16GB
 %chk=h2o-s0-freq=intmodes.chk
 -------------------------------------------------
 #p freq=intmodes cam-b3lyp tzvp geom=connectivity
 -------------------------------------------------
 1/10=4,18=20,30=1,38=1,57=2/1,3;
 2/9=110,12=2,17=6,18=5,40=1/2;
 3/5=19,7=101,11=2,25=1,30=1,71=2,74=-40,140=1/1,2,3;
 4//1;
 5/5=2,38=5,98=1/2;
 8/6=4,10=90,11=11/1;
 11/6=1,8=1,9=11,15=111,16=1/1,2,10;
 10/6=1/2;
 6/7=2,8=2,9=2,10=2,28=1/1;
 7/8=21,10=1,25=1/1,2,3,16;
 1/10=4,18=20,30=1/3;
 99//99;
 Leave Link    1 at Sun Jun 28 19:33:31 2026, MaxMem=  2147483648 cpu:               0.4 elap:               0.0
 (Enter /data/home/wyx/g16/l101.exe)
 -------------------
 Title Card Required
 -------------------
 Symbolic Z-matrix:
 Charge =  0 Multiplicity = 1
 O                    -1.63408   2.53492   0. 
 O                    -2.17805   8.4996   -1.77695 
 O                     3.81799   7.27449  -1.73394 
 O                    -3.67947   0.80035   1.0955 
 O                    -4.59354   9.77272  -1.9464 
 H                     4.57408   7.44784  -2.3032 
 H                    -2.98824   1.40772   0.7887 
 H                    -4.52149   10.39622  -2.67984 
 H                     3.79675   7.99636  -1.09869 
 H                    -3.50355  -0.01289   0.61341 
 H                    -3.67428   9.43558  -1.89857 
 N                     1.14878   5.9836   -1.45008 
 H                     2.07487   6.33635  -1.65357 
 C                    -1.16968   6.40193  -1.40886 
 C                     1.04456   4.71607  -0.9248 
 C                     0.08726   6.84353  -1.62698 
 C                    -2.31195   7.29076  -1.59994 
 C                    -1.42528   4.9608   -1.04192 
 H                    -2.13556   4.89457  -0.22069 
 H                    -1.92578   4.42794  -1.8561 
 C                    -0.17679   4.201    -0.65421 
 C                    -0.46545   2.89972  -0.04873 
 C                     0.48587   8.21464  -2.07353 
 H                     1.53867   8.22851  -2.35035 
 H                    -0.11552   8.54     -2.91721 
 H                     0.30269   8.94934  -1.29106 
 C                    -3.68001   6.67128  -1.60071 
 H                    -4.42984   7.41195  -1.86242 
 H                    -3.70955   5.84002  -2.3058 
 H                    -3.90816   6.2575   -0.61782 
 C                     0.58535   1.985     0.53175 
 H                     1.09745   1.44901  -0.26704 
 H                     1.33644   2.50864   1.11625 
 H                     0.07905   1.2563    1.15932 
 C                     2.38426   4.06037  -0.75206 
 H                     2.63893   3.93976   0.29814 
 H                     2.40488   3.08044  -1.22039 
 H                     3.16269   4.67058  -1.20647 
 
 Add virtual bond connecting atoms H11        and O2         Dist= 3.34D+00.
 Add virtual bond connecting atoms H7         and O1         Dist= 3.65D+00.
 Add virtual bond connecting atoms H13        and O3         Dist= 3.74D+00.
 ITRead=  0  0  0  0  0  0  0  0  0  0  0  0  0  0  0  0  0  0  0  0
 ITRead=  0  0  0  0  0  0  0  0  0  0  0  0  0  0  0  0  0  0
 MicOpt= -1 -1 -1 -1 -1 -1 -1 -1 -1 -1 -1 -1 -1 -1 -1 -1 -1 -1 -1 -1
 MicOpt= -1 -1 -1 -1 -1 -1 -1 -1 -1 -1 -1 -1 -1 -1 -1 -1 -1 -1
 NAtoms=     38 NQM=       38 NQMF=       0 NMMI=      0 NMMIF=      0
                NMic=       0 NMicF=      0.
                    Isotopes and Nuclear Properties:
 (Nuclear quadrupole moments (NQMom) in fm**2, nuclear magnetic moments (NMagM)
  in nuclear magnetons)

  Atom         1           2           3           4           5           6           7           8           9          10
 IAtWgt=          16          16          16          16          16           1           1           1           1           1
 AtmWgt=  15.9949146  15.9949146  15.9949146  15.9949146  15.9949146   1.0078250   1.0078250   1.0078250   1.0078250   1.0078250
 NucSpn=           0           0           0           0           0           1           1           1           1           1
 AtZEff=  -0.0000000  -0.0000000  -0.0000000  -0.0000000  -0.0000000  -0.0000000  -0.0000000  -0.0000000  -0.0000000  -0.0000000
 NQMom=    0.0000000   0.0000000   0.0000000   0.0000000   0.0000000   0.0000000   0.0000000   0.0000000   0.0000000   0.0000000
 NMagM=    0.0000000   0.0000000   0.0000000   0.0000000   0.0000000   2.7928460   2.7928460   2.7928460   2.7928460   2.7928460
 AtZNuc=   8.0000000   8.0000000   8.0000000   8.0000000   8.0000000   1.0000000   1.0000000   1.0000000   1.0000000   1.0000000

  Atom        11          12          13          14          15          16          17          18          19          20
 IAtWgt=           1          14           1          12          12          12          12          12           1           1
 AtmWgt=   1.0078250  14.0030740   1.0078250  12.0000000  12.0000000  12.0000000  12.0000000  12.0000000   1.0078250   1.0078250
 NucSpn=           1           2           1           0           0           0           0           0           1           1
 AtZEff=  -0.0000000  -0.0000000  -0.0000000  -0.0000000  -0.0000000  -0.0000000  -0.0000000  -0.0000000  -0.0000000  -0.0000000
 NQMom=    0.0000000   2.0440000   0.0000000   0.0000000   0.0000000   0.0000000   0.0000000   0.0000000   0.0000000   0.0000000
 NMagM=    2.7928460   0.4037610   2.7928460   0.0000000   0.0000000   0.0000000   0.0000000   0.0000000   2.7928460   2.7928460
 AtZNuc=   1.0000000   7.0000000   1.0000000   6.0000000   6.0000000   6.0000000   6.0000000   6.0000000   1.0000000   1.0000000

  Atom        21          22          23          24          25          26          27          28          29          30
 IAtWgt=          12          12          12           1           1           1          12           1           1           1
 AtmWgt=  12.0000000  12.0000000  12.0000000   1.0078250   1.0078250   1.0078250  12.0000000   1.0078250   1.0078250   1.0078250
 NucSpn=           0           0           0           1           1           1           0           1           1           1
 AtZEff=  -0.0000000  -0.0000000  -0.0000000  -0.0000000  -0.0000000  -0.0000000  -0.0000000  -0.0000000  -0.0000000  -0.0000000
 NQMom=    0.0000000   0.0000000   0.0000000   0.0000000   0.0000000   0.0000000   0.0000000   0.0000000   0.0000000   0.0000000
 NMagM=    0.0000000   0.0000000   0.0000000   2.7928460   2.7928460   2.7928460   0.0000000   2.7928460   2.7928460   2.7928460
 AtZNuc=   6.0000000   6.0000000   6.0000000   1.0000000   1.0000000   1.0000000   6.0000000   1.0000000   1.0000000   1.0000000

  Atom        31          32          33          34          35          36          37          38
 IAtWgt=          12           1           1           1          12           1           1           1
 AtmWgt=  12.0000000   1.0078250   1.0078250   1.0078250  12.0000000   1.0078250   1.0078250   1.0078250
 NucSpn=           0           1           1           1           0           1           1           1
 AtZEff=  -0.0000000  -0.0000000  -0.0000000  -0.0000000  -0.0000000  -0.0000000  -0.0000000  -0.0000000
 NQMom=    0.0000000   0.0000000   0.0000000   0.0000000   0.0000000   0.0000000   0.0000000   0.0000000
 NMagM=    0.0000000   2.7928460   2.7928460   2.7928460   0.0000000   2.7928460   2.7928460   2.7928460
 AtZNuc=   6.0000000   1.0000000   1.0000000   1.0000000   6.0000000   1.0000000   1.0000000   1.0000000
 Leave Link  101 at Sun Jun 28 19:33:32 2026, MaxMem=  2147483648 cpu:               5.2 elap:               0.4
 (Enter /data/home/wyx/g16/l103.exe)

 GradGradGradGradGradGradGradGradGradGradGradGradGradGradGradGradGradGrad
 Berny optimization.
 Initialization pass.
                           ----------------------------
                           !    Initial Parameters    !
                           ! (Angstroms and Degrees)  !
 --------------------------                            --------------------------
 ! Name  Definition              Value          Derivative Info.                !
 --------------------------------------------------------------------------------
 ! R1    R(1,7)                  1.9304         calculate D2E/DX2 analytically  !
 ! R2    R(1,22)                 1.2252         calculate D2E/DX2 analytically  !
 ! R3    R(2,11)                 1.7691         calculate D2E/DX2 analytically  !
 ! R4    R(2,17)                 1.229          calculate D2E/DX2 analytically  !
 ! R5    R(3,6)                  0.9622         calculate D2E/DX2 analytically  !
 ! R6    R(3,9)                  0.9618         calculate D2E/DX2 analytically  !
 ! R7    R(3,13)                 1.9812         calculate D2E/DX2 analytically  !
 ! R8    R(4,7)                  0.97           calculate D2E/DX2 analytically  !
 ! R9    R(4,10)                 0.9616         calculate D2E/DX2 analytically  !
 ! R10   R(5,8)                  0.9653         calculate D2E/DX2 analytically  !
 ! R11   R(5,11)                 0.9803         calculate D2E/DX2 analytically  !
 ! R12   R(12,13)                1.0117         calculate D2E/DX2 analytically  !
 ! R13   R(12,15)                1.376          calculate D2E/DX2 analytically  !
 ! R14   R(12,16)                1.3775         calculate D2E/DX2 analytically  !
 ! R15   R(14,16)                1.35           calculate D2E/DX2 analytically  !
 ! R16   R(14,17)                1.4599         calculate D2E/DX2 analytically  !
 ! R17   R(14,18)                1.5089         calculate D2E/DX2 analytically  !
 ! R18   R(15,21)                1.3529         calculate D2E/DX2 analytically  !
 ! R19   R(15,35)                1.5015         calculate D2E/DX2 analytically  !
 ! R20   R(16,23)                1.4961         calculate D2E/DX2 analytically  !
 ! R21   R(17,27)                1.5018         calculate D2E/DX2 analytically  !
 ! R22   R(18,19)                1.0878         calculate D2E/DX2 analytically  !
 ! R23   R(18,20)                1.0942         calculate D2E/DX2 analytically  !
 ! R24   R(18,21)                1.5121         calculate D2E/DX2 analytically  !
 ! R25   R(21,22)                1.464          calculate D2E/DX2 analytically  !
 ! R26   R(22,31)                1.5093         calculate D2E/DX2 analytically  !
 ! R27   R(23,24)                1.0887         calculate D2E/DX2 analytically  !
 ! R28   R(23,25)                1.086          calculate D2E/DX2 analytically  !
 ! R29   R(23,26)                1.0889         calculate D2E/DX2 analytically  !
 ! R30   R(27,28)                1.086          calculate D2E/DX2 analytically  !
 ! R31   R(27,29)                1.0904         calculate D2E/DX2 analytically  !
 ! R32   R(27,30)                1.0906         calculate D2E/DX2 analytically  !
 ! R33   R(31,32)                1.0898         calculate D2E/DX2 analytically  !
 ! R34   R(31,33)                1.0863         calculate D2E/DX2 analytically  !
 ! R35   R(31,34)                1.0868         calculate D2E/DX2 analytically  !
 ! R36   R(35,36)                1.0873         calculate D2E/DX2 analytically  !
 ! R37   R(35,37)                1.0863         calculate D2E/DX2 analytically  !
 ! R38   R(35,38)                1.0885         calculate D2E/DX2 analytically  !
 ! A1    A(7,1,22)             149.2284         calculate D2E/DX2 analytically  !
 ! A2    A(11,2,17)            115.9854         calculate D2E/DX2 analytically  !
 ! A3    A(6,3,9)              105.8365         calculate D2E/DX2 analytically  !
 ! A4    A(6,3,13)             143.1978         calculate D2E/DX2 analytically  !
 ! A5    A(9,3,13)             108.0093         calculate D2E/DX2 analytically  !
 ! A6    A(7,4,10)             103.9218         calculate D2E/DX2 analytically  !
 ! A7    A(8,5,11)             100.9071         calculate D2E/DX2 analytically  !
 ! A8    A(13,12,15)           117.8594         calculate D2E/DX2 analytically  !
 ! A9    A(13,12,16)           117.5107         calculate D2E/DX2 analytically  !
 ! A10   A(15,12,16)           124.4505         calculate D2E/DX2 analytically  !
 ! A11   A(16,14,17)           120.5435         calculate D2E/DX2 analytically  !
 ! A12   A(16,14,18)           120.6255         calculate D2E/DX2 analytically  !
 ! A13   A(17,14,18)           118.7358         calculate D2E/DX2 analytically  !
 ! A14   A(12,15,21)           119.6987         calculate D2E/DX2 analytically  !
 ! A15   A(12,15,35)           112.2472         calculate D2E/DX2 analytically  !
 ! A16   A(21,15,35)           128.0413         calculate D2E/DX2 analytically  !
 ! A17   A(12,16,14)           119.5071         calculate D2E/DX2 analytically  !
 ! A18   A(12,16,23)           113.8992         calculate D2E/DX2 analytically  !
 ! A19   A(14,16,23)           126.5898         calculate D2E/DX2 analytically  !
 ! A20   A(2,17,14)            122.1698         calculate D2E/DX2 analytically  !
 ! A21   A(2,17,27)            120.324          calculate D2E/DX2 analytically  !
 ! A22   A(14,17,27)           117.4958         calculate D2E/DX2 analytically  !
 ! A23   A(14,18,19)           110.6311         calculate D2E/DX2 analytically  !
 ! A24   A(14,18,20)           111.2006         calculate D2E/DX2 analytically  !
 ! A25   A(14,18,21)           113.7286         calculate D2E/DX2 analytically  !
 ! A26   A(19,18,20)           103.499          calculate D2E/DX2 analytically  !
 ! A27   A(19,18,21)           108.3587         calculate D2E/DX2 analytically  !
 ! A28   A(20,18,21)           108.8895         calculate D2E/DX2 analytically  !
 ! A29   A(15,21,18)           120.1875         calculate D2E/DX2 analytically  !
 ! A30   A(15,21,22)           126.8083         calculate D2E/DX2 analytically  !
 ! A31   A(18,21,22)           112.9476         calculate D2E/DX2 analytically  !
 ! A32   A(1,22,21)            117.9806         calculate D2E/DX2 analytically  !
 ! A33   A(1,22,31)            117.9254         calculate D2E/DX2 analytically  !
 ! A34   A(21,22,31)           124.0911         calculate D2E/DX2 analytically  !
 ! A35   A(16,23,24)           110.1959         calculate D2E/DX2 analytically  !
 ! A36   A(16,23,25)           111.0345         calculate D2E/DX2 analytically  !
 ! A37   A(16,23,26)           111.0429         calculate D2E/DX2 analytically  !
 ! A38   A(24,23,25)           109.5222         calculate D2E/DX2 analytically  !
 ! A39   A(24,23,26)           109.6826         calculate D2E/DX2 analytically  !
 ! A40   A(25,23,26)           105.2463         calculate D2E/DX2 analytically  !
 ! A41   A(17,27,28)           110.3512         calculate D2E/DX2 analytically  !
 ! A42   A(17,27,29)           109.8443         calculate D2E/DX2 analytically  !
 ! A43   A(17,27,30)           110.2812         calculate D2E/DX2 analytically  !
 ! A44   A(28,27,29)           110.2062         calculate D2E/DX2 analytically  !
 ! A45   A(28,27,30)           109.3616         calculate D2E/DX2 analytically  !
 ! A46   A(29,27,30)           106.7301         calculate D2E/DX2 analytically  !
 ! A47   A(22,31,32)           110.0804         calculate D2E/DX2 analytically  !
 ! A48   A(22,31,33)           113.3408         calculate D2E/DX2 analytically  !
 ! A49   A(22,31,34)           107.7048         calculate D2E/DX2 analytically  !
 ! A50   A(32,31,33)           107.8533         calculate D2E/DX2 analytically  !
 ! A51   A(32,31,34)           108.2042         calculate D2E/DX2 analytically  !
 ! A52   A(33,31,34)           109.5489         calculate D2E/DX2 analytically  !
 ! A53   A(15,35,36)           111.6243         calculate D2E/DX2 analytically  !
 ! A54   A(15,35,37)           111.1783         calculate D2E/DX2 analytically  !
 ! A55   A(15,35,38)           110.1964         calculate D2E/DX2 analytically  !
 ! A56   A(36,35,37)           108.174          calculate D2E/DX2 analytically  !
 ! A57   A(36,35,38)           107.3306         calculate D2E/DX2 analytically  !
 ! A58   A(37,35,38)           108.1893         calculate D2E/DX2 analytically  !
 ! A59   L(1,7,4,28,-1)        179.9297         calculate D2E/DX2 analytically  !
 ! A60   L(2,11,5,28,-1)       168.1215         calculate D2E/DX2 analytically  !
 ! A61   L(3,13,12,23,-1)      174.7083         calculate D2E/DX2 analytically  !
 ! A62   L(1,7,4,28,-2)        173.0888         calculate D2E/DX2 analytically  !
 ! A63   L(2,11,5,28,-2)       178.9746         calculate D2E/DX2 analytically  !
 ! A64   L(3,13,12,23,-2)      190.9353         calculate D2E/DX2 analytically  !
 ! D1    D(22,1,4,10)          -77.5941         calculate D2E/DX2 analytically  !
 ! D2    D(7,1,22,21)         -159.5012         calculate D2E/DX2 analytically  !
 ! D3    D(7,1,22,31)           19.9082         calculate D2E/DX2 analytically  !
 ! D4    D(17,2,5,8)          -136.6854         calculate D2E/DX2 analytically  !
 ! D5    D(11,2,17,14)        -176.6533         calculate D2E/DX2 analytically  !
 ! D6    D(11,2,17,27)           4.554          calculate D2E/DX2 analytically  !
 ! D7    D(6,3,12,15)           93.5424         calculate D2E/DX2 analytically  !
 ! D8    D(6,3,12,16)          -98.6862         calculate D2E/DX2 analytically  !
 ! D9    D(9,3,12,15)         -112.1064         calculate D2E/DX2 analytically  !
 ! D10   D(9,3,12,16)           55.665          calculate D2E/DX2 analytically  !
 ! D11   D(13,12,15,21)       -179.1811         calculate D2E/DX2 analytically  !
 ! D12   D(13,12,15,35)         -0.3799         calculate D2E/DX2 analytically  !
 ! D13   D(16,12,15,21)          5.8184         calculate D2E/DX2 analytically  !
 ! D14   D(16,12,15,35)       -175.3804         calculate D2E/DX2 analytically  !
 ! D15   D(13,12,16,14)        177.874          calculate D2E/DX2 analytically  !
 ! D16   D(13,12,16,23)         -1.4515         calculate D2E/DX2 analytically  !
 ! D17   D(15,12,16,14)         -7.1094         calculate D2E/DX2 analytically  !
 ! D18   D(15,12,16,23)        173.565          calculate D2E/DX2 analytically  !
 ! D19   D(17,14,16,12)       -179.5016         calculate D2E/DX2 analytically  !
 ! D20   D(17,14,16,23)         -0.2696         calculate D2E/DX2 analytically  !
 ! D21   D(18,14,16,12)         -3.0943         calculate D2E/DX2 analytically  !
 ! D22   D(18,14,16,23)        176.1377         calculate D2E/DX2 analytically  !
 ! D23   D(16,14,17,2)         -10.4116         calculate D2E/DX2 analytically  !
 ! D24   D(16,14,17,27)        168.4136         calculate D2E/DX2 analytically  !
 ! D25   D(18,14,17,2)         173.1141         calculate D2E/DX2 analytically  !
 ! D26   D(18,14,17,27)         -8.0607         calculate D2E/DX2 analytically  !
 ! D27   D(16,14,18,19)        135.0892         calculate D2E/DX2 analytically  !
 ! D28   D(16,14,18,20)       -110.4816         calculate D2E/DX2 analytically  !
 ! D29   D(16,14,18,21)         12.8726         calculate D2E/DX2 analytically  !
 ! D30   D(17,14,18,19)        -48.4394         calculate D2E/DX2 analytically  !
 ! D31   D(17,14,18,20)         65.9897         calculate D2E/DX2 analytically  !
 ! D32   D(17,14,18,21)       -170.656          calculate D2E/DX2 analytically  !
 ! D33   D(12,15,21,18)          5.533          calculate D2E/DX2 analytically  !
 ! D34   D(12,15,21,22)       -177.4054         calculate D2E/DX2 analytically  !
 ! D35   D(35,15,21,18)       -173.0582         calculate D2E/DX2 analytically  !
 ! D36   D(35,15,21,22)          4.0035         calculate D2E/DX2 analytically  !
 ! D37   D(12,15,35,36)        111.3758         calculate D2E/DX2 analytically  !
 ! D38   D(12,15,35,37)       -127.7331         calculate D2E/DX2 analytically  !
 ! D39   D(12,15,35,38)         -7.7846         calculate D2E/DX2 analytically  !
 ! D40   D(21,15,35,36)        -69.9464         calculate D2E/DX2 analytically  !
 ! D41   D(21,15,35,37)         50.9447         calculate D2E/DX2 analytically  !
 ! D42   D(21,15,35,38)        170.8932         calculate D2E/DX2 analytically  !
 ! D43   D(12,16,23,24)         10.2115         calculate D2E/DX2 analytically  !
 ! D44   D(12,16,23,25)        131.7413         calculate D2E/DX2 analytically  !
 ! D45   D(12,16,23,26)       -111.5265         calculate D2E/DX2 analytically  !
 ! D46   D(14,16,23,24)       -169.0575         calculate D2E/DX2 analytically  !
 ! D47   D(14,16,23,25)        -47.5277         calculate D2E/DX2 analytically  !
 ! D48   D(14,16,23,26)         69.2046         calculate D2E/DX2 analytically  !
 ! D49   D(2,17,27,28)           5.2612         calculate D2E/DX2 analytically  !
 ! D50   D(2,17,27,29)         126.9644         calculate D2E/DX2 analytically  !
 ! D51   D(2,17,27,30)        -115.6724         calculate D2E/DX2 analytically  !
 ! D52   D(14,17,27,28)       -173.5868         calculate D2E/DX2 analytically  !
 ! D53   D(14,17,27,29)        -51.8836         calculate D2E/DX2 analytically  !
 ! D54   D(14,17,27,30)         65.4796         calculate D2E/DX2 analytically  !
 ! D55   D(14,18,21,15)        -14.0815         calculate D2E/DX2 analytically  !
 ! D56   D(14,18,21,22)        168.473          calculate D2E/DX2 analytically  !
 ! D57   D(19,18,21,15)       -137.5446         calculate D2E/DX2 analytically  !
 ! D58   D(19,18,21,22)         45.0099         calculate D2E/DX2 analytically  !
 ! D59   D(20,18,21,15)        110.5239         calculate D2E/DX2 analytically  !
 ! D60   D(20,18,21,22)        -66.9216         calculate D2E/DX2 analytically  !
 ! D61   D(15,21,22,1)        -172.6968         calculate D2E/DX2 analytically  !
 ! D62   D(15,21,22,31)          7.9333         calculate D2E/DX2 analytically  !
 ! D63   D(18,21,22,1)           4.5452         calculate D2E/DX2 analytically  !
 ! D64   D(18,21,22,31)       -174.8247         calculate D2E/DX2 analytically  !
 ! D65   D(1,22,31,32)         101.8304         calculate D2E/DX2 analytically  !
 ! D66   D(1,22,31,33)        -137.2884         calculate D2E/DX2 analytically  !
 ! D67   D(1,22,31,34)         -15.9355         calculate D2E/DX2 analytically  !
 ! D68   D(21,22,31,32)        -78.7994         calculate D2E/DX2 analytically  !
 ! D69   D(21,22,31,33)         42.0818         calculate D2E/DX2 analytically  !
 ! D70   D(21,22,31,34)        163.4347         calculate D2E/DX2 analytically  !
 --------------------------------------------------------------------------------
 Trust Radius=3.00D-01 FncErr=1.00D-07 GrdErr=1.00D-07 EigMax=2.50D+02 EigMin=1.00D-04
 Number of steps in this run=      2 maximum allowed number of steps=      2.
 GradGradGradGradGradGradGradGradGradGradGradGradGradGradGradGradGradGrad

 Leave Link  103 at Sun Jun 28 19:33:32 2026, MaxMem=  2147483648 cpu:               0.2 elap:               0.0
 (Enter /data/home/wyx/g16/l202.exe)
                          Input orientation:                          
 ---------------------------------------------------------------------
 Center     Atomic      Atomic             Coordinates (Angstroms)
 Number     Number       Type             X           Y           Z
 ---------------------------------------------------------------------
      1          8           0       -1.634078    2.534916    0.000000
      2          8           0       -2.178047    8.499597   -1.776953
      3          8           0        3.817990    7.274491   -1.733942
      4          8           0       -3.679474    0.800345    1.095505
      5          8           0       -4.593538    9.772722   -1.946404
      6          1           0        4.574079    7.447844   -2.303203
      7          1           0       -2.988235    1.407719    0.788697
      8          1           0       -4.521489   10.396221   -2.679843
      9          1           0        3.796749    7.996360   -1.098693
     10          1           0       -3.503545   -0.012887    0.613410
     11          1           0       -3.674279    9.435581   -1.898569
     12          7           0        1.148781    5.983604   -1.450082
     13          1           0        2.074873    6.336353   -1.653570
     14          6           0       -1.169682    6.401927   -1.408862
     15          6           0        1.044563    4.716065   -0.924798
     16          6           0        0.087265    6.843528   -1.626977
     17          6           0       -2.311948    7.290763   -1.599944
     18          6           0       -1.425284    4.960803   -1.041916
     19          1           0       -2.135557    4.894572   -0.220691
     20          1           0       -1.925780    4.427935   -1.856102
     21          6           0       -0.176789    4.200998   -0.654214
     22          6           0       -0.465446    2.899724   -0.048732
     23          6           0        0.485867    8.214637   -2.073532
     24          1           0        1.538672    8.228514   -2.350351
     25          1           0       -0.115519    8.540003   -2.917210
     26          1           0        0.302691    8.949336   -1.291059
     27          6           0       -3.680012    6.671281   -1.600706
     28          1           0       -4.429838    7.411950   -1.862415
     29          1           0       -3.709553    5.840020   -2.305798
     30          1           0       -3.908162    6.257495   -0.617818
     31          6           0        0.585350    1.984999    0.531753
     32          1           0        1.097451    1.449013   -0.267044
     33          1           0        1.336438    2.508635    1.116250
     34          1           0        0.079052    1.256304    1.159324
     35          6           0        2.384257    4.060365   -0.752061
     36          1           0        2.638930    3.939762    0.298142
     37          1           0        2.404876    3.080441   -1.220394
     38          1           0        3.162690    4.670576   -1.206467
 ---------------------------------------------------------------------
                    Distance matrix (angstroms):
                    1          2          3          4          5
     1  O    0.000000
     2  O    6.247470   0.000000
     3  O    7.429345   6.120065   0.000000
     4  O    2.896983   8.353669  10.302053   0.000000
     5  O    8.058085   2.735719   8.777249   9.517997   0.000000
     6  H    8.245169   6.853782   0.962175  11.129312   9.464542
     7  H    1.930377   7.585097   9.333136   0.969972   8.946008
     8  H    8.793112   3.147080   8.954710  10.346162   0.965337
     9  H    7.779999   6.034192   0.961815  10.606180   8.618062
    10  H    3.219080   8.940535  10.593433   0.961620  10.173440
    11  H    7.442188   1.769058   7.799456   9.139574   0.980301
    12  N    4.662670   4.183880   2.978530   7.527166   6.897679
    13  H    5.562512   4.773068   1.981166   8.444958   7.507469
    14  C    4.141779   2.356377   5.073846   6.629376   4.834667
    15  C    3.576001   5.042469   3.859035   6.459955   7.642097
    16  C    4.916728   2.810106   3.757057   7.623667   5.531015
    17  C    5.063340   1.229041   6.131424   7.159686   3.389072
    18  C    2.648417   3.691882   5.772692   5.192240   5.831852
    19  H    2.422429   3.926826   6.587766   4.569327   5.728534
    20  H    2.667157   4.080237   6.411607   4.994681   5.974264
    21  C    2.308141   4.872733   5.154651   5.186016   7.226447
    22  C    1.225219   6.105598   6.350303   4.005827   8.238956
    23  C    6.407256   2.695478   3.478827   9.075494   5.314522
    24  H    6.928748   3.770447   2.546647   9.709823   6.336541
    25  H    6.846693   2.357083   4.298155   9.418384   4.744967
    26  H    6.823686   2.567571   3.919002   9.378666   5.008044
    27  C    4.884426   2.372699   7.523407   6.460452   3.251611
    28  H    5.922020   2.502168   8.249974   7.281872   2.367931
    29  H    4.532992   3.114247   7.684311   6.080139   4.046818
    30  H    4.405763   3.060051   7.872321   5.724357   3.819909
    31  C    2.347558   7.443552   6.600156   4.462056   9.675266
    32  H    2.951567   7.919561   6.594643   5.009623  10.222120
    33  H    3.173432   7.524218   6.082358   5.298873   9.864655
    34  H    2.431809   8.135202   7.653053   3.786620  10.198432
    35  C    4.363440   6.447620   3.653804   7.128118   9.096543
    36  H    4.507891   6.949920   4.079211   7.100279   9.558766
    37  H    4.254422   7.119002   4.455410   6.897937   9.710382
    38  H    5.387540   6.596236   2.736425   8.191030   9.313349
                    6          7          8          9         10
     6  H    0.000000
     7  H   10.160293   0.000000
     8  H    9.568915   9.755758   0.000000
     9  H    1.534912   9.644088   8.800707   0.000000
    10  H   11.376166   1.521312  10.965001  10.971492   0.000000
    11  H    8.494130   8.493446   1.500328   7.650321   9.778177
    12  N    3.821581   6.562450   7.289408   3.344607   7.865115
    13  H    2.811310   7.476039   7.813306   2.455274   8.750474
    14  C    5.906317   5.751392   5.366972   5.225309   7.119434
    15  C    4.671199   5.490417   8.144034   4.285452   6.739018
    16  C    4.577552   6.696432   5.913609   3.920252   8.057523
    17  C    6.923627   6.385388   3.961328   6.169708   7.724127
    18  C    6.615782   4.291662   6.466302   6.040485   5.638871
    19  H    7.474976   3.728816   6.481377   6.751609   5.162390
    20  H    7.181080   4.152767   6.560236   6.786359   5.320595
    21  C    5.985977   4.217657   7.833287   5.512834   5.516430
    22  C    7.152961   3.048250   8.920297   6.726397   4.260491
    23  C    4.165837   8.160629   5.495501   3.458308   9.530331
    24  H    3.134544   8.767540   6.444616   2.592191  10.105866
    25  H    4.854085   8.535556   4.786905   4.348378   9.853726
    26  H    4.639361   8.487141   5.224453   3.626790   9.921486
    27  C    8.320251   5.821760   3.968350   7.609849   7.043547
    28  H    9.014771   6.719926   3.095555   8.282605   7.881366
    29  H    8.438226   5.453576   4.643072   7.902625   6.543755
    30  H    8.729597   5.132726   4.664458   7.913314   6.402916
    31  C    7.334140   3.629019  10.350981   7.007703   4.551624
    32  H    7.226262   4.220086  10.837279   7.130610   4.907292
    33  H    6.824278   4.474607  10.532789   6.408918   5.480543
    34  H    8.398186   3.093306  10.928964   8.021737   3.839775
    35  C    4.321617   6.186609   9.568111   4.196111   7.288491
    36  H    4.776865   6.190062  10.090880   4.443836   7.311144
    37  H    4.995210   5.993337  10.179644   5.110615   6.916716
    38  H    3.302736   7.242982   9.695383   3.387401   8.347782
                   11         12         13         14         15
    11  H    0.000000
    12  N    5.948041   0.000000
    13  H    6.535900   1.011675   0.000000
    14  C    3.964325   2.356261   3.254431   0.000000
    15  C    6.744593   1.376023   2.053772   2.824771   0.000000
    16  C    4.576212   1.377526   2.051468   1.350001   2.436303
    17  C    2.558391   3.702400   4.489763   1.459902   4.283813
    18  C    5.080893   2.799738   3.810165   1.508914   2.484705
    19  H    5.079735   3.672093   4.675425   2.148670   3.262023
    20  H    5.304297   3.469565   4.437150   2.160637   3.126225
    21  C    6.417298   2.359709   3.260128   2.529707   1.352853
    22  C    7.512385   3.752309   4.564991   3.822477   2.519268
    23  C    4.339139   2.409492   2.495848   2.543334   3.724478
    24  H    5.369914   2.449922   2.086454   3.399706   3.822779
    25  H    3.808472   3.207194   3.354203   2.820947   4.465199
    26  H    4.052381   3.088158   3.178006   2.944665   4.313363
    27  C    2.780307   4.879839   5.764865   2.532017   5.157648
    28  H    2.160384   5.773316   6.596347   3.443033   6.173815
    29  H    3.618721   4.935208   5.842203   2.751577   5.076618
    30  H    3.434422   5.132285   6.072537   2.854099   5.196126
    31  C    8.919758   4.498218   5.092013   5.133749   3.129080
    32  H    9.445451   4.686654   5.173384   5.565519   3.333027
    33  H    9.065263   4.323966   4.782114   5.273950   3.020565
    34  H    9.504671   5.504606   6.140242   5.884926   4.152797
    35  C    8.180054   2.390080   2.467500   4.306365   1.501519
    36  H    8.653680   3.074755   3.141813   4.845786   2.154120
    37  H    8.820649   3.171575   3.301137   4.883160   2.147812
    38  H    8.362322   2.416448   2.039132   4.669902   2.137257
                   16         17         18         19         20
    16  C    0.000000
    17  C    2.440691   0.000000
    18  C    2.484905   2.554659   0.000000
    19  H    3.273684   2.770412   1.087789   0.000000
    20  H    3.152767   2.900091   1.094232   1.713571   0.000000
    21  C    2.828243   3.872978   1.512070   2.122677   2.134246
    22  C    4.283683   5.009696   2.481078   2.607347   2.781113
    23  C    1.496073   2.984225   3.912054   4.618194   4.494711
    24  H    2.132613   4.033579   4.601627   5.399128   5.166344
    25  H    2.140993   2.849577   4.247692   4.963964   4.616503
    26  H    2.143286   3.111689   4.353891   4.850964   5.072319
    27  C    3.771304   1.501785   2.884749   2.728823   2.859223
    28  H    4.558811   2.137530   3.963418   3.781028   3.895471
    29  H    3.985430   2.134522   2.754688   2.778310   2.319064
    30  H    4.162364   2.140120   2.833011   2.270990   2.968245
    31  C    5.339804   6.410117   3.921032   4.054025   4.239760
    32  H    5.654263   6.893959   4.392868   4.725078   4.531998
    33  H    5.279870   6.599786   4.277606   4.419825   4.812552
    34  H    6.243446   7.053023   4.564186   4.477268   4.813667
    35  C    3.713172   5.762701   3.925227   4.626767   4.464351
    36  H    4.318441   6.272410   4.399559   4.896588   5.071061
    37  H    4.438181   6.333980   4.270567   4.990592   4.579787
    38  H    3.789035   6.082094   4.600088   5.393825   5.135507
                   21         22         23         24         25
    21  C    0.000000
    22  C    1.463983   0.000000
    23  C    4.308465   5.766551   0.000000
    24  H    4.694739   6.140842   1.088678   0.000000
    25  H    4.894065   6.337457   1.085965   1.776148   0.000000
    26  H    4.814788   6.223441   1.088853   1.780262   1.728242
    27  C    4.389842   5.192947   4.467668   5.497418   4.234491
    28  H    5.464283   6.274236   4.985282   6.043837   4.582406
    29  H    4.230194   4.925842   4.826417   5.766347   4.536608
    30  H    4.260710   4.842600   5.025634   6.046039   4.988105
    31  C    2.626409   1.509257   6.753206   6.942393   7.440070
    32  H    3.057288   2.143565   7.029303   7.106087   7.666604
    33  H    2.878974   2.181036   6.592165   6.691430   7.399620
    34  H    3.467794   2.111091   7.683440   7.941034   8.349147
    35  C    2.566770   3.156353   4.754802   4.543458   5.568115
    36  H    2.983873   3.292287   5.341823   5.159310   6.252015
    37  H    2.870749   3.105511   5.547108   5.341326   6.248071
    38  H    3.417251   4.199957   4.525213   4.074902   5.352173
                   26         27         28         29         30
    26  H    0.000000
    27  C    4.598624   0.000000
    28  H    5.008676   1.085966   0.000000
    29  H    5.176451   1.090423   1.785039   0.000000
    30  H    5.042871   1.090569   1.775932   1.750145   0.000000
    31  C    7.204480   6.685950   7.767622   6.431102   6.306139
    32  H    7.611511   7.202423   8.285696   6.822371   6.949871
    33  H    6.953157   7.062170   8.134180   6.947702   6.675835
    34  H    8.076951   7.146349   8.206886   6.882663   6.638375
    35  C    5.340924   6.656759   7.674497   6.535732   6.666329
    36  H    5.751470   7.141138   8.166491   7.120022   7.005375
    37  H    6.234429   7.075636   8.117110   6.795559   7.093040
    38  H    5.147284   7.140085   8.098881   7.057184   7.270610
                   31         32         33         34         35
    31  C    0.000000
    32  H    1.089773   0.000000
    33  H    1.086262   1.758811   0.000000
    34  H    1.086821   1.763179   1.775164   0.000000
    35  C    3.031730   2.951317   2.645066   4.102453   0.000000
    36  H    2.844796   2.983190   2.100931   3.807303   1.087350
    37  H    2.753305   2.297780   2.632191   3.794732   1.086284
    38  H    4.108091   3.940329   3.661175   5.173301   1.088485
                   36         37         38
    36  H    0.000000
    37  H    1.760445   0.000000
    38  H    1.752787   1.761535   0.000000
 Stoichiometry    C11H21NO5
 Framework group  C1[X(C11H21NO5)]
 Deg. of freedom   108
 Full point group                 C1      NOp   1
 Largest Abelian subgroup         C1      NOp   1
 Largest concise Abelian subgroup C1      NOp   1
                         Standard orientation:                         
 ---------------------------------------------------------------------
 Center     Atomic      Atomic             Coordinates (Angstroms)
 Number     Number       Type             X           Y           Z
 ---------------------------------------------------------------------
      1          8           0       -2.918756   -1.458616    0.107245
      2          8           0        3.298801   -0.931480   -0.200968
      3          8           0        1.104878    4.781588   -0.148495
      4          8           0       -4.531614   -3.841385   -0.229823
      5          8           0        4.957028   -3.102814   -0.341508
      6          1           0        1.318970    5.611872    0.288050
      7          1           0       -3.987348   -3.039888   -0.182660
      8          1           0        5.761632   -2.861808    0.134309
      9          1           0        1.574757    4.797429   -0.987572
     10          1           0       -5.162831   -3.734972    0.487781
     11          1           0        4.468437   -2.253175   -0.321973
     12          7           0        0.275362    1.937731    0.161382
     13          1           0        0.508611    2.921876    0.184606
     14          6           0        1.053456   -0.285644    0.105348
     15          6           0       -1.055509    1.593602    0.099763
     16          6           0        1.316685    1.038403    0.094787
     17          6           0        2.140270   -1.258631    0.046660
     18          6           0       -0.361449   -0.786872    0.259085
     19          1           0       -0.565285   -1.583677   -0.452840
     20          1           0       -0.507142   -1.268890    1.230565
     21          6           0       -1.410218    0.288176    0.083829
     22          6           0       -2.766395   -0.250909   -0.032004
     23          6           0        2.667379    1.678636    0.031842
     24          1           0        2.587103    2.745867    0.231323
     25          1           0        3.347117    1.225799    0.747534
     26          1           0        3.129700    1.521208   -0.941337
     27          6           0        1.801594   -2.694269    0.328792
     28          1           0        2.705313   -3.295325    0.365469
     29          1           0        1.261338   -2.768468    1.273059
     30          1           0        1.138530   -3.085120   -0.443815
     31          6           0       -3.987296    0.586306   -0.325820
     32          1           0       -4.316553    1.097950    0.578291
     33          1           0       -3.819424    1.338207   -1.091606
     34          1           0       -4.780196   -0.085653   -0.643559
     35          6           0       -1.953768    2.796732    0.086702
     36          1           0       -2.449623    2.916190   -0.873604
     37          1           0       -2.717556    2.724608    0.855753
     38          1           0       -1.374282    3.700324    0.267027
 ---------------------------------------------------------------------
 Rotational constants (GHZ):           0.3763274           0.2712458           0.1594619
 Leave Link  202 at Sun Jun 28 19:33:32 2026, MaxMem=  2147483648 cpu:               0.2 elap:               0.0
 (Enter /data/home/wyx/g16/l301.exe)
 Standard basis: TZVP (5D, 7F)
 Ernie: Thresh=  0.10000D-02 Tol=  0.10000D-05 Strict=F.
 There are   466 symmetry adapted cartesian basis functions of A   symmetry.
 There are   449 symmetry adapted basis functions of A   symmetry.
   449 basis functions,   763 primitive gaussians,   466 cartesian basis functions
    67 alpha electrons       67 beta electrons
       nuclear repulsion energy      1257.5707355795 Hartrees.
 IExCor=20419 DFT=T Ex+Corr=CAM-B3LYP ExCW=0 ScaHFX=  1.000000
 ScaDFX=  1.000000  1.000000  1.000000  0.810000 ScalE2=  1.000000  1.000000
 IRadAn=      5 IRanWt=     -1 IRanGd=            0 ICorTp=0 IEmpDi=  4
 HFx  wShort=  0.000000 wLong=  0.330000 cFull=  0.190000 cShort=  0.000000 cLong=  0.460000
 DFx  wShort=  0.000000 wLong=  0.330000 cFull=  0.190000 cShort=  0.000000 cLong=  0.460000
 NAtoms=   38 NActive=   38 NUniq=   38 SFac= 1.00D+00 NAtFMM=   60 NAOKFM=F Big=F
 Integral buffers will be    131072 words long.
 Raffenetti 2 integral format.
 Two-electron integral symmetry is turned on.
 Leave Link  301 at Sun Jun 28 19:33:33 2026, MaxMem=  2147483648 cpu:               1.0 elap:               0.1
 (Enter /data/home/wyx/g16/l302.exe)
 NPDir=0 NMtPBC=     1 NCelOv=     1 NCel=       1 NClECP=     1 NCelD=      1
         NCelK=      1 NCelE2=     1 NClLst=     1 CellRange=     0.0.
 One-electron integrals computed using PRISM.
 One-electron integral symmetry used in STVInt
 NBasis=   449 RedAO= T EigKep=  3.57D-05  NBF=   449
 NBsUse=   449 1.00D-06 EigRej= -1.00D+00 NBFU=   449
 Precomputing XC quadrature grid using
 IXCGrd= 4 IRadAn=           5 IRanWt=          -1 IRanGd=           0 AccXCQ= 0.00D+00.
 Generated NRdTot=       0 NPtTot=           0 NUsed=           0 NTot=          32
 NSgBfM=   454   454   454   454   454 MxSgAt=    38 MxSgA2=    38.
 Leave Link  302 at Sun Jun 28 19:33:33 2026, MaxMem=  2147483648 cpu:               6.3 elap:               0.4
 (Enter /data/home/wyx/g16/l303.exe)
 DipDrv:  MaxL=1.
 Leave Link  303 at Sun Jun 28 19:33:33 2026, MaxMem=  2147483648 cpu:               1.0 elap:               0.1
 (Enter /data/home/wyx/g16/l401.exe)
 ExpMin= 9.52D-02 ExpMax= 2.70D+04 ExpMxC= 9.22D+02 IAcc=3 IRadAn=         5 AccDes= 0.00D+00
 Harris functional with IExCor=20419 and IRadAn=       5 diagonalized for initial guess.
 HarFok:  IExCor=20419 AccDes= 0.00D+00 IRadAn=         5 IDoV= 1 UseB2=F ITyADJ=14
 ICtDFT=  3500011 ScaDFX=  1.000000  1.000000  1.000000  1.000000
 FoFCou: FMM=F IPFlag=           0 FMFlag=      100000 FMFlg1=           0
         NFxFlg=           0 DoJE=T BraDBF=F KetDBF=T FulRan=T
         wScrn=  0.000000 ICntrl=       500 IOpCl=  0 I1Cent=   200000004 NGrid=           0
         NMat0=    1 NMatS0=      1 NMatT0=    0 NMatD0=    1 NMtDS0=    0 NMtDT0=    0
 Petite list used in FoFCou.
 Harris En= -830.459804466308    
 JPrj=0 DoOrth=F DoCkMO=F.
 Leave Link  401 at Sun Jun 28 19:33:35 2026, MaxMem=  2147483648 cpu:              18.8 elap:               1.2
 (Enter /data/home/wyx/g16/l502.exe)
 Integral symmetry usage will be decided dynamically.
 Closed shell SCF:
 Using DIIS extrapolation, IDIIS=  1040.
 NGot=  2147483648 LenX=  2147037048 LenY=  2146819426
 Requested convergence on RMS density matrix=1.00D-08 within 128 cycles.
 Requested convergence on MAX density matrix=1.00D-06.
 Requested convergence on             energy=1.00D-06.
 No special actions if energy rises.
 Fock matrices will be formed incrementally for  20 cycles.
 Integral accuracy reduced to 1.0D-05 until final iterations.

 Cycle   1  Pass 0  IDiag  1:
 FoFJK:  IHMeth= 1 ICntrl=       0 DoSepK=T KAlg= 0 I1Cent=           0 FoldK=F
 IRaf=         1 NMat=       1 IRICut=       1 DoRegI=T DoRafI=F ISym2E= 0 IDoP0=0 IntGTp=1.
 FoFCou: FMM=F IPFlag=           0 FMFlag=      100000 FMFlg1=           0
         NFxFlg=           0 DoJE=T BraDBF=F KetDBF=F FulRan=T
         wScrn=  0.000000 ICntrl=       500 IOpCl=  0 I1Cent=           0 NGrid=           0
         NMat0=    1 NMatS0=      1 NMatT0=    0 NMatD0=    1 NMtDS0=    0 NMtDT0=    0
 Symmetry not used in FoFCou.
 E= -862.384048845931    
 DIIS: error= 3.31D-02 at cycle   1 NSaved=   1.
 NSaved= 1 IEnMin= 1 EnMin= -862.384048845931     IErMin= 1 ErrMin= 3.31D-02
 ErrMax= 3.31D-02  0.00D+00 EMaxC= 1.00D-01 BMatC= 1.42D+00 BMatP= 1.42D+00
 IDIUse=3 WtCom= 6.69D-01 WtEn= 3.31D-01
 Coeff-Com:  0.100D+01
 Coeff-En:   0.100D+01
 Coeff:      0.100D+01
 Gap=     0.228 Goal=   None    Shift=    0.000
 GapD=    0.228 DampG=1.000 DampE=0.500 DampFc=0.5000 IDamp=-1.
 Damping current iteration by 5.00D-01
 RMSDP=3.36D-03 MaxDP=1.42D-01              OVMax= 1.58D-01

 Cycle   2  Pass 0  IDiag  1:
 RMSU=  1.56D-03    CP:  9.46D-01
 E= -862.496615391326     Delta-E=       -0.112566545396 Rises=F Damp=T
 DIIS: error= 1.56D-02 at cycle   2 NSaved=   2.
 NSaved= 2 IEnMin= 2 EnMin= -862.496615391326     IErMin= 2 ErrMin= 1.56D-02
 ErrMax= 1.56D-02  0.00D+00 EMaxC= 1.00D-01 BMatC= 2.94D-01 BMatP= 1.42D+00
 IDIUse=3 WtCom= 8.44D-01 WtEn= 1.56D-01
 Coeff-Com: -0.624D+00 0.162D+01
 Coeff-En:   0.000D+00 0.100D+01
 Coeff:     -0.527D+00 0.153D+01
 Gap=     0.244 Goal=   None    Shift=    0.000
 RMSDP=1.65D-03 MaxDP=8.33D-02 DE=-1.13D-01 OVMax= 1.65D-01

 Cycle   3  Pass 0  IDiag  1:
 RMSU=  1.54D-03    CP:  9.15D-01  1.28D+00
 E= -862.536862117559     Delta-E=       -0.040246726233 Rises=F Damp=F
 DIIS: error= 1.29D-02 at cycle   3 NSaved=   3.
 NSaved= 3 IEnMin= 3 EnMin= -862.536862117559     IErMin= 3 ErrMin= 1.29D-02
 ErrMax= 1.29D-02  0.00D+00 EMaxC= 1.00D-01 BMatC= 9.71D-02 BMatP= 2.94D-01
 IDIUse=3 WtCom= 8.71D-01 WtEn= 1.29D-01
 Coeff-Com: -0.396D+00 0.864D+00 0.532D+00
 Coeff-En:   0.000D+00 0.185D+00 0.815D+00
 Coeff:     -0.345D+00 0.776D+00 0.569D+00
 Gap=     0.243 Goal=   None    Shift=    0.000
 RMSDP=1.22D-03 MaxDP=8.81D-02 DE=-4.02D-02 OVMax= 9.91D-02

 Cycle   4  Pass 0  IDiag  1:
 RMSU=  5.27D-04    CP:  8.81D-01  1.71D+00  4.91D-01
 E= -862.611869985469     Delta-E=       -0.075007867910 Rises=F Damp=F
 DIIS: error= 4.03D-03 at cycle   4 NSaved=   4.
 NSaved= 4 IEnMin= 4 EnMin= -862.611869985469     IErMin= 4 ErrMin= 4.03D-03
 ErrMax= 4.03D-03  0.00D+00 EMaxC= 1.00D-01 BMatC= 8.66D-03 BMatP= 9.71D-02
 IDIUse=3 WtCom= 9.60D-01 WtEn= 4.03D-02
 Coeff-Com: -0.177D+00 0.382D+00 0.333D+00 0.462D+00
 Coeff-En:   0.000D+00 0.000D+00 0.611D-02 0.994D+00
 Coeff:     -0.170D+00 0.366D+00 0.320D+00 0.484D+00
 Gap=     0.234 Goal=   None    Shift=    0.000
 RMSDP=3.01D-04 MaxDP=2.58D-02 DE=-7.50D-02 OVMax= 2.08D-02

 Cycle   5  Pass 0  IDiag  1:
 RMSU=  1.25D-04    CP:  8.86D-01  1.68D+00  6.30D-01  7.13D-01
 E= -862.618801054189     Delta-E=       -0.006931068719 Rises=F Damp=F
 DIIS: error= 4.36D-04 at cycle   5 NSaved=   5.
 NSaved= 5 IEnMin= 5 EnMin= -862.618801054189     IErMin= 5 ErrMin= 4.36D-04
 ErrMax= 4.36D-04  0.00D+00 EMaxC= 1.00D-01 BMatC= 8.76D-05 BMatP= 8.66D-03
 IDIUse=3 WtCom= 9.96D-01 WtEn= 4.36D-03
 Coeff-Com: -0.188D-01 0.398D-01 0.464D-01 0.132D+00 0.800D+00
 Coeff-En:   0.000D+00 0.000D+00 0.000D+00 0.000D+00 0.100D+01
 Coeff:     -0.187D-01 0.396D-01 0.462D-01 0.132D+00 0.801D+00
 Gap=     0.235 Goal=   None    Shift=    0.000
 RMSDP=7.11D-05 MaxDP=3.74D-03 DE=-6.93D-03 OVMax= 2.35D-03

 Cycle   6  Pass 0  IDiag  1:
 RMSU=  3.97D-05    CP:  8.83D-01  1.70D+00  6.33D-01  7.86D-01  1.06D+00
 E= -862.618860178986     Delta-E=       -0.000059124797 Rises=F Damp=F
 DIIS: error= 3.00D-04 at cycle   6 NSaved=   6.
 NSaved= 6 IEnMin= 6 EnMin= -862.618860178986     IErMin= 6 ErrMin= 3.00D-04
 ErrMax= 3.00D-04  0.00D+00 EMaxC= 1.00D-01 BMatC= 3.31D-05 BMatP= 8.76D-05
 IDIUse=3 WtCom= 9.97D-01 WtEn= 3.00D-03
 Coeff-Com:  0.146D-01-0.317D-01-0.206D-01 0.702D-02 0.464D+00 0.567D+00
 Coeff-En:   0.000D+00 0.000D+00 0.000D+00 0.000D+00 0.906D-01 0.909D+00
 Coeff:      0.145D-01-0.316D-01-0.205D-01 0.700D-02 0.463D+00 0.568D+00
 Gap=     0.235 Goal=   None    Shift=    0.000
 RMSDP=2.52D-05 MaxDP=1.37D-03 DE=-5.91D-05 OVMax= 2.46D-03

 Cycle   7  Pass 0  IDiag  1:
 RMSU=  1.90D-05    CP:  8.83D-01  1.70D+00  6.37D-01  7.89D-01  1.16D+00
                    CP:  8.79D-01
 E= -862.618888634720     Delta-E=       -0.000028455734 Rises=F Damp=F
 DIIS: error= 4.63D-05 at cycle   7 NSaved=   7.
 NSaved= 7 IEnMin= 7 EnMin= -862.618888634720     IErMin= 7 ErrMin= 4.63D-05
 ErrMax= 4.63D-05  0.00D+00 EMaxC= 1.00D-01 BMatC= 1.72D-06 BMatP= 3.31D-05
 IDIUse=1 WtCom= 1.00D+00 WtEn= 0.00D+00
 Coeff-Com:  0.584D-02-0.126D-01-0.954D-02-0.958D-02 0.661D-01 0.219D+00
 Coeff-Com:  0.740D+00
 Coeff:      0.584D-02-0.126D-01-0.954D-02-0.958D-02 0.661D-01 0.219D+00
 Coeff:      0.740D+00
 Gap=     0.235 Goal=   None    Shift=    0.000
 RMSDP=1.16D-05 MaxDP=5.90D-04 DE=-2.85D-05 OVMax= 4.46D-04

 Cycle   8  Pass 0  IDiag  1:
 RMSU=  6.98D-06    CP:  8.82D-01  1.70D+00  6.38D-01  7.96D-01  1.20D+00
                    CP:  1.01D+00  1.01D+00
 E= -862.618889054487     Delta-E=       -0.000000419767 Rises=F Damp=F
 DIIS: error= 2.67D-05 at cycle   8 NSaved=   8.
 NSaved= 8 IEnMin= 8 EnMin= -862.618889054487     IErMin= 8 ErrMin= 2.67D-05
 ErrMax= 2.67D-05  0.00D+00 EMaxC= 1.00D-01 BMatC= 2.03D-07 BMatP= 1.72D-06
 IDIUse=1 WtCom= 1.00D+00 WtEn= 0.00D+00
 Coeff-Com:  0.912D-03-0.192D-02-0.192D-02-0.617D-02-0.352D-01 0.298D-01
 Coeff-Com:  0.295D+00 0.719D+00
 Coeff:      0.912D-03-0.192D-02-0.192D-02-0.617D-02-0.352D-01 0.298D-01
 Coeff:      0.295D+00 0.719D+00
 Gap=     0.235 Goal=   None    Shift=    0.000
 RMSDP=5.72D-06 MaxDP=3.45D-04 DE=-4.20D-07 OVMax= 3.80D-04

 Initial convergence to 1.0D-05 achieved.  Increase integral accuracy.
 Cycle   9  Pass 1  IDiag  1:
 E= -862.618869798978     Delta-E=        0.000019255509 Rises=F Damp=F
 DIIS: error= 1.97D-04 at cycle   1 NSaved=   1.
 NSaved= 1 IEnMin= 1 EnMin= -862.618869798978     IErMin= 1 ErrMin= 1.97D-04
 ErrMax= 1.97D-04  0.00D+00 EMaxC= 1.00D-01 BMatC= 5.51D-06 BMatP= 5.51D-06
 IDIUse=3 WtCom= 9.98D-01 WtEn= 1.97D-03
 Coeff-Com:  0.100D+01
 Coeff-En:   0.100D+01
 Coeff:      0.100D+01
 Gap=     0.236 Goal=   None    Shift=    0.000
 RMSDP=5.72D-06 MaxDP=3.45D-04 DE= 1.93D-05 OVMax= 3.97D-04

 Cycle  10  Pass 1  IDiag  1:
 RMSU=  3.00D-04    CP:  9.99D-01
 E= -862.618874825754     Delta-E=       -0.000005026776 Rises=F Damp=F
 DIIS: error= 9.47D-06 at cycle   2 NSaved=   2.
 NSaved= 2 IEnMin= 2 EnMin= -862.618874825754     IErMin= 2 ErrMin= 9.47D-06
 ErrMax= 9.47D-06  0.00D+00 EMaxC= 1.00D-01 BMatC= 3.98D-08 BMatP= 5.51D-06
 IDIUse=1 WtCom= 1.00D+00 WtEn= 0.00D+00
 Coeff-Com: -0.129D-01 0.101D+01
 Coeff:     -0.129D-01 0.101D+01
 Gap=     0.236 Goal=   None    Shift=    0.000
 RMSDP=1.37D-05 MaxDP=5.29D-04 DE=-5.03D-06 OVMax= 1.50D-04

 Cycle  11  Pass 1  IDiag  1:
 RMSU=  4.26D-06    CP:  9.99D-01  1.04D+00
 E= -862.618874809170     Delta-E=        0.000000016584 Rises=F Damp=F
 DIIS: error= 1.17D-05 at cycle   3 NSaved=   3.
 NSaved= 3 IEnMin= 2 EnMin= -862.618874825754     IErMin= 2 ErrMin= 9.47D-06
 ErrMax= 1.17D-05  0.00D+00 EMaxC= 1.00D-01 BMatC= 7.10D-08 BMatP= 3.98D-08
 IDIUse=1 WtCom= 1.00D+00 WtEn= 0.00D+00
 Coeff-Com: -0.146D-01 0.589D+00 0.426D+00
 Coeff:     -0.146D-01 0.589D+00 0.426D+00
 Gap=     0.236 Goal=   None    Shift=    0.000
 RMSDP=8.11D-07 MaxDP=2.84D-05 DE= 1.66D-08 OVMax= 7.33D-05

 Cycle  12  Pass 1  IDiag  1:
 RMSU=  7.32D-07    CP:  9.99D-01  1.04D+00  9.74D-01
 E= -862.618874866251     Delta-E=       -0.000000057081 Rises=F Damp=F
 DIIS: error= 1.93D-06 at cycle   4 NSaved=   4.
 NSaved= 4 IEnMin= 4 EnMin= -862.618874866251     IErMin= 4 ErrMin= 1.93D-06
 ErrMax= 1.93D-06  0.00D+00 EMaxC= 1.00D-01 BMatC= 5.63D-10 BMatP= 3.98D-08
 IDIUse=1 WtCom= 1.00D+00 WtEn= 0.00D+00
 Coeff-Com: -0.468D-02 0.175D+00 0.140D+00 0.689D+00
 Coeff:     -0.468D-02 0.175D+00 0.140D+00 0.689D+00
 Gap=     0.236 Goal=   None    Shift=    0.000
 RMSDP=2.85D-07 MaxDP=1.21D-05 DE=-5.71D-08 OVMax= 1.76D-05

 Cycle  13  Pass 1  IDiag  1:
 RMSU=  1.37D-07    CP:  9.99D-01  1.05D+00  1.02D+00  9.70D-01
 E= -862.618874866745     Delta-E=       -0.000000000494 Rises=F Damp=F
 DIIS: error= 6.71D-07 at cycle   5 NSaved=   5.
 NSaved= 5 IEnMin= 5 EnMin= -862.618874866745     IErMin= 5 ErrMin= 6.71D-07
 ErrMax= 6.71D-07  0.00D+00 EMaxC= 1.00D-01 BMatC= 2.79D-10 BMatP= 5.63D-10
 IDIUse=1 WtCom= 1.00D+00 WtEn= 0.00D+00
 Coeff-Com:  0.826D-03-0.410D-01-0.276D-01 0.406D+00 0.662D+00
 Coeff:      0.826D-03-0.410D-01-0.276D-01 0.406D+00 0.662D+00
 Gap=     0.236 Goal=   None    Shift=    0.000
 RMSDP=1.57D-07 MaxDP=8.35D-06 DE=-4.94D-10 OVMax= 5.56D-06

 Cycle  14  Pass 1  IDiag  1:
 RMSU=  7.37D-08    CP:  9.99D-01  1.05D+00  1.04D+00  1.04D+00  1.14D+00
 E= -862.618874866994     Delta-E=       -0.000000000249 Rises=F Damp=F
 DIIS: error= 1.49D-07 at cycle   6 NSaved=   6.
 NSaved= 6 IEnMin= 6 EnMin= -862.618874866994     IErMin= 6 ErrMin= 1.49D-07
 ErrMax= 1.49D-07  0.00D+00 EMaxC= 1.00D-01 BMatC= 1.25D-11 BMatP= 2.79D-10
 IDIUse=1 WtCom= 1.00D+00 WtEn= 0.00D+00
 Coeff-Com:  0.634D-03-0.273D-01-0.226D-01 0.113D+00 0.190D+00 0.747D+00
 Coeff:      0.634D-03-0.273D-01-0.226D-01 0.113D+00 0.190D+00 0.747D+00
 Gap=     0.236 Goal=   None    Shift=    0.000
 RMSDP=2.56D-08 MaxDP=1.27D-06 DE=-2.49D-10 OVMax= 2.69D-06

 Cycle  15  Pass 1  IDiag  1:
 RMSU=  1.88D-08    CP:  9.99D-01  1.05D+00  1.04D+00  1.05D+00  1.21D+00
                    CP:  1.13D+00
 E= -862.618874867024     Delta-E=       -0.000000000030 Rises=F Damp=F
 DIIS: error= 1.28D-07 at cycle   7 NSaved=   7.
 NSaved= 7 IEnMin= 7 EnMin= -862.618874867024     IErMin= 7 ErrMin= 1.28D-07
 ErrMax= 1.28D-07  0.00D+00 EMaxC= 1.00D-01 BMatC= 5.21D-12 BMatP= 1.25D-11
 IDIUse=1 WtCom= 1.00D+00 WtEn= 0.00D+00
 Coeff-Com:  0.101D-03-0.265D-02-0.529D-02-0.522D-01-0.111D+00 0.423D+00
 Coeff-Com:  0.749D+00
 Coeff:      0.101D-03-0.265D-02-0.529D-02-0.522D-01-0.111D+00 0.423D+00
 Coeff:      0.749D+00
 Gap=     0.236 Goal=   None    Shift=    0.000
 RMSDP=2.35D-08 MaxDP=1.92D-06 DE=-3.00D-11 OVMax= 2.06D-06

 Cycle  16  Pass 1  IDiag  1:
 RMSU=  1.06D-08    CP:  9.99D-01  1.05D+00  1.04D+00  1.06D+00  1.23D+00
                    CP:  1.36D+00  1.18D+00
 E= -862.618874867021     Delta-E=        0.000000000003 Rises=F Damp=F
 DIIS: error= 2.30D-08 at cycle   8 NSaved=   8.
 NSaved= 8 IEnMin= 7 EnMin= -862.618874867024     IErMin= 8 ErrMin= 2.30D-08
 ErrMax= 2.30D-08  0.00D+00 EMaxC= 1.00D-01 BMatC= 4.16D-13 BMatP= 5.21D-12
 IDIUse=1 WtCom= 1.00D+00 WtEn= 0.00D+00
 Coeff-Com: -0.330D-04 0.212D-02 0.373D-03-0.341D-01-0.700D-01 0.824D-01
 Coeff-Com:  0.328D+00 0.691D+00
 Coeff:     -0.330D-04 0.212D-02 0.373D-03-0.341D-01-0.700D-01 0.824D-01
 Coeff:      0.328D+00 0.691D+00
 Gap=     0.236 Goal=   None    Shift=    0.000
 RMSDP=5.46D-09 MaxDP=1.61D-07 DE= 2.73D-12 OVMax= 4.35D-07

 SCF Done:  E(RCAM-B3LYP) =  -862.618874867     A.U. after   16 cycles
            NFock= 16  Conv=0.55D-08     -V/T= 2.0038
 KE= 8.593203584610D+02 PE=-4.533762047692D+03 EE= 1.554252078784D+03
 Leave Link  502 at Sun Jun 28 19:34:46 2026, MaxMem=  2147483648 cpu:            1137.7 elap:              71.3
 (Enter /data/home/wyx/g16/l801.exe)
 DoSCS=F DFT=T ScalE2(SS,OS)=  1.000000  1.000000
 Range of M.O.s used for correlation:     1   449
 NBasis=   449 NAE=    67 NBE=    67 NFC=     0 NFV=     0
 NROrb=    449 NOA=    67 NOB=    67 NVA=   382 NVB=   382

 **** Warning!!: The largest alpha MO coefficient is  0.44739122D+02

 Leave Link  801 at Sun Jun 28 19:34:47 2026, MaxMem=  2147483648 cpu:               0.4 elap:               0.1
 (Enter /data/home/wyx/g16/l1101.exe)
 Using compressed storage, NAtomX=    38.
 Will process     39 centers per pass.
 Leave Link 1101 at Sun Jun 28 19:34:47 2026, MaxMem=  2147483648 cpu:               9.7 elap:               0.6
 (Enter /data/home/wyx/g16/l1102.exe)
 Symmetrizing basis deriv contribution to polar:
 IMax=3 JMax=2 DiffMx= 0.00D+00
 Leave Link 1102 at Sun Jun 28 19:34:48 2026, MaxMem=  2147483648 cpu:               1.0 elap:               0.1
 (Enter /data/home/wyx/g16/l1110.exe)
 Forming Gx(P) for the SCF density, NAtomX=    38.
 Integral derivatives from FoFJK, PRISM(SPDF).
 Do as many integral derivatives as possible in FoFJK.
 G2DrvN: MDV=    2147480776.
 G2DrvN: will do    39 centers at a time, making    1 passes.
 Calling FoFCou, ICntrl=  3107 FMM=F I1Cent=   0 AccDes= 0.00D+00.
 FoFJK:  IHMeth= 1 ICntrl=    3107 DoSepK=T KAlg= 0 I1Cent=           0 FoldK=F
 IRaf=         1 NMat=       1 IRICut=       1 DoRegI=T DoRafI=F ISym2E= 0 IDoP0=0 IntGTp=1.
 FoFCou: FMM=F IPFlag=           0 FMFlag=      100000 FMFlg1=           0
         NFxFlg=           0 DoJE=F BraDBF=F KetDBF=F FulRan=T
         wScrn=  0.000000 ICntrl=      3507 IOpCl=  0 I1Cent=           0 NGrid=           0
         NMat0=    1 NMatS0=      1 NMatT0=    0 NMatD0=    1 NMtDS0=    0 NMtDT0=    0
 Symmetry not used in FoFCou.
 End of G2Drv F.D. properties file   721 does not exist.
 End of G2Drv F.D. properties file   722 does not exist.
 End of G2Drv F.D. properties file   788 does not exist.
 Leave Link 1110 at Sun Jun 28 19:36:15 2026, MaxMem=  2147483648 cpu:            1399.4 elap:              87.7
 (Enter /data/home/wyx/g16/l1002.exe)
 Minotr:  Closed shell wavefunction.
          IDoAtm=11111111111111111111111111111111111111
          Direct CPHF calculation.
          Differentiating once with respect to electric field.
                with respect to dipole field.
          Differentiating once with respect to nuclear coordinates.
          Requested convergence is 1.0D-08 RMS, and 1.0D-07 maximum.
          Secondary convergence is 1.0D-12 RMS, and 1.0D-12 maximum.
          NewPWx=T KeepS1=F KeepF1=F KeepIn=T MapXYZ=F SortEE=F KeepMc=T.
        11563 words used for storage of precomputed grid.
 Two-electron integrals replicated using symmetry.
          MDV=    2147483648 using IRadAn=       1.
          Solving linear equations simultaneously, MaxMat=     384.
 FoF2E skips out because all densities are zero.
 CalDSu exits because no D1Ps are significant.
 FoFJK:  IHMeth= 1 ICntrl=       0 DoSepK=T KAlg= 0 I1Cent=           0 FoldK=F
 IRaf=         1 NMat=     114 IRICut=       1 DoRegI=T DoRafI=F ISym2E= 2 IDoP0=3 IntGTp=3.
 FoFCou: FMM=F IPFlag=           0 FMFlag=      100000 FMFlg1=           0
         NFxFlg=           0 DoJE=F BraDBF=F KetDBF=F FulRan=T
         wScrn=  0.000000 ICntrl=       500 IOpCl=  0 I1Cent=           0 NGrid=           0
         NMat0=  114 NMatS0=    114 NMatT0=    0 NMatD0=  114 NMtDS0=    0 NMtDT0=    0
 Integrals replicated using symmetry in FoFCou.
          There are   117 degrees of freedom in the 1st order CPHF.  IDoFFX=6 NUNeed=     3.
    114 vectors produced by pass  0 Test12= 2.56D-14 1.00D-09 XBig12= 1.13D+02 5.75D+00.
 AX will form   114 AO Fock derivatives at one time.
    114 vectors produced by pass  1 Test12= 2.56D-14 1.00D-09 XBig12= 1.80D+01 5.72D-01.
    114 vectors produced by pass  2 Test12= 2.56D-14 1.00D-09 XBig12= 2.91D-01 1.18D-01.
    114 vectors produced by pass  3 Test12= 2.56D-14 1.00D-09 XBig12= 2.01D-03 4.68D-03.
    114 vectors produced by pass  4 Test12= 2.56D-14 1.00D-09 XBig12= 1.10D-05 4.22D-04.
    114 vectors produced by pass  5 Test12= 2.56D-14 1.00D-09 XBig12= 4.89D-08 2.37D-05.
     82 vectors produced by pass  6 Test12= 2.56D-14 1.00D-09 XBig12= 2.05D-10 1.84D-06.
     11 vectors produced by pass  7 Test12= 2.56D-14 1.00D-09 XBig12= 8.27D-13 1.56D-07.
      3 vectors produced by pass  8 Test12= 2.56D-14 1.00D-09 XBig12= 4.41D-15 1.24D-08.
 InvSVY:  IOpt=1 It=  1 EMax= 8.88D-15
 Solved reduced A of dimension   780 with   117 vectors.
 FullF1:  Do perturbations      1 to       3.
 Isotropic polarizability for W=    0.000000      168.47 Bohr**3.
 End of Minotr F.D. properties file   721 does not exist.
 End of Minotr F.D. properties file   722 does not exist.
 End of Minotr F.D. properties file   788 does not exist.
 Leave Link 1002 at Sun Jun 28 19:41:44 2026, MaxMem=  2147483648 cpu:            5236.8 elap:             328.1
 (Enter /data/home/wyx/g16/l601.exe)
 Copying SCF densities to generalized density rwf, IOpCl= 0 IROHF=0.

 **********************************************************************

            Population analysis using the SCF density.

 **********************************************************************

 Orbital symmetries:
       Occupied  (A) (A) (A) (A) (A) (A) (A) (A) (A) (A) (A) (A)
                 (A) (A) (A) (A) (A) (A) (A) (A) (A) (A) (A) (A)
                 (A) (A) (A) (A) (A) (A) (A) (A) (A) (A) (A) (A)
                 (A) (A) (A) (A) (A) (A) (A) (A) (A) (A) (A) (A)
                 (A) (A) (A) (A) (A) (A) (A) (A) (A) (A) (A) (A)
                 (A) (A) (A) (A) (A) (A) (A)
       Virtual   (A) (A) (A) (A) (A) (A) (A) (A) (A) (A) (A) (A)
                 (A) (A) (A) (A) (A) (A) (A) (A) (A) (A) (A) (A)
                 (A) (A) (A) (A) (A) (A) (A) (A) (A) (A) (A) (A)
                 (A) (A) (A) (A) (A) (A) (A) (A) (A) (A) (A) (A)
                 (A) (A) (A) (A) (A) (A) (A) (A) (A) (A) (A) (A)
                 (A) (A) (A) (A) (A) (A) (A) (A) (A) (A) (A) (A)
                 (A) (A) (A) (A) (A) (A) (A) (A) (A) (A) (A) (A)
                 (A) (A) (A) (A) (A) (A) (A) (A) (A) (A) (A) (A)
                 (A) (A) (A) (A) (A) (A) (A) (A) (A) (A) (A) (A)
                 (A) (A) (A) (A) (A) (A) (A) (A) (A) (A) (A) (A)
                 (A) (A) (A) (A) (A) (A) (A) (A) (A) (A) (A) (A)
                 (A) (A) (A) (A) (A) (A) (A) (A) (A) (A) (A) (A)
                 (A) (A) (A) (A) (A) (A) (A) (A) (A) (A) (A) (A)
                 (A) (A) (A) (A) (A) (A) (A) (A) (A) (A) (A) (A)
                 (A) (A) (A) (A) (A) (A) (A) (A) (A) (A) (A) (A)
                 (A) (A) (A) (A) (A) (A) (A) (A) (A) (A) (A) (A)
                 (A) (A) (A) (A) (A) (A) (A) (A) (A) (A) (A) (A)
                 (A) (A) (A) (A) (A) (A) (A) (A) (A) (A) (A) (A)
                 (A) (A) (A) (A) (A) (A) (A) (A) (A) (A) (A) (A)
                 (A) (A) (A) (A) (A) (A) (A) (A) (A) (A) (A) (A)
                 (A) (A) (A) (A) (A) (A) (A) (A) (A) (A) (A) (A)
                 (A) (A) (A) (A) (A) (A) (A) (A) (A) (A) (A) (A)
                 (A) (A) (A) (A) (A) (A) (A) (A) (A) (A) (A) (A)
                 (A) (A) (A) (A) (A) (A) (A) (A) (A) (A) (A) (A)
                 (A) (A) (A) (A) (A) (A) (A) (A) (A) (A) (A) (A)
                 (A) (A) (A) (A) (A) (A) (A) (A) (A) (A) (A) (A)
                 (A) (A) (A) (A) (A) (A) (A) (A) (A) (A) (A) (A)
                 (A) (A) (A) (A) (A) (A) (A) (A) (A) (A) (A) (A)
                 (A) (A) (A) (A) (A) (A) (A) (A) (A) (A) (A) (A)
                 (A) (A) (A) (A) (A) (A) (A) (A) (A) (A) (A) (A)
                 (A) (A) (A) (A) (A) (A) (A) (A) (A) (A) (A) (A)
                 (A) (A) (A) (A) (A) (A) (A) (A) (A) (A)
 The electronic state is 1-A.
 Alpha  occ. eigenvalues --  -19.25706 -19.18457 -19.18017 -19.15123 -19.15054
 Alpha  occ. eigenvalues --  -14.44113 -10.34058 -10.33321 -10.32661 -10.31686
 Alpha  occ. eigenvalues --  -10.27213 -10.25607 -10.25319 -10.25238 -10.24959
 Alpha  occ. eigenvalues --  -10.24763 -10.23060  -1.15214  -1.12756  -1.12268
 Alpha  occ. eigenvalues --   -1.07672  -1.04653  -1.04636  -0.91837  -0.90541
 Alpha  occ. eigenvalues --   -0.84395  -0.83115  -0.82300  -0.78817  -0.74562
 Alpha  occ. eigenvalues --   -0.71686  -0.69041  -0.66274  -0.62227  -0.59153
 Alpha  occ. eigenvalues --   -0.57862  -0.56060  -0.55880  -0.55592  -0.55376
 Alpha  occ. eigenvalues --   -0.54548  -0.52819  -0.52573  -0.51485  -0.51304
 Alpha  occ. eigenvalues --   -0.50547  -0.50128  -0.49709  -0.49163  -0.48541
 Alpha  occ. eigenvalues --   -0.47647  -0.46410  -0.44793  -0.44073  -0.44010
 Alpha  occ. eigenvalues --   -0.43516  -0.42946  -0.42490  -0.42160  -0.41774
 Alpha  occ. eigenvalues --   -0.41189  -0.34180  -0.34110  -0.33452  -0.32751
 Alpha  occ. eigenvalues --   -0.31745  -0.26320
 Alpha virt. eigenvalues --   -0.02769   0.01310   0.02307   0.05670   0.07547
 Alpha virt. eigenvalues --    0.08706   0.08808   0.09534   0.10238   0.10840
 Alpha virt. eigenvalues --    0.11868   0.12278   0.13006   0.13360   0.14029
 Alpha virt. eigenvalues --    0.15262   0.15646   0.16332   0.16853   0.17082
 Alpha virt. eigenvalues --    0.17800   0.18148   0.19170   0.19556   0.21780
 Alpha virt. eigenvalues --    0.22082   0.22406   0.22796   0.23202   0.23886
 Alpha virt. eigenvalues --    0.24116   0.24937   0.25683   0.25803   0.26156
 Alpha virt. eigenvalues --    0.26746   0.27313   0.27492   0.28213   0.30258
 Alpha virt. eigenvalues --    0.30477   0.31042   0.32202   0.32803   0.33246
 Alpha virt. eigenvalues --    0.34275   0.35373   0.36019   0.37490   0.38029
 Alpha virt. eigenvalues --    0.38327   0.39116   0.40333   0.40859   0.41654
 Alpha virt. eigenvalues --    0.42168   0.42370   0.43276   0.43383   0.44061
 Alpha virt. eigenvalues --    0.45076   0.45933   0.46147   0.46482   0.47068
 Alpha virt. eigenvalues --    0.47489   0.47900   0.48455   0.48787   0.49059
 Alpha virt. eigenvalues --    0.49672   0.49905   0.50317   0.50682   0.51284
 Alpha virt. eigenvalues --    0.51599   0.52016   0.52623   0.52935   0.53142
 Alpha virt. eigenvalues --    0.53779   0.54247   0.54558   0.55019   0.55788
 Alpha virt. eigenvalues --    0.56497   0.56701   0.57573   0.57670   0.58216
 Alpha virt. eigenvalues --    0.59458   0.60446   0.60596   0.61868   0.62215
 Alpha virt. eigenvalues --    0.63653   0.64464   0.65190   0.65685   0.66483
 Alpha virt. eigenvalues --    0.67138   0.67935   0.68477   0.69142   0.70192
 Alpha virt. eigenvalues --    0.71215   0.71946   0.72331   0.72752   0.73183
 Alpha virt. eigenvalues --    0.74478   0.76214   0.76300   0.76991   0.79567
 Alpha virt. eigenvalues --    0.80456   0.81439   0.82809   0.86083   0.88225
 Alpha virt. eigenvalues --    0.88895   0.90737   0.92423   0.94055   1.00090
 Alpha virt. eigenvalues --    1.02803   1.05376   1.08973   1.21239   1.23903
 Alpha virt. eigenvalues --    1.25330   1.27004   1.29983   1.30552   1.32098
 Alpha virt. eigenvalues --    1.32612   1.33376   1.34375   1.34607   1.36551
 Alpha virt. eigenvalues --    1.36971   1.38030   1.38287   1.38640   1.39091
 Alpha virt. eigenvalues --    1.39528   1.40381   1.40611   1.41062   1.41986
 Alpha virt. eigenvalues --    1.42457   1.42805   1.42938   1.44274   1.44882
 Alpha virt. eigenvalues --    1.45130   1.45636   1.47414   1.48506   1.48628
 Alpha virt. eigenvalues --    1.49764   1.50170   1.50507   1.52214   1.53017
 Alpha virt. eigenvalues --    1.54026   1.54414   1.55587   1.56788   1.58163
 Alpha virt. eigenvalues --    1.59636   1.59982   1.60609   1.60772   1.61456
 Alpha virt. eigenvalues --    1.61761   1.62998   1.63345   1.63925   1.64609
 Alpha virt. eigenvalues --    1.65040   1.65199   1.65404   1.65713   1.67270
 Alpha virt. eigenvalues --    1.67560   1.67948   1.68351   1.68900   1.70142
 Alpha virt. eigenvalues --    1.70958   1.72050   1.72871   1.74455   1.75393
 Alpha virt. eigenvalues --    1.76022   1.76834   1.78254   1.79026   1.81765
 Alpha virt. eigenvalues --    1.82505   1.82557   1.83355   1.84999   1.86442
 Alpha virt. eigenvalues --    1.87310   1.88380   1.89167   1.90066   1.90633
 Alpha virt. eigenvalues --    1.91395   1.92200   1.94927   1.95129   1.97940
 Alpha virt. eigenvalues --    2.00481   2.01111   2.03398   2.04323   2.04757
 Alpha virt. eigenvalues --    2.06128   2.06998   2.09396   2.10133   2.10334
 Alpha virt. eigenvalues --    2.12563   2.13729   2.15186   2.16620   2.18289
 Alpha virt. eigenvalues --    2.19634   2.19929   2.22381   2.23495   2.24203
 Alpha virt. eigenvalues --    2.25827   2.26042   2.26997   2.28080   2.29055
 Alpha virt. eigenvalues --    2.29140   2.29751   2.31496   2.31732   2.34543
 Alpha virt. eigenvalues --    2.35936   2.36229   2.37289   2.39135   2.39911
 Alpha virt. eigenvalues --    2.40579   2.41829   2.42307   2.44225   2.45162
 Alpha virt. eigenvalues --    2.47382   2.47484   2.48616   2.50504   2.50666
 Alpha virt. eigenvalues --    2.51855   2.52413   2.53182   2.54617   2.55309
 Alpha virt. eigenvalues --    2.55991   2.56185   2.57566   2.58445   2.59260
 Alpha virt. eigenvalues --    2.61071   2.61952   2.62665   2.63552   2.63823
 Alpha virt. eigenvalues --    2.65259   2.66038   2.67397   2.68659   2.69308
 Alpha virt. eigenvalues --    2.70836   2.71237   2.74057   2.74632   2.75544
 Alpha virt. eigenvalues --    2.76125   2.76438   2.77018   2.77549   2.78549
 Alpha virt. eigenvalues --    2.79126   2.79857   2.80664   2.81062   2.82077
 Alpha virt. eigenvalues --    2.83271   2.84109   2.84347   2.84996   2.85887
 Alpha virt. eigenvalues --    2.88674   2.90065   2.90800   2.93445   2.93758
 Alpha virt. eigenvalues --    2.97004   2.97764   2.98331   3.01117   3.01974
 Alpha virt. eigenvalues --    3.04486   3.06308   3.07557   3.08963   3.09088
 Alpha virt. eigenvalues --    3.10625   3.11686   3.11986   3.12623   3.13457
 Alpha virt. eigenvalues --    3.16918   3.17388   3.18937   3.20489   3.21629
 Alpha virt. eigenvalues --    3.22407   3.24327   3.24849   3.25882   3.26372
 Alpha virt. eigenvalues --    3.27368   3.28618   3.30253   3.31923   3.32757
 Alpha virt. eigenvalues --    3.33476   3.34383   3.36250   3.37157   3.38408
 Alpha virt. eigenvalues --    3.39294   3.40070   3.40797   3.41361   3.42688
 Alpha virt. eigenvalues --    3.43485   3.47170   3.47813   3.50123   3.51778
 Alpha virt. eigenvalues --    3.53933   3.58611   3.60967   3.62904   3.64688
 Alpha virt. eigenvalues --    3.93065   4.00067   4.10671   4.20193   4.23516
 Alpha virt. eigenvalues --    4.35604   4.36419   4.45663   4.57322   4.57691
 Alpha virt. eigenvalues --   21.67458  21.80759  22.10902  22.12294  22.14858
 Alpha virt. eigenvalues --   22.15671  22.16914  22.21168  22.22053  22.27403
 Alpha virt. eigenvalues --   22.31703  31.94242  43.24113  43.38296  43.38657
 Alpha virt. eigenvalues --   43.66826  43.71005
          Condensed to atoms (all electrons):
               1          2          3          4          5          6
     1  O    8.011800   0.000000  -0.000000  -0.017566  -0.000000   0.000000
     2  O    0.000000   8.136576  -0.000001  -0.000000  -0.038503   0.000000
     3  O   -0.000000  -0.000001   7.951112  -0.000000  -0.000000   0.322169
     4  O   -0.017566  -0.000000  -0.000000   7.915602  -0.000000   0.000000
     5  O   -0.000000  -0.038503  -0.000000  -0.000000   7.974727   0.000000
     6  H    0.000000   0.000000   0.322169   0.000000   0.000000   0.395825
     7  H    0.019497   0.000000   0.000000   0.350870  -0.000000  -0.000000
     8  H    0.000000   0.003673  -0.000000   0.000000   0.293325  -0.000000
     9  H    0.000000   0.000001   0.311605  -0.000000   0.000000  -0.021307
    10  H    0.002294  -0.000000  -0.000000   0.309089  -0.000000  -0.000000
    11  H   -0.000000   0.030523   0.000000  -0.000000   0.300686  -0.000000
    12  N   -0.000078   0.000665  -0.025501  -0.000000   0.000000   0.001150
    13  H    0.000023   0.000064  -0.002208   0.000000   0.000000   0.000125
    14  C    0.012239  -0.188968   0.001343   0.000004   0.002334  -0.000035
    15  C    0.016222   0.001168   0.004120   0.000026  -0.000000  -0.000168
    16  C    0.000099  -0.002564   0.009037  -0.000000   0.000136  -0.000371
    17  C   -0.000756   0.581157  -0.000017  -0.000001   0.011332   0.000001
    18  C   -0.022537   0.012155   0.000100  -0.000081   0.000006  -0.000002
    19  H    0.011106  -0.000031  -0.000001   0.000062  -0.000006   0.000000
    20  H    0.006983   0.000053  -0.000001   0.000006  -0.000003  -0.000000
    21  C   -0.214998  -0.002351   0.000191   0.000478  -0.000001   0.000010
    22  C    0.631826  -0.000005  -0.000009   0.002603   0.000000   0.000000
    23  C   -0.000005  -0.047313  -0.020645  -0.000000  -0.000126   0.000561
    24  H   -0.000000   0.004812   0.025146  -0.000000   0.000001  -0.000256
    25  H    0.000000   0.004020   0.000566   0.000000  -0.000003  -0.000027
    26  H   -0.000000   0.005423  -0.000046   0.000000   0.000020   0.000012
    27  C    0.000347  -0.087579  -0.000000  -0.000001  -0.032723   0.000000
    28  H   -0.000002   0.001833   0.000000  -0.000000   0.037450  -0.000000
    29  H   -0.000040   0.003238   0.000000   0.000000   0.000077  -0.000000
    30  H    0.000003   0.001241   0.000000   0.000000   0.000827   0.000000
    31  C   -0.098718   0.000000   0.000001  -0.003449   0.000000   0.000000
    32  H    0.001060   0.000000  -0.000000   0.000038  -0.000000  -0.000000
    33  H    0.004376   0.000000  -0.000001   0.000046   0.000000   0.000000
    34  H    0.007260   0.000000   0.000000   0.003859   0.000000   0.000000
    35  C    0.000113   0.000007  -0.005452  -0.000000   0.000000   0.000266
    36  H   -0.000030  -0.000000   0.000065  -0.000000  -0.000000  -0.000009
    37  H   -0.000081  -0.000000   0.000160  -0.000000   0.000000  -0.000001
    38  H    0.000004  -0.000000   0.004057  -0.000000  -0.000000  -0.000020
               7          8          9         10         11         12
     1  O    0.019497   0.000000   0.000000   0.002294  -0.000000  -0.000078
     2  O    0.000000   0.003673   0.000001  -0.000000   0.030523   0.000665
     3  O    0.000000  -0.000000   0.311605  -0.000000   0.000000  -0.025501
     4  O    0.350870   0.000000  -0.000000   0.309089  -0.000000  -0.000000
     5  O   -0.000000   0.293325   0.000000  -0.000000   0.300686   0.000000
     6  H   -0.000000  -0.000000  -0.021307  -0.000000  -0.000000   0.001150
     7  H    0.389266   0.000000   0.000000  -0.043819  -0.000000   0.000000
     8  H    0.000000   0.480328  -0.000000  -0.000000  -0.022569  -0.000000
     9  H    0.000000  -0.000000   0.410098  -0.000000  -0.000000   0.002658
    10  H   -0.043819  -0.000000  -0.000000   0.479560   0.000000   0.000000
    11  H   -0.000000  -0.022569  -0.000000   0.000000   0.447699  -0.000008
    12  N    0.000000  -0.000000   0.002658   0.000000  -0.000008   6.425448
    13  H   -0.000000  -0.000000   0.000089  -0.000000  -0.000001   0.372661
    14  C    0.000067  -0.000190  -0.000219  -0.000002  -0.012037  -0.110711
    15  C   -0.000075   0.000000  -0.000634   0.000003   0.000015   0.351696
    16  C    0.000009   0.000022  -0.001642  -0.000000  -0.001163   0.374592
    17  C   -0.000015  -0.001232   0.000009   0.000000  -0.017148   0.000237
    18  C    0.000123  -0.000001  -0.000002   0.000066   0.000112   0.006514
    19  H    0.000250   0.000000   0.000000  -0.000027   0.000022  -0.001762
    20  H    0.000040   0.000001  -0.000000  -0.000012   0.000014   0.003286
    21  C   -0.002187   0.000000  -0.000128   0.000311   0.000001  -0.093332
    22  C   -0.002767  -0.000000  -0.000000   0.000808  -0.000003   0.003065
    23  C    0.000000  -0.000002   0.003261   0.000000  -0.000445  -0.034642
    24  H   -0.000000  -0.000001  -0.003311   0.000000   0.000042   0.001085
    25  H   -0.000000   0.000007  -0.000039  -0.000000   0.000263   0.001912
    26  H   -0.000000  -0.000003  -0.000067   0.000000   0.000156  -0.002701
    27  C    0.000008   0.002055   0.000000   0.000000   0.016580  -0.000545
    28  H   -0.000000  -0.002207  -0.000000   0.000000  -0.017862   0.000017
    29  H   -0.000002  -0.000096  -0.000000   0.000000  -0.000245   0.000139
    30  H    0.000001   0.000048  -0.000000   0.000000  -0.000658  -0.000000
    31  C    0.001771  -0.000000   0.000000  -0.000261   0.000000  -0.000131
    32  H   -0.000089   0.000000  -0.000000   0.000010   0.000000   0.000060
    33  H   -0.000070  -0.000000   0.000000   0.000012  -0.000000   0.000040
    34  H    0.000024  -0.000000   0.000000   0.000425  -0.000000   0.000010
    35  C   -0.000008  -0.000000   0.000969   0.000001   0.000000  -0.023104
    36  H    0.000000   0.000000  -0.000050  -0.000000  -0.000000  -0.002685
    37  H    0.000001  -0.000000   0.000004  -0.000000  -0.000000  -0.000645
    38  H    0.000000  -0.000000  -0.000534  -0.000000   0.000000   0.002756
              13         14         15         16         17         18
     1  O    0.000023   0.012239   0.016222   0.000099  -0.000756  -0.022537
     2  O    0.000064  -0.188968   0.001168  -0.002564   0.581157   0.012155
     3  O   -0.002208   0.001343   0.004120   0.009037  -0.000017   0.000100
[...]
 ,-0.00361857,0.00141356,-0.00049856,0.01031383,0.01862708,-0.01648322,
 0.00001124,-0.00000136,0.00001045,0.00000417,0.00001017,-0.00000714,0.
 00000223,-0.00000147,0.00000013,0.00000281,0.00000314,-0.00000190,-0.0
 0000585,0.00000422,-0.00000690,-0.00000195,0.00000105,0.00000012,0.000
 00427,0.00000098,0.00000051,0.00000317,0.00000230,-0.00000057,-0.11073
 484,-0.09220180,0.07719988,-0.00675937,-0.01005266,0.00702432,-0.00871
 016,-0.01192520,0.01325944,0.11853876,-0.00211302,0.00311652,-0.003413
 59,0.00008107,-0.00016244,0.00000792,-0.00002975,-0.00001392,0.0000021
 0,-0.00004518,-0.00020051,-0.00009242,0.00003115,-0.00002333,-0.000001
 71,0.00000352,-0.00000264,-0.00000218,0.00026758,0.00018295,0.00016545
 ,-0.00000417,0.00000367,0.00000019,0.00000695,0.00000349,0.00000557,-0
 .00007769,0.00004219,-0.00004717,-0.00003841,0.00002893,-0.00000263,-0
 .00001869,-0.00003951,0.00002519,0.00001161,0.00001062,0.00001528,0.00
 047484,-0.00003352,0.00009823,0.00008104,0.00034988,-0.00016572,-0.000
 04430,0.00004473,-0.00003838,-0.00018825,0.00004732,0.00003192,-0.0006
 1477,-0.00079951,0.00023899,0.00002114,-0.00002103,-0.00003122,0.00004
 060,0.00001310,0.00005807,0.00401564,-0.00008063,0.00048269,-0.0103992
 1,-0.01956375,0.01513268,0.00000297,-0.00000692,0.00000729,-0.00000441
 ,-0.00000190,0.00000250,-0.00000038,-0.00000493,0.00000095,-0.00000019
 ,-0.00000508,0.00000155,0.00002988,-0.00000907,0.00000604,0.00000274,-
 0.00000020,0.00000126,-0.00000766,-0.00000162,-0.00000553,-0.00000431,
 0.00000123,0.00000464,-0.08795561,-0.17047590,0.10724341,0.00819556,0.
 01296780,-0.00969224,-0.00539122,-0.00933029,0.00830707,0.09376612,0.1
 8383510,0.00046531,-0.00256021,0.00142284,-0.00006491,0.00012899,-0.00
 004072,0.00003495,0.00000008,-0.00000072,0.00020863,-0.00014828,-0.000
 09005,-0.00003082,0.00002052,-0.00000412,-0.00000404,0.00000557,0.0000
 0309,-0.00022360,0.00022831,0.00008427,0.00000562,-0.00000264,0.000001
 27,-0.00001055,-0.00000067,-0.00000388,-0.00016465,-0.00004083,-0.0000
 2745,0.00003558,-0.00002666,0.00000398,0.00002259,0.00029156,-0.000193
 30,-0.00004629,-0.00000161,-0.00000857,-0.00036038,0.00004066,0.000050
 22,-0.00038078,-0.00049492,0.00018590,0.00012909,-0.00010899,-0.000017
 32,0.00016606,-0.00005532,0.00006177,0.00033969,0.00046894,-0.00004115
 ,-0.00004390,0.00003265,0.00001233,0.00003131,-0.00002194,-0.00003166,
 -0.00190449,0.00071386,0.00039178,0.00777861,0.00951414,-0.00857308,-0
 .00000203,0.00001005,0.00000808,0.00000386,-0.00000034,-0.00000014,-0.
 00000199,0.00000077,-0.00000005,0.00000022,0.00000334,-0.00000160,-0.0
 0002337,0.00000204,-0.00000377,-0.00000274,0.00000028,0.00000042,0.000
 00438,0.00000015,0.00000181,0.00000535,0.00000013,-0.00000106,0.073419
 44,0.10722362,-0.14212402,0.01008086,0.01605757,-0.01299655,-0.0080336
 0,-0.01263940,0.01289679,-0.08131222,-0.11842927,0.14860188,-0.0009667
 3,0.00036637,-0.00004578,-0.00000977,0.00010296,0.00000267,0.00014289,
 0.00078627,-0.00004913,-0.00005840,-0.00004013,0.00000114,-0.00002051,
 0.00003143,-0.00000163,-0.00005856,0.00001828,-0.00001544,0.00006880,0
 .00005150,-0.00000134,0.00000517,-0.00000297,0.00000003,0.00013651,0.0
 0008019,-0.00002910,0.00002004,0.00001513,0.00000432,0.00001735,-0.000
 02681,0.00000328,-0.00435226,0.01005938,-0.00167408,0.00248294,-0.0027
 5142,0.00015444,-0.00029121,-0.00026264,0.00002474,-0.19500087,0.05520
 627,-0.01569773,0.00060846,-0.00193748,0.00160255,-0.00000723,-0.00009
 117,-0.00009056,-0.00009740,-0.00190604,0.00223212,-0.00069236,0.00030
 630,-0.00034119,-0.00022959,0.00003336,-0.00003087,-0.02350885,0.01212
 230,-0.00405235,0.00210469,-0.00057680,-0.00062092,0.00032652,-0.00005
 647,-0.00019064,-0.00001755,0.00001144,0.00000667,-0.00000058,-0.00005
 145,0.00002559,-0.00001886,-0.00007497,0.00003396,-0.00005782,0.000058
 62,0.00001158,0.00000920,0.00001111,-0.00001054,0.00001349,0.00000785,
 0.00003513,0.00002279,-0.00001471,-0.00003451,-0.00207958,-0.00229948,
 0.00262474,0.00025646,0.00037859,0.00039937,-0.00057400,-0.00089428,-0
 .00038973,-0.00086020,-0.00009605,-0.00021315,0.51562700,0.00074718,0.
 00059706,0.00010343,0.00009112,-0.00013550,0.00006298,-0.00044625,0.00
 023925,0.00027790,0.00000310,0.00003065,-0.00003576,0.00005607,-0.0000
 2739,0.00000242,0.00009493,-0.00031125,0.00000899,-0.00003565,-0.00005
 786,0.00004578,-0.00000884,0.00000722,-0.00000092,0.00013624,0.0000620
 7,0.00000069,0.00000937,-0.00000936,0.00001481,-0.00007584,0.00004467,
 -0.00000592,0.03591698,-0.02697666,0.01208895,0.00250062,-0.00069774,-
 0.00142694,0.00089173,-0.00075617,-0.00001615,0.03860396,-0.10964860,0
 .01272014,-0.00262005,-0.00107695,0.00349285,-0.00036775,0.00035470,-0
 .00037509,-0.00299034,-0.00062119,0.00363104,-0.00093946,0.00054054,-0
 .00035341,0.00007656,-0.00020928,0.00003750,-0.00578551,0.01478476,-0.
 00545516,-0.00067003,-0.00211554,-0.00122795,0.00075181,-0.00035736,-0
 .00017005,-0.00002959,0.00004861,-0.00002470,0.00000737,-0.00017361,0.
 00004786,-0.00000897,-0.00012522,0.00009972,0.00006324,0.00007026,0.00
 006791,0.00003131,0.00003013,-0.00001608,0.00003694,-0.00002886,0.0000
 2459,0.00002567,-0.00002631,-0.00004207,-0.00029073,-0.00168232,0.0024
 2914,-0.00061121,-0.00030695,0.00099570,-0.00152182,-0.00161939,-0.000
 29222,-0.00052956,-0.00005162,-0.00040901,0.03470840,0.58871968,-0.001
 43847,-0.00045882,0.00097354,0.00002647,-0.00006571,0.00012553,-0.0000
 1812,-0.00074463,0.00066934,-0.00007164,-0.00009669,0.00001334,0.00000
 216,0.00000167,-0.00000644,-0.00003149,-0.00006679,-0.00011418,0.00012
 982,0.00014951,-0.00003122,-0.00000065,-0.00000013,0.00000012,-0.00006
 338,0.00013261,-0.00003300,-0.00000201,0.00001786,-0.00000260,-0.00000
 216,0.00000041,0.00000986,-0.01358368,0.01184057,0.00370342,-0.0016047
 9,-0.00025356,-0.00279078,-0.00009642,0.00002007,-0.00065329,-0.002145
 97,0.01087998,-0.08054442,0.00180575,0.00300960,0.00417127,-0.00010643
 ,-0.00012127,-0.00070924,0.00081985,0.00398444,0.00677161,-0.00054321,
 0.00056352,-0.00023747,0.00116465,-0.00083510,0.00007439,0.00200472,-0
 .00802908,0.00949187,0.00099645,0.00020265,-0.00610532,-0.00060314,0.0
 0008607,-0.00022766,0.00003018,-0.00002169,-0.00004561,0.00010968,0.00
 013170,0.00000637,0.00000136,0.00007081,0.00003886,-0.00001372,0.00002
 433,0.00021553,-0.00000027,-0.00001428,-0.00002703,0.00002893,-0.00003
 748,-0.00004584,-0.00002580,0.00002351,-0.00003990,0.00011343,0.001946
 32,0.00008451,0.00014443,-0.00020277,-0.00069066,0.00155528,0.00167065
 ,-0.00007100,0.00042513,-0.00035217,-0.00027114,-0.01049708,-0.0091704
 0,0.56525382,-0.00064066,-0.00087993,0.00048174,0.00001316,-0.00003832
 ,0.00004024,-0.00000549,-0.00011842,-0.00023108,-0.00001492,-0.0000675
 9,0.00004852,0.00000124,0.00001057,0.00000039,0.00003555,0.00005584,0.
 00004084,0.00006398,0.00010304,-0.00006193,0.00000009,-0.00000034,-0.0
 0000024,-0.00001043,-0.00007747,0.00005687,-0.00001229,0.00001319,-0.0
 0001282,-0.00000603,-0.00000511,0.00000026,-0.00179857,-0.00102311,0.0
 0060575,-0.00024142,0.00027470,-0.00004393,0.00035340,-0.00025428,-0.0
 0010356,-0.00591281,0.00403086,-0.03008134,-0.00052301,0.00117021,0.00
 020530,-0.00014041,0.00010490,-0.00013690,-0.00006139,0.00052540,0.001
 35737,-0.00023735,0.00020720,-0.00005762,0.00012419,-0.00001315,-0.000
 04343,-0.00094933,-0.00108101,0.00242391,-0.00009722,0.00214057,-0.002
 56614,-0.00015562,0.00002563,0.00000572,0.00001893,0.00001534,-0.00000
 787,0.00001600,0.00003983,-0.00000057,0.00001715,0.00005736,-0.0000066
 7,-0.00001539,0.00002489,0.00002073,0.00000714,0.00000338,-0.00001201,
 0.00001861,-0.00000532,0.00001174,0.00001453,0.00000010,-0.00002455,-0
 .00070084,-0.00049781,0.00012239,0.00011612,0.00017574,0.00003649,-0.0
 0036868,-0.00145280,0.00120844,0.00024827,0.00010524,0.00022995,-0.059
 87427,0.00717168,-0.06105185,0.06457748,0.00006625,-0.00028434,0.00010
 901,0.00003014,-0.00013110,0.00000214,-0.00007054,-0.00001509,-0.00036
 666,0.00005657,0.00000067,0.00000811,0.00002070,-0.00002545,-0.0000032
 2,0.00000249,0.00003690,0.00003567,-0.00005248,0.00000213,-0.00000228,
 -0.00000203,0.00000445,0.00000147,-0.00001345,-0.00017152,0.00016436,-
 0.00002198,-0.00000681,-0.00000994,-0.00002891,0.00002814,-0.00000063,
 0.00219777,-0.00177385,-0.00067609,0.00022432,0.00054129,0.00067563,0.
 00018856,-0.00005031,0.00007523,0.00362190,-0.00324000,0.01535554,-0.0
 0025446,-0.00057948,-0.00067762,-0.00008768,0.00017931,0.00008506,0.00
 008102,-0.00034219,-0.00046715,0.00004433,-0.00006801,0.00004589,-0.00
 007423,0.00006225,-0.00002699,-0.00111558,-0.00013810,0.00024801,-0.00
 011364,0.00118103,0.00005600,0.00013175,-0.00003367,0.00004335,-0.0000
 1027,0.00002305,0.00001514,-0.00001848,-0.00004117,-0.00000324,0.00001
 689,-0.00004116,0.00000310,0.00002281,-0.00001667,-0.00002311,0.000004
 47,0.00000338,0.00000105,-0.00000646,0.00000134,-0.00000251,0.00000441
 ,0.00000440,0.00000690,-0.00058544,-0.00049249,-0.00032069,0.00010870,
 -0.00006880,-0.00033303,-0.00141933,-0.00067673,0.00110246,0.00018556,
 0.00003496,0.00000543,0.00712847,-0.04631456,0.03001823,-0.00891243,0.
 04963946,0.00045596,-0.00022750,-0.00000496,-0.00002648,0.00006499,-0.
 00000732,0.00006396,0.00007874,0.00023545,0.00004538,0.00000122,0.0000
 1070,-0.00002045,0.00001822,0.00000148,-0.00002761,-0.00003347,-0.0000
 3878,-0.00004635,-0.00000680,0.00000164,0.00000394,-0.00000367,-0.0000
 0090,0.00000299,0.00010523,-0.00009557,-0.00001645,-0.00000425,-0.0000
 0945,0.00002385,-0.00002013,0.00000116,-0.00052996,-0.00063880,-0.0000
 2552,-0.00006251,-0.00035884,-0.00021012,-0.00004374,0.00001553,0.0000
 1366,-0.00245015,0.00138420,0.00049990,-0.00005611,-0.00006025,-0.0001
 1346,0.00005157,-0.00008447,-0.00000392,-0.00019890,-0.00005829,0.0000
 4845,-0.00002294,0.00008546,-0.00003890,-0.00000239,-0.00000347,-0.000
 03380,0.00086539,0.00094945,0.00044483,-0.00050943,0.00052148,-0.00023
 898,-0.00000353,0.00000876,0.00005332,-0.00000240,-0.00001488,-0.00000
 675,-0.00000126,0.00000061,0.00000163,-0.00000612,0.00002372,-0.000003
 89,-0.00001671,0.00000653,-0.00000101,-0.00000236,-0.00000082,0.000001
 02,0.00000475,0.00000073,0.00000105,0.00000238,-0.00000081,-0.00000115
 ,0.00141311,0.00086694,-0.00095322,-0.00045683,-0.00027259,-0.00032066
 ,0.00100596,0.00106251,0.00065718,0.00047580,0.00017349,0.00029189,-0.
 05959178,0.02790671,-0.30518992,0.06432082,-0.03413807,0.32987661,-0.0
 0056092,-0.00064216,0.00022902,-0.00001004,0.00004232,-0.00000439,0.00
 002510,-0.00036488,0.00028089,0.00000416,-0.00004022,0.00001833,-0.000
 01113,0.00001696,0.00000027,0.00003624,-0.00005962,-0.00005999,0.00002
 419,0.00006588,-0.00002708,0.00000133,-0.00000209,-0.00000050,-0.00005
 593,0.00007286,-0.00002744,-0.00001273,0.00000250,-0.00000262,0.000013
 32,-0.00001685,0.00000095,-0.00329160,0.00041242,-0.00005557,-0.000487
 22,0.00028041,-0.00009844,0.00012391,-0.00007173,-0.00003123,0.0008832
 7,0.02890303,0.01330806,-0.00030066,0.00070883,-0.00090821,0.00001532,
 -0.00001035,0.00002804,0.00022944,-0.00037499,-0.00105185,0.00013166,-
 0.00003724,0.00007579,-0.00025104,0.00025311,-0.00007231,-0.00026425,-
 0.00174681,-0.00022086,-0.00041495,0.00236520,0.00020599,-0.00016121,0
 .00006715,0.00006317,0.00000942,0.00000576,-0.00002225,0.00000226,0.00
 005315,-0.00001721,0.00000059,0.00004041,-0.00002280,-0.00002793,0.000
 00397,-0.00003352,-0.00000175,0.00000392,0.00000947,0.00000410,0.00001
 423,0.00001700,0.00000924,-0.00000137,-0.00000242,-0.00047918,-0.00029
 519,0.00046476,-0.00003733,-0.00107205,0.00040471,-0.00007813,-0.00014
 714,-0.00002398,0.00007034,-0.00015947,-0.00014927,-0.04780593,0.00093
 357,0.00194671,-0.00032690,-0.00670459,-0.00220628,0.05169141,-0.00037
 670,-0.00000924,-0.00000291,0.00006206,-0.00013936,0.00004161,-0.00011
 903,-0.00018937,0.00020595,-0.00000669,-0.00000306,0.00000325,0.000040
 73,-0.00002602,0.00000654,0.00001405,-0.00008259,-0.00006932,0.0000178
 3,0.00001491,-0.00000376,-0.00000730,0.00000318,-0.00000235,0.00001136
 ,0.00004039,0.00000438,-0.00000055,0.00000085,-0.00000025,-0.00004920,
 0.00003526,-0.00000738,0.00270482,-0.00087827,-0.00000168,0.00010026,0
 .00031980,-0.00068172,0.00023368,-0.00011718,0.00000069,0.00098382,-0.
 01232096,-0.00381310,-0.00025476,-0.00000023,0.00047283,-0.00016674,0.
 00018615,-0.00012877,0.00014290,0.00010712,0.00048991,-0.00004596,0.00
 003287,-0.00002991,0.00007394,-0.00008465,-0.00000875,-0.00112367,0.00
 051309,0.00106023,0.00038173,-0.00015395,-0.00059026,0.00009679,-0.000
 03073,0.00002738,-0.00000900,0.00002086,-0.00002560,0.00001644,-0.0000
 4444,0.00000794,0.00000089,-0.00001080,0.00001126,0.00003272,-0.000001
 98,0.00001827,0.00000817,0.00000444,-0.00000162,0.00000488,0.00000023,
 -0.00000152,-0.00000215,0.00000076,-0.00000258,-0.00120790,-0.00038448
 ,0.00117085,-0.00071580,-0.00032325,0.00057289,0.00009958,-0.00017433,
 -0.00013872,-0.00022056,0.00003952,0.00011932,0.00194585,-0.27342857,-
 0.11067098,-0.00058801,0.00456955,0.00212695,-0.00277599,0.29684831,-0
 .00013297,0.00042367,-0.00039270,-0.00000543,0.00003395,-0.00001454,0.
 00004810,0.00014054,-0.00005271,-0.00007101,0.00001485,-0.00002897,-0.
 00000219,0.00000096,-0.00000232,0.00000739,0.00004035,0.00003286,0.000
 05674,-0.00002583,0.00001905,-0.00000032,0.00000066,0.00000107,0.00000
 984,0.00002905,-0.00004807,0.00003086,0.00000433,0.00001815,0.00000478
 ,-0.00000316,0.00000123,-0.00136067,0.00146886,-0.00099931,-0.00001742
 ,-0.00015343,0.00035850,-0.00007981,0.00006017,0.00003343,-0.00098602,
 0.00615121,0.00201522,0.00003359,0.00005430,-0.00046030,0.00001942,-0.
 00003027,0.00007164,0.00001920,0.00005447,-0.00013472,0.00002242,-0.00
 004503,-0.00002163,-0.00001115,-0.00002552,0.00000636,0.00083655,0.000
 75438,0.00030003,0.00050084,-0.00146123,0.00106213,-0.00003355,0.00003
 548,0.00002446,0.00000665,-0.00000864,0.00000954,-0.00000803,0.0000161
 4,-0.00000240,0.00000017,0.00001601,-0.00001073,0.00000475,0.00000536,
 -0.00000884,-0.00000279,-0.00000274,-0.00000227,-0.00000523,-0.0000065
 5,0.00000002,0.00000065,-0.00000382,0.00000156,-0.00029259,-0.00028470
 ,0.00027465,0.00054093,0.00097923,0.00036499,-0.00003606,-0.00058272,-
 0.00082832,-0.00041234,0.00007629,0.00009696,0.00312729,-0.10969167,-0
 .09691673,0.00025734,-0.02938731,-0.01307404,-0.00020422,0.11759650,0.
 10117487,-0.00021869,-0.00032439,0.00013999,0.00004545,-0.00006310,0.0
 0001651,-0.00056041,-0.00036886,0.00011362,-0.00003035,-0.00003937,0.0
 0001993,0.00002230,0.00000029,-0.00000126,0.00004968,-0.00026313,0.000
 14841,0.00004733,0.00005129,-0.00002951,-0.00000365,0.00000241,0.,-0.0
 0000833,-0.00005733,-0.00007136,0.00000411,0.00000943,-0.00000203,-0.0
 0003283,0.00001100,-0.00000120,0.00226369,-0.00279483,0.00043620,-0.00
 035747,0.00259388,-0.00041518,0.00068968,-0.00054452,0.00004574,-0.024
 17171,-0.01862566,0.01355195,-0.00063298,0.00055908,-0.00023580,-0.000
 18927,0.00026725,-0.00005216,-0.00060382,-0.00091795,0.00037468,-0.000
 27426,0.00015173,-0.00010871,-0.00021864,0.00016572,-0.00002757,-0.002
 38787,0.00440588,-0.00182885,0.00034996,0.00083495,-0.00034750,0.00002
 065,-0.00001420,0.00003553,0.00003553,0.00007047,-0.00002372,0.0000103
 8,-0.00001008,-0.00000174,0.00002644,0.00000803,-0.00000649,0.00000548
 ,0.00002926,-0.00002551,0.00001822,0.00001914,-0.00000149,0.00001655,0
 .00000338,0.00003496,0.00003013,-0.00001306,-0.00002340,0.00023728,0.0
 0018368,-0.00025639,-0.00001099,-0.00008555,-0.00005965,0.00004557,0.0
 0002200,0.00017926,0.00014329,0.00005510,0.00001125,-0.18525979,-0.105
 92624,0.08059525,0.00646721,0.00535484,-0.00243513,0.00130352,0.000697
 53,-0.00186569,0.20312859,-0.00003232,0.00030487,-0.00017901,-0.000052
 75,0.00006245,-0.00002143,-0.00025898,-0.00021690,-0.00002168,-0.00004
 243,0.00000441,-0.00001257,-0.00002445,0.00000846,-0.00000487,-0.00016
 700,0.00009368,0.00018447,0.00003279,-0.00001115,0.00001019,0.00000483
 ,-0.00000159,0.00000190,0.00008508,-0.00010622,-0.00013671,0.00002015,
 0.00000495,0.00000747,0.00003069,-0.00001607,0.00000487,0.00252052,-0.
 00000578,-0.00065604,0.00180713,-0.00076311,0.00062631,-0.00014869,0.0
 0025905,-0.00001685,0.01215078,0.00823826,-0.00797369,0.00049040,0.000
 18654,-0.00021007,0.00014449,-0.00010290,0.00006674,0.00046411,0.00047
 378,0.00026197,0.00006136,-0.00003680,0.00001357,0.00016976,-0.0001204
 7,0.00003388,0.00209658,-0.00139566,0.00097172,0.00031491,-0.00107224,
 0.00027302,-0.00005675,0.00000635,-0.00004134,0.00000333,-0.00003207,0
 .00004678,-0.00002375,0.00002039,0.00000369,-0.00000518,0.00000062,-0.
 00000472,0.00000653,-0.00002866,0.00001505,-0.00000207,-0.00000740,-0.
 00000305,-0.00001132,-0.00000897,-0.00001377,-0.00001065,0.00000212,0.
 00000616,-0.00037398,-0.00062508,0.00051002,-0.00000943,0.00045780,0.0
 0029163,-0.00010833,-0.00025829,-0.00033925,-0.00031655,0.00010632,0.0
 0007209,-0.11234723,-0.13877136,0.06636706,-0.00124057,-0.00180084,0.0
 0052560,-0.01972295,-0.01433384,0.01375589,0.11455192,0.14948537,0.000
 26498,-0.00007339,0.00001837,-0.00000602,-0.00004381,-0.00000293,0.000
 13979,0.00052514,-0.00111764,0.00004722,0.00002189,-0.00000578,0.00000
 179,-0.00001251,-0.00000497,0.00007920,0.00026747,0.00014631,-0.000054
 30,-0.00002621,0.00001133,0.00000015,0.00000342,0.00000249,-0.00001218
 ,-0.00031335,0.00023111,-0.00001465,-0.00001023,-0.00000074,-0.0000033
 4,0.00000942,0.00000258,-0.00152064,0.00012894,-0.00021075,-0.00010512
 ,0.00024722,0.00115373,-0.00009604,0.00000095,0.00000427,-0.00447722,-
 0.00285813,0.00005695,-0.00007556,-0.00015959,0.00018385,-0.00000149,0
 .00002158,0.00002136,-0.00021000,0.00024164,0.00057308,-0.00014455,0.0
 0006247,-0.00003629,0.00013110,-0.00007965,0.00001506,-0.00057938,0.00
 079743,0.00022102,-0.00037267,0.00003316,-0.00030665,0.00002330,-0.000
 01717,-0.00006482,0.00000648,0.00000899,0.00003918,-0.00001528,-0.0000
 0414,-0.00000015,0.00001872,-0.00002368,0.00000267,-0.00000955,0.00000
 344,-0.00000020,-0.00000365,-0.00000144,-0.00000276,-0.00000674,0.0000
 0166,-0.00000596,0.00000147,0.00000302,0.00000138,0.00003968,-0.000028
 95,-0.00081584,-0.00015933,0.00009514,0.00005751,0.00034395,0.00012935
 ,0.00048516,0.00020785,0.00018546,0.00031509,0.08328792,0.06465437,-0.
 09684993,0.02296771,0.01838075,-0.01176762,-0.01181070,-0.00775559,0.0
 0713189,-0.08788291,-0.07441505,0.10051864\\0.00008497,0.00003426,-0.0
 0003727,0.00011212,-0.00040616,-0.00011130,-0.00118534,-0.00061099,-0.
 00072566,-0.00333565,0.00137491,0.00142650,-0.00826420,-0.00564827,0.0
 0870617,0.00073404,0.00109983,0.00076162,0.00108514,-0.00100745,-0.000
 29732,0.00673857,0.00035991,-0.00307511,-0.00064436,-0.00049689,-0.000
 91463,0.00150213,-0.00069862,-0.00091525,0.00360915,0.00281150,-0.0054
 4085,-0.00011480,0.00027537,0.00047933,-0.00013354,0.00005667,0.000422
 97,-0.00008637,-0.00008196,0.00027291,0.00006974,0.00004781,0.00055156
 ,-0.00010136,0.00013967,0.00021806,-0.00021945,-0.00035952,0.00088380,
 -0.00009535,-0.00011287,-0.00011228,0.00065305,-0.00033520,-0.00210386
 ,-0.00004348,0.00028343,0.00172134,-0.00001305,-0.00006856,-0.00040417
 ,0.00027336,0.00047193,0.00048312,-0.00050272,-0.00058200,0.00049243,-
 0.00025311,-0.00022269,0.00005310,0.00018741,0.00008705,0.00076503,-0.
 00033867,0.00020179,-0.00087809,0.00066555,0.00069547,0.00006957,0.000
 14477,-0.00032365,-0.00020688,0.00099596,0.00082335,0.00007361,0.00047
 918,0.00035182,-0.00064487,-0.00025034,-0.00018937,-0.00011709,-0.0009
 5830,0.00067955,0.00088141,0.00022764,-0.00030789,-0.00068522,0.000294
 32,0.00014002,-0.00004515,-0.00020174,0.00034819,-0.00030193,-0.000537
 53,0.00011365,-0.00093388,-0.00066883,0.00091336,-0.00046945,0.0000910
 5,0.00014254,0.00015775\\\@


 KINETICS       FACT
 ---------  =  -------
 MECHANISM     FICTION
 Job cpu time:       0 days  2 hours 53 minutes 10.2 seconds.
 Elapsed time:       0 days  0 hours 10 minutes 51.6 seconds.
 File lengths (MBytes):  RWF=    745 Int=      0 D2E=      0 Chk=     16 Scr=      1
 Normal termination of Gaussian 16 at Sun Jun 28 19:44:27 2026.
