 Entering Gaussian System, Link 0=g16
 Input=DDL-S0min-S1-cLR.gjf
 Output=DDL-S0min-S1-cLR.log
 Initial command:
 /data/home/wyx/g16/l1.exe "/scr/tmp/wyx/13950/Gau-2967212.inp" -scrdir="/scr/tmp/wyx/13950/"
 Entering Link 1 = /data/home/wyx/g16/l1.exe PID=   2967213.
  
 Copyright (c) 1988,1990,1992,1993,1995,1998,2003,2009,2016,
            Gaussian, Inc.  All Rights Reserved.
  
 This is part of the Gaussian(R) 16 program.  It is based on
 the Gaussian(R) 09 system (copyright 2009, Gaussian, Inc.),
 the Gaussian(R) 03 system (copyright 2003, Gaussian, Inc.),
 the Gaussian(R) 98 system (copyright 1998, Gaussian, Inc.),
 the Gaussian(R) 94 system (copyright 1995, Gaussian, Inc.),
 the Gaussian 92(TM) system (copyright 1992, Gaussian, Inc.),
 the Gaussian 90(TM) system (copyright 1990, Gaussian, Inc.),
 the Gaussian 88(TM) system (copyright 1988, Gaussian, Inc.),
 the Gaussian 86(TM) system (copyright 1986, Carnegie Mellon
 University), and the Gaussian 82(TM) system (copyright 1983,
 Carnegie Mellon University). Gaussian is a federally registered
 trademark of Gaussian, Inc.
  
 This software contains proprietary and confidential information,
 including trade secrets, belonging to Gaussian, Inc.
  
 This software is provided under written license and may be
 used, copied, transmitted, or stored only in accord with that
 written license.
  
 The following legend is applicable only to US Government
 contracts under FAR:
  
                    RESTRICTED RIGHTS LEGEND
  
 Use, reproduction and disclosure by the US Government is
 subject to restrictions as set forth in subparagraphs (a)
 and (c) of the Commercial Computer Software - Restricted
 Rights clause in FAR 52.227-19.
  
 Gaussian, Inc.
 340 Quinnipiac St., Bldg. 40, Wallingford CT 06492
  
  
 ---------------------------------------------------------------
 Warning -- This program may not be used in any manner that
 competes with the business of Gaussian, Inc. or will provide
 assistance to any competitor of Gaussian, Inc.  The licensee
 of this program is prohibited from giving any competitor of
 Gaussian, Inc. access to this program.  By using this program,
 the user acknowledges that Gaussian, Inc. is engaged in the
 business of creating and licensing software in the field of
 computational chemistry and represents and warrants to the
 licensee that it is not a competitor of Gaussian, Inc. and that
 it will not use this program in any manner prohibited above.
 ---------------------------------------------------------------
  

 Cite this work as:
 Gaussian 16, Revision A.03,
 M. J. Frisch, G. W. Trucks, H. B. Schlegel, G. E. Scuseria, 
 M. A. Robb, J. R. Cheeseman, G. Scalmani, V. Barone, 
 G. A. Petersson, H. Nakatsuji, X. Li, M. Caricato, A. V. Marenich, 
 J. Bloino, B. G. Janesko, R. Gomperts, B. Mennucci, H. P. Hratchian, 
 J. V. Ortiz, A. F. Izmaylov, J. L. Sonnenberg, D. Williams-Young, 
 F. Ding, F. Lipparini, F. Egidi, J. Goings, B. Peng, A. Petrone, 
 T. Henderson, D. Ranasinghe, V. G. Zakrzewski, J. Gao, N. Rega, 
 G. Zheng, W. Liang, M. Hada, M. Ehara, K. Toyota, R. Fukuda, 
 J. Hasegawa, M. Ishida, T. Nakajima, Y. Honda, O. Kitao, H. Nakai, 
 T. Vreven, K. Throssell, J. A. Montgomery, Jr., J. E. Peralta, 
 F. Ogliaro, M. J. Bearpark, J. J. Heyd, E. N. Brothers, K. N. Kudin, 
 V. N. Staroverov, T. A. Keith, R. Kobayashi, J. Normand, 
 K. Raghavachari, A. P. Rendell, J. C. Burant, S. S. Iyengar, 
 J. Tomasi, M. Cossi, J. M. Millam, M. Klene, C. Adamo, R. Cammi, 
 J. W. Ochterski, R. L. Martin, K. Morokuma, O. Farkas, 
 J. B. Foresman, and D. J. Fox, Gaussian, Inc., Wallingford CT, 2016.
 
 ******************************************
 Gaussian 16:  ES64L-G16RevA.03 25-Dec-2016
                 9-Mar-2026 
 ******************************************
 %nprocshared=32
 Will use up to   32 processors via shared memory.
 %mem=16GB
 %oldchk=DDL-S0-opt-freq.chk
 %chk=DDL-S0min-S1-cLR.chk
 Copying data from "DDL-S0-opt-freq.chk" to current chk file "DDL-S0min-S1-cLR.chk"
 IOpt=  2 FromEx=T IUOpen= 4 IOptOp= 5 NList=   0 IFRang= 0 IUIn= 4 IUOut= 2.
 ----------------------------------------------------------------------
 #p wB97XD/TZVP TD=(NStates=6,Root=1) SCRF=(Solvent=Water,CorrectedLR) 
 Geom=Check Guess=Read
 ----------------------------------------------------------------------
 1/29=2,30=1,38=1,172=1/1;
 2/12=2,40=1/2;
 3/5=19,7=101,11=9,14=-4,25=1,30=1,70=2201,71=1,72=1,74=-58,116=-2/1,2,3,8;
 4/5=1/1;
 5/5=2,38=6,53=1/2;
 8/6=1,10=1,107=1,108=6/1;
 9/8=1,15=1,41=6,42=1,70=2,73=21/14;
 10/5=4,13=10,28=1,74=10/2;
 6/7=2,8=2,9=2,10=2,22=-1/1;
 99/5=1,9=1/99;
 Leave Link    1 at Mon Mar  9 15:35:55 2026, MaxMem=  2147483648 cpu:               1.4 elap:               0.1
 (Enter /data/home/wyx/g16/l101.exe)
 -------------------
 Title Card Required
 -------------------
 Structure from the checkpoint file:  "DDL-S0min-S1-cLR.chk"
 Charge =  0 Multiplicity = 1
 Redundant internal coordinates found in file.  (old form).
 O,0,1.3372756161,9.8092989609,0.7661321482
 O,0,-4.9233259977,9.7679255113,0.0431445168
 N,0,-2.1040755362,12.9162877363,0.1980261332
 H,0,-2.4084629011,13.8725520377,0.1306727416
 C,0,-2.7159211532,10.6381722683,0.2017851143
 C,0,-0.7652261157,12.6950202206,0.4311125452
 C,0,-3.0723124561,11.9426960298,0.1141777396
 C,0,-3.7159855719,9.5673631172,0.1261078329
 C,0,-1.2595918508,10.2506845235,0.3513146604
 H,0,-1.1345882645,9.5751684605,1.2026427684
 H,0,-0.9314418384,9.6644256787,-0.5146995631
 C,0,-0.3125739242,11.4210586217,0.5322783662
 C,0,1.0742351414,11.0087460145,0.7767739688
 C,0,-4.4568966164,12.4843259148,-0.069917991
 H,0,-4.4350391563,13.5683922715,-0.184944969
 H,0,-4.9317660981,12.0433281625,-0.9440023472
 H,0,-5.0827863105,12.2339098498,0.7858313548
 C,0,-3.2038385089,8.1444853181,0.155437952
 H,0,-4.0424329504,7.4592389531,0.053553269
 H,0,-2.4882678891,7.969278454,-0.651031075
 H,0,-2.6821222057,7.9411246423,1.0933649229
 C,0,2.1962980476,11.9804264579,1.0606544836
 H,0,2.3601750026,12.6639452482,0.2280021031
 H,0,1.9891711226,12.5786479594,1.9487760074
 H,0,3.1042094051,11.4046269741,1.2271678947
 C,0,0.020148415,13.9729095175,0.5279049488
 H,0,0.523907421,14.0618409238,1.4877328585
 H,0,0.7706474344,14.0363409432,-0.2584439209
 H,0,-0.6385832906,14.8336136787,0.4224455359
 Recover connectivity data from disk.
 ITRead=  0  0  0  0  0  0  0  0  0  0  0  0  0  0  0  0  0  0  0  0
 ITRead=  0  0  0  0  0  0  0  0  0
 MicOpt= -1 -1 -1 -1 -1 -1 -1 -1 -1 -1 -1 -1 -1 -1 -1 -1 -1 -1 -1 -1
 MicOpt= -1 -1 -1 -1 -1 -1 -1 -1 -1
                           ----------------------------
                           !    Current Parameters    !
                           ! (Angstroms and Degrees)  !
 --------------------------                            --------------------------
 ! Name  Definition              Value                                          !
 --------------------------------------------------------------------------------
 ! R1    R(1,13)                 1.228                                          !
 ! R2    R(2,8)                  1.2267                                         !
 ! R3    R(3,4)                  1.0058                                         !
 ! R4    R(3,6)                  1.3769                                         !
 ! R5    R(3,7)                  1.3756                                         !
 ! R6    R(5,7)                  1.3552                                         !
 ! R7    R(5,8)                  1.4671                                         !
 ! R8    R(5,9)                  1.5144                                         !
 ! R9    R(6,12)                 1.3558                                         !
 ! R10   R(6,26)                 1.5031                                         !
 ! R11   R(7,14)                 1.4981                                         !
 ! R12   R(8,18)                 1.5125                                         !
 ! R13   R(9,10)                 1.0939                                         !
 ! R14   R(9,11)                 1.0961                                         !
 ! R15   R(9,12)                 1.5164                                         !
 ! R16   R(12,13)                1.4673                                         !
 ! R17   R(13,22)                1.5112                                         !
 ! R18   R(14,15)                1.0904                                         !
 ! R19   R(14,16)                1.0881                                         !
 ! R20   R(14,17)                1.0894                                         !
 ! R21   R(18,19)                1.0877                                         !
 ! R22   R(18,20)                1.0923                                         !
 ! R23   R(18,21)                1.0924                                         !
 ! R24   R(22,23)                1.0897                                         !
 ! R25   R(22,24)                1.0907                                         !
 ! R26   R(22,25)                1.0879                                         !
 ! R27   R(26,27)                1.0876                                         !
 ! R28   R(26,28)                1.0889                                         !
 ! R29   R(26,29)                1.089                                          !
 ! A1    A(4,3,6)              117.2837                                         !
 ! A2    A(4,3,7)              117.116                                          !
 ! A3    A(6,3,7)              125.5198                                         !
 ! A4    A(7,5,8)              121.3316                                         !
 ! A5    A(7,5,9)              120.3708                                         !
 ! A6    A(8,5,9)              118.2845                                         !
 ! A7    A(3,6,12)             119.228                                          !
 ! A8    A(3,6,26)             112.4798                                         !
 ! A9    A(12,6,26)            128.2894                                         !
 ! A10   A(3,7,5)              119.4883                                         !
 ! A11   A(3,7,14)             113.7108                                         !
 ! A12   A(5,7,14)             126.8008                                         !
 ! A13   A(2,8,5)              123.7139                                         !
 ! A14   A(2,8,18)             119.2342                                         !
 ! A15   A(5,8,18)             117.0518                                         !
 ! A16   A(5,9,10)             110.1652                                         !
 ! A17   A(5,9,11)             110.2888                                         !
 ! A18   A(5,9,12)             114.5118                                         !
 ! A19   A(10,9,11)            104.5001                                         !
 ! A20   A(10,9,12)            108.2022                                         !
 ! A21   A(11,9,12)            108.6718                                         !
 ! A22   A(6,12,9)             120.5199                                         !
 ! A23   A(6,12,13)            126.3011                                         !
 ! A24   A(9,12,13)            113.158                                          !
 ! A25   A(1,13,12)            118.39                                           !
 ! A26   A(1,13,22)            118.0742                                         !
 ! A27   A(12,13,22)           123.5302                                         !
 ! A28   A(7,14,15)            110.7254                                         !
 ! A29   A(7,14,16)            110.8258                                         !
 ! A30   A(7,14,17)            110.5705                                         !
 ! A31   A(15,14,16)           109.0836                                         !
 ! A32   A(15,14,17)           108.84                                           !
 ! A33   A(16,14,17)           106.6857                                         !
 ! A34   A(8,18,19)            109.2548                                         !
 ! A35   A(8,18,20)            111.0018                                         !
 ! A36   A(8,18,21)            110.7016                                         !
 ! A37   A(19,18,20)           109.5632                                         !
 ! A38   A(19,18,21)           109.351                                          !
 ! A39   A(20,18,21)           106.9297                                         !
 ! A40   A(13,22,23)           111.8049                                         !
 ! A41   A(13,22,24)           111.3849                                         !
 ! A42   A(13,22,25)           107.9436                                         !
 ! A43   A(23,22,24)           107.8629                                         !
 ! A44   A(23,22,25)           108.8713                                         !
 ! A45   A(24,22,25)           108.9143                                         !
 ! A46   A(6,26,27)            111.6145                                         !
 ! A47   A(6,26,28)            111.2949                                         !
 ! A48   A(6,26,29)            110.4668                                         !
 ! A49   A(27,26,28)           108.2588                                         !
 ! A50   A(27,26,29)           107.5185                                         !
 ! A51   A(28,26,29)           107.515                                          !
 ! D1    D(4,3,6,12)           179.84                                           !
 ! D2    D(4,3,6,26)            -0.7165                                         !
 ! D3    D(7,3,6,12)             3.208                                          !
 ! D4    D(7,3,6,26)          -177.3485                                         !
 ! D5    D(4,3,7,5)           -179.8678                                         !
 ! D6    D(4,3,7,14)             0.0576                                         !
 ! D7    D(6,3,7,5)             -3.2307                                         !
 ! D8    D(6,3,7,14)           176.6947                                         !
 ! D9    D(8,5,7,3)            179.6052                                         !
 ! D10   D(8,5,7,14)            -0.3095                                         !
 ! D11   D(9,5,7,3)             -1.7311                                         !
 ! D12   D(9,5,7,14)           178.3542                                         !
 ! D13   D(7,5,8,2)             -3.4645                                         !
 ! D14   D(7,5,8,18)           176.606                                          !
 ! D15   D(9,5,8,2)            177.8447                                         !
 ! D16   D(9,5,8,18)            -2.0848                                         !
 ! D17   D(7,5,9,10)           128.1693                                         !
 ! D18   D(7,5,9,11)          -116.9873                                         !
 ! D19   D(7,5,9,12)             5.9486                                         !
 ! D20   D(8,5,9,10)           -53.1269                                         !
 ! D21   D(8,5,9,11)            61.7165                                         !
 ! D22   D(8,5,9,12)          -175.3476                                         !
 ! D23   D(3,6,12,9)             1.7655                                         !
 ! D24   D(3,6,12,13)          179.983                                          !
 ! D25   D(26,6,12,9)         -177.5794                                         !
 ! D26   D(26,6,12,13)           0.6382                                         !
 ! D27   D(3,6,26,27)          121.2605                                         !
 ! D28   D(3,6,26,28)         -117.6656                                         !
 ! D29   D(3,6,26,29)            1.6913                                         !
 ! D30   D(12,6,26,27)         -59.3582                                         !
 ! D31   D(12,6,26,28)          61.7157                                         !
 ! D32   D(12,6,26,29)        -178.9274                                         !
 ! D33   D(3,7,14,15)            4.5578                                         !
 ! D34   D(3,7,14,16)          125.7513                                         !
 ! D35   D(3,7,14,17)         -116.1582                                         !
 ! D36   D(5,7,14,15)         -175.5232                                         !
 ! D37   D(5,7,14,16)          -54.3297                                         !
 ! D38   D(5,7,14,17)           63.7608                                         !
 ! D39   D(2,8,18,19)            2.263                                          !
 ! D40   D(2,8,18,20)          123.1953                                         !
 ! D41   D(2,8,18,21)         -118.2157                                         !
 ! D42   D(5,8,18,19)         -177.8042                                         !
 ! D43   D(5,8,18,20)          -56.8719                                         !
 ! D44   D(5,8,18,21)           61.7171                                         !
 ! D45   D(5,9,12,6)            -5.9731                                         !
 ! D46   D(5,9,12,13)          175.5893                                         !
 ! D47   D(10,9,12,6)         -129.2556                                         !
 ! D48   D(10,9,12,13)          52.3067                                         !
 ! D49   D(11,9,12,6)          117.8313                                         !
 ! D50   D(11,9,12,13)         -60.6063                                         !
 ! D51   D(6,12,13,1)         -175.9174                                         !
 ! D52   D(6,12,13,22)           4.9609                                         !
 ! D53   D(9,12,13,1)            2.4126                                         !
 ! D54   D(9,12,13,22)        -176.7091                                         !
 ! D55   D(1,13,22,23)         119.1509                                         !
 ! D56   D(1,13,22,24)        -120.0874                                         !
 ! D57   D(1,13,22,25)          -0.5673                                         !
 ! D58   D(12,13,22,23)        -61.7248                                         !
 ! D59   D(12,13,22,24)         59.0369                                         !
 ! D60   D(12,13,22,25)        178.557                                          !
 --------------------------------------------------------------------------------
 NAtoms=     29 NQM=       29 NQMF=       0 NMMI=      0 NMMIF=      0
                NMic=       0 NMicF=      0.
                    Isotopes and Nuclear Properties:
 (Nuclear quadrupole moments (NQMom) in fm**2, nuclear magnetic moments (NMagM)
  in nuclear magnetons)

  Atom         1           2           3           4           5           6           7           8           9          10
 IAtWgt=          16          16          14           1          12          12          12          12          12           1
 AtmWgt=  15.9949146  15.9949146  14.0030740   1.0078250  12.0000000  12.0000000  12.0000000  12.0000000  12.0000000   1.0078250
 NucSpn=           0           0           2           1           0           0           0           0           0           1
 AtZEff=   5.6000000   5.6000000   4.5500000   1.0000000   3.6000000   3.6000000   3.6000000   3.6000000   3.6000000   1.0000000
 NQMom=    0.0000000   0.0000000   2.0440000   0.0000000   0.0000000   0.0000000   0.0000000   0.0000000   0.0000000   0.0000000
 NMagM=    0.0000000   0.0000000   0.4037610   2.7928460   0.0000000   0.0000000   0.0000000   0.0000000   0.0000000   2.7928460
 AtZNuc=   8.0000000   8.0000000   7.0000000   1.0000000   6.0000000   6.0000000   6.0000000   6.0000000   6.0000000   1.0000000

  Atom        11          12          13          14          15          16          17          18          19          20
 IAtWgt=           1          12          12          12           1           1           1          12           1           1
 AtmWgt=   1.0078250  12.0000000  12.0000000  12.0000000   1.0078250   1.0078250   1.0078250  12.0000000   1.0078250   1.0078250
 NucSpn=           1           0           0           0           1           1           1           0           1           1
 AtZEff=   1.0000000   3.6000000   3.6000000   3.6000000   1.0000000   1.0000000   1.0000000   3.6000000   1.0000000   1.0000000
 NQMom=    0.0000000   0.0000000   0.0000000   0.0000000   0.0000000   0.0000000   0.0000000   0.0000000   0.0000000   0.0000000
 NMagM=    2.7928460   0.0000000   0.0000000   0.0000000   2.7928460   2.7928460   2.7928460   0.0000000   2.7928460   2.7928460
 AtZNuc=   1.0000000   6.0000000   6.0000000   6.0000000   1.0000000   1.0000000   1.0000000   6.0000000   1.0000000   1.0000000

  Atom        21          22          23          24          25          26          27          28          29
 IAtWgt=           1          12           1           1           1          12           1           1           1
 AtmWgt=   1.0078250  12.0000000   1.0078250   1.0078250   1.0078250  12.0000000   1.0078250   1.0078250   1.0078250
 NucSpn=           1           0           1           1           1           0           1           1           1
 AtZEff=   1.0000000   3.6000000   1.0000000   1.0000000   1.0000000   3.6000000   1.0000000   1.0000000   1.0000000
 NQMom=    0.0000000   0.0000000   0.0000000   0.0000000   0.0000000   0.0000000   0.0000000   0.0000000   0.0000000
 NMagM=    2.7928460   0.0000000   2.7928460   2.7928460   2.7928460   0.0000000   2.7928460   2.7928460   2.7928460
 AtZNuc=   1.0000000   6.0000000   1.0000000   1.0000000   1.0000000   6.0000000   1.0000000   1.0000000   1.0000000
 Leave Link  101 at Mon Mar  9 15:35:57 2026, MaxMem=  2147483648 cpu:               6.5 elap:               0.2
 (Enter /data/home/wyx/g16/l202.exe)
                          Input orientation:                          
 ---------------------------------------------------------------------
 Center     Atomic      Atomic             Coordinates (Angstroms)
 Number     Number       Type             X           Y           Z
 ---------------------------------------------------------------------
      1          8           0        1.337276    9.809299    0.766132
      2          8           0       -4.923326    9.767926    0.043145
      3          7           0       -2.104076   12.916288    0.198026
      4          1           0       -2.408463   13.872552    0.130673
      5          6           0       -2.715921   10.638172    0.201785
      6          6           0       -0.765226   12.695020    0.431113
      7          6           0       -3.072312   11.942696    0.114178
      8          6           0       -3.715986    9.567363    0.126108
      9          6           0       -1.259592   10.250685    0.351315
     10          1           0       -1.134588    9.575168    1.202643
     11          1           0       -0.931442    9.664426   -0.514700
     12          6           0       -0.312574   11.421059    0.532278
     13          6           0        1.074235   11.008746    0.776774
     14          6           0       -4.456897   12.484326   -0.069918
     15          1           0       -4.435039   13.568392   -0.184945
     16          1           0       -4.931766   12.043328   -0.944002
     17          1           0       -5.082786   12.233910    0.785831
     18          6           0       -3.203839    8.144485    0.155438
     19          1           0       -4.042433    7.459239    0.053553
     20          1           0       -2.488268    7.969278   -0.651031
     21          1           0       -2.682122    7.941125    1.093365
     22          6           0        2.196298   11.980426    1.060654
     23          1           0        2.360175   12.663945    0.228002
     24          1           0        1.989171   12.578648    1.948776
     25          1           0        3.104209   11.404627    1.227168
     26          6           0        0.020148   13.972910    0.527905
     27          1           0        0.523907   14.061841    1.487733
     28          1           0        0.770647   14.036341   -0.258444
     29          1           0       -0.638583   14.833614    0.422446
 ---------------------------------------------------------------------
                    Distance matrix (angstroms):
                    1          2          3          4          5
     1  O    0.000000
     2  O    6.302345   0.000000
     3  N    4.671084   4.228989   0.000000
     4  H    5.562768   4.814578   1.005798   0.000000
     5  C    4.175395   2.378052   2.358851   3.249738   0.000000
     6  C    3.586104   5.099823   1.376883   2.043789   2.844016
     7  C    4.941750   2.856733   1.375643   2.040910   1.355165
     8  C    5.099374   1.226694   3.717354   4.499365   1.467136
     9  C    2.666574   3.708230   2.800373   3.806115   1.514398
    10  H    2.521006   3.966879   3.621082   4.608620   2.152279
    11  H    2.609329   4.032002   3.529540   4.506265   2.155435
    12  C    2.318288   4.922513   2.357310   3.250209   2.549160
    13  C    1.227997   6.168354   3.751709   4.554999   3.851392
    14  C    6.436395   2.758473   2.407105   2.482638   2.552078
    15  H    6.953772   3.838489   2.450571   2.073437   3.419227
    16  H    6.871414   2.480320   3.172085   3.296672   2.863086
    17  H    6.862676   2.580328   3.111892   3.204120   2.913681
    18  C    4.875066   2.367447   4.897080   5.783077   2.541395
    19  H    5.913697   2.471055   5.792882   6.618640   3.447785
    20  H    4.475356   3.105885   5.034025   5.955340   2.811070
    21  H    4.444403   3.076225   5.088027   6.015272   2.840796
    22  C    2.353393   7.524595   4.484772   5.064467   5.164223
    23  H    3.079759   7.840312   4.471477   4.920377   5.465455
    24  H    3.081056   7.701572   4.464728   4.931417   5.381014
    25  H    2.424805   8.277803   5.520008   6.138608   5.959260
    26  C    4.373469   6.508058   2.395328   2.462929   4.325841
    27  H    4.389349   7.084977   3.143554   3.236702   4.885863
    28  H    4.386195   7.122616   3.118800   3.207021   4.890350
    29  H    5.409795   6.645607   2.423669   2.035005   4.686764
                    6          7          8          9         10
     6  C    0.000000
     7  C    2.447261   0.000000
     8  C    4.310713   2.461029   0.000000
     9  C    2.495104   2.491002   2.559593   0.000000
    10  H    3.234990   3.247263   2.796891   1.093941   0.000000
    11  H    3.179102   3.188939   2.858975   1.096067   1.731618
    12  C    1.355768   2.839555   3.896713   1.516366   2.128945
    13  C    2.519250   4.301762   5.044518   2.490466   2.667473
    14  C    3.731468   1.498108   3.015965   3.922926   4.595687
    15  H    3.822281   2.142285   4.077012   4.623659   5.363228
    16  H    4.435730   2.141831   2.958659   4.286756   5.011832
    17  H    4.356578   2.139610   3.068200   4.328834   4.778170
    18  C    5.170125   3.800711   1.512526   2.873071   2.724938
    19  H    6.188380   4.587613   2.134483   3.952851   3.775331
    20  H    5.145148   4.088362   2.159887   2.778337   2.801328
    21  H    5.168423   4.138071   2.156180   2.812170   2.253198
    22  C    3.110883   5.353083   6.453786   3.929166   4.110989
    23  H    3.132148   5.481339   6.820479   4.352212   4.764854
    24  H    3.146990   5.421144   6.703638   4.304156   4.397212
    25  H    4.155881   6.299023   7.148631   4.597985   4.616809
    26  C    1.503058   3.722399   5.790421   3.940035   4.596609
    27  H    2.155577   4.394340   6.327009   4.358581   4.791880
    28  H    2.152565   4.392099   6.344251   4.338764   5.066237
    29  H    2.142357   3.791500   6.106686   4.625360   5.339099
                   11         12         13         14         15
    11  H    0.000000
    12  C    2.136567   0.000000
    13  C    2.738219   1.467317   0.000000
    14  C    4.536353   4.320716   5.786851   0.000000
    15  H    5.255938   4.703209   6.150512   1.090371   0.000000
    16  H    4.673978   4.889127   6.332731   1.088119   1.774465
    17  H    5.052454   4.845611   6.277740   1.089382   1.772802
    18  C    2.814798   4.386041   5.185746   4.522738   5.572296
    19  H    3.855389   5.462329   6.269158   5.043662   6.126400
    20  H    2.305606   4.248370   4.895755   4.959722   5.946195
    21  H    2.936072   4.247295   4.860118   5.014352   6.030998
    22  C    4.198614   2.624217   1.511217   6.767356   6.931651
    23  H    4.514805   2.963265   2.166674   6.825942   6.867568
    24  H    4.805349   2.940155   2.162242   6.755428   6.841260
    25  H    4.727461   3.486768   2.116689   7.747161   7.969706
    26  C    4.533826   2.573454   3.155836   4.755755   4.529954
    27  H    5.046290   2.930243   3.182721   5.451902   5.256662
    28  H    4.698555   2.939101   3.214059   5.456327   5.227193
    29  H    5.261607   3.429851   4.205818   4.510110   4.047565
                   16         17         18         19         20
    16  H    0.000000
    17  H    1.746841   0.000000
    18  C    4.404030   4.544363   0.000000
    19  H    4.774925   4.941260   1.087742   0.000000
    20  H    4.759664   5.194534   1.092305   1.781013   0.000000
    21  H    5.102924   4.928059   1.092360   1.778726   1.755360
    22  C    7.404857   7.288680   6.685457   7.770274   6.400339
    23  H    7.411556   7.476214   7.168614   8.253047   6.805879
    24  H    7.520246   7.175226   7.060114   8.135138   6.932009
    25  H    8.348582   8.240715   7.181128   8.247300   6.826789
    26  C    5.514640   5.397276   6.671083   7.691390   6.612536
    27  H    6.304927   5.938772   7.119424   8.154918   7.125084
    28  H    6.079442   6.213047   7.119115   8.156063   6.898109
    29  H    5.299461   5.161536   7.169119   8.130417   7.189769
                   21         22         23         24         25
    21  H    0.000000
    22  C    6.333720   0.000000
    23  H    6.962661   1.089662   0.000000
    24  H    6.637720   1.090656   1.762380   0.000000
    25  H    6.745027   1.087922   1.771384   1.772669   0.000000
    26  C    6.633584   2.998239   2.697972   2.799980   4.073877
    27  H    6.920789   2.703992   2.629242   2.135280   3.713036
    28  H    7.134470   2.828301   2.155620   2.912300   3.818177
    29  H    7.220290   4.072412   3.706457   3.784131   5.139458
                   26         27         28         29
    26  C    0.000000
    27  H    1.087636   0.000000
    28  H    1.088860   1.763708   0.000000
    29  H    1.088972   1.755521   1.756470   0.000000
 Stoichiometry    C11H15NO2
 Framework group  C1[X(C11H15NO2)]
 Deg. of freedom    81
 Full point group                 C1      NOp   1
 RotChk:  IX=0 Diff= 6.74D-16
 Largest Abelian subgroup         C1      NOp   1
 Largest concise Abelian subgroup C1      NOp   1
                         Standard orientation:                         
 ---------------------------------------------------------------------
 Center     Atomic      Atomic             Coordinates (Angstroms)
 Number     Number       Type             X           Y           Z
 ---------------------------------------------------------------------
      1          8           0        2.273213   -2.290168   -0.061825
      2          8           0       -3.677675   -0.224377    0.135640
      3          7           0        0.027079    1.805427   -0.061943
      4          1           0        0.054211    2.810852   -0.065770
      5          6           0       -1.305752   -0.140163   -0.012760
      6          6           0        1.232979    1.141610   -0.030977
      7          6           0       -1.213260    1.211808   -0.022338
      8          6           0       -2.607254   -0.815466    0.037701
      9          6           0       -0.056806   -0.993596   -0.084776
     10          1           0       -0.054575   -1.727931    0.726059
     11          1           0       -0.060341   -1.595911   -1.000509
     12          6           0        1.242321   -0.214092   -0.021444
     13          6           0        2.430538   -1.074418    0.010137
     14          6           0       -2.348205    2.189207    0.007985
     15          1           0       -1.980113    3.211057   -0.088137
     16          1           0       -3.053545    1.988065   -0.795782
     17          1           0       -2.903850    2.101739    0.940916
     18          6           0       -2.601647   -2.326216   -0.035363
     19          1           0       -3.626879   -2.689553   -0.026968
     20          1           0       -2.098286   -2.672497   -0.940817
     21          1           0       -2.059852   -2.751807    0.812329
     22          6           0        3.840016   -0.546484    0.145907
     23          1           0        4.112488    0.099252   -0.688447
     24          1           0        3.963390    0.025872    1.066080
     25          1           0        4.516402   -1.398322    0.167080
     26          6           0        2.406205    2.081125   -0.025250
     27          1           0        3.031930    1.935354    0.852344
     28          1           0        3.024659    1.946861   -0.911311
     29          1           0        2.065696    3.115458   -0.016909
 ---------------------------------------------------------------------
 Rotational constants (GHZ):           1.1032091           0.4816805           0.3391918
 Leave Link  202 at Mon Mar  9 15:35:57 2026, MaxMem=  2147483648 cpu:               0.1 elap:               0.0
 (Enter /data/home/wyx/g16/l301.exe)
 Standard basis: TZVP (5D, 7F)
 Ernie: Thresh=  0.10000D-02 Tol=  0.10000D-05 Strict=F.
 There are   370 symmetry adapted cartesian basis functions of A   symmetry.
 There are   356 symmetry adapted basis functions of A   symmetry.
   356 basis functions,   610 primitive gaussians,   370 cartesian basis functions
    52 alpha electrons       52 beta electrons
       nuclear repulsion energy       898.3605298352 Hartrees.
 IExCor= 4639 DFT=T Ex+Corr=wB97XD ExCW=0 ScaHFX=  1.000000
 ScaDFX=  1.000000  1.000000  1.000000  1.000000 ScalE2=  1.000000  1.000000
 IRadAn=      5 IRanWt=     -1 IRanGd=            0 ICorTp=0 IEmpDi=121
 HFx  wShort=  0.000000 wLong=  0.200000 cFull=  0.222036 cShort=  0.000000 cLong=  0.777964
 DFx  wShort=  0.000000 wLong=  0.200000 cFull=  0.000000 cShort=  0.000000 cLong=  1.000000
 NAtoms=   29 NActive=   29 NUniq=   29 SFac= 1.00D+00 NAtFMM=   60 NAOKFM=F Big=F
 Integral buffers will be    131072 words long.
 Raffenetti 1 integral format.
 Two-electron integral symmetry is turned on.
 R6Disp:  Grimme-D2 Dispersion energy=       -0.0199674096 Hartrees.
 Nuclear repulsion after empirical dispersion term =      898.3405624255 Hartrees.
 ------------------------------------------------------------------------------
 Polarizable Continuum Model (PCM)
 =================================
 Model                : PCM.
 Atomic radii         : UFF (Universal Force Field).
 Polarization charges : Total charges.
 Charge compensation  : None.
 Solution method      : On-the-fly selection.
 Cavity type          : Scaled VdW (van der Waals Surface) (Alpha=1.100).
 Cavity algorithm     : GePol (No added spheres)
                        Default sphere list used, NSphG=   29.
                        Lebedev-Laikov grids with approx.  5.0 points / Ang**2.
                        Smoothing algorithm: York/Karplus (Gamma=1.0000).
                        Polarization charges: spherical gaussians, with
                                              point-specific exponents (IZeta= 3).
                        Self-potential: point-specific (ISelfS= 7).
                        Self-field    : sphere-specific E.n sum rule (ISelfD= 2).
 1st derivatives      : Analytical E(r).r(x)/FMM algorithm (CHGder, D1EAlg=3).
                        Cavity 1st derivative terms included.
 Solvent              : Water, Eps=  78.355300 Eps(inf)=   1.777849
 ------------------------------------------------------------------------------
 GePol: Number of generator spheres                  =      29
 GePol: Total number of spheres                      =      29
 GePol: Number of exposed spheres                    =      29 (100.00%)
 GePol: Number of points                             =    2092
 GePol: Average weight of points                     =       0.13
 GePol: Minimum weight of points                     =   0.27D-10
 GePol: Maximum weight of points                     =    0.20577
 GePol: Number of points with low weight             =     139
 GePol: Fraction of low-weight points (<1% of avg)   =       6.64%
 GePol: Cavity surface area                          =    267.808 Ang**2
 GePol: Cavity volume                                =    287.184 Ang**3
 Leave Link  301 at Mon Mar  9 15:35:57 2026, MaxMem=  2147483648 cpu:               1.1 elap:               0.0
 (Enter /data/home/wyx/g16/l302.exe)
 NPDir=0 NMtPBC=     1 NCelOv=     1 NCel=       1 NClECP=     1 NCelD=      1
         NCelK=      1 NCelE2=     1 NClLst=     1 CellRange=     0.0.
 One-electron integrals computed using PRISM.
 One-electron integral symmetry used in STVInt
 NBasis=   356 RedAO= T EigKep=  3.53D-05  NBF=   356
 NBsUse=   356 1.00D-06 EigRej= -1.00D+00 NBFU=   356
 Precomputing XC quadrature grid using
 IXCGrd= 4 IRadAn=           5 IRanWt=          -1 IRanGd=           0 AccXCQ= 0.00D+00.
 Generated NRdTot=       0 NPtTot=           0 NUsed=           0 NTot=          32
 NSgBfM=   366   366   366   366   366 MxSgAt=    29 MxSgA2=    29.
 Leave Link  302 at Mon Mar  9 15:35:57 2026, MaxMem=  2147483648 cpu:               6.2 elap:               0.2
 (Enter /data/home/wyx/g16/l303.exe)
 DipDrv:  MaxL=1.
 Leave Link  303 at Mon Mar  9 15:35:58 2026, MaxMem=  2147483648 cpu:               1.1 elap:               0.0
 (Enter /data/home/wyx/g16/l308.exe)
 Leave Link  308 at Mon Mar  9 15:35:58 2026, MaxMem=  2147483648 cpu:               1.4 elap:               0.1
 (Enter /data/home/wyx/g16/l401.exe)
 Initial guess from the checkpoint file:  "DDL-S0min-S1-cLR.chk"
 B after Tr=    -0.000000    0.000000    0.000000
         Rot=    1.000000   -0.000000   -0.000000   -0.000000 Ang=   0.00 deg.
 Guess basis will be translated and rotated to current coordinates.
 JPrj=2 DoOrth=T DoCkMO=T.
 Leave Link  401 at Mon Mar  9 15:35:58 2026, MaxMem=  2147483648 cpu:               4.5 elap:               0.2
 (Enter /data/home/wyx/g16/l502.exe)
 Integral symmetry usage will be decided dynamically.
 Closed shell SCF:
 Using DIIS extrapolation, IDIIS=  1040.
 NGot=  2147483648 LenX=  2147194175 LenY=  2147056834
 Requested convergence on RMS density matrix=1.00D-08 within 128 cycles.
 Requested convergence on MAX density matrix=1.00D-06.
 Requested convergence on             energy=1.00D-06.
 No special actions if energy rises.
 Fock matrices will be formed incrementally for  20 cycles.

 Cycle   1  Pass 1  IDiag  1:
 FoFJK:  IHMeth= 1 ICntrl=       0 DoSepK=T KAlg= 0 I1Cent=           0 FoldK=F
 IRaf=         1 NMat=       1 IRICut=       1 DoRegI=T DoRafI=F ISym2E= 0 IDoP0=0 IntGTp=1.
 FoFCou: FMM=F IPFlag=           0 FMFlag=      100000 FMFlg1=           0
         NFxFlg=           0 DoJE=T BraDBF=F KetDBF=F FulRan=T
         wScrn=  0.000000 ICntrl=       500 IOpCl=  0 I1Cent=           0 NGrid=           0
         NMat0=    1 NMatS0=      1 NMatT0=    0 NMatD0=    1 NMtDS0=    0 NMtDT0=    0
 Symmetry not used in FoFCou.
 Inv3:  Mode=1 IEnd=    13129392.
 Iteration    1 A*A^-1 deviation from unit magnitude is 3.55D-15 for   1473.
 Iteration    1 A*A^-1 deviation from orthogonality  is 1.73D-15 for   1787    187.
 Iteration    1 A^-1*A deviation from unit magnitude is 3.55D-15 for   1473.
 Iteration    1 A^-1*A deviation from orthogonality  is 2.33D-15 for   1930    381.
 E= -633.422006934862    
 DIIS: error= 1.14D-08 at cycle   1 NSaved=   1.
 NSaved= 1 IEnMin= 1 EnMin= -633.422006934862     IErMin= 1 ErrMin= 1.14D-08
 ErrMax= 1.14D-08  0.00D+00 EMaxC= 1.00D-01 BMatC= 2.30D-14 BMatP= 2.30D-14
 IDIUse=1 WtCom= 1.00D+00 WtEn= 0.00D+00
 Coeff-Com:  0.100D+01
 Coeff:      0.100D+01
 Gap=     0.278 Goal=   None    Shift=    0.000
 RMSDP=1.23D-09 MaxDP=3.49D-08              OVMax= 1.64D-07

 Error on total polarization charges =  0.01387
 SCF Done:  E(RwB97XD) =  -633.422006935     A.U. after    1 cycles
            NFock=  1  Conv=0.12D-08     -V/T= 2.0047
 KE= 6.304653771886D+02 PE=-3.272776496690D+03 EE= 1.110548550141D+03
 Leave Link  502 at Mon Mar  9 15:36:02 2026, MaxMem=  2147483648 cpu:             120.5 elap:               4.1
 (Enter /data/home/wyx/g16/l801.exe)
 DoSCS=F DFT=T ScalE2(SS,OS)=  1.000000  1.000000
 ExpMin= 9.52D-02 ExpMax= 2.70D+04 ExpMxC= 9.22D+02 IAcc=3 IRadAn=         5 AccDes= 0.00D+00
 HarFok:  IExCor=  205 AccDes= 0.00D+00 IRadAn=         5 IDoV=-2 UseB2=F ITyADJ=14
 ICtDFT= 12500011 ScaDFX=  1.000000  1.000000  1.000000  1.000000
 Largest valence mixing into a core orbital is  6.53D-05
 Largest core mixing into a valence orbital is  1.47D-05
 Range of M.O.s used for correlation:    15   356
 NBasis=   356 NAE=    52 NBE=    52 NFC=    14 NFV=     0
 NROrb=    342 NOA=    38 NOB=    38 NVA=   304 NVB=   304

 **** Warning!!: The largest alpha MO coefficient is  0.52496015D+02

 Leave Link  801 at Mon Mar  9 15:36:03 2026, MaxMem=  2147483648 cpu:               1.6 elap:               0.1
 (Enter /data/home/wyx/g16/l914.exe)
 RHF ground state
 Two-electron integrals replicated using symmetry.
 MDV=  2147483648 DFT=T DoStab=F Mixed=T DoRPA=T DoScal=F NonHer=T
 NEqPCM:  Using non-equilibrium solvation (IEInf=1, Eps=  78.3553, EpsInf=   1.7778)
 Inv3:  Mode=1 IEnd=    13129392.
 Iteration    1 A*A^-1 deviation from unit magnitude is 3.22D-15 for    373.
 Iteration    1 A*A^-1 deviation from orthogonality  is 2.22D-15 for   1913     91.
 Iteration    1 A^-1*A deviation from unit magnitude is 3.33D-15 for    542.
 Iteration    1 A^-1*A deviation from orthogonality  is 3.12D-15 for   1364   1333.
 Making orbital integer symmetry assigments:
 Orbital symmetries:
       Occupied  (A) (A) (A) (A) (A) (A) (A) (A) (A) (A) (A) (A)
                 (A) (A) (A) (A) (A) (A) (A) (A) (A) (A) (A) (A)
                 (A) (A) (A) (A) (A) (A) (A) (A) (A) (A) (A) (A)
                 (A) (A) (A) (A) (A) (A) (A) (A) (A) (A) (A) (A)
                 (A) (A) (A) (A)
       Virtual   (A) (A) (A) (A) (A) (A) (A) (A) (A) (A) (A) (A)
                 (A) (A) (A) (A) (A) (A) (A) (A) (A) (A) (A) (A)
                 (A) (A) (A) (A) (A) (A) (A) (A) (A) (A) (A) (A)
                 (A) (A) (A) (A) (A) (A) (A) (A) (A) (A) (A) (A)
                 (A) (A) (A) (A) (A) (A) (A) (A) (A) (A) (A) (A)
                 (A) (A) (A) (A) (A) (A) (A) (A) (A) (A) (A) (A)
                 (A) (A) (A) (A) (A) (A) (A) (A) (A) (A) (A) (A)
                 (A) (A) (A) (A) (A) (A) (A) (A) (A) (A) (A) (A)
                 (A) (A) (A) (A) (A) (A) (A) (A) (A) (A) (A) (A)
                 (A) (A) (A) (A) (A) (A) (A) (A) (A) (A) (A) (A)
                 (A) (A) (A) (A) (A) (A) (A) (A) (A) (A) (A) (A)
                 (A) (A) (A) (A) (A) (A) (A) (A) (A) (A) (A) (A)
                 (A) (A) (A) (A) (A) (A) (A) (A) (A) (A) (A) (A)
                 (A) (A) (A) (A) (A) (A) (A) (A) (A) (A) (A) (A)
                 (A) (A) (A) (A) (A) (A) (A) (A) (A) (A) (A) (A)
                 (A) (A) (A) (A) (A) (A) (A) (A) (A) (A) (A) (A)
                 (A) (A) (A) (A) (A) (A) (A) (A) (A) (A) (A) (A)
                 (A) (A) (A) (A) (A) (A) (A) (A) (A) (A) (A) (A)
                 (A) (A) (A) (A) (A) (A) (A) (A) (A) (A) (A) (A)
                 (A) (A) (A) (A) (A) (A) (A) (A) (A) (A) (A) (A)
                 (A) (A) (A) (A) (A) (A) (A) (A) (A) (A) (A) (A)
                 (A) (A) (A) (A) (A) (A) (A) (A) (A) (A) (A) (A)
                 (A) (A) (A) (A) (A) (A) (A) (A) (A) (A) (A) (A)
                 (A) (A) (A) (A) (A) (A) (A) (A) (A) (A) (A) (A)
                 (A) (A) (A) (A) (A) (A) (A) (A) (A) (A) (A) (A)
                 (A) (A) (A) (A)
 PCM Corrected Linear-Response:
 Compute the excitation energies in the ground state reaction field.
    24 initial guesses have been made.
 Convergence on wavefunction:    0.000001000000000
 Davidson Disk Diagonalization:  ConvIn= 1.00D-06 SkipCon=T Conv= 1.00D-06.
 Max sub-space:  2000 roots to seek:    24 dimension of matrix:        23104
 Iteration     1 Dimension    24 NMult     0 NNew     24
 CISAX will form    24 AO SS matrices at one time.
 NMat=    24 NSing=    24 JSym2X= 0.
 FoFJK:  IHMeth= 1 ICntrl=       0 DoSepK=T KAlg= 0 I1Cent=           0 FoldK=F
 IRaf=         1 NMat=      48 IRICut=       1 DoRegI=T DoRafI=F ISym2E= 0 IDoP0=3 IntGTp=3.
 New state      3 was old state      4
 New state      4 was old state      3
 New state      5 was old state      6
 New state      6 was old state      5
 Excitation Energies [eV] at current iteration:
 Root      1 :     4.006218700494179
 Root      2 :     4.312420692969329
 Root      3 :     4.541020892192758
 Root      4 :     5.728120167288726
 Root      5 :     6.496576232268503
 Root      6 :     6.656089169553418
 Root      7 :     6.976629185557198
 Root      8 :     7.168144937260820
 Root      9 :     7.219783839661098
 Root     10 :     7.366613894166933
 Root     11 :     7.568074982310197
 Root     12 :     7.608313953022177
 Root     13 :     7.618786790695713
 Root     14 :     7.839013086385964
 Root     15 :     8.033741439443535
 Root     16 :     8.187436036211437
 Root     17 :     8.238518358149909
 Root     18 :     8.584614663112307
 Root     19 :     8.653073017406005
 Root     20 :     8.896132253204202
 Root     21 :     9.151751097021199
 Root     22 :     9.186242841201345
 Root     23 :     9.286095387003437
 Root     24 :     9.654306263248918
 Iteration     2 Dimension    36 NMult    24 NNew     12
 CISAX will form    12 AO SS matrices at one time.
 NMat=    12 NSing=    12 JSym2X= 0.
 Root      1 not converged, maximum delta is    0.047517051617079
 Root      2 not converged, maximum delta is    0.076546033788779
 Root      3 not converged, maximum delta is    0.099979911518677
 Root      4 not converged, maximum delta is    0.273855877461620
 New state      5 was old state      6
 Root      5 not converged, maximum delta is    0.241121613072525
 New state      6 was old state      5
 Root      6 not converged, maximum delta is    0.102161546449491
 Excitation Energies [eV] at current iteration:
 Root      1 :     3.527999546167712   Change is   -0.478219154326467
 Root      2 :     4.102249996471945   Change is   -0.210170696497384
 Root      3 :     4.299651533863238   Change is   -0.241369358329519
 Root      4 :     5.351451425079289   Change is   -0.376668742209437
 Root      5 :     5.843172999795941   Change is   -0.812916169757477
 Root      6 :     6.338995727228583   Change is   -0.157580505039921
 Iteration     3 Dimension    48 NMult    36 NNew     12
 CISAX will form    12 AO SS matrices at one time.
 NMat=    12 NSing=    12 JSym2X= 0.
 Root      1 not converged, maximum delta is    0.010072301277878
 Root      2 not converged, maximum delta is    0.018779557047255
 Root      3 not converged, maximum delta is    0.022152155195112
 Root      4 not converged, maximum delta is    0.027431255345014
 Root      5 not converged, maximum delta is    0.026041132790537
 Root      6 not converged, maximum delta is    0.010435543891632
 Excitation Energies [eV] at current iteration:
 Root      1 :     3.507864387036094   Change is   -0.020135159131618
 Root      2 :     4.086872570517577   Change is   -0.015377425954368
 Root      3 :     4.281967191133604   Change is   -0.017684342729634
 Root      4 :     5.326520227783520   Change is   -0.024931197295770
 Root      5 :     5.808063605311789   Change is   -0.035109394484152
 Root      6 :     6.329660462392601   Change is   -0.009335264835981
 Iteration     4 Dimension    60 NMult    48 NNew     12
 CISAX will form    12 AO SS matrices at one time.
 NMat=    12 NSing=    12 JSym2X= 0.
 Root      1 not converged, maximum delta is    0.003063729970995
 Root      2 not converged, maximum delta is    0.002202675805713
 Root      3 not converged, maximum delta is    0.002099966704171
 Root      4 not converged, maximum delta is    0.003188523630069
 Root      5 not converged, maximum delta is    0.004271445500384
 Root      6 not converged, maximum delta is    0.002758641861933
 Excitation Energies [eV] at current iteration:
 Root      1 :     3.506300489736092   Change is   -0.001563897300002
 Root      2 :     4.086180027075502   Change is   -0.000692543442075
 Root      3 :     4.281278879534855   Change is   -0.000688311598749
 Root      4 :     5.324335689538765   Change is   -0.002184538244754
 Root      5 :     5.804396575383756   Change is   -0.003667029928033
 Root      6 :     6.329079662203057   Change is   -0.000580800189544
 Iteration     5 Dimension    72 NMult    60 NNew     12
 CISAX will form    12 AO SS matrices at one time.
 NMat=    12 NSing=    12 JSym2X= 0.
 Root      1 not converged, maximum delta is    0.000929539986792
 Root      2 not converged, maximum delta is    0.000402485567642
 Root      3 not converged, maximum delta is    0.000299711391094
 Root      4 not converged, maximum delta is    0.000814207021258
 Root      5 not converged, maximum delta is    0.001018019404818
 Root      6 not converged, maximum delta is    0.000573747324186
 Excitation Energies [eV] at current iteration:
 Root      1 :     3.506208713187784   Change is   -0.000091776548308
 Root      2 :     4.086131734801437   Change is   -0.000048292274063
 Root      3 :     4.281239352061051   Change is   -0.000039527473804
 Root      4 :     5.324169753366675   Change is   -0.000165936172090
 Root      5 :     5.804122152808987   Change is   -0.000274422574769
 Root      6 :     6.329041460502335   Change is   -0.000038201700722
 Iteration     6 Dimension    84 NMult    72 NNew     12
 CISAX will form    12 AO SS matrices at one time.
 NMat=    12 NSing=    12 JSym2X= 0.
 Root      1 not converged, maximum delta is    0.000260173964786
 Root      2 not converged, maximum delta is    0.000070180091011
 Root      3 not converged, maximum delta is    0.000052053782870
 Root      4 not converged, maximum delta is    0.000192325015017
 Root      5 not converged, maximum delta is    0.000277376151497
 Root      6 not converged, maximum delta is    0.000161683137617
 Excitation Energies [eV] at current iteration:
 Root      1 :     3.506203721508209   Change is   -0.000004991679575
 Root      2 :     4.086129389321684   Change is   -0.000002345479754
 Root      3 :     4.281237426803582   Change is   -0.000001925257468
 Root      4 :     5.324157099397087   Change is   -0.000012653969588
 Root      5 :     5.804094738621907   Change is   -0.000027414187080
 Root      6 :     6.329038198607479   Change is   -0.000003261894857
 Iteration     7 Dimension    96 NMult    84 NNew     12
 CISAX will form    12 AO SS matrices at one time.
 NMat=    12 NSing=    12 JSym2X= 0.
 Root      1 not converged, maximum delta is    0.000021016662481
 Root      2 not converged, maximum delta is    0.000017960974303
 Root      3 not converged, maximum delta is    0.000012077977857
 Root      4 not converged, maximum delta is    0.000061268847279
 Root      5 not converged, maximum delta is    0.000104283788614
 Root      6 not converged, maximum delta is    0.000130688229127
 Excitation Energies [eV] at current iteration:
 Root      1 :     3.506203479465330   Change is   -0.000000242042879
 Root      2 :     4.086129264218822   Change is   -0.000000125102863
 Root      3 :     4.281237345761240   Change is   -0.000000081042342
 Root      4 :     5.324156087007012   Change is   -0.000001012390075
 Root      5 :     5.804092093604627   Change is   -0.000002645017280
 Root      6 :     6.329037735700773   Change is   -0.000000462906706
 Iteration     8 Dimension   108 NMult    96 NNew     12
 CISAX will form    12 AO SS matrices at one time.
 NMat=    12 NSing=    12 JSym2X= 0.
 Root      1 not converged, maximum delta is    0.000003790070076
 Root      2 not converged, maximum delta is    0.000003679953104
 Root      3 not converged, maximum delta is    0.000002793863867
 Root      4 not converged, maximum delta is    0.000011704134718
 Root      5 not converged, maximum delta is    0.000020717189683
 Root      6 not converged, maximum delta is    0.000055272176377
 Excitation Energies [eV] at current iteration:
 Root      1 :     3.506203471178468   Change is   -0.000000008286862
 Root      2 :     4.086129256680494   Change is   -0.000000007538327
 Root      3 :     4.281237341327503   Change is   -0.000000004433737
 Root      4 :     5.324156029378361   Change is   -0.000000057628652
 Root      5 :     5.804091930155277   Change is   -0.000000163449349
 Root      6 :     6.329037666896271   Change is   -0.000000068804501
 Iteration     9 Dimension   120 NMult   108 NNew     12
 CISAX will form    12 AO SS matrices at one time.
 NMat=    12 NSing=    12 JSym2X= 0.
 Root      1 has converged.
 Root      2 not converged, maximum delta is    0.000001032558846
 Root      3 not converged, maximum delta is    0.000001079637171
 Root      4 not converged, maximum delta is    0.000002458481288
 Root      5 not converged, maximum delta is    0.000004571238473
 Root      6 not converged, maximum delta is    0.000011237186005
 Excitation Energies [eV] at current iteration:
 Root      1 :     3.506203470926748   Change is   -0.000000000251719
 Root      2 :     4.086129256310572   Change is   -0.000000000369922
 Root      3 :     4.281237341108391   Change is   -0.000000000219111
 Root      4 :     5.324156026499947   Change is   -0.000000002878414
 Root      5 :     5.804091921479902   Change is   -0.000000008675376
 Root      6 :     6.329037660425959   Change is   -0.000000006470313
 Iteration    10 Dimension   130 NMult   120 NNew     10
 CISAX will form    10 AO SS matrices at one time.
 NMat=    10 NSing=    10 JSym2X= 0.
 Root      1 has converged.
 Root      2 has converged.
 Root      3 has converged.
 Root      4 has converged.
 Root      5 not converged, maximum delta is    0.000001516684974
 Root      6 not converged, maximum delta is    0.000002138695854
 Excitation Energies [eV] at current iteration:
 Root      1 :     3.506203470925975   Change is   -0.000000000000773
 Root      2 :     4.086129256298420   Change is   -0.000000000012152
 Root      3 :     4.281237341096601   Change is   -0.000000000011790
 Root      4 :     5.324156026355640   Change is   -0.000000000144307
 Root      5 :     5.804091920949541   Change is   -0.000000000530360
 Root      6 :     6.329037659959370   Change is   -0.000000000466588
 Iteration    11 Dimension   134 NMult   130 NNew      4
 CISAX will form     4 AO SS matrices at one time.
 NMat=     4 NSing=     4 JSym2X= 0.
 Root      1 has converged.
 Root      2 has converged.
 Root      3 has converged.
 Root      4 has converged.
 Root      5 has converged.
 Root      6 has converged.
 Excitation Energies [eV] at current iteration:
 Root      1 :     3.506203470925928   Change is   -0.000000000000047
 Root      2 :     4.086129256298461   Change is    0.000000000000041
 Root      3 :     4.281237341096486   Change is   -0.000000000000115
 Root      4 :     5.324156026353108   Change is   -0.000000000002532
 Root      5 :     5.804091920920746   Change is   -0.000000000028795
 Root      6 :     6.329037659923663   Change is   -0.000000000035707
 Convergence achieved on expansion vectors.
 PCM Corrected Linear-Response:
 The state of interest is root number   1
 Excitation energy =    3.5062 eV, Total energy =  -633.293156328    
 Recompute the excitation energies using the linear response reaction field.
 Convergence on wavefunction:    0.000001000000000
 Davidson Disk Diagonalization:  ConvIn= 1.00D-06 SkipCon=T Conv= 1.00D-06.
 Max sub-space:  2000 roots to seek:     6 dimension of matrix:        23104
 Iteration     1 Dimension     6 NMult     0 NNew      6
 CISAX will form     6 AO SS matrices at one time.
 NMat=     6 NSing=     6 JSym2X= 0.
 Excitation Energies [eV] at current iteration:
 Root      1 :     3.666879388385035
 Root      2 :     4.115313051687973
 Root      3 :     4.310836012156495
 Root      4 :     5.455693905494239
 Root      5 :     6.061936976473273
 Root      6 :     6.325912915860098
 Iteration     2 Dimension    18 NMult     6 NNew     12
 CISAX will form    12 AO SS matrices at one time.
 NMat=    12 NSing=    12 JSym2X= 0.
 Root      1 not converged, maximum delta is    0.018986072289450
 Root      2 not converged, maximum delta is    0.007957444334409
 Root      3 not converged, maximum delta is    0.002038433104428
 Root      4 not converged, maximum delta is    0.198623842376016
 Root      5 not converged, maximum delta is    0.223323924766804
 Root      6 not converged, maximum delta is    0.035128546369086
 Excitation Energies [eV] at current iteration:
 Root      1 :     3.456778265573331   Change is   -0.210101122811704
 Root      2 :     4.084593344518763   Change is   -0.030719707169210
 Root      3 :     4.279651507757506   Change is   -0.031184504398988
 Root      4 :     5.275438140756978   Change is   -0.180255764737261
 Root      5 :     5.755311661327325   Change is   -0.306625315145948
 Root      6 :     6.310574268700185   Change is   -0.015338647159913
 Iteration     3 Dimension    30 NMult    18 NNew     12
 CISAX will form    12 AO SS matrices at one time.
 NMat=    12 NSing=    12 JSym2X= 0.
 Root      1 not converged, maximum delta is    0.001850262414899
 Root      2 not converged, maximum delta is    0.000210334202080
 Root      3 not converged, maximum delta is    0.000264607182577
 Root      4 not converged, maximum delta is    0.004990635576226
 Root      5 not converged, maximum delta is    0.005329151117801
 Root      6 not converged, maximum delta is    0.001060673522677
 Excitation Energies [eV] at current iteration:
 Root      1 :     3.455135689222335   Change is   -0.001642576350996
 Root      2 :     4.084480387845451   Change is   -0.000112956673312
 Root      3 :     4.279546374557778   Change is   -0.000105133199728
 Root      4 :     5.272372813351496   Change is   -0.003065327405482
 Root      5 :     5.752032067161993   Change is   -0.003279594165332
 Root      6 :     6.310317190341171   Change is   -0.000257078359014
 Iteration     4 Dimension    42 NMult    30 NNew     12
 CISAX will form    12 AO SS matrices at one time.
 NMat=    12 NSing=    12 JSym2X= 0.
 Root      1 not converged, maximum delta is    0.001213960656204
 Root      2 not converged, maximum delta is    0.000113431177360
 Root      3 not converged, maximum delta is    0.000130508212271
 Root      4 not converged, maximum delta is    0.000683519343286
 Root      5 not converged, maximum delta is    0.001339208990655
 Root      6 not converged, maximum delta is    0.000933399276201
 Excitation Energies [eV] at current iteration:
 Root      1 :     3.454999559516824   Change is   -0.000136129705511
 Root      2 :     4.084475958944449   Change is   -0.000004428901001
 Root      3 :     4.279542554372428   Change is   -0.000003820185349
 Root      4 :     5.272170765894521   Change is   -0.000202047456975
 Root      5 :     5.751802148618565   Change is   -0.000229918543428
 Root      6 :     6.310274782585700   Change is   -0.000042407755471
 Iteration     5 Dimension    54 NMult    42 NNew     12
 CISAX will form    12 AO SS matrices at one time.
 NMat=    12 NSing=    12 JSym2X= 0.
 Root      1 not converged, maximum delta is    0.000664940259942
 Root      2 not converged, maximum delta is    0.000045847389208
 Root      3 not converged, maximum delta is    0.000047457084799
 Root      4 not converged, maximum delta is    0.000284632333514
 Root      5 not converged, maximum delta is    0.000304547325956
 Root      6 not converged, maximum delta is    0.000903299042536
 Excitation Energies [eV] at current iteration:
 Root      1 :     3.454984212000682   Change is   -0.000015347516142
 Root      2 :     4.084475677018178   Change is   -0.000000281926272
 Root      3 :     4.279542323315623   Change is   -0.000000231056806
 Root      4 :     5.272152177732858   Change is   -0.000018588161663
 Root      5 :     5.751778633361377   Change is   -0.000023515257189
 Root      6 :     6.310263976292305   Change is   -0.000010806293395
 Iteration     6 Dimension    66 NMult    54 NNew     12
 CISAX will form    12 AO SS matrices at one time.
 NMat=    12 NSing=    12 JSym2X= 0.
 Root      1 not converged, maximum delta is    0.000100111749388
 Root      2 not converged, maximum delta is    0.000013733430281
 Root      3 not converged, maximum delta is    0.000012238229591
 Root      4 not converged, maximum delta is    0.000110155652598
 Root      5 not converged, maximum delta is    0.000147138233541
 Root      6 not converged, maximum delta is    0.000529522945779
 Excitation Energies [eV] at current iteration:
 Root      1 :     3.454983103772003   Change is   -0.000001108228679
 Root      2 :     4.084475655746864   Change is   -0.000000021271314
 Root      3 :     4.279542304046311   Change is   -0.000000019269312
 Root      4 :     5.272150557807106   Change is   -0.000001619925752
 Root      5 :     5.751775846860112   Change is   -0.000002786501264
 Root      6 :     6.310261311395445   Change is   -0.000002664896860
 Iteration     7 Dimension    78 NMult    66 NNew     12
 CISAX will form    12 AO SS matrices at one time.
 NMat=    12 NSing=    12 JSym2X= 0.
 Root      1 not converged, maximum delta is    0.000012993877342
 Root      2 not converged, maximum delta is    0.000002205700579
 Root      3 not converged, maximum delta is    0.000003977840899
 Root      4 not converged, maximum delta is    0.000036241339494
 Root      5 not converged, maximum delta is    0.000069610461109
 Root      6 not converged, maximum delta is    0.000125209453161
 Excitation Energies [eV] at current iteration:
 Root      1 :     3.454983052033124   Change is   -0.000000051738880
 Root      2 :     4.084475654387176   Change is   -0.000000001359688
 Root      3 :     4.279542302583283   Change is   -0.000000001463028
 Root      4 :     5.272150407626556   Change is   -0.000000150180550
 Root      5 :     5.751775540983745   Change is   -0.000000305876367
 Root      6 :     6.310260846356893   Change is   -0.000000465038551
 Iteration     8 Dimension    90 NMult    78 NNew     12
 CISAX will form    12 AO SS matrices at one time.
 NMat=    12 NSing=    12 JSym2X= 0.
 Root      1 not converged, maximum delta is    0.000005740458280
 Root      2 has converged.
 Root      3 has converged.
 Root      4 not converged, maximum delta is    0.000012143751059
 Root      5 not converged, maximum delta is    0.000026199618445
 Root      6 not converged, maximum delta is    0.000047824172557
 Excitation Energies [eV] at current iteration:
 Root      1 :     3.454983048798677   Change is   -0.000000003234447
 Root      2 :     4.084475654316631   Change is   -0.000000000070544
 Root      3 :     4.279542302498474   Change is   -0.000000000084809
 Root      4 :     5.272150395564243   Change is   -0.000000012062314
 Root      5 :     5.751775511711539   Change is   -0.000000029272206
 Root      6 :     6.310260786884677   Change is   -0.000000059472217
 Iteration     9 Dimension    98 NMult    90 NNew      8
 CISAX will form     8 AO SS matrices at one time.
 NMat=     8 NSing=     8 JSym2X= 0.
 Root      1 has converged.
 Root      2 has converged.
 Root      3 has converged.
 Root      4 not converged, maximum delta is    0.000004363963224
 Root      5 not converged, maximum delta is    0.000009743626128
 Root      6 not converged, maximum delta is    0.000018852903512
 Excitation Energies [eV] at current iteration:
 Root      1 :     3.454983048650369   Change is   -0.000000000148307
 Root      2 :     4.084475654315927   Change is   -0.000000000000705
 Root      3 :     4.279542302497608   Change is   -0.000000000000865
 Root      4 :     5.272150394690454   Change is   -0.000000000873789
 Root      5 :     5.751775508265849   Change is   -0.000000003445690
 Root      6 :     6.310260776486546   Change is   -0.000000010398131
 Iteration    10 Dimension   104 NMult    98 NNew      6
 CISAX will form     6 AO SS matrices at one time.
 NMat=     6 NSing=     6 JSym2X= 0.
 Root      1 has converged.
 Root      2 has converged.
 Root      3 has converged.
 Root      4 not converged, maximum delta is    0.000001698953748
 Root      5 not converged, maximum delta is    0.000003635103966
 Root      6 not converged, maximum delta is    0.000007420014482
 Excitation Energies [eV] at current iteration:
 Root      1 :     3.454983048649940   Change is   -0.000000000000429
 Root      2 :     4.084475654315887   Change is   -0.000000000000040
 Root      3 :     4.279542302497513   Change is   -0.000000000000096
 Root      4 :     5.272150394593623   Change is   -0.000000000096831
 Root      5 :     5.751775507853867   Change is   -0.000000000411983
 Root      6 :     6.310260774756456   Change is   -0.000000001730090
 Iteration    11 Dimension   110 NMult   104 NNew      6
 CISAX will form     6 AO SS matrices at one time.
 NMat=     6 NSing=     6 JSym2X= 0.
 Root      1 has converged.
 Root      2 has converged.
 Root      3 has converged.
 Root      4 has converged.
 Root      5 not converged, maximum delta is    0.000001340055194
 Root      6 not converged, maximum delta is    0.000002353595212
 Excitation Energies [eV] at current iteration:
 Root      1 :     3.454983048649940   Change is    0.000000000000000
 Root      2 :     4.084475654315806   Change is   -0.000000000000081
 Root      3 :     4.279542302497417   Change is   -0.000000000000096
 Root      4 :     5.272150394579714   Change is   -0.000000000013909
 Root      5 :     5.751775507793223   Change is   -0.000000000060643
 Root      6 :     6.310260774496008   Change is   -0.000000000260448
 Iteration    12 Dimension   114 NMult   110 NNew      4
 CISAX will form     4 AO SS matrices at one time.
 NMat=     4 NSing=     4 JSym2X= 0.
 Root      1 has converged.
 Root      2 has converged.
 Root      3 has converged.
 Root      4 has converged.
 Root      5 has converged.
 Root      6 has converged.
 Excitation Energies [eV] at current iteration:
 Root      1 :     3.454983048649964   Change is    0.000000000000024
 Root      2 :     4.084475654315686   Change is   -0.000000000000120
 Root      3 :     4.279542302497321   Change is   -0.000000000000096
 Root      4 :     5.272150394579168   Change is   -0.000000000000545
 Root      5 :     5.751775507783018   Change is   -0.000000000010205
 Root      6 :     6.310260774459935   Change is   -0.000000000036073
 Convergence achieved on expansion vectors.
 ***********************************************************************
 Excited states from <AA,BB:AA,BB> singles matrix:
 ***********************************************************************
 
 1PDM for each excited state written to RWF  633
 Ground to excited state transition densities written to RWF  633
 Ground to excited state transition electric dipole moments (Au):
       state          X           Y           Z        Dip. S.      Osc.
         1         1.5279     -0.1365     -0.0118      2.3532      0.1992
         2         0.0410      0.0001     -0.0362      0.0030      0.0003
         3         0.0173     -0.0261      0.0306      0.0019      0.0002
         4        -0.1244     -1.3752      0.0329      1.9078      0.2464
         5         0.1029      1.3945     -0.0201      1.9557      0.2756
         6         0.0088      0.0949      0.0185      0.0094      0.0015
 Ground to excited state transition velocity dipole moments (Au):
       state          X           Y           Z        Dip. S.      Osc.
         1        -0.1871      0.0129      0.0015      0.0352      0.1846
         2        -0.0057      0.0003      0.0023      0.0000      0.0002
         3        -0.0028      0.0036     -0.0017      0.0000      0.0001
         4         0.0292      0.2520     -0.0053      0.0644      0.2216
         5        -0.0219     -0.2878      0.0045      0.0833      0.2628
         6        -0.0025     -0.0213     -0.0225      0.0010      0.0028
 Ground to excited state transition magnetic dipole moments (Au):
       state          X           Y           Z
         1         0.0146     -0.0016      1.5237
         2        -0.8459      0.1805      0.1133
         3        -0.1347      0.9967      0.0721
         4         0.0089     -0.0126      0.1643
         5        -0.0475      0.0193     -0.2292
         6         0.1133      0.0014     -0.0134
 Ground to excited state transition velocity quadrupole moments (Au):
       state          XX          YY          ZZ          XY          XZ          YZ
         1         0.1757     -0.0911     -0.0051      0.5185     -0.0224     -0.0029
         2        -0.0005      0.0023     -0.0019      0.0167     -0.0111     -0.0761
         3        -0.0037      0.0035     -0.0102      0.0153     -0.0783     -0.0080
         4        -1.2909      0.2212      0.0241      0.0818      0.0196     -0.0133
         5         0.5934     -0.2807     -0.0349     -0.1337     -0.0107     -0.0031
         6        -0.0438     -0.0789      0.0609      0.0072      0.0144      0.1664
 <0|del|b> * <b|rxdel|0> + <0|del|b> * <b|delr+rdel|0>
 Rotatory Strengths (R) in cgs (10**-40 erg-esu-cm/Gauss)
       state          XX          YY          ZZ    R(velocity)    E-M Angle
         1         9.5202     -1.7874    -10.0038     -0.7570       90.08
         2         0.8341     12.9084     10.4389      8.0605       17.37
         3         8.3028      0.6851      8.1762      5.7214       38.61
         4       -17.2177     -1.0319      4.4157     -4.6113       95.19
         5       -17.1240      1.1430     -2.5210     -6.1673       94.68
         6         0.6332     -0.3642     -0.3093     -0.0134       90.00
 1/2[<0|r|b>*<b|rxdel|0> + (<0|rxdel|b>*<b|r|0>)*]
 Rotatory Strengths (R) in cgs (10**-40 erg-esu-cm/Gauss)
       state          XX          YY          ZZ     R(length)
         1       -15.8173     -0.1571     12.7671     -1.0691
         2        24.5242     -0.0153      2.9010      9.1366
         3         1.6503     18.3748     -1.5588      6.1554
         4         0.7864    -12.2683     -3.8189     -5.1003
         5         3.4526    -19.0147     -3.2520     -6.2714
         6        -0.7035     -0.0919      0.1752     -0.2067
  1/2[<0|del|b>*<b|r|0> + (<0|r|b>*<b|del|0>)*] (Au)
       state          X           Y           Z        Dip. S.   Osc.(frdel)
         1        -0.2858     -0.0018     -0.0000      0.2876      0.1917
         2        -0.0002      0.0000     -0.0001      0.0003      0.0002
         3        -0.0000     -0.0001     -0.0001      0.0002      0.0001
         4        -0.0036     -0.3466     -0.0002      0.3504      0.2336
         5        -0.0023     -0.4013     -0.0001      0.4037      0.2691
         6        -0.0000     -0.0020     -0.0004      0.0025      0.0016

 Excitation energies and oscillator strengths:
 
 Excited State   1:      Singlet-A      3.4550 eV  358.86 nm  f=0.1992  <S**2>=0.000
      52 -> 53         0.69992
 This state for optimization and/or second-order correction.
 Total Energy, E(TD-HF/TD-DFT) =  -633.295038644    
 Copying the excited state density for this state as the 1-particle RhoCI density.
 
 Excited State   2:      Singlet-A      4.0845 eV  303.55 nm  f=0.0003  <S**2>=0.000
      50 -> 54        -0.17884
      51 -> 53         0.57640
      51 -> 54        -0.32930
 
 Excited State   3:      Singlet-A      4.2795 eV  289.71 nm  f=0.0002  <S**2>=0.000
      50 -> 53         0.56563
      50 -> 54         0.31689
      50 -> 57         0.13070
      51 -> 53        -0.10186
      51 -> 54        -0.20681
 
 Excited State   4:      Singlet-A      5.2722 eV  235.17 nm  f=0.2464  <S**2>=0.000
      52 -> 54         0.69863
 
 Excited State   5:      Singlet-A      5.7518 eV  215.56 nm  f=0.2756  <S**2>=0.000
      49 -> 53         0.69193
 
 Excited State   6:      Singlet-A      6.3103 eV  196.48 nm  f=0.0015  <S**2>=0.000
      52 -> 55         0.65875
      52 -> 56        -0.14536
      52 -> 63        -0.14025
 SavETr:  write IOETrn=   770 NScale= 10 NData=  16 NLR=1 NState=    6 LETran=     118.
 The selected state is a singlet.
 CISGrd: IGrad=1 NXY=2 DFT=T
 CISAX will form     1 AO SS matrices at one time.
 NMat=     1 NSing=     1 JSym2X= 0.
 Leave Link  914 at Mon Mar  9 15:43:54 2026, MaxMem=  2147483648 cpu:           15011.7 elap:             471.4
 (Enter /data/home/wyx/g16/l1002.exe)
 Minotr:  Closed shell wavefunction.
          Computing CIS/TDA/TD derivatives.
          Using Z-Vector for PSCF gradient.
          Skipping F1 and S1 gradient terms here.
 NEqPCM:  Using equilibrium solvation (IEInf=0, Eps=  78.3553, EpsInf=   1.7778)
          Frozen-core window.
          Direct CPHF calculation.
          Differentiating once with respect to electric field.
                with respect to dipole field.
          Electric field/nuclear overlap derivatives assumed to be zero.
          Requested convergence is 1.0D-10 RMS, and 1.0D-09 maximum.
          NewPWx=F KeepS1=T KeepF1=T KeepIn=T MapXYZ=F SortEE=F KeepMc=T.
 Two-electron integral symmetry used by symmetrizing perturbed Fock matrices.
          MDV=    2147483648 using IRadAn=       5.
          Solving linear equations separately, MaxMat=     384.
          There are     1 degrees of freedom in the 1st order CPHF.  IDoFFX=0 NUNeed=     1.
 FoFJK:  IHMeth= 1 ICntrl=       0 DoSepK=T KAlg= 0 I1Cent=           0 FoldK=F
 IRaf=         1 NMat=       1 IRICut=       1 DoRegI=T DoRafI=F ISym2E=-1 IDoP0=0 IntGTp=1.
 FoFCou: FMM=F IPFlag=           0 FMFlag=      100000 FMFlg1=           0
         NFxFlg=           0 DoJE=T BraDBF=F KetDBF=F FulRan=T
         wScrn=  0.000000 ICntrl=       500 IOpCl=  0 I1Cent=           0 NGrid=           0
         NMat0=    1 NMatS0=      1 NMatT0=    0 NMatD0=    1 NMtDS0=    0 NMtDT0=    0
 Petite list used in FoFCou.
 LinEq1:  Iter=  0 NonCon=     1 RMS=3.41D-03 Max=1.79D-01 NDo=     1
 AX will form     1 AO Fock derivatives at one time.
 LinEq1:  Iter=  1 NonCon=     1 RMS=1.43D-03 Max=9.30D-02 NDo=     1
 LinEq1:  Iter=  2 NonCon=     1 RMS=6.11D-04 Max=3.38D-02 NDo=     1
 LinEq1:  Iter=  3 NonCon=     1 RMS=3.32D-04 Max=1.54D-02 NDo=     1
 LinEq1:  Iter=  4 NonCon=     1 RMS=1.43D-04 Max=4.93D-03 NDo=     1
 LinEq1:  Iter=  5 NonCon=     1 RMS=8.05D-05 Max=3.16D-03 NDo=     1
 LinEq1:  Iter=  6 NonCon=     1 RMS=4.04D-05 Max=1.72D-03 NDo=     1
 LinEq1:  Iter=  7 NonCon=     1 RMS=1.74D-05 Max=1.19D-03 NDo=     1
 LinEq1:  Iter=  8 NonCon=     1 RMS=7.10D-06 Max=3.65D-04 NDo=     1
 LinEq1:  Iter=  9 NonCon=     1 RMS=3.31D-06 Max=1.38D-04 NDo=     1
 LinEq1:  Iter= 10 NonCon=     1 RMS=1.14D-06 Max=2.81D-05 NDo=     1
 LinEq1:  Iter= 11 NonCon=     1 RMS=4.55D-07 Max=1.04D-05 NDo=     1
 LinEq1:  Iter= 12 NonCon=     1 RMS=1.87D-07 Max=6.00D-06 NDo=     1
 LinEq1:  Iter= 13 NonCon=     1 RMS=1.20D-07 Max=3.80D-06 NDo=     1
 LinEq1:  Iter= 14 NonCon=     1 RMS=5.91D-08 Max=1.74D-06 NDo=     1
 LinEq1:  Iter= 15 NonCon=     1 RMS=3.03D-08 Max=6.41D-07 NDo=     1
 LinEq1:  Iter= 16 NonCon=     1 RMS=1.17D-08 Max=3.35D-07 NDo=     1
 LinEq1:  Iter= 17 NonCon=     1 RMS=2.95D-09 Max=8.80D-08 NDo=     1
 LinEq1:  Iter= 18 NonCon=     1 RMS=1.32D-09 Max=4.01D-08 NDo=     1
 LinEq1:  Iter= 19 NonCon=     1 RMS=5.61D-10 Max=2.20D-08 NDo=     1
 LinEq1:  Iter= 20 NonCon=     1 RMS=1.68D-10 Max=5.69D-09 NDo=     1
 LinEq1:  Iter= 21 NonCon=     1 RMS=7.37D-11 Max=1.57D-09 NDo=     1
 LinEq1:  Iter= 22 NonCon=     0 RMS=2.60D-11 Max=7.72D-10 NDo=     1
 Linear equations converged to 1.000D-10 1.000D-09 after    22 iterations.
 PCM Corrected Linear-Response - Non-equilibrium solvation:
 Corrected transition energy               =    3.4989          eV
 Total energy after correction             = -633.293423090     a.u.
 End of Minotr F.D. properties file   721 does not exist.
 End of Minotr F.D. properties file   722 does not exist.
 End of Minotr F.D. properties file   788 does not exist.
 Leave Link 1002 at Mon Mar  9 15:45:17 2026, MaxMem=  2147483648 cpu:            2622.0 elap:              82.5
 (Enter /data/home/wyx/g16/l601.exe)
 Copying SCF densities to generalized density rwf, IOpCl= 0 IROHF=0.

 **********************************************************************

            Population analysis using the CI density.

 **********************************************************************

 Orbital symmetries:
       Occupied  (A) (A) (A) (A) (A) (A) (A) (A) (A) (A) (A) (A)
                 (A) (A) (A) (A) (A) (A) (A) (A) (A) (A) (A) (A)
                 (A) (A) (A) (A) (A) (A) (A) (A) (A) (A) (A) (A)
                 (A) (A) (A) (A) (A) (A) (A) (A) (A) (A) (A) (A)
                 (A) (A) (A) (A)
       Virtual   (A) (A) (A) (A) (A) (A) (A) (A) (A) (A) (A) (A)
                 (A) (A) (A) (A) (A) (A) (A) (A) (A) (A) (A) (A)
                 (A) (A) (A) (A) (A) (A) (A) (A) (A) (A) (A) (A)
                 (A) (A) (A) (A) (A) (A) (A) (A) (A) (A) (A) (A)
                 (A) (A) (A) (A) (A) (A) (A) (A) (A) (A) (A) (A)
                 (A) (A) (A) (A) (A) (A) (A) (A) (A) (A) (A) (A)
                 (A) (A) (A) (A) (A) (A) (A) (A) (A) (A) (A) (A)
                 (A) (A) (A) (A) (A) (A) (A) (A) (A) (A) (A) (A)
                 (A) (A) (A) (A) (A) (A) (A) (A) (A) (A) (A) (A)
                 (A) (A) (A) (A) (A) (A) (A) (A) (A) (A) (A) (A)
                 (A) (A) (A) (A) (A) (A) (A) (A) (A) (A) (A) (A)
                 (A) (A) (A) (A) (A) (A) (A) (A) (A) (A) (A) (A)
                 (A) (A) (A) (A) (A) (A) (A) (A) (A) (A) (A) (A)
                 (A) (A) (A) (A) (A) (A) (A) (A) (A) (A) (A) (A)
                 (A) (A) (A) (A) (A) (A) (A) (A) (A) (A) (A) (A)
                 (A) (A) (A) (A) (A) (A) (A) (A) (A) (A) (A) (A)
                 (A) (A) (A) (A) (A) (A) (A) (A) (A) (A) (A) (A)
                 (A) (A) (A) (A) (A) (A) (A) (A) (A) (A) (A) (A)
                 (A) (A) (A) (A) (A) (A) (A) (A) (A) (A) (A) (A)
                 (A) (A) (A) (A) (A) (A) (A) (A) (A) (A) (A) (A)
                 (A) (A) (A) (A) (A) (A) (A) (A) (A) (A) (A) (A)
                 (A) (A) (A) (A) (A) (A) (A) (A) (A) (A) (A) (A)
                 (A) (A) (A) (A) (A) (A) (A) (A) (A) (A) (A) (A)
                 (A) (A) (A) (A) (A) (A) (A) (A) (A) (A) (A) (A)
                 (A) (A) (A) (A) (A) (A) (A) (A) (A) (A) (A) (A)
                 (A) (A) (A) (A)
 The electronic state is 1-A.
 Alpha  occ. eigenvalues --  -19.22890 -19.22592 -14.48654 -10.37346 -10.37151
 Alpha  occ. eigenvalues --  -10.36148 -10.35601 -10.29647 -10.29155 -10.29104
 Alpha  occ. eigenvalues --  -10.28765 -10.28697 -10.28117 -10.27810  -1.13985
 Alpha  occ. eigenvalues --   -1.13666  -1.09180  -0.92908  -0.91869  -0.85481
 Alpha  occ. eigenvalues --   -0.84108  -0.83157  -0.80161  -0.75856  -0.72935
 Alpha  occ. eigenvalues --   -0.70204  -0.63440  -0.59991  -0.58629  -0.56614
 Alpha  occ. eigenvalues --   -0.56291  -0.55765  -0.54123  -0.53781  -0.52339
 Alpha  occ. eigenvalues --   -0.51728  -0.51143  -0.50835  -0.50205  -0.49988
 Alpha  occ. eigenvalues --   -0.48500  -0.47179  -0.46680  -0.45336  -0.44725
 Alpha  occ. eigenvalues --   -0.44364  -0.44062  -0.43635  -0.34993  -0.34041
 Alpha  occ. eigenvalues --   -0.33112  -0.27875
 Alpha virt. eigenvalues --   -0.00072   0.05193   0.10277   0.12062   0.12334
 Alpha virt. eigenvalues --    0.12515   0.14598   0.14967   0.16773   0.17025
 Alpha virt. eigenvalues --    0.17158   0.18195   0.19312   0.20567   0.20721
[...]
 Alpha virt. eigenvalues --    2.13789   2.14076   2.17415   2.18670   2.19965
 Alpha virt. eigenvalues --    2.21446   2.21751   2.24776   2.26781   2.26934
 Alpha virt. eigenvalues --    2.28080   2.30235   2.32423   2.33420   2.34857
 Alpha virt. eigenvalues --    2.35539   2.36417   2.39355   2.40487   2.41376
 Alpha virt. eigenvalues --    2.42954   2.43513   2.45136   2.46186   2.48260
 Alpha virt. eigenvalues --    2.49436   2.49906   2.51658   2.52925   2.53297
 Alpha virt. eigenvalues --    2.54910   2.56115   2.56638   2.57665   2.58275
 Alpha virt. eigenvalues --    2.59414   2.60583   2.61851   2.63797   2.64021
 Alpha virt. eigenvalues --    2.65210   2.67383   2.67933   2.69963   2.70670
 Alpha virt. eigenvalues --    2.73466   2.74435   2.76284   2.77521   2.77876
 Alpha virt. eigenvalues --    2.78669   2.78827   2.79507   2.80465   2.81121
 Alpha virt. eigenvalues --    2.83090   2.84491   2.84689   2.85716   2.85816
 Alpha virt. eigenvalues --    2.86580   2.88207   2.90141   2.93490   2.95085
 Alpha virt. eigenvalues --    3.00190   3.01508   3.03642   3.09103   3.12841
 Alpha virt. eigenvalues --    3.15416   3.16990   3.21574   3.23565   3.23630
 Alpha virt. eigenvalues --    3.26083   3.27393   3.28147   3.29317   3.29465
 Alpha virt. eigenvalues --    3.32855   3.34926   3.35817   3.37931   3.39653
 Alpha virt. eigenvalues --    3.40010   3.40759   3.40939   3.41489   3.42205
 Alpha virt. eigenvalues --    3.42910   3.44196   3.48136   3.48424   3.48972
 Alpha virt. eigenvalues --    3.52975   3.56531   3.59179   3.62759   3.64854
 Alpha virt. eigenvalues --    3.66093   3.95421   4.03656   4.38459   4.39371
 Alpha virt. eigenvalues --   21.72707  21.86029  22.16591  22.17037  22.19601
 Alpha virt. eigenvalues --   22.20989  22.23338  22.26648  22.28199  22.33387
 Alpha virt. eigenvalues --   22.37507  31.99660  43.72494  43.74520
          Condensed to atoms (all electrons):
               1          2          3          4          5          6
     1  O    8.019999   0.000000  -0.000263   0.000016   0.022105   0.019660
     2  O    0.000000   8.027721   0.000072   0.000001  -0.201710   0.001063
     3  N   -0.000263   0.000072   6.074196   0.356173  -0.090208   0.380434
     4  H    0.000016   0.000001   0.356173   0.388961   0.019587  -0.033922
     5  C    0.022105  -0.201710  -0.090208   0.019587   7.160512  -0.022718
     6  C    0.019660   0.001063   0.380434  -0.033922  -0.022718   5.950475
     7  C   -0.000231  -0.019440   0.416682  -0.032956   0.143080  -0.180622
     8  C   -0.000799   0.655192   0.003236  -0.000594  -0.333432   0.036465
     9  C    0.011698   0.018956   0.012981  -0.000669  -0.410223  -0.116342
    10  H    0.006744  -0.000154  -0.001144   0.000003  -0.074928   0.009969
    11  H    0.004206  -0.000033   0.000285   0.000015  -0.029225  -0.001245
    12  C   -0.264459  -0.002435  -0.059560   0.020155   0.036221  -0.281705
    13  C    0.676281  -0.000002   0.000343   0.000502   0.068456   0.048046
    14  C   -0.000007   0.001456  -0.040121  -0.013481  -0.098482   0.017594
    15  H   -0.000000   0.004049   0.007688   0.001963   0.018123   0.005797
    16  H   -0.000000  -0.002438  -0.000830   0.000841   0.004042  -0.001001
    17  H    0.000000  -0.001559  -0.002377   0.000740   0.002661  -0.001107
    18  C    0.000635  -0.102689  -0.000610   0.000010  -0.288029  -0.000764
    19  H    0.000000   0.010099   0.000008  -0.000001   0.029024  -0.000013
    20  H   -0.000038   0.002345   0.000058   0.000001   0.017524  -0.000334
    21  H   -0.000084   0.002125   0.000022   0.000000   0.009668  -0.000005
    22  C   -0.112772   0.000000   0.000035   0.000120   0.003219  -0.011935
    23  H    0.001995   0.000000   0.000140  -0.000040  -0.000267  -0.001949
    24  H    0.002991  -0.000000   0.000036  -0.000023  -0.000321  -0.005765
    25  H    0.010816  -0.000000   0.000010  -0.000002  -0.000064  -0.001862
    26  C    0.000333   0.000007  -0.037159  -0.014288  -0.000926   0.259535
    27  H   -0.000104   0.000000  -0.001301   0.000927   0.000385  -0.041384
    28  H   -0.000100  -0.000000  -0.002268   0.000429  -0.000006  -0.067322
    29  H    0.000010   0.000000   0.006848   0.002936  -0.000287  -0.047373
               7          8          9         10         11         12
     1  O   -0.000231  -0.000799   0.011698   0.006744   0.004206  -0.264459
     2  O   -0.019440   0.655192   0.018956  -0.000154  -0.000033  -0.002435
     3  N    0.416682   0.003236   0.012981  -0.001144   0.000285  -0.059560
     4  H   -0.032956  -0.000594  -0.000669   0.000003   0.000015   0.020155
     5  C    0.143080  -0.333432  -0.410223  -0.074928  -0.029225   0.036221
     6  C   -0.180622   0.036465  -0.116342   0.009969  -0.001245  -0.281705
     7  C    5.851463  -0.240962  -0.185517   0.007912  -0.003263   0.012353
     8  C   -0.240962   5.526184   0.156542   0.001282  -0.000784  -0.045171
     9  C   -0.185517   0.156542   6.001540   0.470773   0.379469   0.074527
    10  H    0.007912   0.001282   0.470773   0.472632  -0.026568  -0.057926
    11  H   -0.003263  -0.000784   0.379469  -0.026568   0.479232   0.002438
    12  C    0.012353  -0.045171   0.074527  -0.057926   0.002438   7.381070
    13  C    0.022685  -0.009131  -0.161264  -0.000979  -0.000260  -0.447822
    14  C    0.297593  -0.026554   0.009476   0.000274  -0.000228  -0.000868
    15  H   -0.078778   0.006574  -0.000014   0.000010   0.000016  -0.001201
    16  H   -0.032527  -0.006867  -0.000278  -0.000044   0.000087   0.000184
    17  H   -0.035358  -0.005133   0.000787   0.000058  -0.000043   0.000236
    18  C    0.002624   0.354163  -0.011821  -0.000933  -0.003721   0.001747
    19  H    0.000339  -0.049361  -0.001661   0.000111  -0.000060  -0.000060
    20  H   -0.000330  -0.039516  -0.000150  -0.001581   0.000571   0.003379
    21  H    0.002175  -0.036006  -0.003888   0.000203  -0.000438  -0.000390
    22  C   -0.000722  -0.000017   0.013823   0.000362   0.001258  -0.286050
    23  H    0.000021   0.000004  -0.001417  -0.000104   0.000051   0.011022
    24  H    0.000036   0.000004   0.000047   0.000057  -0.000118   0.030121
    25  H    0.000008   0.000000  -0.000067  -0.000075  -0.000038   0.027597
    26  C    0.012865   0.000592   0.016823   0.000116  -0.000451  -0.128510
    27  H   -0.000901  -0.000012  -0.000345  -0.000003  -0.000008   0.007770
    28  H   -0.000417  -0.000007   0.000179  -0.000000   0.000054   0.001159
    29  H    0.003833   0.000019  -0.000787   0.000009   0.000002   0.019705
              13         14         15         16         17         18
     1  O    0.676281  -0.000007  -0.000000  -0.000000   0.000000   0.000635
     2  O   -0.000002   0.001456   0.004049  -0.002438  -0.001559  -0.102689
     3  N    0.000343  -0.040121   0.007688  -0.000830  -0.002377  -0.000610
     4  H    0.000502  -0.013481   0.001963   0.000841   0.000740   0.000010
     5  C    0.068456  -0.098482   0.018123   0.004042   0.002661  -0.288029
     6  C    0.048046   0.017594   0.005797  -0.001001  -0.001107  -0.000764
     7  C    0.022685   0.297593  -0.078778  -0.032527  -0.035358   0.002624
     8  C   -0.009131  -0.026554   0.006574  -0.006867  -0.005133   0.354163
     9  C   -0.161264   0.009476  -0.000014  -0.000278   0.000787  -0.011821
    10  H   -0.000979   0.000274   0.000010  -0.000044   0.000058  -0.000933
    11  H   -0.000260  -0.000228   0.000016   0.000087  -0.000043  -0.003721
    12  C   -0.447822  -0.000868  -0.001201   0.000184   0.000236   0.001747
    13  C    5.563497  -0.000084  -0.000030   0.000000  -0.000009   0.001438
    14  C   -0.000084   5.003317   0.390443   0.417574   0.416227   0.002493
    15  H   -0.000030   0.390443   0.567636  -0.024277  -0.023131   0.000267
    16  H    0.000000   0.417574  -0.024277   0.520707  -0.028665  -0.000176
    17  H   -0.000009   0.416227  -0.023131  -0.028665   0.524159  -0.000263
    18  C    0.001438   0.002493   0.000267  -0.000176  -0.000263   5.276109
    19  H   -0.000001   0.000055  -0.000006  -0.000002  -0.000007   0.380475
    20  H    0.000078  -0.000128  -0.000012  -0.000053   0.000027   0.383414
    21  H    0.000043  -0.000182  -0.000009   0.000034  -0.000043   0.393397
    22  C    0.330096  -0.000006   0.000002  -0.000000  -0.000000   0.000042
    23  H   -0.025523  -0.000000   0.000000   0.000000  -0.000000  -0.000002
    24  H   -0.068641   0.000002   0.000000  -0.000000   0.000000  -0.000001
    25  H   -0.043922   0.000000   0.000000  -0.000000  -0.000000  -0.000000
    26  C   -0.040301  -0.000264   0.000056   0.000035  -0.000066  -0.000008
    27  H   -0.007807  -0.000065  -0.000004   0.000004  -0.000010   0.000000
    28  H    0.004591  -0.000000  -0.000004  -0.000007   0.000007   0.000000
    29  H    0.000424   0.000139   0.000133  -0.000008  -0.000004  -0.000000
              19         20         21         22         23         24
     1  O    0.000000  -0.000038  -0.000084  -0.112772   0.001995   0.002991
     2  O    0.010099   0.002345   0.002125   0.000000   0.000000  -0.000000
     3  N    0.000008   0.000058   0.000022   0.000035   0.000140   0.000036
     4  H   -0.000001   0.000001   0.000000   0.000120  -0.000040  -0.000023
     5  C    0.029024   0.017524   0.009668   0.003219  -0.000267  -0.000321
     6  C   -0.000013  -0.000334  -0.000005  -0.011935  -0.001949  -0.005765
     7  C    0.000339  -0.000330   0.002175  -0.000722   0.000021   0.000036
     8  C   -0.049361  -0.039516  -0.036006  -0.000017   0.000004   0.000004
     9  C   -0.001661  -0.000150  -0.003888   0.013823  -0.001417   0.000047
    10  H    0.000111  -0.001581   0.000203   0.000362  -0.000104   0.000057
    11  H   -0.000060   0.000571  -0.000438   0.001258   0.000051  -0.000118
    12  C   -0.000060   0.003379  -0.000390  -0.286050   0.011022   0.030121
    13  C   -0.000001   0.000078   0.000043   0.330096  -0.025523  -0.068641
    14  C    0.000055  -0.000128  -0.000182  -0.000006  -0.000000   0.000002
    15  H   -0.000006  -0.000012  -0.000009   0.000002   0.000000   0.000000
    16  H   -0.000002  -0.000053   0.000034  -0.000000   0.000000  -0.000000
    17  H   -0.000007   0.000027  -0.000043  -0.000000  -0.000000   0.000000
    18  C    0.380475   0.383414   0.393397   0.000042  -0.000002  -0.000001
    19  H    0.504298  -0.013903  -0.010979  -0.000000  -0.000000   0.000000
    20  H   -0.013903   0.537292  -0.030248   0.000004  -0.000000  -0.000000
    21  H   -0.010979  -0.030248   0.526730  -0.000005   0.000000   0.000000
    22  C   -0.000000   0.000004  -0.000005   5.363134   0.364684   0.420387
    23  H   -0.000000  -0.000000   0.000000   0.364684   0.542977  -0.030434
    24  H    0.000000  -0.000000   0.000000   0.420387  -0.030434   0.516163
    25  H    0.000000   0.000000  -0.000000   0.376223  -0.013661  -0.011054
    26  C    0.000000  -0.000007   0.000002  -0.030640   0.017706  -0.011173
    27  H   -0.000000  -0.000000   0.000000   0.010680  -0.004834  -0.002694
    28  H    0.000000   0.000000  -0.000000  -0.012108  -0.003760   0.001263
    29  H   -0.000000  -0.000000  -0.000000   0.001425   0.000614   0.000154
              25         26         27         28         29
     1  O    0.010816   0.000333  -0.000104  -0.000100   0.000010
     2  O   -0.000000   0.000007   0.000000  -0.000000   0.000000
     3  N    0.000010  -0.037159  -0.001301  -0.002268   0.006848
     4  H   -0.000002  -0.014288   0.000927   0.000429   0.002936
     5  C   -0.000064  -0.000926   0.000385  -0.000006  -0.000287
     6  C   -0.001862   0.259535  -0.041384  -0.067322  -0.047373
     7  C    0.000008   0.012865  -0.000901  -0.000417   0.003833
     8  C    0.000000   0.000592  -0.000012  -0.000007   0.000019
     9  C   -0.000067   0.016823  -0.000345   0.000179  -0.000787
    10  H   -0.000075   0.000116  -0.000003  -0.000000   0.000009
    11  H   -0.000038  -0.000451  -0.000008   0.000054   0.000002
    12  C    0.027597  -0.128510   0.007770   0.001159   0.019705
    13  C   -0.043922  -0.040301  -0.007807   0.004591   0.000424
    14  C    0.000000  -0.000264  -0.000065  -0.000000   0.000139
    15  H    0.000000   0.000056  -0.000004  -0.000004   0.000133
    16  H   -0.000000   0.000035   0.000004  -0.000007  -0.000008
    17  H   -0.000000  -0.000066  -0.000010   0.000007  -0.000004
    18  C   -0.000000  -0.000008   0.000000   0.000000  -0.000000
    19  H    0.000000   0.000000  -0.000000   0.000000  -0.000000
    20  H    0.000000  -0.000007  -0.000000   0.000000  -0.000000
    21  H   -0.000000   0.000002   0.000000  -0.000000  -0.000000
    22  C    0.376223  -0.030640   0.010680  -0.012108   0.001425
    23  H   -0.013661   0.017706  -0.004834  -0.003760   0.000614
    24  H   -0.011054  -0.011173  -0.002694   0.001263   0.000154
    25  H    0.499589   0.001836   0.000422   0.000047  -0.000033
    26  C    0.001836   5.171708   0.405065   0.444799   0.382493
    27  H    0.000422   0.405065   0.533959  -0.039261  -0.018196
    28  H    0.000047   0.444799  -0.039261   0.512358  -0.013392
    29  H   -0.000033   0.382493  -0.018196  -0.013392   0.516022
 Mulliken charges:
               1
     1  O   -0.398631
     2  O   -0.392625
     3  N   -0.023406
     4  H    0.302594
     5  C    0.016218
     6  C    0.088333
     7  C    0.038357
     8  C    0.054091
     9  C   -0.273178
    10  H    0.193922
    11  H    0.198798
    12  C   -0.053528
    13  C    0.089299
    14  C   -0.376174
    15  H    0.124711
    16  H    0.153666
    17  H    0.152872
    18  C   -0.387799
    19  H    0.151644
    20  H    0.141606
    21  H    0.147876
    22  C   -0.431239
    23  H    0.142778
    24  H    0.158964
    25  H    0.154231
    26  C   -0.450178
    27  H    0.157714
    28  H    0.173768
    29  H    0.145313
 Sum of Mulliken charges =  -0.00000
 Mulliken charges with hydrogens summed into heavy atoms:
               1
     1  O   -0.398631
     2  O   -0.392625
     3  N    0.279189
     5  C    0.016218
     6  C    0.088333
     7  C    0.038357
     8  C    0.054091
     9  C    0.119542
    12  C   -0.053528
    13  C    0.089299
    14  C    0.055076
    18  C    0.053327
    22  C    0.024735
    26  C    0.026618
 Electronic spatial extent (au):  <R**2>=           3228.5058
 Charge=              0.0000 electrons
 Dipole moment (field-independent basis, Debye):
    X=              4.0403    Y=              7.7308    Z=             -0.2613  Tot=              8.7268
 Quadrupole moment (field-independent basis, Debye-Ang):
   XX=           -104.0955   YY=            -77.8415   ZZ=            -83.6109
   XY=             13.1685   XZ=              1.8635   YZ=             -0.4670
 Traceless Quadrupole moment (field-independent basis, Debye-Ang):
   XX=            -15.5795   YY=             10.6744   ZZ=              4.9051
   XY=             13.1685   XZ=              1.8635   YZ=             -0.4670
 Octapole moment (field-independent basis, Debye-Ang**2):
  XXX=            116.2236  YYY=             71.0990  ZZZ=              0.0857  XYY=            -35.4750
  XXY=             31.9154  XXZ=             -3.4841  XZZ=              0.7833  YZZ=             -2.4187
  YYZ=              0.3871  XYZ=             -1.7267
 Hexadecapole moment (field-independent basis, Debye-Ang**3):
 XXXX=          -3185.4006 YYYY=          -1258.4776 ZZZZ=           -121.3998 XXXY=             39.6728
 XXXZ=             23.4420 YYYX=             89.1397 YYYZ=             -6.2833 ZZZX=             -0.8838
 ZZZY=              1.9353 XXYY=           -715.6879 XXZZ=           -484.4525 YYZZ=           -236.8290
 XXYZ=             -2.2905 YYXZ=              1.7352 ZZXY=              0.6544
 N-N= 8.983405624255D+02 E-N=-3.272348397694D+03  KE= 6.305381988646D+02
 No NMR shielding tensors so no spin-rotation constants.
 Leave Link  601 at Mon Mar  9 15:45:17 2026, MaxMem=  2147483648 cpu:               3.9 elap:               0.1
 (Enter /data/home/wyx/g16/l9999.exe)
 Electronic transition elements 
                 1             2             3             4             5 
      1  -0.633295D+03 -0.633272D+03 -0.633265D+03 -0.633228D+03 -0.633211D+03
      2   0.147233D+01  0.435025D-01  0.202681D-01  0.330900D+00 -0.359178D+00
      3   0.382475D+00  0.131370D-01 -0.181790D-01 -0.133666D+01  0.134790D+01
      4   0.197754D+00 -0.304500D-01  0.342366D-01  0.108023D+00 -0.994614D-01
      5  -0.179006D+00 -0.574525D-02 -0.354638D-02 -0.548053D-01  0.734063D-01
      6  -0.504437D-01 -0.161511D-02  0.239444D-02  0.247126D+00 -0.278399D+00
      7  -0.238624D-01  0.154667D-02 -0.227204D-02 -0.182498D-01  0.207506D-01
      8  -0.208107D+00 -0.865167D+00 -0.463644D+00 -0.114785D-01 -0.171890D-01
      9   0.326609D-01 -0.110834D+00  0.895302D+00 -0.573403D-02 -0.212615D-02
     10   0.150918D+01 -0.109262D-01 -0.128607D-01  0.164508D+00 -0.234231D+00
     11  -0.168976D+00 -0.147161D-01  0.810379D-02 -0.115652D+01  0.570292D+00
     12   0.265395D+00  0.961139D-02  0.110657D-01  0.103077D+00 -0.267267D+00
     13  -0.168730D-01  0.501175D-02 -0.295146D-01  0.782322D-02 -0.251583D-01
     14   0.483074D+00  0.233126D-01  0.131059D-01 -0.407430D+00  0.170168D+00
     15  -0.536914D-01  0.124121D-01 -0.687597D-01 -0.143273D+00  0.769184D-01
     16   0.556524D-01 -0.730187D-01 -0.325474D-01 -0.676768D-01  0.230660D-01
                 6 
      1  -0.633190D+03
      2  -0.256971D-01
      3   0.927417D-01
      4   0.131568D-01
      5   0.794926D-02
      6  -0.213830D-01
      7  -0.211321D-01
      8   0.107213D+00
      9   0.389424D-01
     10   0.155104D-02
     11  -0.377484D-01
     12  -0.641653D-01
     13   0.401253D-01
     14  -0.821635D-02
     15  -0.560954D-01
     16   0.164608D+00
 1\1\GINC-CN013\SP\RwB97XD TD-FC\TZVP\C11H15N1O2\WYX\09-Mar-2026\0\\#p 
 wB97XD/TZVP TD=(NStates=6,Root=1) SCRF=(Solvent=Water,CorrectedLR) Geo
 m=Check Guess=Read\\Title Card Required\\0,1\O,0,1.3372756161,9.809298
 9609,0.7661321482\O,0,-4.9233259977,9.7679255113,0.0431445168\N,0,-2.1
 040755362,12.9162877363,0.1980261332\H,0,-2.4084629011,13.8725520377,0
 .1306727416\C,0,-2.7159211532,10.6381722683,0.2017851143\C,0,-0.765226
 1157,12.6950202206,0.4311125452\C,0,-3.0723124561,11.9426960298,0.1141
 777396\C,0,-3.7159855719,9.5673631172,0.1261078329\C,0,-1.2595918508,1
 0.2506845235,0.3513146604\H,0,-1.1345882645,9.5751684605,1.2026427684\
 H,0,-0.9314418384,9.6644256787,-0.5146995631\C,0,-0.3125739242,11.4210
 586217,0.5322783662\C,0,1.0742351414,11.0087460145,0.7767739688\C,0,-4
 .4568966164,12.4843259148,-0.069917991\H,0,-4.4350391563,13.5683922715
 ,-0.184944969\H,0,-4.9317660981,12.0433281625,-0.9440023472\H,0,-5.082
 7863105,12.2339098498,0.7858313548\C,0,-3.2038385089,8.1444853181,0.15
 5437952\H,0,-4.0424329504,7.4592389531,0.053553269\H,0,-2.4882678891,7
 .969278454,-0.651031075\H,0,-2.6821222057,7.9411246423,1.0933649229\C,
 0,2.1962980476,11.9804264579,1.0606544836\H,0,2.3601750026,12.66394524
 82,0.2280021031\H,0,1.9891711226,12.5786479594,1.9487760074\H,0,3.1042
 094051,11.4046269741,1.2271678947\C,0,0.020148415,13.9729095175,0.5279
 049488\H,0,0.523907421,14.0618409238,1.4877328585\H,0,0.7706474344,14.
 0363409432,-0.2584439209\H,0,-0.6385832906,14.8336136787,0.4224455359\
 \Version=ES64L-G16RevA.03\State=1-A\HF=-633.4220069\RMSD=1.233e-09\Dip
 ole=0.499259,3.3955323,-0.0962899\Quadrupole=-15.5654148,11.9275354,3.
 6378793,1.4550762,-1.4396283,0.1917277\PG=C01 [X(C11H15N1O2)]\\@


 LET US PLACE AT THE END OF EVERY CHAPTER.....THE
 TWO LETTERS USED BY THE ROMAN JUDGES WHEN THEY DID
 NOT UNDERSTAND A PLEADING.
 N. L. -NON LIQUET- IT IS NOT CLEAR.
                                              -- VOLTAIRE
 Job cpu time:       0 days  4 hours 56 minutes 23.3 seconds.
 Elapsed time:       0 days  0 hours  9 minutes 19.2 seconds.
 File lengths (MBytes):  RWF=    821 Int=      0 D2E=      0 Chk=     67 Scr=      1
 Normal termination of Gaussian 16 at Mon Mar  9 15:45:20 2026.
