 Entering Gaussian System, Link 0=g16
 Input=DDL-S0-opt-freq.gjf
 Output=DDL-S0-opt-freq.log
 Initial command:
 /data/home/wyx/g16/l1.exe "/scr/tmp/wyx/13950/Gau-2942481.inp" -scrdir="/scr/tmp/wyx/13950/"
 Entering Link 1 = /data/home/wyx/g16/l1.exe PID=   2942482.
  
 Copyright (c) 1988,1990,1992,1993,1995,1998,2003,2009,2016,
            Gaussian, Inc.  All Rights Reserved.
  
 This is part of the Gaussian(R) 16 program.  It is based on
 the Gaussian(R) 09 system (copyright 2009, Gaussian, Inc.),
 the Gaussian(R) 03 system (copyright 2003, Gaussian, Inc.),
 the Gaussian(R) 98 system (copyright 1998, Gaussian, Inc.),
 the Gaussian(R) 94 system (copyright 1995, Gaussian, Inc.),
 the Gaussian 92(TM) system (copyright 1992, Gaussian, Inc.),
 the Gaussian 90(TM) system (copyright 1990, Gaussian, Inc.),
 the Gaussian 88(TM) system (copyright 1988, Gaussian, Inc.),
 the Gaussian 86(TM) system (copyright 1986, Carnegie Mellon
 University), and the Gaussian 82(TM) system (copyright 1983,
 Carnegie Mellon University). Gaussian is a federally registered
 trademark of Gaussian, Inc.
  
 This software contains proprietary and confidential information,
 including trade secrets, belonging to Gaussian, Inc.
  
 This software is provided under written license and may be
 used, copied, transmitted, or stored only in accord with that
 written license.
  
 The following legend is applicable only to US Government
 contracts under FAR:
  
                    RESTRICTED RIGHTS LEGEND
  
 Use, reproduction and disclosure by the US Government is
 subject to restrictions as set forth in subparagraphs (a)
 and (c) of the Commercial Computer Software - Restricted
 Rights clause in FAR 52.227-19.
  
 Gaussian, Inc.
 340 Quinnipiac St., Bldg. 40, Wallingford CT 06492
  
  
 ---------------------------------------------------------------
 Warning -- This program may not be used in any manner that
 competes with the business of Gaussian, Inc. or will provide
 assistance to any competitor of Gaussian, Inc.  The licensee
 of this program is prohibited from giving any competitor of
 Gaussian, Inc. access to this program.  By using this program,
 the user acknowledges that Gaussian, Inc. is engaged in the
 business of creating and licensing software in the field of
 computational chemistry and represents and warrants to the
 licensee that it is not a competitor of Gaussian, Inc. and that
 it will not use this program in any manner prohibited above.
 ---------------------------------------------------------------
  

 Cite this work as:
 Gaussian 16, Revision A.03,
 M. J. Frisch, G. W. Trucks, H. B. Schlegel, G. E. Scuseria, 
 M. A. Robb, J. R. Cheeseman, G. Scalmani, V. Barone, 
 G. A. Petersson, H. Nakatsuji, X. Li, M. Caricato, A. V. Marenich, 
 J. Bloino, B. G. Janesko, R. Gomperts, B. Mennucci, H. P. Hratchian, 
 J. V. Ortiz, A. F. Izmaylov, J. L. Sonnenberg, D. Williams-Young, 
 F. Ding, F. Lipparini, F. Egidi, J. Goings, B. Peng, A. Petrone, 
 T. Henderson, D. Ranasinghe, V. G. Zakrzewski, J. Gao, N. Rega, 
 G. Zheng, W. Liang, M. Hada, M. Ehara, K. Toyota, R. Fukuda, 
 J. Hasegawa, M. Ishida, T. Nakajima, Y. Honda, O. Kitao, H. Nakai, 
 T. Vreven, K. Throssell, J. A. Montgomery, Jr., J. E. Peralta, 
 F. Ogliaro, M. J. Bearpark, J. J. Heyd, E. N. Brothers, K. N. Kudin, 
 V. N. Staroverov, T. A. Keith, R. Kobayashi, J. Normand, 
 K. Raghavachari, A. P. Rendell, J. C. Burant, S. S. Iyengar, 
 J. Tomasi, M. Cossi, J. M. Millam, M. Klene, C. Adamo, R. Cammi, 
 J. W. Ochterski, R. L. Martin, K. Morokuma, O. Farkas, 
 J. B. Foresman, and D. J. Fox, Gaussian, Inc., Wallingford CT, 2016.
 
 ******************************************
 Gaussian 16:  ES64L-G16RevA.03 25-Dec-2016
                 9-Mar-2026 
 ******************************************
 %nprocshared=32
 Will use up to   32 processors via shared memory.
 %mem=16GB
 %chk=DDL-S0-opt-freq.chk
 ------------------------------------------
 #p wB97XD/TZVP Opt Freq SCRF=Solvent=Water
 ------------------------------------------
 1/18=20,19=15,26=3,38=1/1,3;
 2/9=110,12=2,17=6,18=5,40=1/2;
 3/5=19,7=101,11=2,25=1,30=1,70=2201,71=1,72=1,74=-58/1,2,3;
 4//1;
 5/5=2,38=5,53=1/2;
 6/7=2,8=2,9=2,10=2,28=1/1;
 7//1,2,3,16;
 1/18=20,19=15,26=3/3(2);
 2/9=110/2;
 99//99;
 2/9=110/2;
 3/5=19,7=101,11=2,25=1,30=1,70=2205,71=1,72=1,74=-58/1,2,3;
 4/5=5,16=3,69=1/1;
 5/5=2,38=5,53=1/2;
 7//1,2,3,16;
 1/18=20,19=15,26=3/3(-5);
 2/9=110/2;
 6/7=2,8=2,9=2,10=2,19=2,28=1/1;
 99/9=1/99;
 Leave Link    1 at Mon Mar  9 15:12:57 2026, MaxMem=  2147483648 cpu:               0.7 elap:               0.0
 (Enter /data/home/wyx/g16/l101.exe)
 -------------------
 Title Card Required
 -------------------
 Symbolic Z-matrix:
 Charge =  0 Multiplicity = 1
 O                     1.30034   9.82448   0.889 
 O                    -4.90066   9.75248  -0.049 
 N                    -2.11966   12.93348   0.232 
 H                    -2.38066   13.74948   0.154 
 C                    -2.70566   10.63348   0.189 
 C                    -0.78166   12.71248   0.467 
 C                    -3.07066   11.94248   0.113 
 C                    -3.68666   9.55548   0.088 
 C                    -1.25366   10.25448   0.396 
 H                    -1.18866   9.69448   1.185 
 H                    -0.96066   9.72648  -0.363 
 C                    -0.31566   11.43348   0.559 
 C                     1.06334   11.04048   0.806 
 C                    -4.45566   12.48248  -0.092 
 H                    -4.41166   13.42948  -0.242 
 H                    -4.85666   12.05548  -0.853 
 H                    -4.98666   12.30648   0.689 
 C                    -3.18166   8.13648   0.152 
 H                    -3.91066   7.52948   0.003 
 H                    -2.51166   8.00448  -0.522 
 H                    -2.80066   7.97148   1.018 
 C                     2.22234   11.99248   0.967 
 H                     2.28634   12.55248   0.19 
 H                     2.08334   12.53848   1.744 
 H                     3.03634   11.49248   1.068 
 C                     0.01334   13.98748   0.593 
 H                     0.44234   14.01348   1.452 
 H                     0.67834   14.01948  -0.098 
 H                    -0.57566   14.74048   0.507 
 
 ITRead=  0  0  0  0  0  0  0  0  0  0  0  0  0  0  0  0  0  0  0  0
 ITRead=  0  0  0  0  0  0  0  0  0
 MicOpt= -1 -1 -1 -1 -1 -1 -1 -1 -1 -1 -1 -1 -1 -1 -1 -1 -1 -1 -1 -1
 MicOpt= -1 -1 -1 -1 -1 -1 -1 -1 -1
 NAtoms=     29 NQM=       29 NQMF=       0 NMMI=      0 NMMIF=      0
                NMic=       0 NMicF=      0.
                    Isotopes and Nuclear Properties:
 (Nuclear quadrupole moments (NQMom) in fm**2, nuclear magnetic moments (NMagM)
  in nuclear magnetons)

  Atom         1           2           3           4           5           6           7           8           9          10
 IAtWgt=          16          16          14           1          12          12          12          12          12           1
 AtmWgt=  15.9949146  15.9949146  14.0030740   1.0078250  12.0000000  12.0000000  12.0000000  12.0000000  12.0000000   1.0078250
 NucSpn=           0           0           2           1           0           0           0           0           0           1
 AtZEff=  -0.0000000  -0.0000000  -0.0000000  -0.0000000  -0.0000000  -0.0000000  -0.0000000  -0.0000000  -0.0000000  -0.0000000
 NQMom=    0.0000000   0.0000000   2.0440000   0.0000000   0.0000000   0.0000000   0.0000000   0.0000000   0.0000000   0.0000000
 NMagM=    0.0000000   0.0000000   0.4037610   2.7928460   0.0000000   0.0000000   0.0000000   0.0000000   0.0000000   2.7928460
 AtZNuc=   8.0000000   8.0000000   7.0000000   1.0000000   6.0000000   6.0000000   6.0000000   6.0000000   6.0000000   1.0000000

  Atom        11          12          13          14          15          16          17          18          19          20
 IAtWgt=           1          12          12          12           1           1           1          12           1           1
 AtmWgt=   1.0078250  12.0000000  12.0000000  12.0000000   1.0078250   1.0078250   1.0078250  12.0000000   1.0078250   1.0078250
 NucSpn=           1           0           0           0           1           1           1           0           1           1
 AtZEff=  -0.0000000  -0.0000000  -0.0000000  -0.0000000  -0.0000000  -0.0000000  -0.0000000  -0.0000000  -0.0000000  -0.0000000
 NQMom=    0.0000000   0.0000000   0.0000000   0.0000000   0.0000000   0.0000000   0.0000000   0.0000000   0.0000000   0.0000000
 NMagM=    2.7928460   0.0000000   0.0000000   0.0000000   2.7928460   2.7928460   2.7928460   0.0000000   2.7928460   2.7928460
 AtZNuc=   1.0000000   6.0000000   6.0000000   6.0000000   1.0000000   1.0000000   1.0000000   6.0000000   1.0000000   1.0000000

  Atom        21          22          23          24          25          26          27          28          29
 IAtWgt=           1          12           1           1           1          12           1           1           1
 AtmWgt=   1.0078250  12.0000000   1.0078250   1.0078250   1.0078250  12.0000000   1.0078250   1.0078250   1.0078250
 NucSpn=           1           0           1           1           1           0           1           1           1
 AtZEff=  -0.0000000  -0.0000000  -0.0000000  -0.0000000  -0.0000000  -0.0000000  -0.0000000  -0.0000000  -0.0000000
 NQMom=    0.0000000   0.0000000   0.0000000   0.0000000   0.0000000   0.0000000   0.0000000   0.0000000   0.0000000
 NMagM=    2.7928460   0.0000000   2.7928460   2.7928460   2.7928460   0.0000000   2.7928460   2.7928460   2.7928460
 AtZNuc=   1.0000000   6.0000000   1.0000000   1.0000000   1.0000000   6.0000000   1.0000000   1.0000000   1.0000000
 Leave Link  101 at Mon Mar  9 15:12:57 2026, MaxMem=  2147483648 cpu:               6.3 elap:               0.2
 (Enter /data/home/wyx/g16/l103.exe)

 GradGradGradGradGradGradGradGradGradGradGradGradGradGradGradGradGradGrad
 Berny optimization.
 Initialization pass.
                           ----------------------------
                           !    Initial Parameters    !
                           ! (Angstroms and Degrees)  !
 --------------------------                            --------------------------
 ! Name  Definition              Value          Derivative Info.                !
 --------------------------------------------------------------------------------
 ! R1    R(1,13)                 1.2417         estimate D2E/DX2                !
 ! R2    R(2,8)                  1.2375         estimate D2E/DX2                !
 ! R3    R(3,4)                  0.8603         estimate D2E/DX2                !
 ! R4    R(3,6)                  1.3763         estimate D2E/DX2                !
 ! R5    R(3,7)                  1.3786         estimate D2E/DX2                !
 ! R6    R(5,7)                  1.3611         estimate D2E/DX2                !
 ! R7    R(5,8)                  1.461          estimate D2E/DX2                !
 ! R8    R(5,9)                  1.5149         estimate D2E/DX2                !
 ! R9    R(6,12)                 1.3644         estimate D2E/DX2                !
 ! R10   R(6,26)                 1.5078         estimate D2E/DX2                !
 ! R11   R(7,14)                 1.5006         estimate D2E/DX2                !
 ! R12   R(8,18)                 1.5075         estimate D2E/DX2                !
 ! R13   R(9,10)                 0.9697         estimate D2E/DX2                !
 ! R14   R(9,11)                 0.9699         estimate D2E/DX2                !
 ! R15   R(9,12)                 1.5154         estimate D2E/DX2                !
 ! R16   R(12,13)                1.455          estimate D2E/DX2                !
 ! R17   R(13,22)                1.5085         estimate D2E/DX2                !
 ! R18   R(14,15)                0.9598         estimate D2E/DX2                !
 ! R19   R(14,16)                0.9603         estimate D2E/DX2                !
 ! R20   R(14,17)                0.9607         estimate D2E/DX2                !
 ! R21   R(18,19)                0.9603         estimate D2E/DX2                !
 ! R22   R(18,20)                0.9595         estimate D2E/DX2                !
 ! R23   R(18,21)                0.9604         estimate D2E/DX2                !
 ! R24   R(22,23)                0.9599         estimate D2E/DX2                !
 ! R25   R(22,24)                0.9598         estimate D2E/DX2                !
 ! R26   R(22,25)                0.9606         estimate D2E/DX2                !
 ! R27   R(26,27)                0.9605         estimate D2E/DX2                !
 ! R28   R(26,28)                0.9595         estimate D2E/DX2                !
 ! R29   R(26,29)                0.9599         estimate D2E/DX2                !
 ! A1    A(4,3,6)              117.5635         estimate D2E/DX2                !
 ! A2    A(4,3,7)              117.6924         estimate D2E/DX2                !
 ! A3    A(6,3,7)              124.744          estimate D2E/DX2                !
 ! A4    A(7,5,8)              121.7144         estimate D2E/DX2                !
 ! A5    A(7,5,9)              120.3509         estimate D2E/DX2                !
 ! A6    A(8,5,9)              117.9323         estimate D2E/DX2                !
 ! A7    A(3,6,12)             119.609          estimate D2E/DX2                !
 ! A8    A(3,6,26)             113.0201         estimate D2E/DX2                !
 ! A9    A(12,6,26)            127.3708         estimate D2E/DX2                !
 ! A10   A(3,7,5)              120.1007         estimate D2E/DX2                !
 ! A11   A(3,7,14)             112.9411         estimate D2E/DX2                !
 ! A12   A(5,7,14)             126.9579         estimate D2E/DX2                !
 ! A13   A(2,8,5)              123.2909         estimate D2E/DX2                !
 ! A14   A(2,8,18)             118.8925         estimate D2E/DX2                !
 ! A15   A(5,8,18)             117.8164         estimate D2E/DX2                !
 ! A16   A(5,9,10)             108.6576         estimate D2E/DX2                !
 ! A17   A(5,9,11)             108.5917         estimate D2E/DX2                !
 ! A18   A(5,9,12)             114.4149         estimate D2E/DX2                !
 ! A19   A(10,9,11)            107.5833         estimate D2E/DX2                !
 ! A20   A(10,9,12)            108.6802         estimate D2E/DX2                !
 ! A21   A(11,9,12)            108.7065         estimate D2E/DX2                !
 ! A22   A(6,12,9)             120.7085         estimate D2E/DX2                !
 ! A23   A(6,12,13)            126.0404         estimate D2E/DX2                !
 ! A24   A(9,12,13)            113.2507         estimate D2E/DX2                !
 ! A25   A(1,13,12)            117.1786         estimate D2E/DX2                !
 ! A26   A(1,13,22)            117.6631         estimate D2E/DX2                !
 ! A27   A(12,13,22)           125.1583         estimate D2E/DX2                !
 ! A28   A(7,14,15)            109.517          estimate D2E/DX2                !
 ! A29   A(7,14,16)            109.4899         estimate D2E/DX2                !
 ! A30   A(7,14,17)            109.4609         estimate D2E/DX2                !
 ! A31   A(15,14,16)           109.5117         estimate D2E/DX2                !
 ! A32   A(15,14,17)           109.4599         estimate D2E/DX2                !
 ! A33   A(16,14,17)           109.3878         estimate D2E/DX2                !
 ! A34   A(8,18,19)            109.5178         estimate D2E/DX2                !
 ! A35   A(8,18,20)            109.4868         estimate D2E/DX2                !
 ! A36   A(8,18,21)            109.4442         estimate D2E/DX2                !
 ! A37   A(19,18,20)           109.5217         estimate D2E/DX2                !
 ! A38   A(19,18,21)           109.42           estimate D2E/DX2                !
 ! A39   A(20,18,21)           109.4367         estimate D2E/DX2                !
 ! A40   A(13,22,23)           109.4516         estimate D2E/DX2                !
 ! A41   A(13,22,24)           109.5211         estimate D2E/DX2                !
 ! A42   A(13,22,25)           109.4989         estimate D2E/DX2                !
 ! A43   A(23,22,24)           109.4558         estimate D2E/DX2                !
 ! A44   A(23,22,25)           109.406          estimate D2E/DX2                !
 ! A45   A(24,22,25)           109.4938         estimate D2E/DX2                !
 ! A46   A(6,26,27)            109.4576         estimate D2E/DX2                !
 ! A47   A(6,26,28)            109.4768         estimate D2E/DX2                !
 ! A48   A(6,26,29)            109.4105         estimate D2E/DX2                !
 ! A49   A(27,26,28)           109.4864         estimate D2E/DX2                !
 ! A50   A(27,26,29)           109.4486         estimate D2E/DX2                !
 ! A51   A(28,26,29)           109.5474         estimate D2E/DX2                !
 ! D1    D(4,3,6,12)          -178.1027         estimate D2E/DX2                !
 ! D2    D(4,3,6,26)             1.8261         estimate D2E/DX2                !
 ! D3    D(7,3,6,12)             1.9102         estimate D2E/DX2                !
 ! D4    D(7,3,6,26)          -178.161          estimate D2E/DX2                !
 ! D5    D(4,3,7,5)            178.0784         estimate D2E/DX2                !
 ! D6    D(4,3,7,14)            -2.0821         estimate D2E/DX2                !
 ! D7    D(6,3,7,5)             -1.9345         estimate D2E/DX2                !
 ! D8    D(6,3,7,14)           177.905          estimate D2E/DX2                !
 ! D9    D(8,5,7,3)            179.0531         estimate D2E/DX2                !
 ! D10   D(8,5,7,14)            -0.762          estimate D2E/DX2                !
 ! D11   D(9,5,7,3)             -0.3755         estimate D2E/DX2                !
 ! D12   D(9,5,7,14)           179.8094         estimate D2E/DX2                !
 ! D13   D(7,5,8,2)             -1.2298         estimate D2E/DX2                !
 ! D14   D(7,5,8,18)           178.6216         estimate D2E/DX2                !
 ! D15   D(9,5,8,2)            178.2121         estimate D2E/DX2                !
 ! D16   D(9,5,8,18)            -1.9364         estimate D2E/DX2                !
 ! D17   D(7,5,9,10)           123.9971         estimate D2E/DX2                !
 ! D18   D(7,5,9,11)          -119.2603         estimate D2E/DX2                !
 ! D19   D(7,5,9,12)             2.361          estimate D2E/DX2                !
 ! D20   D(8,5,9,10)           -55.4528         estimate D2E/DX2                !
 ! D21   D(8,5,9,11)            61.2898         estimate D2E/DX2                !
 ! D22   D(8,5,9,12)          -177.0889         estimate D2E/DX2                !
 ! D23   D(3,6,12,9)             0.4125         estimate D2E/DX2                !
 ! D24   D(3,6,12,13)         -179.8367         estimate D2E/DX2                !
 ! D25   D(26,6,12,9)         -179.505          estimate D2E/DX2                !
 ! D26   D(26,6,12,13)           0.2457         estimate D2E/DX2                !
 ! D27   D(3,6,26,27)          121.4111         estimate D2E/DX2                !
 ! D28   D(3,6,26,28)         -118.5751         estimate D2E/DX2                !
 ! D29   D(3,6,26,29)            1.4843         estimate D2E/DX2                !
 ! D30   D(12,6,26,27)         -58.6667         estimate D2E/DX2                !
 ! D31   D(12,6,26,28)          61.347          estimate D2E/DX2                !
 ! D32   D(12,6,26,29)        -178.5935         estimate D2E/DX2                !
 ! D33   D(3,7,14,15)            8.8826         estimate D2E/DX2                !
 ! D34   D(3,7,14,16)          128.9718         estimate D2E/DX2                !
 ! D35   D(3,7,14,17)         -111.1253         estimate D2E/DX2                !
 ! D36   D(5,7,14,15)         -171.2911         estimate D2E/DX2                !
 ! D37   D(5,7,14,16)          -51.2019         estimate D2E/DX2                !
 ! D38   D(5,7,14,17)           68.701          estimate D2E/DX2                !
 ! D39   D(2,8,18,19)            4.4419         estimate D2E/DX2                !
 ! D40   D(2,8,18,20)          124.5419         estimate D2E/DX2                !
 ! D41   D(2,8,18,21)         -115.5074         estimate D2E/DX2                !
 ! D42   D(5,8,18,19)         -175.4163         estimate D2E/DX2                !
 ! D43   D(5,8,18,20)          -55.3163         estimate D2E/DX2                !
 ! D44   D(5,8,18,21)           64.6345         estimate D2E/DX2                !
 ! D45   D(5,9,12,6)            -2.3854         estimate D2E/DX2                !
 ! D46   D(5,9,12,13)          177.834          estimate D2E/DX2                !
 ! D47   D(10,9,12,6)         -124.0091         estimate D2E/DX2                !
 ! D48   D(10,9,12,13)          56.2103         estimate D2E/DX2                !
 ! D49   D(11,9,12,6)          119.1729         estimate D2E/DX2                !
 ! D50   D(11,9,12,13)         -60.6077         estimate D2E/DX2                !
 ! D51   D(6,12,13,1)          178.3653         estimate D2E/DX2                !
 ! D52   D(6,12,13,22)          -1.6951         estimate D2E/DX2                !
 ! D53   D(9,12,13,1)           -1.8679         estimate D2E/DX2                !
 ! D54   D(9,12,13,22)         178.0717         estimate D2E/DX2                !
 ! D55   D(1,13,22,23)         123.267          estimate D2E/DX2                !
 ! D56   D(1,13,22,24)        -116.7333         estimate D2E/DX2                !
 ! D57   D(1,13,22,25)           3.3419         estimate D2E/DX2                !
 ! D58   D(12,13,22,23)        -56.6723         estimate D2E/DX2                !
 ! D59   D(12,13,22,24)         63.3273         estimate D2E/DX2                !
 ! D60   D(12,13,22,25)       -176.5975         estimate D2E/DX2                !
 --------------------------------------------------------------------------------
 Trust Radius=3.00D-01 FncErr=1.00D-07 GrdErr=1.00D-06 EigMax=2.50D+02 EigMin=1.00D-04
 Number of steps in this run=    150 maximum allowed number of steps=    174.
 GradGradGradGradGradGradGradGradGradGradGradGradGradGradGradGradGradGrad

 Leave Link  103 at Mon Mar  9 15:12:57 2026, MaxMem=  2147483648 cpu:               0.2 elap:               0.0
 (Enter /data/home/wyx/g16/l202.exe)
                          Input orientation:                          
 ---------------------------------------------------------------------
 Center     Atomic      Atomic             Coordinates (Angstroms)
 Number     Number       Type             X           Y           Z
 ---------------------------------------------------------------------
      1          8           0        1.300339    9.824477    0.889000
      2          8           0       -4.900661    9.752477   -0.049000
      3          7           0       -2.119661   12.933477    0.232000
      4          1           0       -2.380661   13.749477    0.154000
      5          6           0       -2.705661   10.633477    0.189000
      6          6           0       -0.781661   12.712477    0.467000
      7          6           0       -3.070661   11.942477    0.113000
      8          6           0       -3.686661    9.555477    0.088000
      9          6           0       -1.253661   10.254477    0.396000
     10          1           0       -1.188661    9.694477    1.185000
     11          1           0       -0.960661    9.726477   -0.363000
     12          6           0       -0.315661   11.433477    0.559000
     13          6           0        1.063339   11.040477    0.806000
     14          6           0       -4.455661   12.482477   -0.092000
     15          1           0       -4.411661   13.429477   -0.242000
     16          1           0       -4.856661   12.055477   -0.853000
     17          1           0       -4.986661   12.306477    0.689000
     18          6           0       -3.181661    8.136477    0.152000
     19          1           0       -3.910661    7.529477    0.003000
     20          1           0       -2.511661    8.004477   -0.522000
     21          1           0       -2.800661    7.971477    1.018000
     22          6           0        2.222339   11.992477    0.967000
     23          1           0        2.286339   12.552477    0.190000
     24          1           0        2.083339   12.538477    1.744000
     25          1           0        3.036339   11.492477    1.068000
     26          6           0        0.013339   13.987477    0.593000
     27          1           0        0.442339   14.013477    1.452000
     28          1           0        0.678339   14.019477   -0.098000
     29          1           0       -0.575661   14.740477    0.507000
 ---------------------------------------------------------------------
                    Distance matrix (angstroms):
                    1          2          3          4          5
     1  O    0.000000
     2  O    6.271956   0.000000
     3  N    4.668397   4.234582   0.000000
     4  H    5.430986   4.729442   0.860268   0.000000
     5  C    4.146386   2.377147   2.373867   3.133098   0.000000
     6  C    3.585157   5.098433   1.376339   1.931357   2.846278
     7  C    4.918713   2.858539   1.378638   1.934691   1.361059
     8  C    5.058076   1.237487   3.726541   4.393134   1.461043
     9  C    2.636449   3.708185   2.820265   3.680179   1.514858
    10  H    2.509908   3.912169   3.502298   4.350500   2.043288
    11  H    2.586354   3.952578   3.461525   4.297466   2.042640
    12  C    2.304178   4.921143   2.368828   3.129234   2.547352
    13  C    1.241658   6.161109   3.747588   4.430002   3.840794
    14  C    6.415517   2.766365   2.401098   2.443651   2.561301
    15  H    6.848513   3.714391   2.392479   2.093843   3.303606
    16  H    6.776472   2.439705   3.072341   3.164532   2.781124
    17  H    6.762152   2.659879   2.970129   3.026501   2.872610
    18  C    4.845703   2.367872   4.913802   5.669865   2.542234
    19  H    5.762512   2.434036   5.697661   6.407191   3.334882
    20  H    4.453613   2.997758   5.001722   5.786118   2.730348
    21  H    4.502050   2.953041   5.069813   5.857318   2.789715
    22  C    2.357200   7.535714   4.503184   4.993559   5.170817
    23  H    2.983753   7.716870   4.422642   4.818194   5.348142
    24  H    2.951256   7.730000   4.484125   4.891004   5.383453
    25  H    2.414117   8.201906   5.418460   5.939136   5.872060
    26  C    4.367443   6.518802   2.406434   2.445527   4.336530
    27  H    4.312871   6.996912   3.036222   3.118305   4.788473
    28  H    4.354202   7.023883   3.019454   3.081215   4.795709
    29  H    5.275638   6.625323   2.392658   2.089190   4.637399
                    6          7          8          9         10
     6  C    0.000000
     7  C    2.440848   0.000000
     8  C    4.306892   2.465330   0.000000
     9  C    2.503915   2.496181   2.550089   0.000000
    10  H    3.128817   3.121636   2.731801   0.969714   0.000000
    11  H    3.104374   3.096665   2.768342   0.969904   1.565028
    12  C    1.364354   2.836904   3.887463   1.515406   2.044046
    13  C    2.512873   4.287634   5.028245   2.480803   2.650823
    14  C    3.723393   1.500617   3.031681   3.931276   4.480732
    15  H    3.767449   2.033587   3.955048   4.523343   5.135590
    16  H    4.333552   2.033647   2.916227   4.217252   4.814768
    17  H    4.230384   2.033551   3.101484   4.269876   4.636094
    18  C    5.176775   3.807818   1.507542   2.874482   2.732490
    19  H    6.072020   4.493581   2.040117   3.826189   3.673368
    20  H    5.112366   4.027847   2.039197   2.736382   2.742313
    21  H    5.182378   4.081760   2.039351   2.827045   2.365409
    22  C    3.129284   5.361685   6.451968   3.928010   4.118647
    23  H    3.084632   5.392168   6.683498   4.225499   4.608016
    24  H    3.141533   5.438666   6.703247   4.262550   4.371133
    25  H    4.052990   6.197578   7.064779   4.515344   4.593160
    26  C    1.507822   3.731418   5.795485   3.947073   4.497234
    27  H    2.039853   4.292217   6.227592   4.256951   4.624415
    28  H    2.039381   4.291090   6.246208   4.260503   4.882356
    29  H    2.038828   3.769491   6.061197   4.538304   5.128116
                   11         12         13         14         15
    11  H    0.000000
    12  C    2.044495   0.000000
    13  C    2.681368   1.455025   0.000000
    14  C    4.459148   4.320162   5.774524   0.000000
    15  H    5.063225   4.626320   6.064755   0.959815   0.000000
    16  H    4.565431   4.795968   6.231284   0.960339   1.568191
    17  H    4.896098   4.753659   6.182147   0.960676   1.567965
    18  C    2.779598   4.387461   5.184685   4.535452   5.448301
    19  H    3.696385   5.336139   6.141059   4.983800   5.926300
    20  H    2.322965   4.212958   4.874577   4.900665   5.754913
    21  H    2.893577   4.286181   4.939049   4.931556   5.828609
    22  C    4.127365   2.630663   1.508478   6.779179   6.894680
    23  H    4.339942   2.856348   2.039934   6.748258   6.768970
    24  H    4.648949   2.894901   2.040649   6.792095   6.850044
    25  H    4.598100   3.390939   2.040999   7.645637   7.806457
    26  C    4.474230   2.575328   3.135710   4.765103   4.537534
    27  H    4.862201   2.833445   3.105106   5.358946   5.174167
    28  H    4.602868   2.847294   3.136859   5.359138   5.126103
    29  H    5.103462   3.317613   4.057798   4.528992   4.122453
                   16         17         18         19         20
    16  H    0.000000
    17  H    1.567694   0.000000
    18  C    4.378837   4.575510   0.000000
    19  H    4.702375   4.944502   0.960256   0.000000
    20  H    4.692461   5.108752   0.959479   1.567945   0.000000
    21  H    4.940327   4.866114   0.960386   1.567702   1.567230
    22  C    7.309488   7.221188   6.688511   7.646002   6.366476
    23  H    7.235835   7.294247   7.028622   7.979242   6.649214
    24  H    7.425719   7.152045   7.045019   8.003074   6.841486
    25  H    8.142890   8.073089   7.124978   8.068482   6.743482
    26  C    5.435112   5.275886   6.681071   7.579686   6.589017
    27  H    6.101327   5.741956   7.025846   7.942951   6.980750
    28  H    5.921448   5.970424   7.040724   7.949165   6.821737
    29  H    5.233143   5.041270   7.108451   7.960827   7.083829
                   21         22         23         24         25
    21  H    0.000000
    22  C    6.434405   0.000000
    23  H    6.895558   0.959909   0.000000
    24  H    6.725922   0.959774   1.567265   0.000000
    25  H    6.816928   0.960623   1.567477   1.568216   0.000000
    26  C    6.655184   2.999930   2.718118   2.776563   3.948313
    27  H    6.871038   2.736433   2.669738   2.225707   3.637545
    28  H    7.065918   2.761682   2.195609   2.749609   3.647663
    29  H    7.143606   3.948659   3.616473   3.667322   4.889864
                   26         27         28         29
    26  C    0.000000
    27  H    0.960520   0.000000
    28  H    0.959547   1.567875   0.000000
    29  H    0.959857   1.567762   1.567923   0.000000
 Stoichiometry    C11H15NO2
 Framework group  C1[X(C11H15NO2)]
 Deg. of freedom    81
 Full point group                 C1      NOp   1
 Largest Abelian subgroup         C1      NOp   1
 Largest concise Abelian subgroup C1      NOp   1
                         Standard orientation:                         
 ---------------------------------------------------------------------
 Center     Atomic      Atomic             Coordinates (Angstroms)
 Number     Number       Type             X           Y           Z
 ---------------------------------------------------------------------
      1          8           0        2.244800   -2.287581    0.035733
      2          8           0       -3.677612   -0.223271    0.068666
      3          7           0        0.029462    1.821203   -0.028309
      4          1           0        0.053268    2.680856   -0.050468
      5          6           0       -1.303500   -0.143077   -0.020721
      6          6           0        1.231488    1.151124   -0.007396
      7          6           0       -1.208517    1.214655   -0.016062
      8          6           0       -2.596442   -0.822672    0.012414
      9          6           0       -0.053088   -0.997785   -0.047925
     10          1           0       -0.072754   -1.600554    0.711435
     11          1           0       -0.066207   -1.539437   -0.852385
     12          6           0        1.242870   -0.213176   -0.011368
     13          6           0        2.426224   -1.059478    0.012000
     14          6           0       -2.341602    2.198272    0.005589
     15          1           0       -1.999676    3.084403   -0.132624
     16          1           0       -2.966069    1.983074   -0.691535
     17          1           0       -2.786098    2.155797    0.856187
     18          6           0       -2.600304   -2.329674   -0.027737
     19          1           0       -3.505463   -2.647093   -0.072717
     20          1           0       -2.116302   -2.630535   -0.799633
     21          1           0       -2.181035   -2.671705    0.765718
     22          6           0        3.850250   -0.561843    0.008322
     23          1           0        3.991561   -0.002907   -0.759172
     24          1           0        4.015222   -0.055848    0.807020
     25          1           0        4.451377   -1.310310   -0.026882
     26          6           0        2.421926    2.076226    0.016469
     27          1           0        2.949794    1.898268    0.798955
     28          1           0        2.954661    1.932410   -0.768541
     29          1           0        2.118160    2.986537    0.036109
 ---------------------------------------------------------------------
 Rotational constants (GHZ):           1.1150777           0.4851146           0.3409496
 Leave Link  202 at Mon Mar  9 15:12:57 2026, MaxMem=  2147483648 cpu:               0.1 elap:               0.0
 (Enter /data/home/wyx/g16/l301.exe)
 Standard basis: TZVP (5D, 7F)
 Ernie: Thresh=  0.10000D-02 Tol=  0.10000D-05 Strict=F.
 There are   370 symmetry adapted cartesian basis functions of A   symmetry.
 There are   356 symmetry adapted basis functions of A   symmetry.
   356 basis functions,   610 primitive gaussians,   370 cartesian basis functions
    52 alpha electrons       52 beta electrons
       nuclear repulsion energy       908.5842081229 Hartrees.
 IExCor= 4639 DFT=T Ex+Corr=wB97XD ExCW=0 ScaHFX=  1.000000
 ScaDFX=  1.000000  1.000000  1.000000  1.000000 ScalE2=  1.000000  1.000000
 IRadAn=      5 IRanWt=     -1 IRanGd=            0 ICorTp=0 IEmpDi=121
 HFx  wShort=  0.000000 wLong=  0.200000 cFull=  0.222036 cShort=  0.000000 cLong=  0.777964
 DFx  wShort=  0.000000 wLong=  0.200000 cFull=  0.000000 cShort=  0.000000 cLong=  1.000000
 NAtoms=   29 NActive=   29 NUniq=   29 SFac= 1.00D+00 NAtFMM=   60 NAOKFM=F Big=F
 Integral buffers will be    131072 words long.
 Raffenetti 2 integral format.
 Two-electron integral symmetry is turned on.
 R6Disp:  Grimme-D2 Dispersion energy=       -0.0199438853 Hartrees.
 Nuclear repulsion after empirical dispersion term =      908.5642642376 Hartrees.
 ------------------------------------------------------------------------------
 Polarizable Continuum Model (PCM)
 =================================
 Model                : PCM.
 Atomic radii         : UFF (Universal Force Field).
 Polarization charges : Total charges.
 Charge compensation  : None.
 Solution method      : On-the-fly selection.
 Cavity type          : Scaled VdW (van der Waals Surface) (Alpha=1.100).
 Cavity algorithm     : GePol (No added spheres)
                        Default sphere list used, NSphG=   29.
                        Lebedev-Laikov grids with approx.  5.0 points / Ang**2.
                        Smoothing algorithm: York/Karplus (Gamma=1.0000).
                        Polarization charges: spherical gaussians, with
                                              point-specific exponents (IZeta= 3).
                        Self-potential: point-specific (ISelfS= 7).
                        Self-field    : sphere-specific E.n sum rule (ISelfD= 2).
 1st derivatives      : Analytical E(r).r(x)/FMM algorithm (CHGder, D1EAlg=3).
                        Cavity 1st derivative terms included.
 Solvent              : Water, Eps=  78.355300 Eps(inf)=   1.777849
 ------------------------------------------------------------------------------
 GePol: Number of generator spheres                  =      29
 GePol: Total number of spheres                      =      29
 GePol: Number of exposed spheres                    =      29 (100.00%)
 GePol: Number of points                             =    2079
 GePol: Average weight of points                     =       0.12
 GePol: Minimum weight of points                     =   0.23D-11
 GePol: Maximum weight of points                     =    0.20577
 GePol: Number of points with low weight             =     135
 GePol: Fraction of low-weight points (<1% of avg)   =       6.49%
 GePol: Cavity surface area                          =    258.713 Ang**2
 GePol: Cavity volume                                =    275.401 Ang**3
 Leave Link  301 at Mon Mar  9 15:12:58 2026, MaxMem=  2147483648 cpu:               1.2 elap:               0.0
 (Enter /data/home/wyx/g16/l302.exe)
 NPDir=0 NMtPBC=     1 NCelOv=     1 NCel=       1 NClECP=     1 NCelD=      1
         NCelK=      1 NCelE2=     1 NClLst=     1 CellRange=     0.0.
 One-electron integrals computed using PRISM.
 One-electron integral symmetry used in STVInt
 NBasis=   356 RedAO= T EigKep=  3.04D-05  NBF=   356
 NBsUse=   356 1.00D-06 EigRej= -1.00D+00 NBFU=   356
 Precomputing XC quadrature grid using
 IXCGrd= 4 IRadAn=           5 IRanWt=          -1 IRanGd=           0 AccXCQ= 0.00D+00.
 Generated NRdTot=       0 NPtTot=           0 NUsed=           0 NTot=          32
 NSgBfM=   366   365   366   366   366 MxSgAt=    29 MxSgA2=    29.
 Leave Link  302 at Mon Mar  9 15:12:58 2026, MaxMem=  2147483648 cpu:               6.4 elap:               0.2
 (Enter /data/home/wyx/g16/l303.exe)
 DipDrv:  MaxL=1.
 Leave Link  303 at Mon Mar  9 15:12:58 2026, MaxMem=  2147483648 cpu:               1.1 elap:               0.0
 (Enter /data/home/wyx/g16/l401.exe)
 ExpMin= 9.52D-02 ExpMax= 2.70D+04 ExpMxC= 9.22D+02 IAcc=3 IRadAn=         5 AccDes= 0.00D+00
 Harris functional with IExCor= 4639 and IRadAn=       5 diagonalized for initial guess.
 HarFok:  IExCor= 4639 AccDes= 0.00D+00 IRadAn=         5 IDoV= 1 UseB2=F ITyADJ=14
 ICtDFT=  3500011 ScaDFX=  1.000000  1.000000  1.000000  1.000000
 FoFCou: FMM=F IPFlag=           0 FMFlag=      100000 FMFlg1=           0
         NFxFlg=           0 DoJE=T BraDBF=F KetDBF=T FulRan=T
         wScrn=  0.000000 ICntrl=       500 IOpCl=  0 I1Cent=   200000004 NGrid=           0
         NMat0=    1 NMatS0=      1 NMatT0=    0 NMatD0=    1 NMtDS0=    0 NMtDT0=    0
 Petite list used in FoFCou.
 Harris En= -605.684730738866    
 JPrj=0 DoOrth=F DoCkMO=F.
 Leave Link  401 at Mon Mar  9 15:12:59 2026, MaxMem=  2147483648 cpu:              18.1 elap:               0.6
 (Enter /data/home/wyx/g16/l502.exe)
 Integral symmetry usage will be decided dynamically.
 Closed shell SCF:
 Using DIIS extrapolation, IDIIS=  1040.
 NGot=  2147483648 LenX=  2147194175 LenY=  2147056834
 Requested convergence on RMS density matrix=1.00D-08 within 128 cycles.
 Requested convergence on MAX density matrix=1.00D-06.
 Requested convergence on             energy=1.00D-06.
 No special actions if energy rises.
 Fock matrices will be formed incrementally for  20 cycles.

 Cycle   1  Pass 1  IDiag  1:
 FoFJK:  IHMeth= 1 ICntrl=       0 DoSepK=T KAlg= 0 I1Cent=           0 FoldK=F
 IRaf=         1 NMat=       1 IRICut=       1 DoRegI=T DoRafI=F ISym2E= 0 IDoP0=0 IntGTp=1.
 FoFCou: FMM=F IPFlag=           0 FMFlag=      100000 FMFlg1=           0
         NFxFlg=           0 DoJE=T BraDBF=F KetDBF=F FulRan=T
         wScrn=  0.000000 ICntrl=       500 IOpCl=  0 I1Cent=           0 NGrid=           0
         NMat0=    1 NMatS0=      1 NMatT0=    0 NMatD0=    1 NMtDS0=    0 NMtDT0=    0
 Symmetry not used in FoFCou.
 Inv3:  Mode=1 IEnd=    12966723.
 Iteration    1 A*A^-1 deviation from unit magnitude is 3.89D-15 for   1652.
 Iteration    1 A*A^-1 deviation from orthogonality  is 2.41D-15 for   1295    858.
 Iteration    1 A^-1*A deviation from unit magnitude is 3.55D-15 for   1652.
 Iteration    1 A^-1*A deviation from orthogonality  is 2.30D-15 for   1300     14.
 E= -632.914746391196    
 DIIS: error= 4.69D-02 at cycle   1 NSaved=   1.
 NSaved= 1 IEnMin= 1 EnMin= -632.914746391196     IErMin= 1 ErrMin= 4.69D-02
 ErrMax= 4.69D-02  0.00D+00 EMaxC= 1.00D-01 BMatC= 1.46D+00 BMatP= 1.46D+00
 IDIUse=3 WtCom= 5.31D-01 WtEn= 4.69D-01
 Coeff-Com:  0.100D+01
 Coeff-En:   0.100D+01
 Coeff:      0.100D+01
 Gap=     0.271 Goal=   None    Shift=    0.000
 GapD=    0.271 DampG=1.000 DampE=0.500 DampFc=0.5000 IDamp=-1.
 Damping current iteration by 5.00D-01
 RMSDP=4.79D-03 MaxDP=3.20D-01              OVMax= 1.09D-01

 Cycle   2  Pass 1  IDiag  1:
 RMSU=  2.00D-03    CP:  9.04D-01
 E= -633.067441599920     Delta-E=       -0.152695208724 Rises=F Damp=T
 DIIS: error= 2.32D-02 at cycle   2 NSaved=   2.
 NSaved= 2 IEnMin= 2 EnMin= -633.067441599920     IErMin= 2 ErrMin= 2.32D-02
 ErrMax= 2.32D-02  0.00D+00 EMaxC= 1.00D-01 BMatC= 2.88D-01 BMatP= 1.46D+00
 IDIUse=3 WtCom= 7.68D-01 WtEn= 2.32D-01
 Coeff-Com: -0.615D+00 0.161D+01
 Coeff-En:   0.000D+00 0.100D+01
 Coeff:     -0.472D+00 0.147D+01
 Gap=     0.292 Goal=   None    Shift=    0.000
 RMSDP=1.55D-03 MaxDP=1.01D-01 DE=-1.53D-01 OVMax= 8.38D-02

 Cycle   3  Pass 1  IDiag  1:
 RMSU=  1.32D-03    CP:  8.63D-01  1.29D+00
 E= -633.180628849105     Delta-E=       -0.113187249185 Rises=F Damp=F
 DIIS: error= 9.09D-03 at cycle   3 NSaved=   3.
 NSaved= 3 IEnMin= 3 EnMin= -633.180628849105     IErMin= 3 ErrMin= 9.09D-03
 ErrMax= 9.09D-03  0.00D+00 EMaxC= 1.00D-01 BMatC= 3.90D-02 BMatP= 2.88D-01
 IDIUse=3 WtCom= 9.09D-01 WtEn= 9.09D-02
 Coeff-Com: -0.301D+00 0.664D+00 0.637D+00
 Coeff-En:   0.000D+00 0.000D+00 0.100D+01
 Coeff:     -0.274D+00 0.604D+00 0.670D+00
 Gap=     0.281 Goal=   None    Shift=    0.000
 RMSDP=1.25D-03 MaxDP=7.19D-02 DE=-1.13D-01 OVMax= 4.25D-02

 Cycle   4  Pass 1  IDiag  1:
 RMSU=  5.03D-04    CP:  8.15D-01  1.70D+00  6.54D-01
 E= -633.206600460142     Delta-E=       -0.025971611037 Rises=F Damp=F
 DIIS: error= 3.99D-03 at cycle   4 NSaved=   4.
 NSaved= 4 IEnMin= 4 EnMin= -633.206600460142     IErMin= 4 ErrMin= 3.99D-03
 ErrMax= 3.99D-03  0.00D+00 EMaxC= 1.00D-01 BMatC= 5.60D-03 BMatP= 3.90D-02
 IDIUse=3 WtCom= 9.60D-01 WtEn= 3.99D-02
 Coeff-Com: -0.135D+00 0.293D+00 0.378D+00 0.464D+00
 Coeff-En:   0.000D+00 0.000D+00 0.219D-01 0.978D+00
 Coeff:     -0.130D+00 0.281D+00 0.364D+00 0.484D+00
 Gap=     0.280 Goal=   None    Shift=    0.000
 RMSDP=2.99D-04 MaxDP=1.75D-02 DE=-2.60D-02 OVMax= 1.32D-02

 Cycle   5  Pass 1  IDiag  1:
 RMSU=  1.14D-04    CP:  8.26D-01  1.64D+00  7.37D-01  6.69D-01
 E= -633.210519687697     Delta-E=       -0.003919227555 Rises=F Damp=F
 DIIS: error= 3.53D-04 at cycle   5 NSaved=   5.
 NSaved= 5 IEnMin= 5 EnMin= -633.210519687697     IErMin= 5 ErrMin= 3.53D-04
 ErrMax= 3.53D-04  0.00D+00 EMaxC= 1.00D-01 BMatC= 5.74D-05 BMatP= 5.60D-03
 IDIUse=3 WtCom= 9.96D-01 WtEn= 3.53D-03
 Coeff-Com: -0.223D-01 0.477D-01 0.706D-01 0.140D+00 0.764D+00
 Coeff-En:   0.000D+00 0.000D+00 0.000D+00 0.000D+00 0.100D+01
 Coeff:     -0.222D-01 0.476D-01 0.703D-01 0.139D+00 0.765D+00
 Gap=     0.280 Goal=   None    Shift=    0.000
 RMSDP=1.01D-04 MaxDP=5.70D-03 DE=-3.92D-03 OVMax= 2.02D-03

 Cycle   6  Pass 1  IDiag  1:
 RMSU=  4.02D-05    CP:  8.21D-01  1.66D+00  7.44D-01  7.70D-01  1.13D+00
 E= -633.210564611265     Delta-E=       -0.000044923568 Rises=F Damp=F
 DIIS: error= 3.22D-04 at cycle   6 NSaved=   6.
 NSaved= 6 IEnMin= 6 EnMin= -633.210564611265     IErMin= 6 ErrMin= 3.22D-04
 ErrMax= 3.22D-04  0.00D+00 EMaxC= 1.00D-01 BMatC= 1.34D-05 BMatP= 5.74D-05
 IDIUse=3 WtCom= 9.97D-01 WtEn= 3.22D-03
 Coeff-Com:  0.159D-01-0.346D-01-0.392D-01-0.262D-01 0.369D+00 0.715D+00
 Coeff-En:   0.000D+00 0.000D+00 0.000D+00 0.000D+00 0.000D+00 0.100D+01
 Coeff:      0.158D-01-0.345D-01-0.391D-01-0.261D-01 0.368D+00 0.716D+00
 Gap=     0.280 Goal=   None    Shift=    0.000
 RMSDP=2.55D-05 MaxDP=9.90D-04 DE=-4.49D-05 OVMax= 2.71D-03

 Cycle   7  Pass 1  IDiag  1:
 RMSU=  1.61D-05    CP:  8.21D-01  1.66D+00  7.48D-01  7.86D-01  1.26D+00
                    CP:  9.27D-01
 E= -633.210580791385     Delta-E=       -0.000016180120 Rises=F Damp=F
 DIIS: error= 3.58D-05 at cycle   7 NSaved=   7.
 NSaved= 7 IEnMin= 7 EnMin= -633.210580791385     IErMin= 7 ErrMin= 3.58D-05
 ErrMax= 3.58D-05  0.00D+00 EMaxC= 1.00D-01 BMatC= 7.14D-07 BMatP= 1.34D-05
 IDIUse=1 WtCom= 1.00D+00 WtEn= 0.00D+00
 Coeff-Com:  0.360D-02-0.781D-02-0.969D-02-0.150D-01-0.268D-01 0.154D+00
 Coeff-Com:  0.901D+00
 Coeff:      0.360D-02-0.781D-02-0.969D-02-0.150D-01-0.268D-01 0.154D+00
 Coeff:      0.901D+00
 Gap=     0.280 Goal=   None    Shift=    0.000
 RMSDP=1.34D-05 MaxDP=5.68D-04 DE=-1.62D-05 OVMax= 7.36D-04

 Cycle   8  Pass 1  IDiag  1:
 RMSU=  4.88D-06    CP:  8.21D-01  1.67D+00  7.49D-01  7.97D-01  1.32D+00
                    CP:  1.04D+00  1.07D+00
 E= -633.210582165528     Delta-E=       -0.000001374144 Rises=F Damp=F
 DIIS: error= 2.17D-05 at cycle   8 NSaved=   8.
 NSaved= 8 IEnMin= 8 EnMin= -633.210582165528     IErMin= 8 ErrMin= 2.17D-05
 ErrMax= 2.17D-05  0.00D+00 EMaxC= 1.00D-01 BMatC= 6.92D-08 BMatP= 7.14D-07
 IDIUse=1 WtCom= 1.00D+00 WtEn= 0.00D+00
 Coeff-Com: -0.119D-02 0.263D-02 0.280D-02-0.307D-03-0.568D-01-0.344D-01
 Coeff-Com:  0.164D+00 0.924D+00
 Coeff:     -0.119D-02 0.263D-02 0.280D-02-0.307D-03-0.568D-01-0.344D-01
 Coeff:      0.164D+00 0.924D+00
 Gap=     0.280 Goal=   None    Shift=    0.000
 RMSDP=4.04D-06 MaxDP=1.73D-04 DE=-1.37D-06 OVMax= 3.93D-04

 Cycle   9  Pass 1  IDiag  1:
 RMSU=  1.52D-06    CP:  8.21D-01  1.67D+00  7.49D-01  8.00D-01  1.33D+00
                    CP:  1.09D+00  1.15D+00  1.28D+00
 E= -633.210582370311     Delta-E=       -0.000000204782 Rises=F Damp=F
 DIIS: error= 7.57D-06 at cycle   9 NSaved=   9.
 NSaved= 9 IEnMin= 9 EnMin= -633.210582370311     IErMin= 9 ErrMin= 7.57D-06
 ErrMax= 7.57D-06  0.00D+00 EMaxC= 1.00D-01 BMatC= 9.17D-09 BMatP= 6.92D-08
 IDIUse=1 WtCom= 1.00D+00 WtEn= 0.00D+00
 Coeff-Com: -0.703D-03 0.153D-02 0.183D-02 0.170D-02-0.103D-01-0.208D-01
 Coeff-Com: -0.864D-01 0.198D+00 0.915D+00
 Coeff:     -0.703D-03 0.153D-02 0.183D-02 0.170D-02-0.103D-01-0.208D-01
 Coeff:     -0.864D-01 0.198D+00 0.915D+00
 Gap=     0.280 Goal=   None    Shift=    0.000
 RMSDP=1.48D-06 MaxDP=5.46D-05 DE=-2.05D-07 OVMax= 1.57D-04

 Cycle  10  Pass 1  IDiag  1:
 RMSU=  5.22D-07    CP:  8.21D-01  1.67D+00  7.48D-01  8.01D-01  1.33D+00
                    CP:  1.11D+00  1.15D+00  1.43D+00  1.30D+00
 E= -633.210582396174     Delta-E=       -0.000000025863 Rises=F Damp=F
 DIIS: error= 1.76D-06 at cycle  10 NSaved=  10.
 NSaved=10 IEnMin=10 EnMin= -633.210582396174     IErMin=10 ErrMin= 1.76D-06
 ErrMax= 1.76D-06  0.00D+00 EMaxC= 1.00D-01 BMatC= 1.35D-09 BMatP= 9.17D-09
 IDIUse=1 WtCom= 1.00D+00 WtEn= 0.00D+00
 Coeff-Com: -0.835D-04 0.175D-03 0.265D-03 0.537D-03 0.247D-02-0.102D-02
 Coeff-Com: -0.457D-01-0.445D-01 0.273D+00 0.815D+00
 Coeff:     -0.835D-04 0.175D-03 0.265D-03 0.537D-03 0.247D-02-0.102D-02
 Coeff:     -0.457D-01-0.445D-01 0.273D+00 0.815D+00
 Gap=     0.280 Goal=   None    Shift=    0.000
 RMSDP=5.57D-07 MaxDP=2.56D-05 DE=-2.59D-08 OVMax= 4.23D-05

 Cycle  11  Pass 1  IDiag  1:
 RMSU=  2.64D-07    CP:  8.21D-01  1.67D+00  7.48D-01  8.01D-01  1.33D+00
                    CP:  1.11D+00  1.15D+00  1.49D+00  1.44D+00  1.09D+00
 E= -633.210582398486     Delta-E=       -0.000000002312 Rises=F Damp=F
 DIIS: error= 1.00D-06 at cycle  11 NSaved=  11.
 NSaved=11 IEnMin=11 EnMin= -633.210582398486     IErMin=11 ErrMin= 1.00D-06
 ErrMax= 1.00D-06  0.00D+00 EMaxC= 1.00D-01 BMatC= 4.32D-10 BMatP= 1.35D-09
 IDIUse=1 WtCom= 1.00D+00 WtEn= 0.00D+00
 Coeff-Com:  0.634D-04-0.141D-03-0.137D-03 0.287D-04 0.276D-02 0.303D-02
 Coeff-Com: -0.117D-01-0.545D-01 0.767D-02 0.438D+00 0.615D+00
 Coeff:      0.634D-04-0.141D-03-0.137D-03 0.287D-04 0.276D-02 0.303D-02
 Coeff:     -0.117D-01-0.545D-01 0.767D-02 0.438D+00 0.615D+00
 Gap=     0.280 Goal=   None    Shift=    0.000
 RMSDP=2.34D-07 MaxDP=1.28D-05 DE=-2.31D-09 OVMax= 1.15D-05

 Cycle  12  Pass 1  IDiag  1:
 RMSU=  8.99D-08    CP:  8.21D-01  1.67D+00  7.48D-01  8.02D-01  1.33D+00
                    CP:  1.11D+00  1.14D+00  1.50D+00  1.48D+00  1.25D+00
                    CP:  8.65D-01
 E= -633.210582398901     Delta-E=       -0.000000000415 Rises=F Damp=F
 DIIS: error= 2.46D-07 at cycle  12 NSaved=  12.
 NSaved=12 IEnMin=12 EnMin= -633.210582398901     IErMin=12 ErrMin= 2.46D-07
 ErrMax= 2.46D-07  0.00D+00 EMaxC= 1.00D-01 BMatC= 2.21D-11 BMatP= 4.32D-10
 IDIUse=1 WtCom= 1.00D+00 WtEn= 0.00D+00
 Coeff-Com:  0.270D-04-0.584D-04-0.669D-04-0.516D-04 0.411D-03 0.116D-02
 Coeff-Com:  0.217D-02-0.108D-01-0.304D-01 0.330D-01 0.191D+00 0.814D+00
 Coeff:      0.270D-04-0.584D-04-0.669D-04-0.516D-04 0.411D-03 0.116D-02
 Coeff:      0.217D-02-0.108D-01-0.304D-01 0.330D-01 0.191D+00 0.814D+00
 Gap=     0.280 Goal=   None    Shift=    0.000
 RMSDP=8.41D-08 MaxDP=5.10D-06 DE=-4.15D-10 OVMax= 2.97D-06

 Cycle  13  Pass 1  IDiag  1:
 RMSU=  2.36D-08    CP:  8.21D-01  1.67D+00  7.48D-01  8.02D-01  1.33D+00
                    CP:  1.11D+00  1.14D+00  1.50D+00  1.49D+00  1.28D+00
                    CP:  1.01D+00  1.12D+00
 E= -633.210582398934     Delta-E=       -0.000000000033 Rises=F Damp=F
 DIIS: error= 5.82D-08 at cycle  13 NSaved=  13.
 NSaved=13 IEnMin=13 EnMin= -633.210582398934     IErMin=13 ErrMin= 5.82D-08
 ErrMax= 5.82D-08  0.00D+00 EMaxC= 1.00D-01 BMatC= 2.55D-12 BMatP= 2.21D-11
 IDIUse=1 WtCom= 1.00D+00 WtEn= 0.00D+00
 Coeff-Com:  0.916D-06-0.166D-05-0.395D-05-0.155D-04-0.157D-03 0.741D-04
 Coeff-Com:  0.181D-02 0.236D-02-0.108D-01-0.386D-01-0.657D-02 0.263D+00
 Coeff-Com:  0.789D+00
 Coeff:      0.916D-06-0.166D-05-0.395D-05-0.155D-04-0.157D-03 0.741D-04
 Coeff:      0.181D-02 0.236D-02-0.108D-01-0.386D-01-0.657D-02 0.263D+00
 Coeff:      0.789D+00
 Gap=     0.280 Goal=   None    Shift=    0.000
 RMSDP=3.83D-08 MaxDP=1.82D-06 DE=-3.26D-11 OVMax= 7.23D-07

 Cycle  14  Pass 1  IDiag  1:
 RMSU=  8.74D-09    CP:  8.21D-01  1.67D+00  7.48D-01  8.02D-01  1.33D+00
                    CP:  1.11D+00  1.14D+00  1.50D+00  1.49D+00  1.30D+00
                    CP:  1.05D+00  1.21D+00  1.22D+00
 E= -633.210582398937     Delta-E=       -0.000000000003 Rises=F Damp=F
 DIIS: error= 3.21D-08 at cycle  14 NSaved=  14.
 NSaved=14 IEnMin=14 EnMin= -633.210582398937     IErMin=14 ErrMin= 3.21D-08
 ErrMax= 3.21D-08  0.00D+00 EMaxC= 1.00D-01 BMatC= 2.05D-13 BMatP= 2.55D-12
 IDIUse=1 WtCom= 1.00D+00 WtEn= 0.00D+00
 Coeff-Com: -0.162D-05 0.356D-05 0.364D-05-0.704D-06-0.742D-04-0.649D-04
 Coeff-Com:  0.248D-03 0.151D-02 0.154D-03-0.121D-01-0.181D-01-0.100D-01
 Coeff-Com:  0.199D+00 0.840D+00
 Coeff:     -0.162D-05 0.356D-05 0.364D-05-0.704D-06-0.742D-04-0.649D-04
 Coeff:      0.248D-03 0.151D-02 0.154D-03-0.121D-01-0.181D-01-0.100D-01
 Coeff:      0.199D+00 0.840D+00
 Gap=     0.280 Goal=   None    Shift=    0.000
 RMSDP=1.21D-08 MaxDP=5.88D-07 DE=-3.18D-12 OVMax= 3.70D-07

 Cycle  15  Pass 1  IDiag  1:
 RMSU=  2.67D-09    CP:  8.21D-01  1.67D+00  7.48D-01  8.02D-01  1.33D+00
                    CP:  1.11D+00  1.14D+00  1.50D+00  1.49D+00  1.31D+00
                    CP:  1.06D+00  1.23D+00  1.35D+00  1.32D+00
 E= -633.210582398931     Delta-E=        0.000000000006 Rises=F Damp=F
 DIIS: error= 9.92D-09 at cycle  15 NSaved=  15.
 NSaved=15 IEnMin=14 EnMin= -633.210582398937     IErMin=15 ErrMin= 9.92D-09
 ErrMax= 9.92D-09  0.00D+00 EMaxC= 1.00D-01 BMatC= 4.00D-14 BMatP= 2.05D-13
 IDIUse=1 WtCom= 1.00D+00 WtEn= 0.00D+00
 Coeff-Com: -0.457D-06 0.979D-06 0.138D-05 0.215D-05 0.348D-05-0.201D-04
 Coeff-Com: -0.192D-03 0.328D-04 0.150D-02 0.241D-02-0.292D-02-0.403D-01
 Coeff-Com: -0.821D-01 0.198D+00 0.923D+00
 Coeff:     -0.457D-06 0.979D-06 0.138D-05 0.215D-05 0.348D-05-0.201D-04
 Coeff:     -0.192D-03 0.328D-04 0.150D-02 0.241D-02-0.292D-02-0.403D-01
 Coeff:     -0.821D-01 0.198D+00 0.923D+00
 Gap=     0.280 Goal=   None    Shift=    0.000
 RMSDP=5.41D-09 MaxDP=2.34D-07 DE= 5.80D-12 OVMax= 2.42D-07

 Error on total polarization charges =  0.01211
 SCF Done:  E(RwB97XD) =  -633.210582399     A.U. after   15 cycles
            NFock= 15  Conv=0.54D-08     -V/T= 1.9994
 KE= 6.335906734632D+02 PE=-3.294992014747D+03 EE= 1.119626494647D+03
 Leave Link  502 at Mon Mar  9 15:13:39 2026, MaxMem=  2147483648 cpu:            1261.9 elap:              39.9
 (Enter /data/home/wyx/g16/l601.exe)
 Copying SCF densities to generalized density rwf, IOpCl= 0 IROHF=0.

 **********************************************************************

            Population analysis using the SCF density.

 **********************************************************************

 Orbital symmetries:
       Occupied  (A) (A) (A) (A) (A) (A) (A) (A) (A) (A) (A) (A)
                 (A) (A) (A) (A) (A) (A) (A) (A) (A) (A) (A) (A)
                 (A) (A) (A) (A) (A) (A) (A) (A) (A) (A) (A) (A)
                 (A) (A) (A) (A) (A) (A) (A) (A) (A) (A) (A) (A)
                 (A) (A) (A) (A)
       Virtual   (A) (A) (A) (A) (A) (A) (A) (A) (A) (A) (A) (A)
                 (A) (A) (A) (A) (A) (A) (A) (A) (A) (A) (A) (A)
                 (A) (A) (A) (A) (A) (A) (A) (A) (A) (A) (A) (A)
                 (A) (A) (A) (A) (A) (A) (A) (A) (A) (A) (A) (A)
                 (A) (A) (A) (A) (A) (A) (A) (A) (A) (A) (A) (A)
                 (A) (A) (A) (A) (A) (A) (A) (A) (A) (A) (A) (A)
                 (A) (A) (A) (A) (A) (A) (A) (A) (A) (A) (A) (A)
                 (A) (A) (A) (A) (A) (A) (A) (A) (A) (A) (A) (A)
                 (A) (A) (A) (A) (A) (A) (A) (A) (A) (A) (A) (A)
                 (A) (A) (A) (A) (A) (A) (A) (A) (A) (A) (A) (A)
                 (A) (A) (A) (A) (A) (A) (A) (A) (A) (A) (A) (A)
                 (A) (A) (A) (A) (A) (A) (A) (A) (A) (A) (A) (A)
                 (A) (A) (A) (A) (A) (A) (A) (A) (A) (A) (A) (A)
                 (A) (A) (A) (A) (A) (A) (A) (A) (A) (A) (A) (A)
                 (A) (A) (A) (A) (A) (A) (A) (A) (A) (A) (A) (A)
                 (A) (A) (A) (A) (A) (A) (A) (A) (A) (A) (A) (A)
                 (A) (A) (A) (A) (A) (A) (A) (A) (A) (A) (A) (A)
                 (A) (A) (A) (A) (A) (A) (A) (A) (A) (A) (A) (A)
                 (A) (A) (A) (A) (A) (A) (A) (A) (A) (A) (A) (A)
                 (A) (A) (A) (A) (A) (A) (A) (A) (A) (A) (A) (A)
                 (A) (A) (A) (A) (A) (A) (A) (A) (A) (A) (A) (A)
                 (A) (A) (A) (A) (A) (A) (A) (A) (A) (A) (A) (A)
                 (A) (A) (A) (A) (A) (A) (A) (A) (A) (A) (A) (A)
                 (A) (A) (A) (A) (A) (A) (A) (A) (A) (A) (A) (A)
                 (A) (A) (A) (A) (A) (A) (A) (A) (A) (A) (A) (A)
                 (A) (A) (A) (A)
 The electronic state is 1-A.
 Alpha  occ. eigenvalues --  -19.22441 -19.22348 -14.47322 -10.37022 -10.36965
 Alpha  occ. eigenvalues --  -10.36048 -10.35440 -10.28914 -10.28511 -10.26228
 Alpha  occ. eigenvalues --  -10.25514 -10.24459 -10.23944 -10.23565  -1.13058
 Alpha  occ. eigenvalues --   -1.12936  -1.10440  -0.93558  -0.92979  -0.87861
 Alpha  occ. eigenvalues --   -0.86590  -0.86088  -0.82299  -0.78464  -0.74428
 Alpha  occ. eigenvalues --   -0.72023  -0.64031  -0.61610  -0.59047  -0.58052
 Alpha  occ. eigenvalues --   -0.57451  -0.56413  -0.55862  -0.55142  -0.54583
 Alpha  occ. eigenvalues --   -0.53679  -0.53080  -0.52869  -0.51946  -0.51680
 Alpha  occ. eigenvalues --   -0.49683  -0.49166  -0.48265  -0.46916  -0.45161
 Alpha  occ. eigenvalues --   -0.44840  -0.44418  -0.43732  -0.34874  -0.33702
 Alpha  occ. eigenvalues --   -0.33011  -0.28080
 Alpha virt. eigenvalues --   -0.00039   0.05253   0.11341   0.13484   0.13942
 Alpha virt. eigenvalues --    0.14163   0.16435   0.16918   0.18014   0.18154
 Alpha virt. eigenvalues --    0.18843   0.20106   0.20716   0.21356   0.21603
 Alpha virt. eigenvalues --    0.22271   0.22849   0.22993   0.23200   0.24579
 Alpha virt. eigenvalues --    0.24589   0.26460   0.27382   0.27971   0.28645
 Alpha virt. eigenvalues --    0.29076   0.30024   0.30092   0.30624   0.30848
 Alpha virt. eigenvalues --    0.31367   0.31735   0.32465   0.32813   0.33899
 Alpha virt. eigenvalues --    0.34241   0.34417   0.36589   0.36815   0.38197
 Alpha virt. eigenvalues --    0.39078   0.39934   0.41114   0.41467   0.42855
 Alpha virt. eigenvalues --    0.43327   0.45148   0.45907   0.46135   0.47067
 Alpha virt. eigenvalues --    0.47951   0.49966   0.50200   0.50386   0.50811
 Alpha virt. eigenvalues --    0.51669   0.52385   0.52810   0.53734   0.54120
 Alpha virt. eigenvalues --    0.54691   0.55599   0.56335   0.57016   0.57774
 Alpha virt. eigenvalues --    0.58825   0.59710   0.60147   0.60600   0.61000
 Alpha virt. eigenvalues --    0.61574   0.62254   0.62496   0.63609   0.64183
 Alpha virt. eigenvalues --    0.64898   0.64924   0.66514   0.67812   0.68310
 Alpha virt. eigenvalues --    0.68992   0.69640   0.70764   0.72158   0.73029
 Alpha virt. eigenvalues --    0.74341   0.75470   0.75744   0.77871   0.79279
 Alpha virt. eigenvalues --    0.79947   0.80746   0.82520   0.83730   0.85153
 Alpha virt. eigenvalues --    0.87176   0.88215   0.90191   0.92989   0.96616
 Alpha virt. eigenvalues --    0.99537   1.03081   1.04439   1.06638   1.20332
 Alpha virt. eigenvalues --    1.23044   1.23753   1.26416   1.29731   1.32022
 Alpha virt. eigenvalues --    1.33792   1.35737   1.36068   1.37909   1.38441
 Alpha virt. eigenvalues --    1.38837   1.39346   1.39541   1.41817   1.41945
 Alpha virt. eigenvalues --    1.42656   1.44168   1.44489   1.44994   1.45691
 Alpha virt. eigenvalues --    1.46935   1.47213   1.48121   1.49369   1.50727
 Alpha virt. eigenvalues --    1.51298   1.52098   1.53646   1.54244   1.55175
 Alpha virt. eigenvalues --    1.55951   1.56166   1.59479   1.61381   1.62217
 Alpha virt. eigenvalues --    1.63149   1.63981   1.64303   1.64844   1.67194
 Alpha virt. eigenvalues --    1.67738   1.68470   1.68938   1.70633   1.72039
 Alpha virt. eigenvalues --    1.72469   1.73009   1.73322   1.73969   1.74502
 Alpha virt. eigenvalues --    1.74911   1.75522   1.76168   1.77081   1.78303
 Alpha virt. eigenvalues --    1.79026   1.79611   1.80452   1.81569   1.83484
 Alpha virt. eigenvalues --    1.84455   1.87432   1.88559   1.89315   1.91151
 Alpha virt. eigenvalues --    1.91267   1.92462   1.95110   1.98280   1.98847
 Alpha virt. eigenvalues --    1.99249   2.00645   2.00789   2.03680   2.05746
 Alpha virt. eigenvalues --    2.07860   2.08408   2.10246   2.10713   2.12223
 Alpha virt. eigenvalues --    2.14588   2.17969   2.20040   2.22397   2.24029
 Alpha virt. eigenvalues --    2.25498   2.27527   2.29524   2.31367   2.33806
 Alpha virt. eigenvalues --    2.34419   2.36151   2.36886   2.39622   2.40389
 Alpha virt. eigenvalues --    2.42227   2.43313   2.46259   2.47726   2.48504
 Alpha virt. eigenvalues --    2.49771   2.50163   2.51367   2.52104   2.52452
 Alpha virt. eigenvalues --    2.55648   2.57017   2.57928   2.60304   2.61493
 Alpha virt. eigenvalues --    2.64108   2.64463   2.65550   2.66140   2.67593
 Alpha virt. eigenvalues --    2.68711   2.70399   2.73529   2.74570   2.75681
 Alpha virt. eigenvalues --    2.76903   2.77701   2.79440   2.80210   2.80740
 Alpha virt. eigenvalues --    2.81606   2.82481   2.82793   2.83935   2.84668
 Alpha virt. eigenvalues --    2.85115   2.86138   2.86690   2.87566   2.89569
 Alpha virt. eigenvalues --    2.90270   2.90741   2.92388   2.93401   2.93654
 Alpha virt. eigenvalues --    2.95125   2.96647   2.96749   2.99086   3.02555
 Alpha virt. eigenvalues --    3.04498   3.05718   3.09847   3.12875   3.14077
 Alpha virt. eigenvalues --    3.20095   3.22435   3.26289   3.26996   3.28375
 Alpha virt. eigenvalues --    3.29628   3.32378   3.34148   3.36872   3.37689
 Alpha virt. eigenvalues --    3.39679   3.42525   3.43337   3.47203   3.48512
 Alpha virt. eigenvalues --    3.49016   3.53722   3.55068   3.58538   3.60470
 Alpha virt. eigenvalues --    3.64539   3.68091   3.68340   3.68445   3.69479
 Alpha virt. eigenvalues --    3.71394   3.72014   3.75838   3.78358   3.82353
 Alpha virt. eigenvalues --    3.85649   3.96478   4.37767   4.37944   4.41008
 Alpha virt. eigenvalues --   21.74542  21.85413  22.16600  22.22840  22.28574
 Alpha virt. eigenvalues --   22.35409  22.52029  22.56512  22.57829  22.59173
 Alpha virt. eigenvalues --   22.61287  32.12000  43.72935  43.74834
          Condensed to atoms (all electrons):
               1          2          3          4          5          6
     1  O    7.998137   0.000000  -0.000183   0.000019   0.017484   0.015638
     2  O    0.000000   8.011504   0.000220  -0.000034  -0.186394   0.001168
     3  N   -0.000183   0.000220   6.229802   0.404481  -0.122453   0.350562
     4  H    0.000019  -0.000034   0.404481   0.380304   0.015527  -0.042265
     5  C    0.017484  -0.186394  -0.122453   0.015527   6.946097  -0.074036
     6  C    0.015638   0.001168   0.350562  -0.042265  -0.074036   5.507945
     7  C    0.000032  -0.020852   0.376110  -0.040184   0.422724  -0.083718
     8  C   -0.000823   0.659498   0.002347  -0.000993  -0.259795   0.029841
     9  C    0.002055   0.018048   0.037843  -0.001648  -0.509376  -0.068805
    10  H    0.010863  -0.000066  -0.001076   0.000004  -0.078624   0.007544
    11  H    0.007236   0.000005  -0.000241   0.000031  -0.052766   0.007770
    12  C   -0.244225  -0.002748  -0.101519   0.014449   0.181196   0.035129
    13  C    0.682246   0.000000   0.000872   0.000502   0.057755   0.062676
    14  C   -0.000007  -0.010796  -0.031902  -0.010447  -0.095114   0.009680
    15  H   -0.000000   0.005347   0.005544  -0.000949   0.014782   0.005159
    16  H   -0.000000   0.005848  -0.000166   0.001216   0.000628  -0.000888
    17  H   -0.000000   0.002037  -0.002471   0.000992  -0.007000  -0.001275
    18  C    0.000555  -0.105371  -0.000501  -0.000009  -0.260556  -0.000455
    19  H    0.000000   0.013312   0.000010  -0.000001   0.031806  -0.000024
    20  H   -0.000010   0.002575   0.000053   0.000003   0.024634  -0.000306
    21  H   -0.000057   0.001863   0.000025   0.000001   0.004985   0.000046
    22  C   -0.113725   0.000000  -0.000076   0.000036   0.001018   0.002953
    23  H    0.003097   0.000000   0.000093  -0.000034  -0.000322  -0.007296
    24  H    0.002299   0.000000   0.000075  -0.000023  -0.000200  -0.001939
    25  H    0.014691  -0.000000   0.000014  -0.000003  -0.000062  -0.003168
    26  C    0.000423   0.000009  -0.023606  -0.008938   0.001310   0.229776
    27  H   -0.000090  -0.000000  -0.002175   0.000796   0.000454  -0.035195
    28  H   -0.000056  -0.000000  -0.002329   0.000749   0.000222  -0.036059
    29  H    0.000016   0.000000   0.004348   0.001037   0.000067  -0.029784
               7          8          9         10         11         12
     1  O    0.000032  -0.000823   0.002055   0.010863   0.007236  -0.244225
     2  O   -0.020852   0.659498   0.018048  -0.000066   0.000005  -0.002748
     3  N    0.376110   0.002347   0.037843  -0.001076  -0.000241  -0.101519
     4  H   -0.040184  -0.000993  -0.001648   0.000004   0.000031   0.014449
     5  C    0.422724  -0.259795  -0.509376  -0.078624  -0.052766   0.181196
     6  C   -0.083718   0.029841  -0.068805   0.007544   0.007770   0.035129
     7  C    5.353907  -0.197542  -0.098856   0.005732   0.003103  -0.040306
     8  C   -0.197542   5.424864   0.118574   0.001402  -0.001792  -0.035302
     9  C   -0.098856   0.118574   5.937591   0.503977   0.460883  -0.017733
    10  H    0.005732   0.001402   0.503977   0.481094  -0.037524  -0.055570
    11  H    0.003103  -0.001792   0.460883  -0.037524   0.480847  -0.031075
    12  C   -0.040306  -0.035302  -0.017733  -0.055570  -0.031075   7.072043
    13  C    0.019171  -0.008398  -0.182368  -0.000268   0.001485  -0.370262
    14  C    0.295944  -0.042241   0.007600   0.000181  -0.000130   0.004230
    15  H   -0.059347   0.007309  -0.000046   0.000009   0.000026  -0.000962
    16  H   -0.031695  -0.008478   0.001215  -0.000066   0.000079  -0.000188
    17  H   -0.021153  -0.001271  -0.000077   0.000078  -0.000048   0.000203
    18  C   -0.000914   0.356687  -0.002724  -0.000020  -0.005137  -0.000445
    19  H   -0.000064  -0.047357  -0.002369   0.000151  -0.000006   0.000064
    20  H    0.002553  -0.048167  -0.002966  -0.001645   0.000905   0.002617
    21  H    0.000858  -0.025401  -0.000073  -0.000046   0.000086  -0.000815
    22  C    0.000031  -0.000018   0.010703   0.001599   0.000761  -0.291817
    23  H   -0.000001   0.000007  -0.000502  -0.000188   0.000048   0.029923
    24  H    0.000028   0.000002   0.000001   0.000029  -0.000134   0.014568
    25  H    0.000016  -0.000001   0.000305  -0.000107  -0.000065   0.030761
    26  C    0.007078   0.000641   0.017544  -0.000216  -0.000214  -0.102669
    27  H   -0.001036  -0.000011  -0.000149   0.000041  -0.000003  -0.004539
    28  H   -0.000719  -0.000013  -0.000540   0.000007   0.000037  -0.006801
    29  H    0.002150   0.000025  -0.000921   0.000009   0.000006   0.019146
              13         14         15         16         17         18
     1  O    0.682246  -0.000007  -0.000000  -0.000000  -0.000000   0.000555
     2  O    0.000000  -0.010796   0.005347   0.005848   0.002037  -0.105371
     3  N    0.000872  -0.031902   0.005544  -0.000166  -0.002471  -0.000501
     4  H    0.000502  -0.010447  -0.000949   0.001216   0.000992  -0.000009
     5  C    0.057755  -0.095114   0.014782   0.000628  -0.007000  -0.260556
     6  C    0.062676   0.009680   0.005159  -0.000888  -0.001275  -0.000455
     7  C    0.019171   0.295944  -0.059347  -0.031695  -0.021153  -0.000914
     8  C   -0.008398  -0.042241   0.007309  -0.008478  -0.001271   0.356687
     9  C   -0.182368   0.007600  -0.000046   0.001215  -0.000077  -0.002724
    10  H   -0.000268   0.000181   0.000009  -0.000066   0.000078  -0.000020
    11  H    0.001485  -0.000130   0.000026   0.000079  -0.000048  -0.005137
    12  C   -0.370262   0.004230  -0.000962  -0.000188   0.000203  -0.000445
    13  C    5.491689   0.000015  -0.000031  -0.000005  -0.000010   0.001119
    14  C    0.000015   5.001157   0.389949   0.437293   0.434771   0.000016
    15  H   -0.000031   0.389949   0.547442  -0.027703  -0.023959   0.000335
    16  H   -0.000005   0.437293  -0.027703   0.484611  -0.025969   0.000080
    17  H   -0.000010   0.434771  -0.023959  -0.025969   0.475556   0.000056
    18  C    0.001119   0.000016   0.000335   0.000080   0.000056   5.202129
    19  H   -0.000001   0.000117  -0.000010  -0.000005  -0.000025   0.388897
    20  H    0.000095   0.000120  -0.000018  -0.000090   0.000015   0.406132
    21  H   -0.000066  -0.000128  -0.000012   0.000037  -0.000027   0.409823
    22  C    0.341696   0.000004   0.000001  -0.000000  -0.000000   0.000029
    23  H   -0.060293   0.000000   0.000000   0.000000  -0.000000  -0.000002
    24  H   -0.041375   0.000000  -0.000000   0.000000   0.000000  -0.000000
    25  H   -0.035396   0.000000   0.000000  -0.000000   0.000000   0.000000
    26  C   -0.057725  -0.001050   0.000060   0.000041  -0.000020  -0.000009
    27  H    0.000509  -0.000045   0.000002   0.000002  -0.000004   0.000000
    28  H    0.002556   0.000032  -0.000018  -0.000003   0.000004   0.000000
    29  H    0.000571   0.000184   0.000211  -0.000010  -0.000011  -0.000000
              19         20         21         22         23         24
     1  O    0.000000  -0.000010  -0.000057  -0.113725   0.003097   0.002299
     2  O    0.013312   0.002575   0.001863   0.000000   0.000000   0.000000
     3  N    0.000010   0.000053   0.000025  -0.000076   0.000093   0.000075
     4  H   -0.000001   0.000003   0.000001   0.000036  -0.000034  -0.000023
     5  C    0.031806   0.024634   0.004985   0.001018  -0.000322  -0.000200
     6  C   -0.000024  -0.000306   0.000046   0.002953  -0.007296  -0.001939
     7  C   -0.000064   0.002553   0.000858   0.000031  -0.000001   0.000028
     8  C   -0.047357  -0.048167  -0.025401  -0.000018   0.000007   0.000002
     9  C   -0.002369  -0.002966  -0.000073   0.010703  -0.000502   0.000001
    10  H    0.000151  -0.001645  -0.000046   0.001599  -0.000188   0.000029
    11  H   -0.000006   0.000905   0.000086   0.000761   0.000048  -0.000134
    12  C    0.000064   0.002617  -0.000815  -0.291817   0.029923   0.014568
    13  C   -0.000001   0.000095  -0.000066   0.341696  -0.060293  -0.041375
    14  C    0.000117   0.000120  -0.000128   0.000004   0.000000   0.000000
    15  H   -0.000010  -0.000018  -0.000012   0.000001   0.000000  -0.000000
    16  H   -0.000005  -0.000090   0.000037  -0.000000   0.000000   0.000000
    17  H   -0.000025   0.000015  -0.000027  -0.000000  -0.000000   0.000000
    18  C    0.388897   0.406132   0.409823   0.000029  -0.000002  -0.000000
    19  H    0.481980  -0.017637  -0.009877  -0.000000  -0.000000   0.000000
    20  H   -0.017637   0.511161  -0.031860   0.000002  -0.000000  -0.000000
    21  H   -0.009877  -0.031860   0.487410  -0.000002   0.000000   0.000000
    22  C   -0.000000   0.000002  -0.000002   5.281415   0.416837   0.416652
    23  H   -0.000000  -0.000000   0.000000   0.416837   0.509789  -0.038156
    24  H    0.000000  -0.000000   0.000000   0.416652  -0.038156   0.492949
    25  H    0.000000   0.000000  -0.000000   0.377094  -0.012720  -0.008144
    26  C   -0.000000  -0.000007   0.000001  -0.015439   0.006402  -0.001830
    27  H    0.000000   0.000000  -0.000000   0.000846  -0.002821  -0.001205
    28  H   -0.000000   0.000000  -0.000000  -0.004269  -0.002244  -0.000613
    29  H   -0.000000  -0.000000  -0.000000   0.001325   0.000277   0.000170
              25         26         27         28         29
     1  O    0.014691   0.000423  -0.000090  -0.000056   0.000016
     2  O   -0.000000   0.000009  -0.000000  -0.000000   0.000000
     3  N    0.000014  -0.023606  -0.002175  -0.002329   0.004348
     4  H   -0.000003  -0.008938   0.000796   0.000749   0.001037
     5  C   -0.000062   0.001310   0.000454   0.000222   0.000067
     6  C   -0.003168   0.229776  -0.035195  -0.036059  -0.029784
     7  C    0.000016   0.007078  -0.001036  -0.000719   0.002150
     8  C   -0.000001   0.000641  -0.000011  -0.000013   0.000025
     9  C    0.000305   0.017544  -0.000149  -0.000540  -0.000921
    10  H   -0.000107  -0.000216   0.000041   0.000007   0.000009
    11  H   -0.000065  -0.000214  -0.000003   0.000037   0.000006
    12  C    0.030761  -0.102669  -0.004539  -0.006801   0.019146
    13  C   -0.035396  -0.057725   0.000509   0.002556   0.000571
    14  C    0.000000  -0.001050  -0.000045   0.000032   0.000184
    15  H    0.000000   0.000060   0.000002  -0.000018   0.000211
    16  H   -0.000000   0.000041   0.000002  -0.000003  -0.000010
    17  H    0.000000  -0.000020  -0.000004   0.000004  -0.000011
    18  C    0.000000  -0.000009   0.000000   0.000000  -0.000000
    19  H    0.000000  -0.000000   0.000000  -0.000000  -0.000000
    20  H    0.000000  -0.000007   0.000000   0.000000  -0.000000
    21  H   -0.000000   0.000001  -0.000000  -0.000000  -0.000000
    22  C    0.377094  -0.015439   0.000846  -0.004269   0.001325
    23  H   -0.012720   0.006402  -0.002821  -0.002244   0.000277
    24  H   -0.008144  -0.001830  -0.001205  -0.000613   0.000170
    25  H    0.468707   0.001906   0.000182   0.000078  -0.000032
    26  C    0.001906   5.129645   0.441144   0.447911   0.384175
    27  H    0.000182   0.441144   0.474707  -0.037301  -0.015140
    28  H    0.000078   0.447911  -0.037301   0.466480  -0.013622
    29  H   -0.000032   0.384175  -0.015140  -0.013622   0.484725
 Mulliken charges:
               1
     1  O   -0.395616
     2  O   -0.395174
     3  N   -0.123700
     4  H    0.285382
     5  C   -0.073991
     6  C    0.119327
     7  C    0.106952
     8  C    0.076407
     9  C   -0.227183
    10  H    0.162696
    11  H    0.165825
    12  C   -0.097355
    13  C    0.093243
    14  C   -0.389436
    15  H    0.136880
    16  H    0.164217
    17  H    0.169609
    18  C   -0.389714
    19  H    0.161041
    20  H    0.151841
    21  H    0.163230
    22  C   -0.427657
    23  H    0.158106
    24  H    0.166846
    25  H    0.165943
    26  C   -0.456340
    27  H    0.181031
    28  H    0.186510
    29  H    0.161079
 Sum of Mulliken charges =  -0.00000
 Mulliken charges with hydrogens summed into heavy atoms:
               1
     1  O   -0.395616
     2  O   -0.395174
     3  N    0.161682
     5  C   -0.073991
     6  C    0.119327
     7  C    0.106952
     8  C    0.076407
     9  C    0.101338
    12  C   -0.097355
    13  C    0.093243
    14  C    0.081271
    18  C    0.086398
    22  C    0.063238
    26  C    0.072280
 Electronic spatial extent (au):  <R**2>=           3186.7405
 Charge=             -0.0000 electrons
 Dipole moment (field-independent basis, Debye):
    X=              4.3770    Y=              7.4416    Z=             -0.2679  Tot=              8.6375
 Quadrupole moment (field-independent basis, Debye-Ang):
   XX=            -95.7633   YY=            -76.7352   ZZ=            -82.0924
   XY=             13.4069   XZ=              0.5257   YZ=              0.1680
 Traceless Quadrupole moment (field-independent basis, Debye-Ang):
   XX=            -10.8997   YY=              8.1284   ZZ=              2.7713
   XY=             13.4069   XZ=              0.5257   YZ=              0.1680
 Octapole moment (field-independent basis, Debye-Ang**2):
  XXX=            126.3822  YYY=             65.0751  ZZZ=              0.4957  XYY=            -36.9332
  XXY=             30.3106  XXZ=             -2.7967  XZZ=              0.6896  YZZ=             -1.5353
  YYZ=             -0.8525  XYZ=              0.2733
 Hexadecapole moment (field-independent basis, Debye-Ang**3):
 XXXX=          -3010.1697 YYYY=          -1212.3767 ZZZZ=           -106.8841 XXXY=             41.5656
 XXXZ=             11.3279 YYYX=             97.5748 YYYZ=             -1.1498 ZZZX=             -0.7332
 ZZZY=              0.5177 XXYY=           -663.4255 XXZZ=           -462.0771 YYZZ=           -223.9092
 XXYZ=              2.5650 YYXZ=             -2.0126 ZZXY=              1.7862
 N-N= 9.085642642376D+02 E-N=-3.294992013179D+03  KE= 6.335906734632D+02
 No NMR shielding tensors so no spin-rotation constants.
 Leave Link  601 at Mon Mar  9 15:13:39 2026, MaxMem=  2147483648 cpu:               4.0 elap:               0.2
 (Enter /data/home/wyx/g16/l701.exe)
 ... and contract with generalized density number  0.
 Compute integral first derivatives.
 R6Disp: Adding Grimme-D2 dispersion energy 1st derivatives to the gradient.
 D1PCM: PCM CHGder 1st derivatives, ID1Alg=3 FixD1E=F DoIter=F DoCFld=F I1PDM=0.
 GePol: Maximum number of non-zero 1st derivatives   =     228
 Leave Link  701 at Mon Mar  9 15:13:40 2026, MaxMem=  2147483648 cpu:              22.0 elap:               0.7
 (Enter /data/home/wyx/g16/l702.exe)
 L702 exits ... SP integral derivatives will be done elsewhere.
 Leave Link  702 at Mon Mar  9 15:13:40 2026, MaxMem=  2147483648 cpu:               0.4 elap:               0.0
 (Enter /data/home/wyx/g16/l703.exe)
 Integral derivatives from FoFJK, PRISM(SPDF).
 Compute integral first derivatives, UseDBF=F ICtDFT=           0.
 Calling FoFJK, ICntrl=      2127 FMM=F ISym2X=0 I1Cent= 0 IOpClX= 0 NMat=1 NMatS=1 NMatT=0.
 FoFJK:  IHMeth= 1 ICntrl=    2127 DoSepK=T KAlg= 0 I1Cent=           0 FoldK=F
 IRaf=         1 NMat=       1 IRICut=       1 DoRegI=T DoRafI=F ISym2E= 0 IDoP0=0 IntGTp=1.
 FoFCou: FMM=F IPFlag=           0 FMFlag=      100000 FMFlg1=         800
         NFxFlg=           0 DoJE=F BraDBF=F KetDBF=F FulRan=T
         wScrn=  0.000000 ICntrl=      2527 IOpCl=  0 I1Cent=           0 NGrid=           0
         NMat0=    1 NMatS0=      1 NMatT0=    0 NMatD0=    1 NMtDS0=    0 NMtDT0=    0
 Symmetry not used in FoFCou.
 Leave Link  703 at Mon Mar  9 15:13:47 2026, MaxMem=  2147483648 cpu:             209.3 elap:               6.6
 (Enter /data/home/wyx/g16/l716.exe)
 Dipole        = 1.72204037D+00 2.92775053D+00-1.05404760D-01
 ***** Axes restored to original set *****
 -------------------------------------------------------------------
 Center     Atomic                   Forces (Hartrees/Bohr)
 Number     Number              X              Y              Z
 -------------------------------------------------------------------
      1        8          -0.000773189    0.012443907   -0.001115166
      2        8           0.011685911   -0.001451458    0.001783832
      3        7           0.067588614   -0.205565050    0.019672445
      4        1          -0.065457768    0.202864015   -0.018638091
      5        6          -0.002166618    0.013818930    0.001251679
      6        6           0.004034720   -0.010843536    0.000036239
      7        6           0.002145425   -0.007289361   -0.000115417
      8        6          -0.019752642    0.005622381   -0.002863103
      9        6          -0.043780158    0.119856857   -0.004202569
     10        1           0.009793547   -0.065660690    0.091590712
     11        1           0.036634796   -0.062328778   -0.087684616
     12        6          -0.006426536    0.015471991   -0.001115189
     13        6           0.005608282   -0.024001061    0.002837001
     14        6           0.113846885   -0.043091736    0.014077888
     15        1           0.005711901    0.123644800   -0.019008306
     16        1          -0.053283822   -0.055840073   -0.095528794
     17        1          -0.069808222   -0.024357132    0.099296845
     18        6          -0.041654332    0.112193910   -0.005948260
     19        1          -0.095315269   -0.075464306   -0.019084166
     20        1           0.090502246   -0.018137355   -0.087091753
     21        1           0.052267472   -0.021615773    0.112648132
     22        6          -0.095316029   -0.072811546   -0.014642126
     23        1           0.009033919    0.075086461   -0.099988761
     24        1          -0.017634856    0.073212984    0.100863900
     25        1           0.101238573   -0.067348448    0.012845200
     26        6          -0.065499904   -0.107204842   -0.009297361
     27        1           0.055288610    0.004951596    0.109812965
     28        1           0.086403383    0.005868203   -0.089428922
     29        1          -0.074914939    0.097975111   -0.010964236
 -------------------------------------------------------------------
 Cartesian Forces:  Max     0.205565050 RMS     0.066313391
 Leave Link  716 at Mon Mar  9 15:13:48 2026, MaxMem=  2147483648 cpu:               0.5 elap:               0.0
 (Enter /data/home/wyx/g16/l103.exe)

 GradGradGradGradGradGradGradGradGradGradGradGradGradGradGradGradGradGrad
 Berny optimization.
 FormGI is forming the generalized inverse of G from B-inverse, IUseBI=4.
 Internal  Forces:  Max     0.213974451 RMS     0.042941471
 Search for a local minimum.
 Step number   1 out of a maximum of  150
 All quantities printed in internal units (Hartrees-Bohrs-Radians)
 RMS Force = .42941D-01 SwitMx=.10000D-02 MixMth= 1
 Mixed Optimization -- RFO/linear search
 Second derivative matrix not updated -- first step.
 ITU=  0
     Eigenvalues ---    0.00654   0.00662   0.00666   0.00730   0.00758
     Eigenvalues ---    0.00926   0.00935   0.01281   0.01312   0.01361
     Eigenvalues ---    0.01454   0.01540   0.01686   0.01989   0.02127
     Eigenvalues ---    0.02187   0.04354   0.06653   0.07465   0.07473
[...]
 00001515,0.00001317,-0.00001769,0.00002931,0.00019840,-0.00000411,-0.0
 0000064,-0.00001733,0.00003319,-0.00001379,-0.00002180,-0.00032560,-0.
 00050388,0.00021131,-0.00005428,0.00002048,0.00009215,0.00006223,0.000
 04785,-0.00005573,-0.00002358,-0.00009240,-0.00035751,0.00007683,-0.00
 000760,0.00002814,-0.00013511,-0.00000738,0.00007272,-0.00004848,0.000
 33358,-0.00135486,0.00123766,-0.01284758,0.01616123,-0.00000609,-0.000
 00769,-0.00001445,-0.00000103,0.00000463,-0.00000090,-0.00000979,0.000
 00265,-0.00000011,-0.00000565,0.00000164,0.00000042,-0.00001002,-0.000
 01115,0.00000357,-0.00000524,-0.00000380,0.00000076,0.00000374,0.00000
 807,0.00000427,0.00000427,0.00000330,-0.00000386,-0.02612325,-0.151216
 75,0.13790950,0.02485438,0.16708161,-0.00032086,-0.00173489,-0.0019169
 7,-0.00005105,-0.00000449,0.00000128,-0.00037538,-0.00011983,-0.000046
 49,0.00003823,-0.00001147,0.00007164,-0.00004724,-0.00007000,0.0000164
 5,0.00034716,0.00042457,0.00010626,0.00009888,0.00015490,-0.00005480,0
 .00009629,0.00005453,-0.00000634,0.00017070,-0.00005844,-0.00008732,0.
 00001120,-0.00002230,0.00000379,-0.00000706,-0.00000466,-0.00000398,0.
 00010665,0.00072873,-0.00032625,-0.00021211,-0.00582273,0.00775767,-0.
 00000385,-0.00000820,0.00000070,0.00000536,-0.00000002,0.00000176,-0.0
 0000210,-0.00000287,0.00000146,-0.00000224,-0.00000094,-0.00000136,0.0
 0000067,-0.00000246,0.00000395,0.00000042,-0.00000290,-0.00000033,0.00
 000145,-0.00000058,-0.00000118,0.00000053,-0.00000347,0.00000102,0.030
 14115,0.13362591,-0.20472023,-0.03139768,-0.14664646,0.22093807,-0.002
 42905,-0.00343982,0.00240662,-0.00015115,-0.00001883,-0.00004543,-0.00
 108653,0.00020128,-0.00044924,-0.00003272,-0.00007744,-0.00007111,-0.0
 0009589,-0.00017324,0.00005892,0.00039211,-0.00110408,-0.00034076,0.00
 028513,0.00041350,0.00003568,0.00022563,0.00016126,0.00011142,0.000137
 80,-0.00026546,0.00025542,-0.00006664,0.00002038,-0.00009673,0.0000765
 3,0.00004246,-0.00001222,-0.00222726,0.00173866,0.00175202,0.01064135,
 -0.01095574,-0.02228443,-0.00000368,0.00000552,0.00000839,0.00000558,0
 .00000211,0.00000001,0.00000112,-0.00000260,0.00000151,0.00000054,-0.0
 0000409,-0.00000373,-0.00000045,-0.00000441,0.00000659,-0.00000149,-0.
 00000731,-0.00000380,0.00000595,-0.00000213,-0.00000132,0.00000704,0.0
 0000045,0.00000131,-0.05799506,0.02857418,0.04049227,-0.00132409,0.003
 31628,0.00347863,0.05968360,-0.00467263,-0.00363759,0.00142085,-0.0000
 6244,-0.00001721,-0.00002068,0.00010918,0.00001234,-0.00019640,0.00000
 572,0.00000459,0.00000274,0.00005179,-0.00002954,0.00000112,-0.0001565
 6,-0.00064508,-0.00011857,-0.00002533,0.00001411,-0.00008072,0.0000400
 1,0.00004853,0.00006540,-0.00012865,-0.00009742,0.00029474,-0.00010221
 ,0.00002211,-0.00011113,0.00006854,-0.00001054,-0.00001277,-0.00052267
 ,0.00027809,0.00133166,0.00774923,-0.01166182,-0.01574252,-0.00000933,
 -0.00000233,0.00001475,-0.00000161,0.00000462,-0.00000019,-0.00000576,
 0.00000090,-0.00000182,-0.00001025,0.00000298,-0.00000238,-0.00001000,
 -0.00001084,-0.00000500,-0.00000527,-0.00000398,-0.00000215,0.00000303
 ,0.00000349,0.00000520,0.00000433,0.00000777,-0.00000496,0.03044508,-0
 .12367489,-0.12706108,-0.00351265,0.01193118,0.01746129,-0.03348976,0.
 13704495,-0.00055959,-0.00001509,-0.00027648,0.00000777,0.00000024,-0.
 00000821,0.00003670,0.00027329,-0.00012028,-0.00007752,-0.00002001,0.0
 0002742,0.00000906,0.00004610,0.00003880,-0.00036540,-0.00095140,-0.00
 015238,0.00001246,-0.00005865,-0.00006063,-0.00002755,-0.00000817,0.00
 002271,-0.00011486,-0.00004083,0.00002911,-0.00001089,0.00002498,-0.00
 005357,0.00002981,0.00005376,0.00000268,-0.00089870,0.00006444,0.00061
 533,0.00269654,-0.00051768,-0.00341782,0.00000495,0.00001539,0.0000092
 3,-0.00000431,0.00000062,-0.00000049,0.00000534,-0.00000097,-0.0000007
 2,0.00000182,0.00000157,-0.00000021,-0.00000032,0.00000349,0.00000517,
 -0.00000047,0.00000090,-0.00000180,0.00000222,0.00000267,0.00000069,0.
 00000063,0.00000076,-0.00000069,0.04175859,-0.12363212,-0.22603483,0.0
 0452738,-0.01441332,-0.01910365,-0.04692554,0.13457217,0.24181045,0.00
 477738,0.00202401,0.00127554,-0.00034213,-0.00009314,-0.00001390,-0.00
 082385,0.00008063,-0.00012547,-0.00003064,-0.00002071,0.00000167,-0.00
 016330,-0.00079571,-0.00005814,0.00107546,-0.00089735,0.00018701,0.000
 23909,0.00035473,0.00003576,0.00023607,0.00035003,-0.00000978,-0.00096
 962,0.00085984,-0.00016711,0.00003076,-0.00002920,0.00004550,0.0000148
 6,-0.00006108,-0.00005132,-0.00147581,-0.00413044,-0.00061924,-0.02514
 246,0.01550506,-0.00441854,-0.00002049,-0.00000802,-0.00000626,0.00000
 009,0.00001381,-0.00000112,-0.00001444,0.00000306,0.00000106,-0.000013
 03,0.00000273,-0.00000406,-0.00001885,-0.00003321,0.00000199,-0.000011
 71,-0.00001632,-0.00000231,0.00000869,0.00000634,0.00000813,0.00001006
 ,0.00000373,-0.00000732,-0.23871231,0.12228365,-0.03501523,0.00598741,
 -0.00394419,0.00039631,-0.00352907,0.00134599,-0.00068151,0.25854604,-
 0.00020917,0.00248826,0.00020750,-0.00009490,-0.00004136,-0.00000043,-
 0.00002508,0.00021091,-0.00001667,-0.00007026,-0.00002670,-0.00000454,
 -0.00011831,-0.00029433,-0.00005004,-0.00008999,-0.00061256,-0.0000491
 9,0.00001243,-0.00006990,0.00000888,-0.00001805,0.00010938,-0.00001349
 ,-0.00090835,0.00051599,-0.00012323,0.00003108,0.00005265,0.00002142,0
 .00003936,0.00004085,-0.00001336,-0.00164814,-0.00307615,-0.00040063,-
 0.02174817,0.00937599,-0.00425748,0.00000164,0.00001288,0.00000011,-0.
 00000572,0.00000578,-0.00000154,-0.00000049,0.00000175,0.00000002,-0.0
 0000128,0.00000213,-0.00000073,-0.00000742,-0.00000455,0.00000017,-0.0
 0000285,-0.00000475,-0.00000092,0.00000202,0.00000267,0.00000258,0.000
 00279,0.00000191,-0.00000249,0.12851658,-0.12751675,0.02349321,0.01564
 568,-0.00918226,0.00063780,0.01248822,-0.00812665,0.00441383,-0.132763
 04,0.13662035,0.00113221,0.00063305,-0.00019972,-0.00006841,-0.0000236
 6,-0.00002638,-0.00009599,0.00001062,-0.00009513,-0.00000186,-0.000001
 54,-0.00000111,-0.00003851,-0.00019061,0.00012238,0.00019909,-0.000181
 47,0.00012725,0.00004148,0.00004041,-0.00004479,0.00002509,0.00007474,
 0.00005110,-0.00030244,0.00024001,0.00004495,-0.00002531,-0.00004578,0
 .00001233,0.00002980,0.00003707,0.00000051,-0.00047527,-0.00110489,0.0
 0046186,-0.00612678,0.00391327,-0.00186973,-0.00000572,0.00000051,0.00
 001285,-0.00000189,0.00000345,0.00000128,-0.00000167,-0.00000029,-0.00
 000041,-0.00000533,0.00000263,-0.00000170,-0.00000418,-0.00000812,-0.0
 0000708,-0.00000357,-0.00000339,0.00000380,0.00000228,0.00000083,0.000
 00289,0.00000090,0.00000201,-0.00000205,-0.03468111,0.02207167,-0.0545
 4184,-0.02115296,0.01170592,-0.00263156,0.02234876,-0.01323080,0.00583
 475,0.03917901,-0.02405120,0.05245980,0.00074957,-0.00180004,-0.000061
 58,-0.00025487,-0.00006689,-0.00003971,-0.03434770,-0.03428910,-0.0058
 9428,-0.00062730,-0.00306892,0.00051011,-0.00083073,-0.00106267,-0.000
 00237,-0.11956261,-0.04021562,-0.00680012,-0.00148411,0.00333473,-0.00
 151529,0.00061817,0.00036453,0.00019808,-0.00137877,0.00337358,-0.0019
 6511,0.00043843,0.00069893,0.00015150,-0.00003090,0.00018171,-0.000023
 36,0.01792201,0.00152247,0.00266695,-0.00296774,0.00199547,0.00072523,
 -0.00035503,-0.00077488,0.00007489,0.00008591,0.00005690,0.00001264,-0
 .00017878,0.00003023,-0.00000633,-0.00016319,0.00003269,-0.00005629,0.
 00003588,-0.00008272,-0.00003143,0.00002738,-0.00003796,0.00000744,-0.
 00002251,-0.00002878,-0.00001810,-0.00001823,-0.00002095,0.00003116,-0
 .00260491,0.00023669,-0.00121885,-0.00214211,0.00275623,-0.00160142,-0
 .00162295,0.00169532,0.00070389,0.00022513,0.00057666,0.00019114,0.577
 72930,-0.00035407,-0.00116042,-0.00010463,-0.00008024,0.00000407,0.000
 00072,-0.00734569,-0.00076803,-0.00090796,0.00341314,0.00286738,0.0004
 1747,0.00035040,-0.00026799,0.00001817,-0.06279195,-0.18414267,-0.0076
 0271,0.00266130,-0.00039302,0.00048173,0.00002077,0.00002381,-0.000020
 04,0.00248525,-0.00043610,0.00093715,-0.00034006,-0.00056066,-0.000164
 59,-0.00022584,-0.00040635,-0.00000950,-0.01554787,-0.02154039,-0.0020
 3475,0.00035388,0.00220506,-0.00016376,0.00011790,0.00044366,-0.000037
 93,-0.00005627,-0.00002942,-0.00000441,0.00008984,-0.00001524,0.000012
 66,0.00009155,-0.00001692,0.00001191,-0.00005536,-0.00004951,-0.000000
 14,-0.00002713,-0.00000119,-0.00000706,-0.00000187,0.00001820,0.000030
 99,0.00000078,0.00001898,-0.00003511,0.00334777,-0.00248112,0.00071754
 ,0.00111640,-0.00130836,0.00118519,0.00078636,-0.00034956,-0.00062724,
 -0.00009120,-0.00099230,-0.00000579,-0.04460231,0.52026613,0.00005214,
 -0.00040987,0.00082621,0.00006379,0.00001333,0.00013126,-0.00666292,-0
 .00623563,0.00713032,0.00043615,-0.00051281,-0.00280962,-0.00001900,0.
 00002272,-0.00063269,-0.00678785,-0.00304760,-0.07650139,-0.00144723,0
 .00090127,0.00563636,0.00002227,-0.00011657,-0.00079618,-0.00169100,0.
 00028282,0.00824180,-0.00087336,-0.00086310,-0.00024908,0.00102662,0.0
 0108190,-0.00001587,0.00322424,0.00071453,0.00528254,0.00016861,0.0005
 0826,-0.00560362,-0.00006116,-0.00029265,-0.00042478,0.00002199,0.0000
 1526,-0.00001518,-0.00009415,0.00007849,0.00005022,-0.00001062,-0.0000
 1857,0.00007018,-0.00002223,0.00000106,0.00021365,0.00000607,-0.000000
 33,-0.00002338,0.00003028,0.00002350,-0.00004208,-0.00002196,-0.000028
 53,-0.00003834,-0.00079043,0.00015794,0.00077433,0.00033119,-0.0002489
 4,0.00017899,-0.00062075,0.00092934,0.00019353,0.00017522,0.00002422,-
 0.00041071,0.00617868,-0.00529784,0.56270944,-0.00009589,-0.00005714,0
 .00003315,-0.00021252,-0.00003824,-0.00000379,-0.00191416,-0.00316012,
 0.00014464,0.00063589,-0.00017355,-0.00039112,-0.00012742,-0.00033173,
 -0.00005181,-0.00995569,-0.00161232,-0.01431391,-0.00033912,0.00049442
 ,0.00061534,0.00030512,0.00016586,-0.00007533,-0.00019226,-0.00007794,
 0.00059523,-0.00010701,-0.00008314,-0.00002503,0.00007825,0.00003453,-
 0.00001243,-0.00014676,0.00130738,0.00034974,0.00057562,0.00007520,-0.
 00071533,-0.00006520,-0.00015020,-0.00003075,0.00003131,0.00001478,0.0
 0000209,-0.00004706,0.00000904,0.00000463,-0.00004826,0.00000031,-0.00
 000188,-0.00002049,-0.00002985,0.00002468,-0.00000413,-0.00001596,-0.0
 0000241,0.00000755,0.00000402,-0.00000082,0.00000580,-0.00000454,-0.00
 000444,-0.00091774,0.00145692,0.00069207,-0.00034271,0.00005695,0.0002
 4835,-0.00106665,0.00173171,-0.00066811,0.00002006,-0.00005855,0.00004
 811,-0.10190267,-0.00943289,-0.11652231,0.11317464,0.00081707,-0.00082
 781,0.00014977,-0.00004379,-0.00002480,0.00001529,0.00005698,-0.002665
 64,0.00019911,-0.00046148,-0.00028272,-0.00002893,0.00014598,0.0000733
 0,-0.00009389,-0.01356568,-0.00011908,-0.02626403,-0.00098200,0.000093
 09,0.00039478,0.00001723,0.00003238,-0.00007216,-0.00018108,0.00018150
 ,0.00120860,-0.00020995,-0.00021687,-0.00000924,0.00003321,0.00008603,
 -0.00005442,0.00174078,-0.00119334,0.00163383,-0.00256776,0.00022494,-
 0.00161789,-0.00006017,-0.00017001,-0.00003300,0.00000407,0.00001919,-
 0.00000035,-0.00004394,0.00001597,0.00000615,-0.00004624,0.00001166,0.
 00000453,-0.00001444,-0.00002768,0.00002917,-0.00000605,-0.00000440,-0
 .00001209,0.00000441,0.00001048,0.00000197,-0.00000496,0.00000526,-0.0
 0001648,0.00077331,-0.00095316,-0.00043017,0.00020907,-0.00022816,0.00
 003519,0.00193774,-0.00122821,0.00094929,-0.00001197,0.00021377,0.0003
 0872,-0.00990261,-0.04799257,-0.01812113,0.01058696,0.05248326,0.00017
 192,0.00038671,-0.00003257,-0.00001532,-0.00000215,-0.00000175,0.00107
 364,0.00004581,-0.00061462,0.00011055,-0.00001645,0.00008222,0.0000062
 0,0.00001347,0.00001126,0.00073507,-0.00078651,0.00186750,0.00015331,-
 0.00003733,-0.00027049,0.00001919,0.00000537,0.00001619,0.00003725,-0.
 00015261,0.00005408,-0.00005301,-0.00002015,-0.00002549,-0.00000585,-0
 .00000802,-0.00002243,-0.00054295,0.00030936,0.00076368,-0.00050060,-0
 .00052612,-0.00013500,0.00000920,0.00000734,0.00005702,0.00000172,-0.0
 0000016,-0.00000026,0.00000592,-0.00000634,0.00000044,-0.00001230,0.00
 000401,-0.00000490,-0.00000324,-0.00000455,-0.00000476,-0.00000166,-0.
 00000121,-0.00000044,0.00000083,0.00000069,0.00000110,-0.00000023,0.00
 000202,-0.00000214,-0.00130097,0.00138228,0.00034731,0.00018759,-0.000
 16103,-0.00091888,-0.00042394,0.00032037,0.00068276,-0.00004571,0.0005
 4585,0.00010174,-0.11515762,-0.01850064,-0.26461954,0.12672147,0.01796
 118,0.28284551,-0.00001375,0.00025780,-0.00002139,-0.00024548,-0.00004
 541,-0.00003207,-0.00145803,-0.00284679,-0.00034484,0.00045794,-0.0001
 6529,0.00059027,-0.00013926,-0.00036427,0.00005776,-0.01258249,-0.0017
 4558,0.01019794,-0.00007425,0.00035902,-0.00076903,0.00032917,0.000216
 44,0.00013239,0.00005191,-0.00010097,-0.00062879,0.00003987,0.00002161
 ,0.00003166,-0.00012983,-0.00010049,-0.00000010,-0.00019440,0.00138644
 ,-0.00068616,-0.00003159,-0.00025575,0.00064923,-0.00005432,-0.0001168
 6,0.00002415,0.00002868,0.00001440,0.00000659,-0.00004801,-0.00000529,
 -0.00000610,-0.00003743,0.00000403,-0.00001403,-0.00001366,-0.00003370
 ,-0.00002671,-0.00000566,-0.00001743,0.00000024,0.00000456,-0.00000462
 ,0.00000542,0.00000681,0.00000453,0.00000074,-0.00024497,0.00133278,-0
 .00068637,-0.00145277,0.00180498,-0.00050132,0.00013142,-0.00045536,0.
 00003859,0.00005663,-0.00001231,-0.00011294,-0.17459359,-0.00911905,0.
 14093642,0.01129609,0.00107220,-0.01162506,0.19147524,0.00074382,-0.00
 088555,0.00008765,-0.00006854,-0.00003026,-0.00001313,0.00022207,-0.00
 226637,-0.00016751,-0.00042820,-0.00024112,-0.00006681,0.00012929,0.00
 002735,0.00003398,-0.02043992,-0.00044622,0.02166388,-0.00071533,-0.00
 010870,-0.00067972,0.00002837,0.00006486,0.00005061,0.00027913,0.00022
 600,-0.00139498,0.00004748,0.00010879,0.00006487,-0.00028879,-0.000277
 16,-0.00006148,0.00161188,-0.00116823,-0.00049488,-0.00269323,0.000136
 22,0.00064251,-0.00005053,-0.00011239,0.00005421,0.00000215,0.00001697
 ,-0.00000168,-0.00003757,0.00000160,-0.00001302,-0.00003613,0.00000996
 ,-0.00001589,-0.00001119,-0.00003142,-0.00002681,-0.00000942,-0.000006
 29,0.00000903,-0.00000723,0.00000844,0.00001578,0.00000438,0.00000822,
 -0.00000233,0.00039732,-0.00070737,0.00033117,0.00214114,-0.00086080,0
 .00023633,-0.00013890,0.00008392,-0.00015229,0.00007246,0.00022096,-0.
 00018726,-0.00988590,-0.04670584,0.00982611,0.00176464,-0.00036418,-0.
 00104998,0.01077693,0.05112579,-0.00016880,-0.00033610,-0.00019363,-0.
 00006671,-0.00001186,-0.00000966,-0.00128014,-0.00076054,-0.00098304,-
 0.00000072,-0.00002390,0.00019779,-0.00006819,-0.00015970,0.00002834,-
 0.00417692,0.00027194,0.00377417,-0.00000063,0.00015279,-0.00049984,0.
 00008865,0.00007328,0.00005566,-0.00005788,0.00013665,-0.00010905,0.00
 003215,0.00002114,-0.00001158,0.00002491,0.00000146,-0.00001599,0.0000
 3986,0.00014418,0.00093548,0.00068138,0.00051433,0.00023442,-0.0000297
 6,-0.00002026,0.00006341,0.00000624,0.00000314,0.00000109,0.00000203,-
 0.00000722,-0.00000250,-0.00001515,0.00000567,-0.00000761,0.00000149,-
 0.00000733,-0.00001102,0.00000030,-0.00000381,-0.00000114,0.00000138,-
 0.00000394,-0.00000058,0.00000072,0.00000096,0.00000123,0.00077126,-0.
 00060477,0.00009628,-0.00108462,0.00047658,0.00072933,0.00028350,0.000
 00540,-0.00044471,-0.00001645,-0.00048195,0.00024488,0.13988787,0.0101
 6245,-0.18998374,0.02041252,0.00091613,-0.01934699,-0.15107464,-0.0095
 8201,0.20180353,0.00017857,0.00030556,0.00007067,0.00015540,0.00002722
 ,0.00001594,0.00036758,-0.00366047,0.00014854,-0.00103622,-0.00065111,
 -0.00033199,0.00033040,0.00021773,0.00001893,0.00994939,-0.01701824,0.
 00203220,0.00018812,-0.00064035,0.00001902,-0.00024796,-0.00016916,-0.
 00002806,0.00026570,-0.00060511,-0.00000931,-0.00006469,-0.00008730,-0
 .00001699,-0.00007851,-0.00010561,-0.00000452,-0.00244329,-0.00185514,
 -0.00046365,-0.00058859,-0.00058477,-0.00013207,0.00003267,0.00011649,
 0.00001473,-0.00001680,0.00001196,-0.00000393,0.00003556,0.00000512,-0
 .00000185,0.00002735,0.00000672,0.00000574,-0.00002425,-0.00000083,-0.
 00000390,-0.00000580,0.00000493,-0.00000049,-0.00000412,0.00001097,0.0
 0000721,-0.00000314,0.00001020,-0.00000819,-0.00107054,0.00050246,0.00
 001930,0.00028853,0.00020299,-0.00061967,0.00003888,-0.00007947,0.0004
 9900,0.00003999,0.00046562,-0.00009393,-0.15274304,0.13523645,-0.01704
 872,-0.00862459,0.01070313,0.00045460,-0.01255882,0.01658983,-0.004193
 64,0.16761224,0.00045421,-0.00068740,0.00005864,-0.00001836,-0.0000203
 1,0.00000504,0.00332911,0.00207424,0.00050398,-0.00271151,-0.00033164,
 -0.00029291,0.00050606,0.00038410,0.00001234,0.01862978,-0.02382829,0.
 00304989,-0.00050229,-0.00005192,-0.00000477,-0.00015938,0.00001085,-0
 .00003368,0.00087294,-0.00058681,0.00028976,-0.00021111,-0.00030030,-0
 .00005423,-0.00017762,-0.00024573,-0.00002651,-0.00425902,-0.00213797,
 -0.00070998,-0.00124174,0.00096030,-0.00025303,0.00000993,0.00001957,0
 .00000451,-0.00004052,0.00001771,-0.00000833,0.00000390,0.00001344,-0.
 00000227,0.00000034,0.00001344,0.00000102,-0.00002230,-0.00001672,-0.0
 0000054,-0.00002126,0.00000843,-0.00000246,0.00000227,0.00001843,0.000
 02232,0.00000544,0.00001710,-0.00002325,-0.00012570,0.00019678,-0.0000
 2867,0.00000704,0.00004497,-0.00002771,-0.00000459,0.00003610,0.000014
 27,-0.00001049,0.00007203,-0.00001012,0.12898322,-0.21622963,0.0206128
 1,-0.00247653,0.00284783,0.00028881,-0.00186198,0.00217284,-0.00088272
 ,-0.13895983,0.23552854,0.00005418,0.00001538,-0.00001436,0.00003087,0
 .00000420,-0.00000226,0.00001994,-0.00059835,-0.00001558,-0.00030741,-
 0.00001595,0.00074857,0.00003748,0.00002815,0.00000937,0.00156482,-0.0
 0200866,-0.00243876,0.00003137,-0.00009516,-0.00001517,-0.00004593,-0.
 00003126,0.00002206,-0.00011634,-0.00006938,0.00073448,-0.00009144,-0.
 00014970,-0.00002128,0.00008297,0.00014503,0.00000900,-0.00030554,-0.0
 0029341,0.00065659,-0.00009417,-0.00010897,-0.00034826,0.00000927,0.00
 001898,-0.00003077,-0.00000073,0.00000198,0.00000331,0.00000181,-0.000
 00024,-0.00000015,0.00001001,0.00000213,0.00000222,-0.00000295,-0.0000
 0043,-0.00000186,-0.00000007,0.00000099,-0.00000467,-0.00000094,-0.000
 00304,-0.00000056,-0.00000090,0.00000580,-0.00000277,-0.00013465,0.000
 14849,-0.00050585,-0.00020881,-0.00015461,0.00000699,0.00003795,0.0001
 6612,0.00040385,-0.00006372,0.00011229,0.00034985,-0.01694772,0.021548
 12,-0.04927264,-0.01707254,0.02294007,-0.00083054,0.01385816,-0.019106
 35,0.00345546,0.01965503,-0.02250223,0.04710372\\-0.00004193,0.0001479
 1,-0.00001733,0.00013549,-0.00000086,0.00002636,0.00014268,-0.00001950
 ,0.00010614,-0.00003048,0.00010646,0.00000675,-0.00001408,0.00013214,-
 0.00008402,-0.00006993,0.00004829,-0.00005072,-0.00002093,-0.00009383,
 -0.00003330,-0.00014155,-0.00000513,-0.00004016,0.00001343,-0.00003933
 ,0.00005203,0.00003895,-0.00002992,0.00006650,-0.00002512,0.00003648,0
 .00011278,0.00008790,0.00005880,-0.00010996,-0.00004516,-0.00015513,0.
 00018309,0.00012168,-0.00016095,-0.00010895,-0.00002788,0.00006867,0.0
 0001864,-0.00001394,0.00007070,-0.00001223,-0.00002601,-0.00003279,0.0
 0005495,-0.00001300,0.00004818,0.00013003,-0.00006004,-0.00004357,0.00
 000286,0.00000587,-0.00007498,-0.00010956,0.00005419,0.00003829,-0.000
 05876,-0.00002913,-0.00001205,-0.00032634,0.00014658,-0.00003455,0.000
 07882,-0.00007485,0.00003960,0.00011771,0.00002814,-0.00001248,0.00000
 830,-0.00011752,-0.00014704,0.00007545,0.00000751,0.00002256,0.0000042
 4,0.00000505,0.00004056,-0.00009116,-0.00003592,0.00000348,-0.00000217
 \\\@


 THOSE WHO ASPIRE NOT TO GUESS AND DIVINE,
 BUT TO DISCOVER AND KNOW, WHO PROPOSE NOT TO DEVISE 
 MIMIC AND FABULOUS WORLDS OF THEIR OWN, BUT TO 
 EXAMINE AND DISSECT THE NATURE OF THIS VERY WORLD 
 ITSELF, MUST GO TO THE FACTS THEMSELVES FOR EVERYTHING.

                               -- FRANCIS BACON, 1620
 Job cpu time:       0 days  2 hours 27 minutes  2.5 seconds.
 Elapsed time:       0 days  0 hours  4 minutes 37.5 seconds.
 File lengths (MBytes):  RWF=    428 Int=      0 D2E=      0 Chk=     21 Scr=      1
 Normal termination of Gaussian 16 at Mon Mar  9 15:33:56 2026.
