 Entering Gaussian System, Link 0=g16
 Input=DDL-S2-TD-Neq.gjf
 Output=DDL-S2-TD-Neq.log
 Initial command:
 /data/home/wyx/g16/l1.exe "/scr/tmp/wyx/13950/Gau-3084499.inp" -scrdir="/scr/tmp/wyx/13950/"
 Entering Link 1 = /data/home/wyx/g16/l1.exe PID=   3084500.
  
 Copyright (c) 1988,1990,1992,1993,1995,1998,2003,2009,2016,
            Gaussian, Inc.  All Rights Reserved.
  
 This is part of the Gaussian(R) 16 program.  It is based on
 the Gaussian(R) 09 system (copyright 2009, Gaussian, Inc.),
 the Gaussian(R) 03 system (copyright 2003, Gaussian, Inc.),
 the Gaussian(R) 98 system (copyright 1998, Gaussian, Inc.),
 the Gaussian(R) 94 system (copyright 1995, Gaussian, Inc.),
 the Gaussian 92(TM) system (copyright 1992, Gaussian, Inc.),
 the Gaussian 90(TM) system (copyright 1990, Gaussian, Inc.),
 the Gaussian 88(TM) system (copyright 1988, Gaussian, Inc.),
 the Gaussian 86(TM) system (copyright 1986, Carnegie Mellon
 University), and the Gaussian 82(TM) system (copyright 1983,
 Carnegie Mellon University). Gaussian is a federally registered
 trademark of Gaussian, Inc.
  
 This software contains proprietary and confidential information,
 including trade secrets, belonging to Gaussian, Inc.
  
 This software is provided under written license and may be
 used, copied, transmitted, or stored only in accord with that
 written license.
  
 The following legend is applicable only to US Government
 contracts under FAR:
  
                    RESTRICTED RIGHTS LEGEND
  
 Use, reproduction and disclosure by the US Government is
 subject to restrictions as set forth in subparagraphs (a)
 and (c) of the Commercial Computer Software - Restricted
 Rights clause in FAR 52.227-19.
  
 Gaussian, Inc.
 340 Quinnipiac St., Bldg. 40, Wallingford CT 06492
  
  
 ---------------------------------------------------------------
 Warning -- This program may not be used in any manner that
 competes with the business of Gaussian, Inc. or will provide
 assistance to any competitor of Gaussian, Inc.  The licensee
 of this program is prohibited from giving any competitor of
 Gaussian, Inc. access to this program.  By using this program,
 the user acknowledges that Gaussian, Inc. is engaged in the
 business of creating and licensing software in the field of
 computational chemistry and represents and warrants to the
 licensee that it is not a competitor of Gaussian, Inc. and that
 it will not use this program in any manner prohibited above.
 ---------------------------------------------------------------
  

 Cite this work as:
 Gaussian 16, Revision A.03,
 M. J. Frisch, G. W. Trucks, H. B. Schlegel, G. E. Scuseria, 
 M. A. Robb, J. R. Cheeseman, G. Scalmani, V. Barone, 
 G. A. Petersson, H. Nakatsuji, X. Li, M. Caricato, A. V. Marenich, 
 J. Bloino, B. G. Janesko, R. Gomperts, B. Mennucci, H. P. Hratchian, 
 J. V. Ortiz, A. F. Izmaylov, J. L. Sonnenberg, D. Williams-Young, 
 F. Ding, F. Lipparini, F. Egidi, J. Goings, B. Peng, A. Petrone, 
 T. Henderson, D. Ranasinghe, V. G. Zakrzewski, J. Gao, N. Rega, 
 G. Zheng, W. Liang, M. Hada, M. Ehara, K. Toyota, R. Fukuda, 
 J. Hasegawa, M. Ishida, T. Nakajima, Y. Honda, O. Kitao, H. Nakai, 
 T. Vreven, K. Throssell, J. A. Montgomery, Jr., J. E. Peralta, 
 F. Ogliaro, M. J. Bearpark, J. J. Heyd, E. N. Brothers, K. N. Kudin, 
 V. N. Staroverov, T. A. Keith, R. Kobayashi, J. Normand, 
 K. Raghavachari, A. P. Rendell, J. C. Burant, S. S. Iyengar, 
 J. Tomasi, M. Cossi, J. M. Millam, M. Klene, C. Adamo, R. Cammi, 
 J. W. Ochterski, R. L. Martin, K. Morokuma, O. Farkas, 
 J. B. Foresman, and D. J. Fox, Gaussian, Inc., Wallingford CT, 2016.
 
 ******************************************
 Gaussian 16:  ES64L-G16RevA.03 25-Dec-2016
                10-Mar-2026 
 ******************************************
 %nprocshared=32
 Will use up to   32 processors via shared memory.
 %mem=16GB
 %oldchk=DDL-S2-opt-freq.chk
 %chk=DDL-S2-TD-Neq.chk
 Copying data from "DDL-S2-opt-freq.chk" to current chk file "DDL-S2-TD-Neq.chk"
 IOpt=  2 FromEx=T IUOpen= 4 IOptOp= 5 NList=   0 IFRang= 0 IUIn= 4 IUOut= 2.
 ----------------------------------------------------------------------
 #p wB97XD/TZVP TD=NStates=6 SCRF=(Solvent=Water) Geom=Check Guess=Read
  NoSymm
 ----------------------------------------------------------------------
 1/29=2,38=1,172=1/1;
 2/12=2,15=1,40=1/2;
 3/5=19,7=101,11=9,14=-4,25=1,30=1,70=2201,72=1,74=-58,116=-2/1,2,3,8;
 4/5=1/1;
 5/5=2,38=6,53=1/2;
 8/6=1,10=1,108=6/1;
 9/41=6,42=1,70=2/14;
 6/7=2,8=2,9=2,10=2/1;
 99/5=1,9=1/99;
 Leave Link    1 at Tue Mar 10 09:05:09 2026, MaxMem=  2147483648 cpu:               1.7 elap:               0.1
 (Enter /data/home/wyx/g16/l101.exe)
 -------------------
 Title Card Required
 -------------------
 Structure from the checkpoint file:  "DDL-S2-TD-Neq.chk"
 Charge =  0 Multiplicity = 1
 Redundant internal coordinates found in file.  (old form).
 O,0,1.3553408534,9.8397125856,0.9115970113
 O,0,-4.8489950009,9.7397980899,-0.2742357404
 N,0,-2.1116495374,12.9210044863,0.3788888948
 H,0,-2.4322458303,13.8737159049,0.3394287493
 C,0,-2.6865572878,10.6148534289,0.2249495815
 C,0,-0.7812211681,12.7145221997,0.560341511
 C,0,-3.0693317856,11.9325775893,0.1668092127
 C,0,-3.5910425702,9.5583150211,0.0130450537
 C,0,-1.2523051243,10.2536942801,0.553857844
 H,0,-1.213745628,9.7141515804,1.5073103818
 H,0,-0.8695286784,9.5483774286,-0.1882033165
 C,0,-0.3020740686,11.4344209488,0.6148593789
 C,0,1.0879684243,11.0361462472,0.7733427633
 C,0,-4.4311106792,12.4771292636,-0.096979471
 H,0,-4.4267821375,13.1542081025,-0.9569010691
 H,0,-5.146640964,11.6805917869,-0.3086125015
 H,0,-4.8090392473,13.0346673571,0.7663473023
 C,0,-3.2714489422,8.0838715142,0.0913334947
 H,0,-3.412210887,7.6080600779,-0.8832548437
 H,0,-2.2418557212,7.9481015093,0.4122331903
 H,0,-3.9347461801,7.5884978674,0.8050824911
 C,0,2.2458665218,12.0125376183,0.7558395954
 H,0,2.1815460572,12.7268433127,-0.0628823349
 H,0,2.2924768052,12.5747632013,1.6904574697
 H,0,3.1643826012,11.4370676594,0.6586137992
 C,0,-0.0019333147,13.9953220701,0.676901293
 H,0,0.686782906,13.9770921408,1.5165612588
 H,0,0.5703940406,14.1902733518,-0.2305559747
 H,0,-0.6794644869,14.8355178259,0.8258249751
 Recover connectivity data from disk.
 ITRead=  0  0  0  0  0  0  0  0  0  0  0  0  0  0  0  0  0  0  0  0
 ITRead=  0  0  0  0  0  0  0  0  0
 MicOpt= -1 -1 -1 -1 -1 -1 -1 -1 -1 -1 -1 -1 -1 -1 -1 -1 -1 -1 -1 -1
 MicOpt= -1 -1 -1 -1 -1 -1 -1 -1 -1
                           ----------------------------
                           !    Current Parameters    !
                           ! (Angstroms and Degrees)  !
 --------------------------                            --------------------------
 ! Name  Definition              Value                                          !
 --------------------------------------------------------------------------------
 ! R1    R(1,13)                 1.2337                                         !
 ! R2    R(2,8)                  1.303                                          !
 ! R3    R(3,4)                  1.006                                          !
 ! R4    R(3,6)                  1.3585                                         !
 ! R5    R(3,7)                  1.3925                                         !
 ! R6    R(5,7)                  1.3734                                         !
 ! R7    R(5,8)                  1.4069                                         !
 ! R8    R(5,9)                  1.5152                                         !
 ! R9    R(6,12)                 1.3679                                         !
 ! R10   R(6,26)                 1.5038                                         !
 ! R11   R(7,14)                 1.4902                                         !
 ! R12   R(8,18)                 1.5107                                         !
 ! R13   R(9,10)                 1.0962                                         !
 ! R14   R(9,11)                 1.093                                          !
 ! R15   R(9,12)                 1.5168                                         !
 ! R16   R(12,13)                1.4546                                         !
 ! R17   R(13,22)                1.5147                                         !
 ! R18   R(14,15)                1.0945                                         !
 ! R19   R(14,16)                1.0914                                         !
 ! R20   R(14,17)                1.095                                          !
 ! R21   R(18,19)                1.0936                                         !
 ! R22   R(18,20)                1.087                                          !
 ! R23   R(18,21)                1.0931                                         !
 ! R24   R(22,23)                1.0884                                         !
 ! R25   R(22,24)                1.0917                                         !
 ! R26   R(22,25)                1.0883                                         !
 ! R27   R(26,27)                1.0861                                         !
 ! R28   R(26,28)                1.0904                                         !
 ! R29   R(26,29)                1.0896                                         !
 ! A1    A(4,3,6)              117.4697                                         !
 ! A2    A(4,3,7)              116.5562                                         !
 ! A3    A(6,3,7)              125.8712                                         !
 ! A4    A(7,5,8)              122.3423                                         !
 ! A5    A(7,5,9)              120.113                                          !
 ! A6    A(8,5,9)              117.5335                                         !
 ! A7    A(3,6,12)             119.3789                                         !
 ! A8    A(3,6,26)             112.8552                                         !
 ! A9    A(12,6,26)            127.7658                                         !
 ! A10   A(3,7,5)              118.8753                                         !
 ! A11   A(3,7,14)             113.3318                                         !
 ! A12   A(5,7,14)             127.792                                          !
 ! A13   A(2,8,5)              123.3173                                         !
 ! A14   A(2,8,18)             110.5846                                         !
 ! A15   A(5,8,18)             126.0963                                         !
 ! A16   A(5,9,10)             109.842                                          !
 ! A17   A(5,9,11)             109.7518                                         !
 ! A18   A(5,9,12)             114.5943                                         !
 ! A19   A(10,9,11)            105.1044                                         !
 ! A20   A(10,9,12)            109.0331                                         !
 ! A21   A(11,9,12)            108.0731                                         !
 ! A22   A(6,12,9)             120.4913                                         !
 ! A23   A(6,12,13)            126.5327                                         !
 ! A24   A(9,12,13)            112.9479                                         !
 ! A25   A(1,13,12)            119.0014                                         !
 ! A26   A(1,13,22)            117.4355                                         !
 ! A27   A(12,13,22)           123.5551                                         !
 ! A28   A(7,14,15)            111.1943                                         !
 ! A29   A(7,14,16)            111.5144                                         !
 ! A30   A(7,14,17)            111.2174                                         !
 ! A31   A(15,14,16)           107.561                                          !
 ! A32   A(15,14,17)           107.8084                                         !
 ! A33   A(16,14,17)           107.3497                                         !
 ! A34   A(8,18,19)            110.5619                                         !
 ! A35   A(8,18,20)            109.7305                                         !
 ! A36   A(8,18,21)            110.3516                                         !
 ! A37   A(19,18,20)           109.3092                                         !
 ! A38   A(19,18,21)           107.8558                                         !
 ! A39   A(20,18,21)           108.9906                                         !
 ! A40   A(13,22,23)           112.7402                                         !
 ! A41   A(13,22,24)           110.7762                                         !
 ! A42   A(13,22,25)           107.7803                                         !
 ! A43   A(23,22,24)           107.97                                           !
 ! A44   A(23,22,25)           109.2514                                         !
 ! A45   A(24,22,25)           108.2273                                         !
 ! A46   A(6,26,27)            111.9768                                         !
 ! A47   A(6,26,28)            111.0858                                         !
 ! A48   A(6,26,29)            110.19                                           !
 ! A49   A(27,26,28)           108.2724                                         !
 ! A50   A(27,26,29)           107.5527                                         !
 ! A51   A(28,26,29)           107.5934                                         !
 ! D1    D(4,3,6,12)          -179.7554                                         !
 ! D2    D(4,3,6,26)             0.1497                                         !
 ! D3    D(7,3,6,12)            -3.5861                                         !
 ! D4    D(7,3,6,26)           176.319                                          !
 ! D5    D(4,3,7,5)           -179.2777                                         !
 ! D6    D(4,3,7,14)             0.4162                                         !
 ! D7    D(6,3,7,5)              4.522                                          !
 ! D8    D(6,3,7,14)          -175.7842                                         !
 ! D9    D(8,5,7,3)           -179.5424                                         !
 ! D10   D(8,5,7,14)             0.8134                                         !
 ! D11   D(9,5,7,3)              1.7094                                         !
 ! D12   D(9,5,7,14)          -177.9349                                         !
 ! D13   D(7,5,8,2)              1.1354                                         !
 ! D14   D(7,5,8,18)          -178.3277                                         !
 ! D15   D(9,5,8,2)            179.9144                                         !
 ! D16   D(9,5,8,18)             0.4513                                         !
 ! D17   D(7,5,9,10)           115.3644                                         !
 ! D18   D(7,5,9,11)          -129.5537                                         !
 ! D19   D(7,5,9,12)            -7.7599                                         !
 ! D20   D(8,5,9,10)           -63.443                                          !
 ! D21   D(8,5,9,11)            51.6389                                         !
 ! D22   D(8,5,9,12)           173.4327                                         !
 ! D23   D(3,6,12,9)            -3.499                                          !
 ! D24   D(3,6,12,13)          178.5693                                         !
 ! D25   D(26,6,12,9)          176.6116                                         !
 ! D26   D(26,6,12,13)          -1.3201                                         !
 ! D27   D(3,6,26,27)          132.8762                                         !
 ! D28   D(3,6,26,28)         -105.9276                                         !
 ! D29   D(3,6,26,29)           13.2127                                         !
 ! D30   D(12,6,26,27)         -47.2284                                         !
 ! D31   D(12,6,26,28)          73.9678                                         !
 ! D32   D(12,6,26,29)        -166.8919                                         !
 ! D33   D(3,7,14,15)           57.0735                                         !
 ! D34   D(3,7,14,16)          177.1199                                         !
 ! D35   D(3,7,14,17)          -63.0861                                         !
 ! D36   D(5,7,14,15)         -123.2657                                         !
 ! D37   D(5,7,14,16)           -3.2193                                         !
 ! D38   D(5,7,14,17)          116.5746                                         !
 ! D39   D(2,8,18,19)           64.0452                                         !
 ! D40   D(2,8,18,20)         -175.3091                                         !
 ! D41   D(2,8,18,21)          -55.1924                                         !
 ! D42   D(5,8,18,19)         -116.434                                          !
 ! D43   D(5,8,18,20)            4.2116                                         !
 ! D44   D(5,8,18,21)          124.3283                                         !
 ! D45   D(5,9,12,6)             8.7256                                         !
 ! D46   D(5,9,12,13)         -173.0791                                         !
 ! D47   D(10,9,12,6)         -114.8326                                         !
 ! D48   D(10,9,12,13)          63.3628                                         !
 ! D49   D(11,9,12,6)          131.431                                          !
 ! D50   D(11,9,12,13)         -50.3736                                         !
 ! D51   D(6,12,13,1)          174.2991                                         !
 ! D52   D(6,12,13,22)          -6.7644                                         !
 ! D53   D(9,12,13,1)           -3.7655                                         !
 ! D54   D(9,12,13,22)         175.171                                          !
 ! D55   D(1,13,22,23)         132.7321                                         !
 ! D56   D(1,13,22,24)        -106.1498                                         !
 ! D57   D(1,13,22,25)          12.0786                                         !
 ! D58   D(12,13,22,23)        -46.2198                                         !
 ! D59   D(12,13,22,24)         74.8982                                         !
 ! D60   D(12,13,22,25)       -166.8734                                         !
 --------------------------------------------------------------------------------
 NAtoms=     29 NQM=       29 NQMF=       0 NMMI=      0 NMMIF=      0
                NMic=       0 NMicF=      0.
                    Isotopes and Nuclear Properties:
 (Nuclear quadrupole moments (NQMom) in fm**2, nuclear magnetic moments (NMagM)
  in nuclear magnetons)

  Atom         1           2           3           4           5           6           7           8           9          10
 IAtWgt=          16          16          14           1          12          12          12          12          12           1
 AtmWgt=  15.9949146  15.9949146  14.0030740   1.0078250  12.0000000  12.0000000  12.0000000  12.0000000  12.0000000   1.0078250
 NucSpn=           0           0           2           1           0           0           0           0           0           1
 AtZEff=   5.6000000   5.6000000   4.5500000   1.0000000   3.6000000   3.6000000   3.6000000   3.6000000   3.6000000   1.0000000
 NQMom=    0.0000000   0.0000000   2.0440000   0.0000000   0.0000000   0.0000000   0.0000000   0.0000000   0.0000000   0.0000000
 NMagM=    0.0000000   0.0000000   0.4037610   2.7928460   0.0000000   0.0000000   0.0000000   0.0000000   0.0000000   2.7928460
 AtZNuc=   8.0000000   8.0000000   7.0000000   1.0000000   6.0000000   6.0000000   6.0000000   6.0000000   6.0000000   1.0000000

  Atom        11          12          13          14          15          16          17          18          19          20
 IAtWgt=           1          12          12          12           1           1           1          12           1           1
 AtmWgt=   1.0078250  12.0000000  12.0000000  12.0000000   1.0078250   1.0078250   1.0078250  12.0000000   1.0078250   1.0078250
 NucSpn=           1           0           0           0           1           1           1           0           1           1
 AtZEff=   1.0000000   3.6000000   3.6000000   3.6000000   1.0000000   1.0000000   1.0000000   3.6000000   1.0000000   1.0000000
 NQMom=    0.0000000   0.0000000   0.0000000   0.0000000   0.0000000   0.0000000   0.0000000   0.0000000   0.0000000   0.0000000
 NMagM=    2.7928460   0.0000000   0.0000000   0.0000000   2.7928460   2.7928460   2.7928460   0.0000000   2.7928460   2.7928460
 AtZNuc=   1.0000000   6.0000000   6.0000000   6.0000000   1.0000000   1.0000000   1.0000000   6.0000000   1.0000000   1.0000000

  Atom        21          22          23          24          25          26          27          28          29
 IAtWgt=           1          12           1           1           1          12           1           1           1
 AtmWgt=   1.0078250  12.0000000   1.0078250   1.0078250   1.0078250  12.0000000   1.0078250   1.0078250   1.0078250
 NucSpn=           1           0           1           1           1           0           1           1           1
 AtZEff=   1.0000000   3.6000000   1.0000000   1.0000000   1.0000000   3.6000000   1.0000000   1.0000000   1.0000000
 NQMom=    0.0000000   0.0000000   0.0000000   0.0000000   0.0000000   0.0000000   0.0000000   0.0000000   0.0000000
 NMagM=    2.7928460   0.0000000   2.7928460   2.7928460   2.7928460   0.0000000   2.7928460   2.7928460   2.7928460
 AtZNuc=   1.0000000   6.0000000   1.0000000   1.0000000   1.0000000   6.0000000   1.0000000   1.0000000   1.0000000
 Leave Link  101 at Tue Mar 10 09:05:12 2026, MaxMem=  2147483648 cpu:               6.6 elap:               0.2
 (Enter /data/home/wyx/g16/l202.exe)
                          Input orientation:                          
 ---------------------------------------------------------------------
 Center     Atomic      Atomic             Coordinates (Angstroms)
 Number     Number       Type             X           Y           Z
 ---------------------------------------------------------------------
      1          8           0        1.355341    9.839713    0.911597
      2          8           0       -4.848995    9.739798   -0.274236
      3          7           0       -2.111650   12.921004    0.378889
      4          1           0       -2.432246   13.873716    0.339429
      5          6           0       -2.686557   10.614853    0.224950
      6          6           0       -0.781221   12.714522    0.560342
      7          6           0       -3.069332   11.932578    0.166809
      8          6           0       -3.591043    9.558315    0.013045
      9          6           0       -1.252305   10.253694    0.553858
     10          1           0       -1.213746    9.714152    1.507310
     11          1           0       -0.869529    9.548377   -0.188203
     12          6           0       -0.302074   11.434421    0.614859
     13          6           0        1.087968   11.036146    0.773343
     14          6           0       -4.431111   12.477129   -0.096979
     15          1           0       -4.426782   13.154208   -0.956901
     16          1           0       -5.146641   11.680592   -0.308613
     17          1           0       -4.809039   13.034667    0.766347
     18          6           0       -3.271449    8.083872    0.091333
     19          1           0       -3.412211    7.608060   -0.883255
     20          1           0       -2.241856    7.948102    0.412233
     21          1           0       -3.934746    7.588498    0.805082
     22          6           0        2.245867   12.012538    0.755840
     23          1           0        2.181546   12.726843   -0.062882
     24          1           0        2.292477   12.574763    1.690457
     25          1           0        3.164383   11.437068    0.658614
     26          6           0       -0.001933   13.995322    0.676901
     27          1           0        0.686783   13.977092    1.516561
     28          1           0        0.570394   14.190273   -0.230556
     29          1           0       -0.679464   14.835518    0.825825
 ---------------------------------------------------------------------
                    Distance matrix (angstroms):
                    1          2          3          4          5
     1  O    0.000000
     2  O    6.317433   0.000000
     3  N    4.668850   4.247318   0.000000
     4  H    5.562946   4.827684   1.005981   0.000000
     5  C    4.172442   2.385591   2.381711   3.270774   0.000000
     6  C    3.599001   5.108061   1.358528   2.029388   2.855066
     7  C    4.951012   2.858322   1.392523   2.050291   1.373424
     8  C    5.035205   1.303039   3.691900   4.480181   1.406866
     9  C    2.664428   3.726393   2.807780   3.813502   1.515155
    10  H    2.640236   4.048407   3.516173   4.488949   2.150555
    11  H    2.498896   3.984996   3.638553   4.629150   2.147012
    12  C    2.319089   4.933227   2.353758   3.250177   2.551368
    13  C    1.233716   6.166480   3.734413   4.542245   3.837352
    14  C    6.438650   2.774712   2.409020   2.477169   2.571998
    15  H    6.921713   3.507491   2.683013   2.485224   3.297495
    16  H    6.866842   1.963786   3.349993   3.549323   2.733587
    17  H    6.944668   3.455513   2.727445   2.556445   3.263976
    18  C    5.016273   2.316114   4.982537   5.855605   2.601119
    19  H    5.561593   2.641886   5.613541   6.458617   3.285650
    20  H    4.094799   3.237065   4.974719   5.929119   2.710055
    21  H    5.750159   2.574659   5.651632   6.479067   3.324659
    22  C    2.353394   7.520868   4.467141   5.051942   5.154044
    23  H    3.157174   7.641702   4.320230   4.771189   5.314299
    24  H    2.994219   7.930805   4.608299   5.082869   5.547949
    25  H    2.426556   8.244098   5.487880   6.112396   5.924323
    26  C    4.377941   6.519828   2.386184   2.456643   4.340396
    27  H    4.234485   7.197670   3.200132   3.335366   4.934808
    28  H    4.565965   7.012732   3.029162   3.072611   4.857864
    29  H    5.394985   6.675438   2.432338   2.057641   4.712057
                    6          7          8          9         10
     6  C    0.000000
     7  C    2.449848   0.000000
     8  C    4.261018   2.435764   0.000000
     9  C    2.505521   2.504005   2.499145   0.000000
    10  H    3.175854   3.187720   2.812233   1.096205   0.000000
    11  H    3.254626   3.263369   2.728963   1.092998   1.738026
    12  C    1.367923   2.847213   3.833962   1.516831   2.141714
    13  C    2.521148   4.295884   4.965398   2.477354   2.753955
    14  C    3.716197   1.490155   3.039292   3.933454   4.534229
    15  H    3.973092   2.144243   3.817028   4.557705   5.313185
    16  H    4.569571   2.145865   2.650926   4.236242   4.757324
    17  H    4.045769   2.144908   3.759788   4.519881   4.949847
    18  C    5.278648   3.854749   1.510713   2.999834   2.982775
    19  H    5.923009   4.463368   2.153794   3.705383   3.870875
    20  H    4.987400   4.076886   2.138327   2.512972   2.318434
    21  H    6.023350   4.475194   2.150729   3.789707   3.523545
    22  C    3.113561   5.348335   6.375301   3.920654   4.220924
    23  H    3.027631   5.315575   6.585447   4.276467   4.803105
    24  H    3.277852   5.610962   6.821178   4.386878   4.528823
    25  H    4.148414   6.272687   7.041466   4.573672   4.780872
    26  C    1.503770   3.731493   5.745384   3.946942   4.526200
    27  H    2.159508   4.484447   6.331346   4.307035   4.667414
    28  H    2.151796   4.301476   6.231527   4.408423   5.122402
    29  H    2.139967   3.817438   6.081675   4.625497   5.194061
                   11         12         13         14         15
    11  H    0.000000
    12  C    2.126987   0.000000
    13  C    2.640042   1.454633   0.000000
    14  C    4.612025   4.317742   5.770106   0.000000
    15  H    5.123179   4.737227   6.155681   1.094495   0.000000
    16  H    4.780641   4.937938   6.360526   1.091441   1.763525
    17  H    5.346506   4.785026   6.226462   1.094994   1.769179
    18  C    2.827037   4.507488   5.309010   4.547636   5.304894
    19  H    3.273097   5.153478   5.894718   5.036290   5.638664
    20  H    2.191960   3.994776   4.555672   5.056108   5.809645
    21  H    3.771379   5.293734   6.092204   4.995879   5.858653
    22  C    4.082767   2.616504   1.514719   6.747234   6.982917
    23  H    4.407653   2.880635   2.180285   6.617458   6.682209
    24  H    4.763051   3.031334   2.158537   6.957808   7.245185
    25  H    4.533949   3.466734   2.117875   7.703517   7.948852
    26  C    4.612640   2.579176   3.154982   4.745673   4.791249
    27  H    4.994181   2.873340   3.059818   5.571915   5.739660
    28  H    4.860285   3.011752   3.350256   5.288455   5.154879
    29  H    5.386857   3.428468   4.190680   4.526413   4.477422
                   16         17         18         19         20
    16  H    0.000000
    17  H    1.761543   0.000000
    18  C    4.075868   5.227830   0.000000
    19  H    4.463628   5.841266   1.093633   0.000000
    20  H    4.784232   5.708676   1.086956   1.778665   0.000000
    21  H    4.410696   5.516036   1.093067   1.767458   1.774690
    22  C    7.476123   7.128573   6.805641   7.355263   6.064434
    23  H    7.406575   7.046322   7.163527   7.626603   6.529057
    24  H    7.754760   7.176143   7.326839   7.989718   6.603032
    25  H    8.370660   8.132613   7.279125   7.764679   6.439022
    26  C    5.726887   4.902971   6.780698   7.406834   6.454160
    27  H    6.529472   5.626282   7.240782   7.945152   6.793025
    28  H    6.244124   5.591739   7.221600   7.720925   6.876528
    29  H    5.585353   4.505551   7.269291   7.913596   7.074505
                   21         22         23         24         25
    21  H    0.000000
    22  C    7.600956   0.000000
    23  H    8.035234   1.088428   0.000000
    24  H    8.026521   1.091687   1.763416   0.000000
    25  H    8.076545   1.088251   1.774837   1.766146   0.000000
    26  C    7.518700   2.998378   2.631331   2.882638   4.070695
    27  H    7.916999   2.620861   2.508402   2.138929   3.650520
    28  H    8.059297   2.919369   2.183015   3.043967   3.885813
    29  H    7.944595   4.065916   3.663563   3.832889   5.133477
                   26         27         28         29
    26  C    0.000000
    27  H    1.086136   0.000000
    28  H    1.090433   1.763919   0.000000
    29  H    1.089567   1.755176   1.759098   0.000000
 Symmetry turned off by external request.
 Stoichiometry    C11H15NO2
 Framework group  C1[X(C11H15NO2)]
 Deg. of freedom    81
 Full point group                 C1      NOp   1
 Rotational constants (GHZ):           1.0955335           0.4785899           0.3372713
 Leave Link  202 at Tue Mar 10 09:05:13 2026, MaxMem=  2147483648 cpu:               0.1 elap:               0.0
 (Enter /data/home/wyx/g16/l301.exe)
 Standard basis: TZVP (5D, 7F)
 Ernie: Thresh=  0.10000D-02 Tol=  0.10000D-05 Strict=F.
   356 basis functions,   610 primitive gaussians,   370 cartesian basis functions
    52 alpha electrons       52 beta electrons
       nuclear repulsion energy       896.1214369477 Hartrees.
 IExCor= 4639 DFT=T Ex+Corr=wB97XD ExCW=0 ScaHFX=  1.000000
 ScaDFX=  1.000000  1.000000  1.000000  1.000000 ScalE2=  1.000000  1.000000
 IRadAn=      5 IRanWt=     -1 IRanGd=            0 ICorTp=0 IEmpDi=121
 HFx  wShort=  0.000000 wLong=  0.200000 cFull=  0.222036 cShort=  0.000000 cLong=  0.777964
 DFx  wShort=  0.000000 wLong=  0.200000 cFull=  0.000000 cShort=  0.000000 cLong=  1.000000
 NAtoms=   29 NActive=   29 NUniq=   29 SFac= 1.00D+00 NAtFMM=   60 NAOKFM=F Big=F
 Integral buffers will be    131072 words long.
 Raffenetti 1 integral format.
 Two-electron integral symmetry is turned off.
 R6Disp:  Grimme-D2 Dispersion energy=       -0.0195704352 Hartrees.
 Nuclear repulsion after empirical dispersion term =      896.1018665124 Hartrees.
 ------------------------------------------------------------------------------
 Polarizable Continuum Model (PCM)
 =================================
 Model                : PCM.
 Atomic radii         : UFF (Universal Force Field).
 Polarization charges : Total charges.
 Charge compensation  : None.
 Solution method      : On-the-fly selection.
 Cavity type          : Scaled VdW (van der Waals Surface) (Alpha=1.100).
 Cavity algorithm     : GePol (No added spheres)
                        Default sphere list used, NSphG=   29.
                        Lebedev-Laikov grids with approx.  5.0 points / Ang**2.
                        Smoothing algorithm: York/Karplus (Gamma=1.0000).
                        Polarization charges: spherical gaussians, with
                                              point-specific exponents (IZeta= 3).
                        Self-potential: point-specific (ISelfS= 7).
                        Self-field    : sphere-specific E.n sum rule (ISelfD= 2).
 Solvent              : Water, Eps=  78.355300 Eps(inf)=   1.777849
 ------------------------------------------------------------------------------
 GePol: Number of generator spheres                  =      29
 GePol: Total number of spheres                      =      29
 GePol: Number of exposed spheres                    =      29 (100.00%)
 GePol: Number of points                             =    2096
 GePol: Average weight of points                     =       0.13
 GePol: Minimum weight of points                     =   0.11D-11
 GePol: Maximum weight of points                     =    0.20577
 GePol: Number of points with low weight             =     112
 GePol: Fraction of low-weight points (<1% of avg)   =       5.34%
 GePol: Cavity surface area                          =    269.037 Ang**2
 GePol: Cavity volume                                =    286.179 Ang**3
 Leave Link  301 at Tue Mar 10 09:05:13 2026, MaxMem=  2147483648 cpu:               1.1 elap:               0.0
 (Enter /data/home/wyx/g16/l302.exe)
 NPDir=0 NMtPBC=     1 NCelOv=     1 NCel=       1 NClECP=     1 NCelD=      1
         NCelK=      1 NCelE2=     1 NClLst=     1 CellRange=     0.0.
 One-electron integrals computed using PRISM.
 NBasis=   356 RedAO= T EigKep=  3.88D-05  NBF=   356
 NBsUse=   356 1.00D-06 EigRej= -1.00D+00 NBFU=   356
 Precomputing XC quadrature grid using
 IXCGrd= 4 IRadAn=           5 IRanWt=          -1 IRanGd=           0 AccXCQ= 0.00D+00.
 Generated NRdTot=       0 NPtTot=           0 NUsed=           0 NTot=          32
 NSgBfM=   366   366   366   366   366 MxSgAt=    29 MxSgA2=    29.
 Leave Link  302 at Tue Mar 10 09:05:13 2026, MaxMem=  2147483648 cpu:               6.3 elap:               0.2
 (Enter /data/home/wyx/g16/l303.exe)
 DipDrv:  MaxL=1.
 Leave Link  303 at Tue Mar 10 09:05:13 2026, MaxMem=  2147483648 cpu:               1.1 elap:               0.0
 (Enter /data/home/wyx/g16/l308.exe)
 Leave Link  308 at Tue Mar 10 09:05:13 2026, MaxMem=  2147483648 cpu:               1.4 elap:               0.1
 (Enter /data/home/wyx/g16/l401.exe)
 Initial guess from the checkpoint file:  "DDL-S2-TD-Neq.chk"
 B after Tr=     0.000000    0.000000    0.000000
         Rot=    1.000000    0.000000    0.000000    0.000000 Ang=   0.00 deg.
 Guess basis will be translated and rotated to current coordinates.
 JPrj=2 DoOrth=T DoCkMO=T.
 Leave Link  401 at Tue Mar 10 09:05:14 2026, MaxMem=  2147483648 cpu:               4.6 elap:               0.2
 (Enter /data/home/wyx/g16/l502.exe)
 Two-electron integral symmetry not used.
 Closed shell SCF:
 Using DIIS extrapolation, IDIIS=  1040.
 NGot=  2147483648 LenX=  2147195087 LenY=  2147057746
 Requested convergence on RMS density matrix=1.00D-08 within 128 cycles.
 Requested convergence on MAX density matrix=1.00D-06.
 Requested convergence on             energy=1.00D-06.
 No special actions if energy rises.
 Fock matrices will be formed incrementally for  20 cycles.

 Cycle   1  Pass 1  IDiag  1:
 FoFJK:  IHMeth= 1 ICntrl=       0 DoSepK=T KAlg= 0 I1Cent=           0 FoldK=F
 IRaf=         1 NMat=       1 IRICut=       1 DoRegI=T DoRafI=F ISym2E= 0 IDoP0=0 IntGTp=1.
 FoFCou: FMM=F IPFlag=           0 FMFlag=      100000 FMFlg1=           0
         NFxFlg=           0 DoJE=T BraDBF=F KetDBF=F FulRan=T
         wScrn=  0.000000 ICntrl=       500 IOpCl=  0 I1Cent=           0 NGrid=           0
         NMat0=    1 NMatS0=      1 NMatT0=    0 NMatD0=    1 NMtDS0=    0 NMtDT0=    0
 Symmetry not used in FoFCou.
 Inv3:  Mode=1 IEnd=    13179648.
 Iteration    1 A*A^-1 deviation from unit magnitude is 3.11D-15 for   1526.
 Iteration    1 A*A^-1 deviation from orthogonality  is 1.63D-15 for   1692    741.
 Iteration    1 A^-1*A deviation from unit magnitude is 2.66D-15 for   1105.
 Iteration    1 A^-1*A deviation from orthogonality  is 2.43D-13 for   1805   1753.
 E= -633.405271304413    
 DIIS: error= 6.80D-09 at cycle   1 NSaved=   1.
 NSaved= 1 IEnMin= 1 EnMin= -633.405271304413     IErMin= 1 ErrMin= 6.80D-09
 ErrMax= 6.80D-09  0.00D+00 EMaxC= 1.00D-01 BMatC= 1.48D-14 BMatP= 1.48D-14
 IDIUse=1 WtCom= 1.00D+00 WtEn= 0.00D+00
 Coeff-Com:  0.100D+01
 Coeff:      0.100D+01
 Gap=     0.266 Goal=   None    Shift=    0.000
 RMSDP=1.25D-09 MaxDP=6.90D-08              OVMax= 1.06D-07

 Error on total polarization charges =  0.01389
 SCF Done:  E(RwB97XD) =  -633.405271304     A.U. after    1 cycles
            NFock=  1  Conv=0.12D-08     -V/T= 2.0049
 KE= 6.303020277386D+02 PE=-3.268106266060D+03 EE= 1.108297100504D+03
 Leave Link  502 at Tue Mar 10 09:05:18 2026, MaxMem=  2147483648 cpu:             120.3 elap:               4.1
 (Enter /data/home/wyx/g16/l801.exe)
 DoSCS=F DFT=T ScalE2(SS,OS)=  1.000000  1.000000
 ExpMin= 9.52D-02 ExpMax= 2.70D+04 ExpMxC= 9.22D+02 IAcc=3 IRadAn=         5 AccDes= 0.00D+00
 HarFok:  IExCor=  205 AccDes= 0.00D+00 IRadAn=         5 IDoV=-2 UseB2=F ITyADJ=14
 ICtDFT= 12500011 ScaDFX=  1.000000  1.000000  1.000000  1.000000
 Largest valence mixing into a core orbital is  6.66D-05
 Largest core mixing into a valence orbital is  1.47D-05
 Range of M.O.s used for correlation:    15   356
 NBasis=   356 NAE=    52 NBE=    52 NFC=    14 NFV=     0
 NROrb=    342 NOA=    38 NOB=    38 NVA=   304 NVB=   304

 **** Warning!!: The largest alpha MO coefficient is  0.44332246D+02

 Leave Link  801 at Tue Mar 10 09:05:18 2026, MaxMem=  2147483648 cpu:               1.6 elap:               0.1
 (Enter /data/home/wyx/g16/l914.exe)
 RHF ground state
 Two-electron integral symmetry not used.
 MDV=  2147483648 DFT=T DoStab=F Mixed=T DoRPA=T DoScal=F NonHer=T
 NEqPCM:  Using non-equilibrium solvation (IEInf=1, Eps=  78.3553, EpsInf=   1.7778)
 Inv3:  Mode=1 IEnd=    13179648.
 Iteration    1 A*A^-1 deviation from unit magnitude is 3.77D-15 for    367.
 Iteration    1 A*A^-1 deviation from orthogonality  is 2.52D-15 for   2018    550.
 Iteration    1 A^-1*A deviation from unit magnitude is 4.00D-15 for    367.
 Iteration    1 A^-1*A deviation from orthogonality  is 2.10D-15 for   1499   1236.
 Making orbital integer symmetry assigments:
    24 initial guesses have been made.
 Convergence on wavefunction:    0.001000000000000
 Davidson Disk Diagonalization:  ConvIn= 1.00D-03 SkipCon=T Conv= 1.00D-03.
 Max sub-space:  2000 roots to seek:    24 dimension of matrix:        23104
 Iteration     1 Dimension    24 NMult     0 NNew     24
 CISAX will form    24 AO SS matrices at one time.
 NMat=    24 NSing=    24 JSym2X= 0.
 FoFJK:  IHMeth= 1 ICntrl=       0 DoSepK=T KAlg= 0 I1Cent=           0 FoldK=F
 IRaf=         1 NMat=      48 IRICut=       1 DoRegI=T DoRafI=F ISym2E= 0 IDoP0=3 IntGTp=3.
 New state      1 was old state      2
 New state      2 was old state      1
 New state      6 was old state      7
 Excitation Energies [eV] at current iteration:
 Root      1 :     3.494492401195808
 Root      2 :     3.669647896348445
 Root      3 :     4.413069336005773
 Root      4 :     5.458592489412045
 Root      5 :     6.280381423908949
 Root      6 :     6.612744357185381
 Root      7 :     6.716781629929587
 Root      8 :     6.783251021310289
 Root      9 :     6.934692364092516
 Root     10 :     7.270265694376279
 Root     11 :     7.414732899432357
 Root     12 :     7.515568779580456
 Root     13 :     7.566507943304191
 Root     14 :     7.801505567406911
 Root     15 :     7.855279830747803
 Root     16 :     8.199268463326236
 Root     17 :     8.253410308572075
 Root     18 :     8.279140331978542
 Root     19 :     8.437423539226621
 Root     20 :     8.522679783857829
 Root     21 :     8.650782300131290
 Root     22 :     8.767472745499044
 Root     23 :     8.879315188598001
 Root     24 :     9.371634342822666
 Iteration     2 Dimension    36 NMult    24 NNew     12
 CISAX will form    12 AO SS matrices at one time.
 NMat=    12 NSing=    12 JSym2X= 0.
 New state      1 was old state      2
 Root      1 not converged, maximum delta is    0.076922723792428
 New state      2 was old state      1
 Root      2 not converged, maximum delta is    0.079413187166113
 Root      3 not converged, maximum delta is    0.098811192867520
 Root      4 not converged, maximum delta is    0.365734834910606
 Root      5 not converged, maximum delta is    0.354408429465190
 Root      6 not converged, maximum delta is    0.157877877738210
 Excitation Energies [eV] at current iteration:
 Root      1 :     3.213934042586826   Change is   -0.455713853761619
 Root      2 :     3.317373143431164   Change is   -0.177119257764644
 Root      3 :     4.197732189749280   Change is   -0.215337146256493
 Root      4 :     5.127742401523925   Change is   -0.330850087888120
 Root      5 :     5.355022998112838   Change is   -0.925358425796111
 Root      6 :     6.363622599736935   Change is   -0.249121757448446
 Iteration     3 Dimension    48 NMult    36 NNew     12
 CISAX will form    12 AO SS matrices at one time.
 NMat=    12 NSing=    12 JSym2X= 0.
 Root      1 not converged, maximum delta is    0.007038493283251
 Root      2 not converged, maximum delta is    0.015032923776515
 Root      3 not converged, maximum delta is    0.012272063426903
 Root      4 not converged, maximum delta is    0.048376190044056
 Root      5 not converged, maximum delta is    0.048393338522549
 Root      6 not converged, maximum delta is    0.040652324431505
 Excitation Energies [eV] at current iteration:
 Root      1 :     3.196643531069526   Change is   -0.017290511517300
 Root      2 :     3.308264524633166   Change is   -0.009108618797998
 Root      3 :     4.186837498772627   Change is   -0.010894690976652
 Root      4 :     5.100678357474774   Change is   -0.027064044049151
 Root      5 :     5.328559213602933   Change is   -0.026463784509905
 Root      6 :     6.328198572570367   Change is   -0.035424027166568
 Iteration     4 Dimension    60 NMult    48 NNew     12
 CISAX will form    12 AO SS matrices at one time.
 NMat=    12 NSing=    12 JSym2X= 0.
 Root      1 not converged, maximum delta is    0.002032473305254
 Root      2 not converged, maximum delta is    0.002142859254160
 Root      3 not converged, maximum delta is    0.001655763559074
 Root      4 not converged, maximum delta is    0.005930772098103
 Root      5 not converged, maximum delta is    0.005752648185274
 Root      6 not converged, maximum delta is    0.024902236300125
 Excitation Energies [eV] at current iteration:
 Root      1 :     3.195598938811871   Change is   -0.001044592257655
 Root      2 :     3.307951182772087   Change is   -0.000313341861079
 Root      3 :     4.186312715576475   Change is   -0.000524783196152
 Root      4 :     5.097873913076089   Change is   -0.002804444398684
 Root      5 :     5.325342688119274   Change is   -0.003216525483658
 Root      6 :     6.323997833696999   Change is   -0.004200738873368
 Iteration     5 Dimension    72 NMult    60 NNew     12
 CISAX will form    12 AO SS matrices at one time.
 NMat=    12 NSing=    12 JSym2X= 0.
 Root      1 has converged.
 Root      2 has converged.
 Root      3 has converged.
 Root      4 has converged.
 Root      5 not converged, maximum delta is    0.001025786374852
 Root      6 not converged, maximum delta is    0.016606978645867
 Excitation Energies [eV] at current iteration:
 Root      1 :     3.195540112342791   Change is   -0.000058826469080
 Root      2 :     3.307936077224355   Change is   -0.000015105547732
 Root      3 :     4.186287144856062   Change is   -0.000025570720414
 Root      4 :     5.097684775222818   Change is   -0.000189137853272
 Root      5 :     5.325136231336455   Change is   -0.000206456782819
 Root      6 :     6.323017089485196   Change is   -0.000980744211803
 Iteration     6 Dimension    76 NMult    72 NNew      4
 CISAX will form     4 AO SS matrices at one time.
 NMat=     4 NSing=     4 JSym2X= 0.
 Root      1 has converged.
 Root      2 has converged.
 Root      3 has converged.
 Root      4 has converged.
 Root      5 has converged.
 Root      6 not converged, maximum delta is    0.006019212701812
 Excitation Energies [eV] at current iteration:
 Root      1 :     3.195539977387603   Change is   -0.000000134955189
 Root      2 :     3.307936025455855   Change is   -0.000000051768500
 Root      3 :     4.186286871709742   Change is   -0.000000273146321
 Root      4 :     5.097676384161453   Change is   -0.000008391061364
 Root      5 :     5.325121233875925   Change is   -0.000014997460530
 Root      6 :     6.322793064586094   Change is   -0.000224024899103
 Iteration     7 Dimension    78 NMult    76 NNew      2
 CISAX will form     2 AO SS matrices at one time.
 NMat=     2 NSing=     2 JSym2X= 0.
 Root      1 has converged.
 Root      2 has converged.
 Root      3 has converged.
 Root      4 has converged.
 Root      5 has converged.
 Root      6 has converged.
 Excitation Energies [eV] at current iteration:
 Root      1 :     3.195539947131911   Change is   -0.000000030255692
 Root      2 :     3.307936015107026   Change is   -0.000000010348829
 Root      3 :     4.186286827136408   Change is   -0.000000044573333
 Root      4 :     5.097676114100692   Change is   -0.000000270060761
 Root      5 :     5.325121196174797   Change is   -0.000000037701129
 Root      6 :     6.322773273178714   Change is   -0.000019791407379
 Convergence achieved on expansion vectors.
 ***********************************************************************
 Excited states from <AA,BB:AA,BB> singles matrix:
 ***********************************************************************
 
 1PDM for each excited state written to RWF  633
 Ground to excited state transition densities written to RWF  633
 Ground to excited state transition electric dipole moments (Au):
       state          X           Y           Z        Dip. S.      Osc.
         1         1.4926      0.5332      0.2594      2.5794      0.2019
         2        -0.0825     -0.0439     -0.0552      0.0118      0.0010
         3        -0.0243      0.0492      0.0334      0.0041      0.0004
         4        -0.5526      1.2894     -0.0389      1.9694      0.2460
         5        -0.1510      1.2893      0.0101      1.6852      0.2199
         6         0.0051     -0.0234     -0.0431      0.0024      0.0004
 Ground to excited state transition velocity dipole moments (Au):
       state          X           Y           Z        Dip. S.      Osc.
         1        -0.1718     -0.0620     -0.0301      0.0343      0.1945
         2         0.0097      0.0053      0.0057      0.0002      0.0008
         3         0.0027     -0.0072     -0.0014      0.0001      0.0003
         4         0.0909     -0.2276      0.0070      0.0601      0.2140
         5         0.0313     -0.2473     -0.0018      0.0621      0.2117
         6        -0.0006      0.0059      0.0159      0.0003      0.0008
 Ground to excited state transition magnetic dipole moments (Au):
       state          X           Y           Z
         1        -0.8750     -0.2236      5.1871
         2        -0.6068      0.0262     -0.4443
         3        -0.3405      0.8580     -0.1235
         4         0.3996      0.0610     -1.7297
         5         0.2717     -0.0177     -0.2557
         6         0.3929     -0.5809      0.0121
 Ground to excited state transition velocity quadrupole moments (Au):
       state          XX          YY          ZZ          XY          XZ          YZ
         1         0.9893     -2.3937     -0.0491     -2.9584     -0.0104     -0.5915
         2        -0.0413      0.2069     -0.0028      0.1574     -0.0370      0.0888
         3         0.0174     -0.3164     -0.0135      0.0684     -0.0554     -0.0544
         4         0.7177     -9.8870      0.0200      2.8718      0.2818      0.0227
         5         0.4357    -10.7350     -0.0008      1.8620      0.1779     -0.1196
         6        -0.0071      0.2735      0.0489      0.0232      0.0717      0.3858
 <0|del|b> * <b|rxdel|0> + <0|del|b> * <b|delr+rdel|0>
 Rotatory Strengths (R) in cgs (10**-40 erg-esu-cm/Gauss)
       state          XX          YY          ZZ    R(velocity)    E-M Angle
         1      -162.4680     18.9832    190.2954     15.6035       89.54
         2        -3.7762    -24.5481    -19.7221    -16.0154      151.98
         3       -14.9571     -1.8324    -15.0579    -10.6158      162.28
         4       109.9871     11.6159    -82.5771     13.0087       88.64
         5        82.1782     15.4708    -49.5128     16.0454       81.77
         6        -5.0486     -0.9324     -4.6088     -3.5299      107.03
 1/2[<0|r|b>*<b|rxdel|0> + (<0|rxdel|b>*<b|r|0>)*]
 Rotatory Strengths (R) in cgs (10**-40 erg-esu-cm/Gauss)
       state          XX          YY          ZZ     R(length)
         1       923.5511     84.3234   -951.6254     18.7497
         2       -35.3938      0.8139    -17.3514    -17.3104
         3        -5.8542    -29.8376      2.9162    -10.9252
         4       156.1737    -55.5874    -47.5958     17.6635
         5        29.0197     16.1092      1.8245     15.6511
         6        -1.4269     -9.5962      0.3688     -3.5514
  1/2[<0|del|b>*<b|r|0> + (<0|r|b>*<b|del|0>)*] (Au)
       state          X           Y           Z        Dip. S.   Osc.(frdel)
         1        -0.2563     -0.0331     -0.0078      0.2973      0.1982
         2        -0.0008     -0.0002     -0.0003      0.0013      0.0009
         3        -0.0001     -0.0004     -0.0000      0.0005      0.0003
         4        -0.0503     -0.2935     -0.0003      0.3440      0.2294
         5        -0.0047     -0.3188     -0.0000      0.3236      0.2157
         6        -0.0000     -0.0001     -0.0007      0.0008      0.0005

 Excitation energies and oscillator strengths:
 
 Excited state symmetry could not be determined.
 Excited State   1:      Singlet-?Sym    3.1955 eV  387.99 nm  f=0.2019  <S**2>=0.000
      52 -> 53         0.69888
 This state for optimization and/or second-order correction.
 Total Energy, E(TD-HF/TD-DFT) =  -633.287837372    
 Copying the excited state density for this state as the 1-particle RhoCI density.
 
 Excited state symmetry could not be determined.
 Excited State   2:      Singlet-?Sym    3.3079 eV  374.81 nm  f=0.0010  <S**2>=0.000
      51 -> 53         0.63489
      51 -> 54         0.27068
 
 Excited state symmetry could not be determined.
 Excited State   3:      Singlet-?Sym    4.1863 eV  296.17 nm  f=0.0004  <S**2>=0.000
      50 -> 53         0.52391
      50 -> 54        -0.43323
      50 -> 58        -0.11756
 
 Excited state symmetry could not be determined.
 Excited State   4:      Singlet-?Sym    5.0977 eV  243.22 nm  f=0.2460  <S**2>=0.000
      52 -> 54         0.69779
 
 Excited state symmetry could not be determined.
 Excited State   5:      Singlet-?Sym    5.3251 eV  232.83 nm  f=0.2199  <S**2>=0.000
      49 -> 53         0.69053
 
 Excited state symmetry could not be determined.
 Excited State   6:      Singlet-?Sym    6.3228 eV  196.09 nm  f=0.0004  <S**2>=0.000
      45 -> 53        -0.11123
      50 -> 53         0.43060
      50 -> 54         0.46908
      50 -> 58         0.20085
 SavETr:  write IOETrn=   770 NScale= 10 NData=  16 NLR=1 NState=    6 LETran=     118.
 Leave Link  914 at Tue Mar 10 09:07:42 2026, MaxMem=  2147483648 cpu:            4578.4 elap:             144.0
 (Enter /data/home/wyx/g16/l601.exe)
 Copying SCF densities to generalized density rwf, IOpCl= 0 IROHF=0.

 **********************************************************************

            Population analysis using the SCF density.

 **********************************************************************

 Alpha  occ. eigenvalues --  -19.22768 -19.21476 -14.49288 -10.37379 -10.37281
 Alpha  occ. eigenvalues --  -10.37014 -10.36579 -10.29787 -10.29645 -10.29394
 Alpha  occ. eigenvalues --  -10.29310 -10.28217 -10.28088 -10.28083  -1.13624
 Alpha  occ. eigenvalues --   -1.10159  -1.09322  -0.93228  -0.92294  -0.85605
 Alpha  occ. eigenvalues --   -0.84126  -0.83166  -0.80556  -0.76119  -0.73514
 Alpha  occ. eigenvalues --   -0.71097  -0.63846  -0.60249  -0.58697  -0.56805
 Alpha  occ. eigenvalues --   -0.56470  -0.55839  -0.53994  -0.53516  -0.52444
 Alpha  occ. eigenvalues --   -0.51318  -0.51118  -0.50680  -0.50289  -0.49809
 Alpha  occ. eigenvalues --   -0.48315  -0.47603  -0.46244  -0.45551  -0.44696
 Alpha  occ. eigenvalues --   -0.44274  -0.43316  -0.42340  -0.34857  -0.33929
 Alpha  occ. eigenvalues --   -0.32271  -0.28293
 Alpha virt. eigenvalues --   -0.01668   0.04084   0.10400   0.12315   0.12620
 Alpha virt. eigenvalues --    0.12815   0.13743   0.15053   0.16499   0.17011
 Alpha virt. eigenvalues --    0.18296   0.18517   0.19178   0.20362   0.20717
 Alpha virt. eigenvalues --    0.21120   0.21239   0.21380   0.21574   0.22837
 Alpha virt. eigenvalues --    0.23322   0.23606   0.25625   0.25887   0.27798
 Alpha virt. eigenvalues --    0.28071   0.28688   0.28831   0.29266   0.29633
 Alpha virt. eigenvalues --    0.30607   0.31381   0.31995   0.32552   0.33084
 Alpha virt. eigenvalues --    0.33790   0.34370   0.36493   0.36920   0.37488
 Alpha virt. eigenvalues --    0.38523   0.38921   0.40011   0.40556   0.40969
 Alpha virt. eigenvalues --    0.42475   0.43976   0.44684   0.45739   0.45848
 Alpha virt. eigenvalues --    0.46889   0.47934   0.48537   0.49277   0.49519
 Alpha virt. eigenvalues --    0.50317   0.50649   0.50857   0.51344   0.51973
 Alpha virt. eigenvalues --    0.52278   0.52606   0.53478   0.54474   0.54828
 Alpha virt. eigenvalues --    0.54953   0.55635   0.56031   0.56663   0.56945
 Alpha virt. eigenvalues --    0.57262   0.58497   0.58741   0.60584   0.60842
 Alpha virt. eigenvalues --    0.61193   0.61976   0.63246   0.65111   0.65717
 Alpha virt. eigenvalues --    0.66147   0.67829   0.68768   0.70062   0.70194
 Alpha virt. eigenvalues --    0.70693   0.71429   0.73914   0.74256   0.74777
 Alpha virt. eigenvalues --    0.75886   0.78149   0.79827   0.80366   0.81210
 Alpha virt. eigenvalues --    0.83001   0.84367   0.87189   0.90880   0.93289
 Alpha virt. eigenvalues --    0.95793   0.99169   1.02863   1.05343   1.21577
 Alpha virt. eigenvalues --    1.24250   1.25722   1.28721   1.32190   1.33325
 Alpha virt. eigenvalues --    1.34064   1.35731   1.36624   1.37254   1.39448
 Alpha virt. eigenvalues --    1.39965   1.40479   1.41651   1.42131   1.42357
 Alpha virt. eigenvalues --    1.42578   1.43291   1.43518   1.43637   1.44386
 Alpha virt. eigenvalues --    1.45318   1.45645   1.46788   1.47521   1.48379
 Alpha virt. eigenvalues --    1.51013   1.52214   1.52746   1.53614   1.54094
 Alpha virt. eigenvalues --    1.54979   1.55333   1.57275   1.59723   1.60129
 Alpha virt. eigenvalues --    1.61450   1.62304   1.62510   1.62891   1.63867
 Alpha virt. eigenvalues --    1.64226   1.64345   1.65052   1.65703   1.67133
 Alpha virt. eigenvalues --    1.67338   1.67844   1.68258   1.68833   1.69964
 Alpha virt. eigenvalues --    1.71031   1.71412   1.71949   1.73378   1.74596
 Alpha virt. eigenvalues --    1.75074   1.76113   1.78448   1.78521   1.82268
 Alpha virt. eigenvalues --    1.83866   1.85225   1.86347   1.86956   1.87693
 Alpha virt. eigenvalues --    1.88111   1.88584   1.91862   1.92381   1.92871
 Alpha virt. eigenvalues --    1.93746   1.94462   1.98974   2.00567   2.03299
 Alpha virt. eigenvalues --    2.04465   2.06975   2.08301   2.09824   2.12141
 Alpha virt. eigenvalues --    2.12445   2.15257   2.16647   2.20461   2.21763
 Alpha virt. eigenvalues --    2.22380   2.25004   2.25996   2.26756   2.28017
 Alpha virt. eigenvalues --    2.29374   2.31208   2.31837   2.33488   2.34924
 Alpha virt. eigenvalues --    2.35392   2.36213   2.37494   2.39637   2.40498
 Alpha virt. eigenvalues --    2.41501   2.43307   2.44089   2.45415   2.46885
 Alpha virt. eigenvalues --    2.48348   2.49290   2.51301   2.51684   2.52762
 Alpha virt. eigenvalues --    2.54746   2.56239   2.57276   2.57829   2.59003
 Alpha virt. eigenvalues --    2.59690   2.59911   2.62939   2.64054   2.64538
 Alpha virt. eigenvalues --    2.65320   2.66805   2.67468   2.68468   2.69721
 Alpha virt. eigenvalues --    2.70518   2.73259   2.75500   2.76427   2.77188
 Alpha virt. eigenvalues --    2.78315   2.78416   2.79003   2.80720   2.81411
 Alpha virt. eigenvalues --    2.82682   2.83427   2.84337   2.85196   2.86062
 Alpha virt. eigenvalues --    2.87816   2.89510   2.90864   2.92539   2.95191
 Alpha virt. eigenvalues --    3.00161   3.01241   3.01829   3.06209   3.10454
 Alpha virt. eigenvalues --    3.13141   3.14764   3.17071   3.18811   3.22392
 Alpha virt. eigenvalues --    3.23383   3.24101   3.26602   3.27648   3.28359
 Alpha virt. eigenvalues --    3.31116   3.32825   3.33432   3.37390   3.39303
 Alpha virt. eigenvalues --    3.40150   3.41011   3.41376   3.41862   3.43109
 Alpha virt. eigenvalues --    3.44025   3.45514   3.46750   3.47945   3.51028
 Alpha virt. eigenvalues --    3.52743   3.54127   3.56356   3.57884   3.61024
 Alpha virt. eigenvalues --    3.63879   3.93789   4.01872   4.29576   4.37487
 Alpha virt. eigenvalues --   21.70684  21.82216  22.10351  22.16262  22.17760
 Alpha virt. eigenvalues --   22.18691  22.22004  22.24865  22.26329  22.31840
 Alpha virt. eigenvalues --   22.36320  31.99890  43.72666  43.76028
          Condensed to atoms (all electrons):
               1          2          3          4          5          6
     1  O    7.977412   0.000000  -0.000222   0.000014   0.015850   0.014055
     2  O    0.000000   8.149184   0.000840  -0.000005  -0.173881   0.001546
     3  N   -0.000222   0.000840   6.258614   0.364470  -0.090476   0.395608
     4  H    0.000014  -0.000005   0.364470   0.383263   0.011010  -0.036525
     5  C    0.015850  -0.173881  -0.090476   0.011010   6.941126  -0.040970
     6  C    0.014055   0.001546   0.395608  -0.036525  -0.040970   5.617530
     7  C    0.000154   0.012394   0.333393  -0.038664   0.333708  -0.132126
     8  C   -0.000226   0.549774   0.006400  -0.001380  -0.446927   0.052455
     9  C    0.014204   0.021347   0.025734   0.000875  -0.534085  -0.084152
    10  H    0.004457  -0.000078   0.001645   0.000006  -0.036129  -0.006613
    11  H    0.007508  -0.000126  -0.000822  -0.000008  -0.102885   0.018962
    12  C   -0.237059  -0.003405  -0.111504   0.020073   0.174629  -0.175874
    13  C    0.682983   0.000007   0.000462   0.000427   0.047239   0.110072
    14  C   -0.000012  -0.083408  -0.046843   0.003346   0.037975  -0.007138
    15  H    0.000000   0.002770   0.000682  -0.000653  -0.009442   0.002654
    16  H    0.000000   0.040983   0.003286   0.000611   0.016724  -0.000128
    17  H    0.000000   0.002760   0.000176  -0.000203  -0.011523   0.001219
    18  C   -0.000250  -0.078327  -0.000324   0.000008  -0.116155  -0.002201
    19  H    0.000007  -0.001657   0.000009  -0.000000  -0.006631   0.000060
    20  H    0.000726   0.006977   0.000053   0.000000   0.069162  -0.001105
    21  H    0.000001  -0.001063   0.000008  -0.000000  -0.003018   0.000044
    22  C   -0.110027   0.000000   0.000246   0.000090   0.000356  -0.013202
    23  H    0.003337  -0.000000   0.000037  -0.000046  -0.000305  -0.026176
    24  H    0.001557   0.000000   0.000076  -0.000014  -0.000068   0.008220
    25  H    0.009487  -0.000000   0.000017  -0.000001  -0.000039  -0.001090
    26  C    0.000808   0.000009  -0.031653  -0.012856   0.002985   0.232964
    27  H   -0.000110  -0.000000  -0.000175   0.000783   0.000342  -0.032205
    28  H   -0.000026  -0.000000  -0.002882   0.000525   0.000387  -0.034387
    29  H    0.000014   0.000000   0.005792   0.002573  -0.000472  -0.048675
               7          8          9         10         11         12
     1  O    0.000154  -0.000226   0.014204   0.004457   0.007508  -0.237059
     2  O    0.012394   0.549774   0.021347  -0.000078  -0.000126  -0.003405
     3  N    0.333393   0.006400   0.025734   0.001645  -0.000822  -0.111504
     4  H   -0.038664  -0.001380   0.000875   0.000006  -0.000008   0.020073
     5  C    0.333708  -0.446927  -0.534085  -0.036129  -0.102885   0.174629
     6  C   -0.132126   0.052455  -0.084152  -0.006613   0.018962  -0.175874
     7  C    5.479967  -0.196633  -0.239289  -0.001699   0.010009   0.039055
     8  C   -0.196633   5.795355   0.166187  -0.004065   0.004232  -0.090975
     9  C   -0.239289   0.166187   6.269093   0.420723   0.514485  -0.102536
    10  H   -0.001699  -0.004065   0.420723   0.534805  -0.039137  -0.018562
    11  H    0.010009   0.004232   0.514485  -0.039137   0.515084  -0.075034
    12  C    0.039055  -0.090975  -0.102536  -0.018562  -0.075034   7.391147
    13  C    0.029074  -0.010870  -0.176968  -0.007882  -0.003569  -0.456259
    14  C    0.210486  -0.107576   0.019379  -0.000508  -0.000017   0.008477
    15  H   -0.032385   0.006605   0.000047  -0.000021   0.000038  -0.000983
    16  H   -0.066218  -0.029091   0.002445  -0.000012  -0.000012  -0.000354
    17  H   -0.023720   0.006482  -0.001262   0.000087  -0.000006  -0.000283
    18  C    0.022748   0.283217  -0.011212  -0.005025  -0.009883   0.010612
    19  H   -0.000981  -0.015732  -0.001659   0.000308   0.000056  -0.000437
    20  H    0.004668  -0.134729  -0.009291  -0.004288  -0.003425   0.005379
    21  H   -0.000575  -0.023806  -0.001892   0.000324   0.000531  -0.000223
    22  C    0.000681  -0.000043   0.015808   0.001259  -0.000343  -0.257019
    23  H   -0.000008   0.000001   0.001431  -0.000132   0.000072   0.047157
    24  H   -0.000014   0.000001  -0.001933   0.000135  -0.000090  -0.003080
    25  H    0.000006  -0.000001  -0.000279  -0.000042  -0.000028   0.022765
    26  C    0.004963   0.000931   0.020370  -0.000364   0.000087  -0.097647
    27  H   -0.000942  -0.000001  -0.000749  -0.000001   0.000001   0.001754
    28  H   -0.001149  -0.000008  -0.000378  -0.000011   0.000040  -0.014960
    29  H    0.003132   0.000015  -0.000455   0.000023  -0.000004   0.022180
              13         14         15         16         17         18
     1  O    0.682983  -0.000012   0.000000   0.000000   0.000000  -0.000250
     2  O    0.000007  -0.083408   0.002770   0.040983   0.002760  -0.078327
     3  N    0.000462  -0.046843   0.000682   0.003286   0.000176  -0.000324
     4  H    0.000427   0.003346  -0.000653   0.000611  -0.000203   0.000008
     5  C    0.047239   0.037975  -0.009442   0.016724  -0.011523  -0.116155
     6  C    0.110072  -0.007138   0.002654  -0.000128   0.001219  -0.002201
     7  C    0.029074   0.210486  -0.032385  -0.066218  -0.023720   0.022748
     8  C   -0.010870  -0.107576   0.006605  -0.029091   0.006482   0.283217
     9  C   -0.176968   0.019379   0.000047   0.002445  -0.001262  -0.011212
    10  H   -0.007882  -0.000508  -0.000021  -0.000012   0.000087  -0.005025
    11  H   -0.003569  -0.000017   0.000038  -0.000012  -0.000006  -0.009883
    12  C   -0.456259   0.008477  -0.000983  -0.000354  -0.000283   0.010612
    13  C    5.526485   0.000092  -0.000025   0.000002  -0.000017   0.000941
    14  C    0.000092   5.316077   0.390346   0.416987   0.387013  -0.003458
    15  H   -0.000025   0.390346   0.520736  -0.012761  -0.026770   0.000089
    16  H    0.000002   0.416987  -0.012761   0.435778  -0.012337   0.001225
    17  H   -0.000017   0.387013  -0.026770  -0.012337   0.514712   0.000080
    18  C    0.000941  -0.003458   0.000089   0.001225   0.000080   5.130780
    19  H   -0.000017  -0.000036   0.000007   0.000004  -0.000006   0.403999
    20  H    0.001708   0.000468  -0.000008  -0.000172  -0.000013   0.414334
    21  H   -0.000019  -0.000072  -0.000006   0.000030   0.000010   0.411540
    22  C    0.334275   0.000016  -0.000002   0.000000   0.000000   0.000017
    23  H   -0.068355   0.000001   0.000000   0.000000  -0.000000   0.000000
    24  H   -0.029646  -0.000000  -0.000000  -0.000000   0.000000  -0.000000
    25  H   -0.039417   0.000000  -0.000000  -0.000000   0.000000   0.000000
    26  C   -0.060623  -0.000892   0.000047   0.000010  -0.000109  -0.000021
    27  H   -0.007958   0.000009   0.000005  -0.000000  -0.000002  -0.000000
    28  H    0.005261  -0.000049  -0.000012   0.000000   0.000008  -0.000000
    29  H   -0.000182   0.000525   0.000029   0.000001  -0.000017   0.000001
              19         20         21         22         23         24
     1  O    0.000007   0.000726   0.000001  -0.110027   0.003337   0.001557
     2  O   -0.001657   0.006977  -0.001063   0.000000  -0.000000   0.000000
     3  N    0.000009   0.000053   0.000008   0.000246   0.000037   0.000076
     4  H   -0.000000   0.000000  -0.000000   0.000090  -0.000046  -0.000014
     5  C   -0.006631   0.069162  -0.003018   0.000356  -0.000305  -0.000068
     6  C    0.000060  -0.001105   0.000044  -0.013202  -0.026176   0.008220
     7  C   -0.000981   0.004668  -0.000575   0.000681  -0.000008  -0.000014
     8  C   -0.015732  -0.134729  -0.023806  -0.000043   0.000001   0.000001
     9  C   -0.001659  -0.009291  -0.001892   0.015808   0.001431  -0.001933
    10  H    0.000308  -0.004288   0.000324   0.001259  -0.000132   0.000135
    11  H    0.000056  -0.003425   0.000531  -0.000343   0.000072  -0.000090
    12  C   -0.000437   0.005379  -0.000223  -0.257019   0.047157  -0.003080
    13  C   -0.000017   0.001708  -0.000019   0.334275  -0.068355  -0.029646
    14  C   -0.000036   0.000468  -0.000072   0.000016   0.000001  -0.000000
    15  H    0.000007  -0.000008  -0.000006  -0.000002   0.000000  -0.000000
    16  H    0.000004  -0.000172   0.000030   0.000000   0.000000  -0.000000
    17  H   -0.000006  -0.000013   0.000010   0.000000  -0.000000   0.000000
    18  C    0.403999   0.414334   0.411540   0.000017   0.000000  -0.000000
    19  H    0.489178  -0.017338  -0.016933  -0.000001   0.000000   0.000000
    20  H   -0.017338   0.536559  -0.020261   0.000040  -0.000001  -0.000001
    21  H   -0.016933  -0.020261   0.490596  -0.000000   0.000000   0.000000
    22  C   -0.000001   0.000040  -0.000000   5.327572   0.387941   0.408485
    23  H    0.000000  -0.000001   0.000000   0.387941   0.539945  -0.027143
    24  H    0.000000  -0.000001   0.000000   0.408485  -0.027143   0.490286
    25  H    0.000000  -0.000000  -0.000000   0.380697  -0.019106  -0.007584
    26  C    0.000000  -0.000012   0.000000  -0.018434   0.023155  -0.014289
    27  H    0.000000   0.000000  -0.000000   0.014300  -0.008789  -0.000716
    28  H   -0.000000   0.000000   0.000000  -0.012519  -0.001994   0.001170
    29  H   -0.000000  -0.000000   0.000000   0.001535   0.000696   0.000168
              25         26         27         28         29
     1  O    0.009487   0.000808  -0.000110  -0.000026   0.000014
     2  O   -0.000000   0.000009  -0.000000  -0.000000   0.000000
     3  N    0.000017  -0.031653  -0.000175  -0.002882   0.005792
     4  H   -0.000001  -0.012856   0.000783   0.000525   0.002573
     5  C   -0.000039   0.002985   0.000342   0.000387  -0.000472
     6  C   -0.001090   0.232964  -0.032205  -0.034387  -0.048675
     7  C    0.000006   0.004963  -0.000942  -0.001149   0.003132
     8  C   -0.000001   0.000931  -0.000001  -0.000008   0.000015
     9  C   -0.000279   0.020370  -0.000749  -0.000378  -0.000455
    10  H   -0.000042  -0.000364  -0.000001  -0.000011   0.000023
    11  H   -0.000028   0.000087   0.000001   0.000040  -0.000004
    12  C    0.022765  -0.097647   0.001754  -0.014960   0.022180
    13  C   -0.039417  -0.060623  -0.007958   0.005261  -0.000182
    14  C    0.000000  -0.000892   0.000009  -0.000049   0.000525
    15  H   -0.000000   0.000047   0.000005  -0.000012   0.000029
    16  H   -0.000000   0.000010  -0.000000   0.000000   0.000001
    17  H    0.000000  -0.000109  -0.000002   0.000008  -0.000017
    18  C    0.000000  -0.000021  -0.000000  -0.000000   0.000001
    19  H    0.000000   0.000000   0.000000  -0.000000  -0.000000
    20  H   -0.000000  -0.000012   0.000000   0.000000  -0.000000
    21  H   -0.000000   0.000000  -0.000000   0.000000   0.000000
    22  C    0.380697  -0.018434   0.014300  -0.012519   0.001535
    23  H   -0.019106   0.023155  -0.008789  -0.001994   0.000696
    24  H   -0.007584  -0.014289  -0.000716   0.001170   0.000168
    25  H    0.494551   0.001528   0.000638   0.000129  -0.000040
    26  C    0.001528   5.207213   0.404820   0.435027   0.384245
    27  H    0.000638   0.404820   0.506995  -0.025693  -0.019976
    28  H    0.000129   0.435027  -0.025693   0.468204  -0.012924
    29  H   -0.000040   0.384245  -0.019976  -0.012924   0.509521
 Mulliken charges:
               1
     1  O   -0.384643
     2  O   -0.446642
     3  N   -0.112646
     4  H    0.302283
     5  C   -0.078488
     6  C    0.187178
     7  C    0.249964
     8  C    0.190407
     9  C   -0.325986
    10  H    0.160797
    11  H    0.164285
    12  C   -0.097033
    13  C    0.122781
    14  C   -0.541189
    15  H    0.159014
    16  H    0.202999
    17  H    0.163720
    18  C   -0.452733
    19  H    0.167798
    20  H    0.150567
    21  H    0.164786
    22  C   -0.461732
    23  H    0.148281
    24  H    0.174480
    25  H    0.157809
    26  C   -0.482265
    27  H    0.167670
    28  H    0.196242
    29  H    0.152296
 Sum of Mulliken charges =  -0.00000
 Mulliken charges with hydrogens summed into heavy atoms:
               1
     1  O   -0.384643
     2  O   -0.446642
     3  N    0.189637
     5  C   -0.078488
     6  C    0.187178
     7  C    0.249964
     8  C    0.190407
     9  C   -0.000905
    12  C   -0.097033
    13  C    0.122781
    14  C   -0.015456
    18  C    0.030418
    22  C    0.018838
    26  C    0.033943
 Electronic spatial extent (au):  <R**2>=          50681.0062
 Charge=              0.0000 electrons
 Dipole moment (field-independent basis, Debye):
    X=              1.6096    Y=              9.0229    Z=              0.3864  Tot=              9.1735
 Quadrupole moment (field-independent basis, Debye-Ang):
   XX=           -109.4237   YY=            131.6870   ZZ=            -84.3407
   XY=              7.3537   XZ=             -5.3042   YZ=              8.4503
 Traceless Quadrupole moment (field-independent basis, Debye-Ang):
   XX=            -88.7313   YY=            152.3795   ZZ=            -63.6482
   XY=              7.3537   XZ=             -5.3042   YZ=              8.4503
 Octapole moment (field-independent basis, Debye-Ang**2):
  XXX=            550.9379  YYY=           1065.4711  ZZZ=            -96.2561  XYY=             57.8480
  XXY=          -1132.7356  XXZ=            -13.2745  XZZ=            128.4248  YZZ=           -941.0296
  YYZ=            112.3017  XYZ=            -48.9701
 Hexadecapole moment (field-independent basis, Debye-Ang**3):
 XXXX=          -4736.8378 YYYY=          -2020.8459 ZZZZ=           -255.0419 XXXY=           5493.2437
 XXXZ=           -145.7060 YYYX=           1168.6418 YYYZ=           1117.6513 ZZZX=            -40.9198
 ZZZY=          -1117.1613 XXYY=         -12496.0844 XXZZ=           -669.6131 YYZZ=         -10782.3570
 XXYZ=           -183.1944 YYXZ=           -470.6101 ZZXY=           1365.6954
 N-N= 8.961018665124D+02 E-N=-3.268106266010D+03  KE= 6.303020277386D+02
 Leave Link  601 at Tue Mar 10 09:07:43 2026, MaxMem=  2147483648 cpu:               1.1 elap:               0.1
 (Enter /data/home/wyx/g16/l9999.exe)
 Electronic transition elements 
                 1             2             3             4             5 
      1  -0.633288D+03 -0.633284D+03 -0.633251D+03 -0.633218D+03 -0.633210D+03
      2   0.149257D+01 -0.824793D-01 -0.243103D-01 -0.552631D+00 -0.151044D+00
      3   0.533217D+00 -0.438746D-01  0.491759D-01  0.128937D+01  0.128931D+01
      4   0.259432D+00 -0.552306D-01  0.333990D-01 -0.389123D-01  0.100883D-01
      5  -0.171751D+00  0.966453D-02  0.268113D-02  0.909336D-01  0.312553D-01
      6  -0.620454D-01  0.534891D-02 -0.720711D-02 -0.227648D+00 -0.247285D+00
      7  -0.301486D-01  0.570619D-02 -0.136371D-02  0.700854D-02 -0.179867D-02
      8  -0.874996D+00 -0.606822D+00 -0.340528D+00  0.399624D+00  0.271687D+00
      9  -0.223627D+00  0.262316D-01  0.858007D+00  0.609646D-01 -0.176683D-01
     10   0.518706D+01 -0.444256D+00 -0.123472D+00 -0.172966D+01 -0.255742D+00
     11   0.989286D+00 -0.412769D-01  0.173903D-01  0.717680D+00  0.435662D+00
     12  -0.239366D+01  0.206898D+00 -0.316434D+00 -0.988695D+01 -0.107350D+02
     13  -0.490696D-01 -0.284636D-02 -0.134848D-01  0.200445D-01 -0.761133D-03
     14  -0.295839D+01  0.157428D+00  0.683618D-01  0.287179D+01  0.186196D+01
     15  -0.103741D-01 -0.370385D-01 -0.553946D-01  0.281784D+00  0.177942D+00
     16  -0.591542D+00  0.887941D-01 -0.544059D-01  0.227045D-01 -0.119603D+00
                 6 
      1  -0.633173D+03
      2   0.513589D-02
      3  -0.233604D-01
      4  -0.431028D-01
      5  -0.561294D-03
      6   0.594051D-02
      7   0.158521D-01
      8   0.392866D+00
      9  -0.580897D+00
     10   0.120989D-01
     11  -0.713531D-02
     12   0.273472D+00
     13   0.489437D-01
     14   0.231801D-01
     15   0.717314D-01
     16   0.385770D+00
 1\1\GINC-CN013\SP\RwB97XD TD-FC\TZVP\C11H15N1O2\WYX\10-Mar-2026\0\\#p 
 wB97XD/TZVP TD=NStates=6 SCRF=(Solvent=Water) Geom=Check Guess=Read No
 Symm\\Title Card Required\\0,1\O,0,1.3553408534,9.8397125856,0.9115970
 113\O,0,-4.8489950009,9.7397980899,-0.2742357404\N,0,-2.1116495374,12.
 9210044863,0.3788888948\H,0,-2.4322458303,13.8737159049,0.3394287493\C
 ,0,-2.6865572878,10.6148534289,0.2249495815\C,0,-0.7812211681,12.71452
 21997,0.560341511\C,0,-3.0693317856,11.9325775893,0.1668092127\C,0,-3.
 5910425702,9.5583150211,0.0130450537\C,0,-1.2523051243,10.2536942801,0
 .553857844\H,0,-1.213745628,9.7141515804,1.5073103818\H,0,-0.869528678
 4,9.5483774286,-0.1882033165\C,0,-0.3020740686,11.4344209488,0.6148593
 789\C,0,1.0879684243,11.0361462472,0.7733427633\C,0,-4.4311106792,12.4
 771292636,-0.096979471\H,0,-4.4267821375,13.1542081025,-0.9569010691\H
 ,0,-5.146640964,11.6805917869,-0.3086125015\H,0,-4.8090392473,13.03466
 73571,0.7663473023\C,0,-3.2714489422,8.0838715142,0.0913334947\H,0,-3.
 412210887,7.6080600779,-0.8832548437\H,0,-2.2418557212,7.9481015093,0.
 4122331903\H,0,-3.9347461801,7.5884978674,0.8050824911\C,0,2.245866521
 8,12.0125376183,0.7558395954\H,0,2.1815460572,12.7268433127,-0.0628823
 349\H,0,2.2924768052,12.5747632013,1.6904574697\H,0,3.1643826012,11.43
 70676594,0.6586137992\C,0,-0.0019333147,13.9953220701,0.676901293\H,0,
 0.686782906,13.9770921408,1.5165612588\H,0,0.5703940406,14.1902733518,
 -0.2305559747\H,0,-0.6794644869,14.8355178259,0.8258249751\\Version=ES
 64L-G16RevA.03\HF=-633.4052713\RMSD=1.249e-09\PG=C01 [X(C11H15N1O2)]\\
 @


 SATCHEL PAIGE'S GUIDE TO LONGEVITY

    1.  AVOID FRIED MEATS, WHICH ANGRY UP THE BLOOD.

    2.  IF YOUR STOMACH DISPUTES YOU, LIE DOWN AND PACIFY IT WITH COOL
        THOUGHTS.

    3.  KEEP THE JUICES FLOWING BY JANGLING AROUND GENTLY AS YOU MOVE.

    4.  GO VERY LIGHT ON THE VICES, SUCH AS CARRYING ON IN SOCIETY.
        THE SOCIAL RUMBLE AIN'T RESTFUL.

    5.  AVOID RUNNING AT ALL TIMES.

    6.  DON'T LOOK BACK.  SOMETHING MAY BE GAINING ON YOU.
 Job cpu time:       0 days  1 hours 18 minutes 45.4 seconds.
 Elapsed time:       0 days  0 hours  2 minutes 29.2 seconds.
 File lengths (MBytes):  RWF=    822 Int=      0 D2E=      0 Chk=     67 Scr=      1
 Normal termination of Gaussian 16 at Tue Mar 10 09:07:44 2026.
