 Entering Gaussian System, Link 0=g16
 Input=DDL-S1min-S1-cLR-1.gjf
 Output=DDL-S1min-S1-cLR-1.log
 Initial command:
 /data/home/wyx/g16/l1.exe "/scr/tmp/wyx/13950/Gau-3026694.inp" -scrdir="/scr/tmp/wyx/13950/"
 Entering Link 1 = /data/home/wyx/g16/l1.exe PID=   3026695.
  
 Copyright (c) 1988,1990,1992,1993,1995,1998,2003,2009,2016,
            Gaussian, Inc.  All Rights Reserved.
  
 This is part of the Gaussian(R) 16 program.  It is based on
 the Gaussian(R) 09 system (copyright 2009, Gaussian, Inc.),
 the Gaussian(R) 03 system (copyright 2003, Gaussian, Inc.),
 the Gaussian(R) 98 system (copyright 1998, Gaussian, Inc.),
 the Gaussian(R) 94 system (copyright 1995, Gaussian, Inc.),
 the Gaussian 92(TM) system (copyright 1992, Gaussian, Inc.),
 the Gaussian 90(TM) system (copyright 1990, Gaussian, Inc.),
 the Gaussian 88(TM) system (copyright 1988, Gaussian, Inc.),
 the Gaussian 86(TM) system (copyright 1986, Carnegie Mellon
 University), and the Gaussian 82(TM) system (copyright 1983,
 Carnegie Mellon University). Gaussian is a federally registered
 trademark of Gaussian, Inc.
  
 This software contains proprietary and confidential information,
 including trade secrets, belonging to Gaussian, Inc.
  
 This software is provided under written license and may be
 used, copied, transmitted, or stored only in accord with that
 written license.
  
 The following legend is applicable only to US Government
 contracts under FAR:
  
                    RESTRICTED RIGHTS LEGEND
  
 Use, reproduction and disclosure by the US Government is
 subject to restrictions as set forth in subparagraphs (a)
 and (c) of the Commercial Computer Software - Restricted
 Rights clause in FAR 52.227-19.
  
 Gaussian, Inc.
 340 Quinnipiac St., Bldg. 40, Wallingford CT 06492
  
  
 ---------------------------------------------------------------
 Warning -- This program may not be used in any manner that
 competes with the business of Gaussian, Inc. or will provide
 assistance to any competitor of Gaussian, Inc.  The licensee
 of this program is prohibited from giving any competitor of
 Gaussian, Inc. access to this program.  By using this program,
 the user acknowledges that Gaussian, Inc. is engaged in the
 business of creating and licensing software in the field of
 computational chemistry and represents and warrants to the
 licensee that it is not a competitor of Gaussian, Inc. and that
 it will not use this program in any manner prohibited above.
 ---------------------------------------------------------------
  

 Cite this work as:
 Gaussian 16, Revision A.03,
 M. J. Frisch, G. W. Trucks, H. B. Schlegel, G. E. Scuseria, 
 M. A. Robb, J. R. Cheeseman, G. Scalmani, V. Barone, 
 G. A. Petersson, H. Nakatsuji, X. Li, M. Caricato, A. V. Marenich, 
 J. Bloino, B. G. Janesko, R. Gomperts, B. Mennucci, H. P. Hratchian, 
 J. V. Ortiz, A. F. Izmaylov, J. L. Sonnenberg, D. Williams-Young, 
 F. Ding, F. Lipparini, F. Egidi, J. Goings, B. Peng, A. Petrone, 
 T. Henderson, D. Ranasinghe, V. G. Zakrzewski, J. Gao, N. Rega, 
 G. Zheng, W. Liang, M. Hada, M. Ehara, K. Toyota, R. Fukuda, 
 J. Hasegawa, M. Ishida, T. Nakajima, Y. Honda, O. Kitao, H. Nakai, 
 T. Vreven, K. Throssell, J. A. Montgomery, Jr., J. E. Peralta, 
 F. Ogliaro, M. J. Bearpark, J. J. Heyd, E. N. Brothers, K. N. Kudin, 
 V. N. Staroverov, T. A. Keith, R. Kobayashi, J. Normand, 
 K. Raghavachari, A. P. Rendell, J. C. Burant, S. S. Iyengar, 
 J. Tomasi, M. Cossi, J. M. Millam, M. Klene, C. Adamo, R. Cammi, 
 J. W. Ochterski, R. L. Martin, K. Morokuma, O. Farkas, 
 J. B. Foresman, and D. J. Fox, Gaussian, Inc., Wallingford CT, 2016.
 
 ******************************************
 Gaussian 16:  ES64L-G16RevA.03 25-Dec-2016
                 9-Mar-2026 
 ******************************************
 %nprocshared=32
 Will use up to   32 processors via shared memory.
 %mem=16GB
 %oldchk=DDL-S1min-S1-cLR.chk
 %chk=DDL-S1min-S1-cLR-1.chk
 Copying data from "DDL-S1min-S1-cLR.chk" to current chk file "DDL-S1min-S1-cLR-1.chk"
 IOpt=  2 FromEx=T IUOpen= 4 IOptOp= 5 NList=   0 IFRang= 0 IUIn= 4 IUOut= 2.
 ----------------------------------------------------------------------
 #p wB97XD/TZVP SCRF=(Solvent=Water,NonEquilibrium=Read) Geom=Check Gue
 ss=Read NoSymm
 ----------------------------------------------------------------------
 1/29=2,38=1,172=1/1;
 2/12=2,15=1,40=1/2;
 3/5=19,7=101,11=2,14=-4,25=1,30=1,70=6002201,72=1,74=-58,116=-2/1,2,3;
 4/5=1/1;
 5/5=2,38=6,53=1/2;
 6/7=2,8=2,9=2,10=2,28=1/1;
 99/5=1,9=1/99;
 Leave Link    1 at Mon Mar  9 20:56:06 2026, MaxMem=  2147483648 cpu:               1.6 elap:               0.1
 (Enter /data/home/wyx/g16/l101.exe)
 -------------------
 Title Card Required
 -------------------
 Structure from the checkpoint file:  "DDL-S1min-S1-cLR-1.chk"
 Charge =  0 Multiplicity = 1
 Redundant internal coordinates found in file.  (old form).
 O,0,1.4054272404,9.8193529419,0.4052863499
 O,0,-4.8839679324,9.727516798,0.2286233984
 N,0,-2.1153659119,12.9170344206,0.2501583623
 H,0,-2.4258738998,13.8791969163,0.2057411154
 C,0,-2.7031837728,10.6327691433,0.1968163416
 C,0,-0.7700085899,12.7408340416,0.3717258751
 C,0,-3.0943921314,11.9882515132,0.1755800333
 C,0,-3.6596807227,9.5414527283,0.1923489179
 C,0,-1.2610495751,10.3189137859,0.218582423
 H,0,-1.0476447037,9.5027359393,0.9211858781
 H,0,-0.9862760052,9.8432902513,-0.746185301
 C,0,-0.2985738419,11.418063719,0.4372075287
 C,0,1.0731404302,10.9886717232,0.6570288995
 C,0,-4.4867563953,12.516374078,0.0523793228
 H,0,-4.4774107986,13.603714334,-0.0400227328
 H,0,-4.9855632514,12.0968245013,-0.820542985
 H,0,-5.0893968564,12.2469425426,0.9196550786
 C,0,-3.1383138107,8.1173890265,0.1817949505
 H,0,-3.9532717059,7.4555581009,-0.1051657432
 H,0,-2.3011354984,7.9693897146,-0.5003811585
 H,0,-2.8022841851,7.8316867884,1.1829426312
 C,0,2.1133736722,11.9191960601,1.2406660458
 H,0,2.6264106088,12.4696708782,0.4477291458
 H,0,1.6972496799,12.6412866569,1.9405638357
 H,0,2.8553328523,11.3092242648,1.7543949339
 C,0,0.0375338847,14.0003202227,0.3735959945
 H,0,0.3222687117,14.3105067807,1.3820105413
 H,0,0.9490285917,13.880664343,-0.2089785337
 H,0,-0.5287871134,14.8190022353,-0.0727411491
 Recover connectivity data from disk.
 ITRead=  0  0  0  0  0  0  0  0  0  0  0  0  0  0  0  0  0  0  0  0
 ITRead=  0  0  0  0  0  0  0  0  0
 MicOpt= -1 -1 -1 -1 -1 -1 -1 -1 -1 -1 -1 -1 -1 -1 -1 -1 -1 -1 -1 -1
 MicOpt= -1 -1 -1 -1 -1 -1 -1 -1 -1
                           ----------------------------
                           !    Current Parameters    !
                           ! (Angstroms and Degrees)  !
 --------------------------                            --------------------------
 ! Name  Definition              Value                                          !
 --------------------------------------------------------------------------------
 ! R1    R(1,13)                 1.2414                                         !
 ! R2    R(2,8)                  1.2389                                         !
 ! R3    R(3,4)                  1.012                                          !
 ! R4    R(3,6)                  1.3623                                         !
 ! R5    R(3,7)                  1.3516                                         !
 ! R6    R(5,7)                  1.411                                          !
 ! R7    R(5,8)                  1.4512                                         !
 ! R8    R(5,9)                  1.4761                                         !
 ! R9    R(6,12)                 1.4058                                         !
 ! R10   R(6,26)                 1.4961                                         !
 ! R11   R(7,14)                 1.4942                                         !
 ! R12   R(8,18)                 1.5165                                         !
 ! R13   R(9,10)                 1.0979                                         !
 ! R14   R(9,11)                 1.1102                                         !
 ! R15   R(9,12)                 1.4773                                         !
 ! R16   R(12,13)                1.4541                                         !
 ! R17   R(13,22)                1.5128                                         !
 ! R18   R(14,15)                1.0913                                         !
 ! R19   R(14,16)                1.0894                                         !
 ! R20   R(14,17)                1.0899                                         !
 ! R21   R(18,19)                1.0884                                         !
 ! R22   R(18,20)                1.09                                           !
 ! R23   R(18,21)                1.094                                          !
 ! R24   R(22,23)                1.0932                                         !
 ! R25   R(22,24)                1.0883                                         !
 ! R26   R(22,25)                1.0893                                         !
 ! R27   R(26,27)                1.0928                                         !
 ! R28   R(26,28)                1.0884                                         !
 ! R29   R(26,29)                1.091                                          !
 ! A1    A(4,3,6)              115.4614                                         !
 ! A2    A(4,3,7)              115.3836                                         !
 ! A3    A(6,3,7)              129.1545                                         !
 ! A4    A(7,5,8)              122.6604                                         !
 ! A5    A(7,5,9)              118.3843                                         !
 ! A6    A(8,5,9)              118.9547                                         !
 ! A7    A(3,6,12)             117.1966                                         !
 ! A8    A(3,6,26)             115.1047                                         !
 ! A9    A(12,6,26)            127.6649                                         !
 ! A10   A(3,7,5)              117.2905                                         !
 ! A11   A(3,7,14)             115.8904                                         !
 ! A12   A(5,7,14)             126.8082                                         !
 ! A13   A(2,8,5)              122.5698                                         !
 ! A14   A(2,8,18)             118.7489                                         !
 ! A15   A(5,8,18)             118.6589                                         !
 ! A16   A(5,9,10)             110.942                                          !
 ! A17   A(5,9,11)             108.6688                                         !
 ! A18   A(5,9,12)             118.7202                                         !
 ! A19   A(10,9,11)            100.9259                                         !
 ! A20   A(10,9,12)            109.3769                                         !
 ! A21   A(11,9,12)            106.6258                                         !
 ! A22   A(6,12,9)             118.3412                                         !
 ! A23   A(6,12,13)            126.9606                                         !
 ! A24   A(9,12,13)            114.6632                                         !
 ! A25   A(1,13,12)            120.0006                                         !
 ! A26   A(1,13,22)            118.2655                                         !
 ! A27   A(12,13,22)           121.6923                                         !
 ! A28   A(7,14,15)            110.5581                                         !
 ! A29   A(7,14,16)            110.8915                                         !
 ! A30   A(7,14,17)            111.238                                          !
 ! A31   A(15,14,16)           108.6504                                         !
 ! A32   A(15,14,17)           108.5671                                         !
 ! A33   A(16,14,17)           106.8117                                         !
 ! A34   A(8,18,19)            108.3867                                         !
 ! A35   A(8,18,20)            113.3219                                         !
 ! A36   A(8,18,21)            110.1486                                         !
 ! A37   A(19,18,20)           109.1189                                         !
 ! A38   A(19,18,21)           108.2085                                         !
 ! A39   A(20,18,21)           107.539                                          !
 ! A40   A(13,22,23)           110.647                                          !
 ! A41   A(13,22,24)           113.1603                                         !
 ! A42   A(13,22,25)           107.8113                                         !
 ! A43   A(23,22,24)           108.1689                                         !
 ! A44   A(23,22,25)           107.7231                                         !
 ! A45   A(24,22,25)           109.1891                                         !
 ! A46   A(6,26,27)            112.3795                                         !
 ! A47   A(6,26,28)            111.0275                                         !
 ! A48   A(6,26,29)            110.5503                                         !
 ! A49   A(27,26,28)           107.8748                                         !
 ! A50   A(27,26,29)           107.4448                                         !
 ! A51   A(28,26,29)           107.3529                                         !
 ! D1    D(4,3,6,12)           179.9774                                         !
 ! D2    D(4,3,6,26)            -1.9743                                         !
 ! D3    D(7,3,6,12)            -0.2882                                         !
 ! D4    D(7,3,6,26)           177.7601                                         !
 ! D5    D(4,3,7,5)            178.3122                                         !
 ! D6    D(4,3,7,14)            -0.5693                                         !
 ! D7    D(6,3,7,5)             -1.4223                                         !
 ! D8    D(6,3,7,14)           179.6962                                         !
 ! D9    D(8,5,7,3)            176.7562                                         !
 ! D10   D(8,5,7,14)            -4.5006                                         !
 ! D11   D(9,5,7,3)             -3.5117                                         !
 ! D12   D(9,5,7,14)           175.2315                                         !
 ! D13   D(7,5,8,2)             -3.2413                                         !
 ! D14   D(7,5,8,18)           178.5045                                         !
 ! D15   D(9,5,8,2)            177.0281                                         !
 ! D16   D(9,5,8,18)            -1.226                                          !
 ! D17   D(7,5,9,10)           137.7067                                         !
 ! D18   D(7,5,9,11)          -112.2017                                         !
 ! D19   D(7,5,9,12)             9.7708                                         !
 ! D20   D(8,5,9,10)           -42.5511                                         !
 ! D21   D(8,5,9,11)            67.5405                                         !
 ! D22   D(8,5,9,12)          -170.487                                          !
 ! D23   D(3,6,12,9)             6.77                                           !
 ! D24   D(3,6,12,13)         -175.5092                                         !
 ! D25   D(26,6,12,9)         -170.9973                                         !
 ! D26   D(26,6,12,13)           6.7236                                         !
 ! D27   D(3,6,26,27)           99.7233                                         !
 ! D28   D(3,6,26,28)         -139.3524                                         !
 ! D29   D(3,6,26,29)          -20.3163                                         !
 ! D30   D(12,6,26,27)         -82.4697                                         !
 ! D31   D(12,6,26,28)          38.4546                                         !
 ! D32   D(12,6,26,29)         157.4907                                         !
 ! D33   D(3,7,14,15)            4.6489                                         !
 ! D34   D(3,7,14,16)          125.2281                                         !
 ! D35   D(3,7,14,17)         -116.0553                                         !
 ! D36   D(5,7,14,15)         -174.1096                                         !
 ! D37   D(5,7,14,16)          -53.5304                                         !
 ! D38   D(5,7,14,17)           65.1863                                         !
 ! D39   D(2,8,18,19)           17.6893                                         !
 ! D40   D(2,8,18,20)          138.9654                                         !
 ! D41   D(2,8,18,21)         -100.5211                                         !
 ! D42   D(5,8,18,19)         -163.9888                                         !
 ! D43   D(5,8,18,20)          -42.7128                                         !
 ! D44   D(5,8,18,21)           77.8008                                         !
 ! D45   D(5,9,12,6)           -11.4403                                         !
 ! D46   D(5,9,12,13)          170.5635                                         !
 ! D47   D(10,9,12,6)         -140.1038                                         !
 ! D48   D(10,9,12,13)          41.9                                            !
 ! D49   D(11,9,12,6)          111.5532                                         !
 ! D50   D(11,9,12,13)         -66.443                                          !
 ! D51   D(6,12,13,1)         -164.2398                                         !
 ! D52   D(6,12,13,22)          18.1452                                         !
 ! D53   D(9,12,13,1)           13.553                                          !
 ! D54   D(9,12,13,22)        -164.062                                          !
 ! D55   D(1,13,22,23)          92.4078                                         !
 ! D56   D(1,13,22,24)        -146.0166                                         !
 ! D57   D(1,13,22,25)         -25.1571                                         !
 ! D58   D(12,13,22,23)        -89.9373                                         !
 ! D59   D(12,13,22,24)         31.6383                                         !
 ! D60   D(12,13,22,25)        152.4978                                         !
 --------------------------------------------------------------------------------
 NAtoms=     29 NQM=       29 NQMF=       0 NMMI=      0 NMMIF=      0
                NMic=       0 NMicF=      0.
                    Isotopes and Nuclear Properties:
 (Nuclear quadrupole moments (NQMom) in fm**2, nuclear magnetic moments (NMagM)
  in nuclear magnetons)

  Atom         1           2           3           4           5           6           7           8           9          10
 IAtWgt=          16          16          14           1          12          12          12          12          12           1
 AtmWgt=  15.9949146  15.9949146  14.0030740   1.0078250  12.0000000  12.0000000  12.0000000  12.0000000  12.0000000   1.0078250
 NucSpn=           0           0           2           1           0           0           0           0           0           1
 AtZEff=   5.6000000   5.6000000   4.5500000   1.0000000   3.6000000   3.6000000   3.6000000   3.6000000   3.6000000   1.0000000
 NQMom=    0.0000000   0.0000000   2.0440000   0.0000000   0.0000000   0.0000000   0.0000000   0.0000000   0.0000000   0.0000000
 NMagM=    0.0000000   0.0000000   0.4037610   2.7928460   0.0000000   0.0000000   0.0000000   0.0000000   0.0000000   2.7928460
 AtZNuc=   8.0000000   8.0000000   7.0000000   1.0000000   6.0000000   6.0000000   6.0000000   6.0000000   6.0000000   1.0000000

  Atom        11          12          13          14          15          16          17          18          19          20
 IAtWgt=           1          12          12          12           1           1           1          12           1           1
 AtmWgt=   1.0078250  12.0000000  12.0000000  12.0000000   1.0078250   1.0078250   1.0078250  12.0000000   1.0078250   1.0078250
 NucSpn=           1           0           0           0           1           1           1           0           1           1
 AtZEff=   1.0000000   3.6000000   3.6000000   3.6000000   1.0000000   1.0000000   1.0000000   3.6000000   1.0000000   1.0000000
 NQMom=    0.0000000   0.0000000   0.0000000   0.0000000   0.0000000   0.0000000   0.0000000   0.0000000   0.0000000   0.0000000
 NMagM=    2.7928460   0.0000000   0.0000000   0.0000000   2.7928460   2.7928460   2.7928460   0.0000000   2.7928460   2.7928460
 AtZNuc=   1.0000000   6.0000000   6.0000000   6.0000000   1.0000000   1.0000000   1.0000000   6.0000000   1.0000000   1.0000000

  Atom        21          22          23          24          25          26          27          28          29
 IAtWgt=           1          12           1           1           1          12           1           1           1
 AtmWgt=   1.0078250  12.0000000   1.0078250   1.0078250   1.0078250  12.0000000   1.0078250   1.0078250   1.0078250
 NucSpn=           1           0           1           1           1           0           1           1           1
 AtZEff=   1.0000000   3.6000000   1.0000000   1.0000000   1.0000000   3.6000000   1.0000000   1.0000000   1.0000000
 NQMom=    0.0000000   0.0000000   0.0000000   0.0000000   0.0000000   0.0000000   0.0000000   0.0000000   0.0000000
 NMagM=    2.7928460   0.0000000   2.7928460   2.7928460   2.7928460   0.0000000   2.7928460   2.7928460   2.7928460
 AtZNuc=   1.0000000   6.0000000   1.0000000   1.0000000   1.0000000   6.0000000   1.0000000   1.0000000   1.0000000
 Leave Link  101 at Mon Mar  9 20:56:09 2026, MaxMem=  2147483648 cpu:               6.6 elap:               0.2
 (Enter /data/home/wyx/g16/l202.exe)
                          Input orientation:                          
 ---------------------------------------------------------------------
 Center     Atomic      Atomic             Coordinates (Angstroms)
 Number     Number       Type             X           Y           Z
 ---------------------------------------------------------------------
      1          8           0        1.405427    9.819353    0.405286
      2          8           0       -4.883968    9.727517    0.228623
      3          7           0       -2.115366   12.917034    0.250158
      4          1           0       -2.425874   13.879197    0.205741
      5          6           0       -2.703184   10.632769    0.196816
      6          6           0       -0.770009   12.740834    0.371726
      7          6           0       -3.094392   11.988252    0.175580
      8          6           0       -3.659681    9.541453    0.192349
      9          6           0       -1.261050   10.318914    0.218582
     10          1           0       -1.047645    9.502736    0.921186
     11          1           0       -0.986276    9.843290   -0.746185
     12          6           0       -0.298574   11.418064    0.437208
     13          6           0        1.073140   10.988672    0.657029
     14          6           0       -4.486756   12.516374    0.052379
     15          1           0       -4.477411   13.603714   -0.040023
     16          1           0       -4.985563   12.096825   -0.820543
     17          1           0       -5.089397   12.246943    0.919655
     18          6           0       -3.138314    8.117389    0.181795
     19          1           0       -3.953272    7.455558   -0.105166
     20          1           0       -2.301135    7.969390   -0.500381
     21          1           0       -2.802284    7.831687    1.182943
     22          6           0        2.113374   11.919196    1.240666
     23          1           0        2.626411   12.469671    0.447729
     24          1           0        1.697250   12.641287    1.940564
     25          1           0        2.855333   11.309224    1.754395
     26          6           0        0.037534   14.000320    0.373596
     27          1           0        0.322269   14.310507    1.382011
     28          1           0        0.949029   13.880664   -0.208979
     29          1           0       -0.528787   14.819002   -0.072741
 ---------------------------------------------------------------------
                    Distance matrix (angstroms):
                    1          2          3          4          5
     1  O    0.000000
     2  O    6.292546   0.000000
     3  N    4.692087   4.223582   0.000000
     4  H    5.585787   4.824852   1.012000   0.000000
     5  C    4.193541   2.361422   2.359289   3.258262   0.000000
     6  C    3.642623   5.101492   1.362282   2.016262   2.865606
     7  C    5.000526   2.883802   1.351552   2.005867   1.410967
     8  C    5.077193   1.238876   3.712520   4.509821   1.451164
     9  C    2.719286   3.670884   2.735157   3.746011   1.476052
    10  H    2.526650   3.904811   3.639745   4.643790   2.131313
    11  H    2.654563   4.019410   3.422784   4.389436   2.111943
    12  C    2.336774   4.891553   2.362760   3.261312   2.540989
    13  C    1.241409   6.104194   3.748426   4.560910   3.820875
    14  C    6.489707   2.822510   2.413118   2.475488   2.598069
    15  H    7.009099   3.906708   2.476891   2.084489   3.468500
    16  H    6.894512   2.593201   3.171305   3.283614   2.896159
    17  H    6.952734   2.620540   3.121235   3.204416   2.970196
    18  C    4.857182   2.375292   4.907921   5.805736   2.552783
    19  H    5.879094   2.477783   5.773377   6.610049   3.427621
    20  H    4.240425   3.208346   5.007695   5.953150   2.782322
    21  H    4.718093   2.972928   5.215621   6.137507   2.971250
    22  C    2.368204   7.402059   4.456347   5.051479   5.093500
    23  H    2.918353   7.998325   4.766929   5.250800   5.642849
    24  H    3.225763   7.398190   4.179658   4.641355   5.141849
    25  H    2.478313   8.045281   5.436509   6.074062   5.812121
    26  C    4.399162   6.519129   2.413239   2.472089   4.345479
    27  H    4.722042   7.031287   3.027361   3.020253   4.907525
    28  H    4.132780   7.173840   3.244981   3.400288   4.904299
    29  H    5.382025   6.706836   2.497795   2.135351   4.724956
                    6          7          8          9         10
     6  C    0.000000
     7  C    2.451043   0.000000
     8  C    4.314907   2.511306   0.000000
     9  C    2.475939   2.479855   2.521620   0.000000
    10  H    3.296099   3.304980   2.712090   1.097880   0.000000
    11  H    3.113239   3.145578   2.849394   1.110178   1.702900
    12  C    1.405795   2.865338   3.857287   1.477257   2.112776
    13  C    2.559037   4.312688   4.970912   2.467641   2.602982
    14  C    3.737189   1.494246   3.090923   3.906615   4.654496
    15  H    3.828698   2.137509   4.150259   4.604538   5.431873
    16  H    4.427997   2.140228   3.051858   4.255908   5.026939
    17  H    4.381925   2.144904   3.145272   4.343390   4.885328
    18  C    5.198191   3.871117   1.516540   2.893473   2.614724
    19  H    6.188274   4.621883   2.127362   3.943562   3.699595
    20  H    5.086413   4.151798   2.190183   2.668136   2.437877
    21  H    5.374751   4.286856   2.153997   3.080859   2.437146
    22  C    3.121544   5.316014   6.330939   3.871988   3.991664
    23  H    3.408074   5.747470   6.939353   4.448664   4.746109
    24  H    2.925496   5.147956   6.431324   4.136444   4.292328
    25  H    4.135744   6.192977   6.928954   4.503781   4.380739
    26  C    1.496140   3.727813   5.795148   3.906802   4.658941
    27  H    2.162780   4.303709   6.325748   4.448964   5.020327
    28  H    2.142783   4.480889   6.342714   4.213469   4.942695
    29  H    2.138813   3.828465   6.142092   4.568575   5.433212
                   11         12         13         14         15
    11  H    0.000000
    12  C    2.086448   0.000000
    13  C    2.742646   1.454063   0.000000
    14  C    4.476209   4.346867   5.797580   0.000000
    15  H    5.179525   4.739989   6.175188   1.091299   0.000000
    16  H    4.591105   4.900053   6.333965   1.089414   1.771482
    17  H    5.038667   4.885876   6.295164   1.089925   1.770971
    18  C    2.910524   4.361630   5.119224   4.602838   5.651739
    19  H    3.862025   5.417789   6.191014   5.091295   6.170801
    20  H    2.302342   4.096667   4.673478   5.075190   6.057534
    21  H    3.326555   4.436979   5.026137   5.105087   6.133351
    22  C    4.226676   2.591172   1.512810   6.732783   6.922153
    23  H    4.623290   3.108299   2.156343   7.124298   7.210287
    24  H    4.716854   2.782026   2.183600   6.467053   6.555564
    25  H    4.812465   3.419643   2.117351   7.632846   7.890104
    26  C    4.425268   2.604815   3.197318   4.772261   4.551165
    27  H    5.118352   3.105531   3.481953   5.302222   5.055557
    28  H    4.509366   2.835220   3.021423   5.610468   5.436128
    29  H    5.041878   3.446655   4.215468   4.580750   4.131540
                   16         17         18         19         20
    16  H    0.000000
    17  H    1.749745   0.000000
    18  C    4.500324   4.626486   0.000000
    19  H    4.808196   5.029752   1.088358   0.000000
    20  H    4.934002   5.299846   1.090016   1.774760   0.000000
    21  H    5.193463   4.979426   1.094001   1.767899   1.761730
    22  C    7.394257   7.217366   6.569259   7.651112   6.174148
    23  H    7.725909   7.733434   7.228079   8.290913   6.740338
    24  H    7.251216   6.874324   6.851393   7.937580   6.616035
    25  H    8.290372   8.043310   6.970271   8.041505   6.544286
    26  C    5.502796   5.445910   6.688174   7.680472   6.527276
    27  H    6.158304   5.810180   7.195197   8.214759   7.115857
    28  H    6.226996   6.356528   7.076328   8.082408   6.752159
    29  H    5.275634   5.329118   7.196252   8.120865   7.088109
                   21         22         23         24         25
    21  H    0.000000
    22  C    6.393337   0.000000
    23  H    7.177894   1.093151   0.000000
    24  H    6.629634   1.088316   1.766734   0.000000
    25  H    6.665467   1.089260   1.762503   1.774882   0.000000
    26  C    6.838980   3.064637   3.008432   2.656505   4.133835
    27  H    7.195663   2.991054   3.093643   2.233573   3.944969
    28  H    7.252580   2.702689   2.288182   2.591606   3.755148
    29  H    7.454402   4.137019   3.968062   3.708245   5.206653
                   26         27         28         29
    26  C    0.000000
    27  H    1.092790   0.000000
    28  H    1.088363   1.763190   0.000000
    29  H    1.090952   1.760445   1.755841   0.000000
 Symmetry turned off by external request.
 Stoichiometry    C11H15NO2
 Framework group  C1[X(C11H15NO2)]
 Deg. of freedom    81
 Full point group                 C1      NOp   1
 Rotational constants (GHZ):           1.0645879           0.4883037           0.3413183
 Leave Link  202 at Mon Mar  9 20:56:09 2026, MaxMem=  2147483648 cpu:               0.1 elap:               0.0
 (Enter /data/home/wyx/g16/l301.exe)
 Standard basis: TZVP (5D, 7F)
 Ernie: Thresh=  0.10000D-02 Tol=  0.10000D-05 Strict=F.
   356 basis functions,   610 primitive gaussians,   370 cartesian basis functions
    52 alpha electrons       52 beta electrons
       nuclear repulsion energy       896.8471750526 Hartrees.
 IExCor= 4639 DFT=T Ex+Corr=wB97XD ExCW=0 ScaHFX=  1.000000
 ScaDFX=  1.000000  1.000000  1.000000  1.000000 ScalE2=  1.000000  1.000000
 IRadAn=      5 IRanWt=     -1 IRanGd=            0 ICorTp=0 IEmpDi=121
 HFx  wShort=  0.000000 wLong=  0.200000 cFull=  0.222036 cShort=  0.000000 cLong=  0.777964
 DFx  wShort=  0.000000 wLong=  0.200000 cFull=  0.000000 cShort=  0.000000 cLong=  1.000000
 NAtoms=   29 NActive=   29 NUniq=   29 SFac= 1.00D+00 NAtFMM=   60 NAOKFM=F Big=F
 Integral buffers will be    131072 words long.
 Raffenetti 2 integral format.
 Two-electron integral symmetry is turned off.
 R6Disp:  Grimme-D2 Dispersion energy=       -0.0199633949 Hartrees.
 Nuclear repulsion after empirical dispersion term =      896.8272116577 Hartrees.
 ------------------------------------------------------------------------------
 Polarizable Continuum Model (PCM)
 =================================
 Model                : PCM.
 Atomic radii         : UFF (Universal Force Field).
 Polarization charges : Total charges.
 Charge compensation  : None.
 Solution method      : On-the-fly selection.
 Cavity type          : Scaled VdW (van der Waals Surface) (Alpha=1.100).
 Cavity algorithm     : GePol (No added spheres)
                        Default sphere list used, NSphG=   29.
                        Lebedev-Laikov grids with approx.  5.0 points / Ang**2.
                        Smoothing algorithm: York/Karplus (Gamma=1.0000).
                        Polarization charges: spherical gaussians, with
                                              point-specific exponents (IZeta= 3).
                        Self-potential: point-specific (ISelfS= 7).
                        Self-field    : sphere-specific E.n sum rule (ISelfD= 2).
 Solvent              : Water, Eps=  78.355300 Eps(inf)=   1.777849
 ------------------------------------------------------------------------------
 GePol: Number of generator spheres                  =      29
 GePol: Total number of spheres                      =      29
 GePol: Number of exposed spheres                    =      29 (100.00%)
 GePol: Number of points                             =    2093
 GePol: Average weight of points                     =       0.13
 GePol: Minimum weight of points                     =   0.64D-10
 GePol: Maximum weight of points                     =    0.20577
 GePol: Number of points with low weight             =     129
 GePol: Fraction of low-weight points (<1% of avg)   =       6.16%
 GePol: Cavity surface area                          =    271.819 Ang**2
 GePol: Cavity volume                                =    290.331 Ang**3
 Leave Link  301 at Mon Mar  9 20:56:09 2026, MaxMem=  2147483648 cpu:               1.2 elap:               0.0
 (Enter /data/home/wyx/g16/l302.exe)
 NPDir=0 NMtPBC=     1 NCelOv=     1 NCel=       1 NClECP=     1 NCelD=      1
         NCelK=      1 NCelE2=     1 NClLst=     1 CellRange=     0.0.
 One-electron integrals computed using PRISM.
 NBasis=   356 RedAO= T EigKep=  4.08D-05  NBF=   356
 NBsUse=   356 1.00D-06 EigRej= -1.00D+00 NBFU=   356
 Precomputing XC quadrature grid using
 IXCGrd= 4 IRadAn=           5 IRanWt=          -1 IRanGd=           0 AccXCQ= 0.00D+00.
 Generated NRdTot=       0 NPtTot=           0 NUsed=           0 NTot=          32
 NSgBfM=   365   365   365   365   365 MxSgAt=    29 MxSgA2=    29.
 Leave Link  302 at Mon Mar  9 20:56:09 2026, MaxMem=  2147483648 cpu:               6.2 elap:               0.2
 (Enter /data/home/wyx/g16/l303.exe)
 DipDrv:  MaxL=1.
 Leave Link  303 at Mon Mar  9 20:56:10 2026, MaxMem=  2147483648 cpu:               1.1 elap:               0.0
 (Enter /data/home/wyx/g16/l401.exe)
 Initial guess from the checkpoint file:  "DDL-S1min-S1-cLR-1.chk"
 B after Tr=     0.000000    0.000000    0.000000
         Rot=    1.000000    0.000000    0.000000    0.000000 Ang=   0.00 deg.
 Guess basis will be translated and rotated to current coordinates.
 JPrj=2 DoOrth=T DoCkMO=T.
 Leave Link  401 at Mon Mar  9 20:56:10 2026, MaxMem=  2147483648 cpu:               4.5 elap:               0.2
 (Enter /data/home/wyx/g16/l502.exe)
 Two-electron integral symmetry not used.
 Closed shell SCF:
 Using DIIS extrapolation, IDIIS=  1040.
 NGot=  2147483648 LenX=  2147195087 LenY=  2147057746
 Requested convergence on RMS density matrix=1.00D-08 within 128 cycles.
 Requested convergence on MAX density matrix=1.00D-06.
 Requested convergence on             energy=1.00D-06.
 No special actions if energy rises.
 Fock matrices will be formed incrementally for  20 cycles.

 Cycle   1  Pass 1  IDiag  1:
 FoFJK:  IHMeth= 1 ICntrl=       0 DoSepK=T KAlg= 0 I1Cent=           0 FoldK=F
 IRaf=         1 NMat=       1 IRICut=       1 DoRegI=T DoRafI=F ISym2E= 0 IDoP0=0 IntGTp=1.
 FoFCou: FMM=F IPFlag=           0 FMFlag=      100000 FMFlg1=           0
         NFxFlg=           0 DoJE=T BraDBF=F KetDBF=F FulRan=T
         wScrn=  0.000000 ICntrl=       500 IOpCl=  0 I1Cent=           0 NGrid=           0
         NMat0=    1 NMatS0=      1 NMatT0=    0 NMatD0=    1 NMtDS0=    0 NMtDT0=    0
 Symmetry not used in FoFCou.
 Inv3:  Mode=1 IEnd=    13141947.
 Iteration    1 A*A^-1 deviation from unit magnitude is 3.22D-15 for    587.
 Iteration    1 A*A^-1 deviation from orthogonality  is 3.81D-15 for   1673    751.
 Iteration    1 A^-1*A deviation from unit magnitude is 2.89D-15 for    240.
 Iteration    1 A^-1*A deviation from orthogonality  is 2.03D-15 for   1757    227.
 NEqPCM:  Using non-equilibrium solvation (IEInf=1, Eps=  78.3553, EpsInf=   1.7778)
 Inv3:  Mode=1 IEnd=    13141947.
 Iteration    1 A*A^-1 deviation from unit magnitude is 3.00D-15 for    925.
 Iteration    1 A*A^-1 deviation from orthogonality  is 2.22D-15 for   1804    624.
 Iteration    1 A^-1*A deviation from unit magnitude is 3.22D-15 for    925.
 Iteration    1 A^-1*A deviation from orthogonality  is 2.26D-15 for    585    358.
 E= -633.410499200183    
 DIIS: error= 2.68D-04 at cycle   1 NSaved=   1.
 NSaved= 1 IEnMin= 1 EnMin= -633.410499200183     IErMin= 1 ErrMin= 2.68D-04
 ErrMax= 2.68D-04  0.00D+00 EMaxC= 1.00D-01 BMatC= 2.47D-05 BMatP= 2.47D-05
 IDIUse=3 WtCom= 9.97D-01 WtEn= 2.68D-03
 Coeff-Com:  0.100D+01
 Coeff-En:   0.100D+01
 Coeff:      0.100D+01
 Gap=     0.254 Goal=   None    Shift=    0.000
 RMSDP=2.08D-04 MaxDP=1.19D-02              OVMax= 3.74D-03

 Cycle   2  Pass 1  IDiag  1:
 RMSU=  2.08D-04    CP:  9.99D-01
 E= -633.410547695074     Delta-E=       -0.000048494892 Rises=F Damp=F
 DIIS: error= 1.43D-04 at cycle   2 NSaved=   2.
 NSaved= 2 IEnMin= 2 EnMin= -633.410547695074     IErMin= 2 ErrMin= 1.43D-04
 ErrMax= 1.43D-04  0.00D+00 EMaxC= 1.00D-01 BMatC= 1.11D-05 BMatP= 2.47D-05
 IDIUse=3 WtCom= 9.99D-01 WtEn= 1.43D-03
 Coeff-Com:  0.361D+00 0.639D+00
 Coeff-En:   0.000D+00 0.100D+01
 Coeff:      0.361D+00 0.639D+00
 Gap=     0.255 Goal=   None    Shift=    0.000
 RMSDP=3.22D-05 MaxDP=2.15D-03 DE=-4.85D-05 OVMax= 9.34D-04

 Cycle   3  Pass 1  IDiag  1:
 RMSU=  2.80D-05    CP:  9.99D-01  9.38D-01
 E= -633.410556892628     Delta-E=       -0.000009197554 Rises=F Damp=F
 DIIS: error= 1.01D-04 at cycle   3 NSaved=   3.
 NSaved= 3 IEnMin= 3 EnMin= -633.410556892628     IErMin= 3 ErrMin= 1.01D-04
 ErrMax= 1.01D-04  0.00D+00 EMaxC= 1.00D-01 BMatC= 3.04D-06 BMatP= 1.11D-05
 IDIUse=3 WtCom= 9.99D-01 WtEn= 1.01D-03
 Coeff-Com:  0.499D-01 0.322D+00 0.628D+00
 Coeff-En:   0.000D+00 0.361D-01 0.964D+00
 Coeff:      0.499D-01 0.322D+00 0.628D+00
 Gap=     0.255 Goal=   None    Shift=    0.000
 RMSDP=1.44D-05 MaxDP=9.61D-04 DE=-9.20D-06 OVMax= 6.19D-04

 Cycle   4  Pass 1  IDiag  1:
 RMSU=  1.30D-05    CP:  9.99D-01  9.61D-01  1.07D+00
 E= -633.410559470183     Delta-E=       -0.000002577555 Rises=F Damp=F
 DIIS: error= 2.36D-05 at cycle   4 NSaved=   4.
 NSaved= 4 IEnMin= 4 EnMin= -633.410559470183     IErMin= 4 ErrMin= 2.36D-05
 ErrMax= 2.36D-05  0.00D+00 EMaxC= 1.00D-01 BMatC= 2.57D-07 BMatP= 3.04D-06
 IDIUse=1 WtCom= 1.00D+00 WtEn= 0.00D+00
 Coeff-Com: -0.269D-01 0.206D-01 0.203D+00 0.804D+00
 Coeff:     -0.269D-01 0.206D-01 0.203D+00 0.804D+00
 Gap=     0.255 Goal=   None    Shift=    0.000
 RMSDP=8.55D-06 MaxDP=3.98D-04 DE=-2.58D-06 OVMax= 3.52D-04

 Cycle   5  Pass 1  IDiag  1:
 RMSU=  4.60D-06    CP:  9.99D-01  9.73D-01  1.29D+00  1.16D+00
 E= -633.410559808157     Delta-E=       -0.000000337974 Rises=F Damp=F
 DIIS: error= 8.60D-06 at cycle   5 NSaved=   5.
 NSaved= 5 IEnMin= 5 EnMin= -633.410559808157     IErMin= 5 ErrMin= 8.60D-06
 ErrMax= 8.60D-06  0.00D+00 EMaxC= 1.00D-01 BMatC= 5.44D-08 BMatP= 2.57D-07
 IDIUse=1 WtCom= 1.00D+00 WtEn= 0.00D+00
 Coeff-Com: -0.150D-01-0.380D-01-0.151D-01 0.326D+00 0.742D+00
 Coeff:     -0.150D-01-0.380D-01-0.151D-01 0.326D+00 0.742D+00
 Gap=     0.255 Goal=   None    Shift=    0.000
 RMSDP=2.77D-06 MaxDP=1.54D-04 DE=-3.38D-07 OVMax= 1.63D-04

 Cycle   6  Pass 1  IDiag  1:
 RMSU=  1.53D-06    CP:  9.99D-01  9.74D-01  1.34D+00  1.28D+00  1.17D+00
 E= -633.410559889681     Delta-E=       -0.000000081524 Rises=F Damp=F
 DIIS: error= 6.79D-06 at cycle   6 NSaved=   6.
 NSaved= 6 IEnMin= 6 EnMin= -633.410559889681     IErMin= 6 ErrMin= 6.79D-06
 ErrMax= 6.79D-06  0.00D+00 EMaxC= 1.00D-01 BMatC= 3.90D-09 BMatP= 5.44D-08
 IDIUse=1 WtCom= 1.00D+00 WtEn= 0.00D+00
 Coeff-Com:  0.784D-03-0.956D-02-0.240D-01-0.448D-01 0.138D+00 0.939D+00
 Coeff:      0.784D-03-0.956D-02-0.240D-01-0.448D-01 0.138D+00 0.939D+00
 Gap=     0.255 Goal=   None    Shift=    0.000
 RMSDP=1.62D-06 MaxDP=1.02D-04 DE=-8.15D-08 OVMax= 1.12D-04

 Cycle   7  Pass 1  IDiag  1:
 RMSU=  5.71D-07    CP:  9.99D-01  9.72D-01  1.37D+00  1.34D+00  1.37D+00
                    CP:  1.37D+00
 E= -633.410559903298     Delta-E=       -0.000000013616 Rises=F Damp=F
 DIIS: error= 4.19D-06 at cycle   7 NSaved=   7.
 NSaved= 7 IEnMin= 7 EnMin= -633.410559903298     IErMin= 7 ErrMin= 4.19D-06
 ErrMax= 4.19D-06  0.00D+00 EMaxC= 1.00D-01 BMatC= 9.88D-10 BMatP= 3.90D-09
 IDIUse=1 WtCom= 1.00D+00 WtEn= 0.00D+00
 Coeff-Com:  0.175D-02-0.724D-04-0.455D-02-0.471D-01-0.402D-01 0.324D+00
 Coeff-Com:  0.766D+00
 Coeff:      0.175D-02-0.724D-04-0.455D-02-0.471D-01-0.402D-01 0.324D+00
 Coeff:      0.766D+00
 Gap=     0.255 Goal=   None    Shift=    0.000
 RMSDP=4.77D-07 MaxDP=2.58D-05 DE=-1.36D-08 OVMax= 4.70D-05

 Cycle   8  Pass 1  IDiag  1:
 RMSU=  1.91D-07    CP:  9.99D-01  9.71D-01  1.37D+00  1.35D+00  1.42D+00
                    CP:  1.53D+00  1.26D+00
 E= -633.410559906089     Delta-E=       -0.000000002791 Rises=F Damp=F
 DIIS: error= 2.12D-06 at cycle   8 NSaved=   8.
 NSaved= 8 IEnMin= 8 EnMin= -633.410559906089     IErMin= 8 ErrMin= 2.12D-06
 ErrMax= 2.12D-06  0.00D+00 EMaxC= 1.00D-01 BMatC= 2.70D-10 BMatP= 9.88D-10
 IDIUse=1 WtCom= 1.00D+00 WtEn= 0.00D+00
 Coeff-Com:  0.517D-03 0.185D-02 0.511D-02-0.570D-02-0.594D-01-0.126D+00
 Coeff-Com:  0.308D+00 0.876D+00
 Coeff:      0.517D-03 0.185D-02 0.511D-02-0.570D-02-0.594D-01-0.126D+00
 Coeff:      0.308D+00 0.876D+00
 Gap=     0.255 Goal=   None    Shift=    0.000
 RMSDP=3.69D-07 MaxDP=1.65D-05 DE=-2.79D-09 OVMax= 3.60D-05

 Cycle   9  Pass 1  IDiag  1:
 RMSU=  1.27D-07    CP:  9.99D-01  9.71D-01  1.37D+00  1.35D+00  1.45D+00
                    CP:  1.68D+00  1.60D+00  1.37D+00
 E= -633.410559907168     Delta-E=       -0.000000001079 Rises=F Damp=F
 DIIS: error= 1.08D-06 at cycle   9 NSaved=   9.
 NSaved= 9 IEnMin= 9 EnMin= -633.410559907168     IErMin= 9 ErrMin= 1.08D-06
 ErrMax= 1.08D-06  0.00D+00 EMaxC= 1.00D-01 BMatC= 4.59D-11 BMatP= 2.70D-10
 IDIUse=1 WtCom= 1.00D+00 WtEn= 0.00D+00
 Coeff-Com: -0.155D-03 0.639D-03 0.282D-02 0.876D-02-0.140D-01-0.113D+00
 Coeff-Com: -0.493D-01 0.287D+00 0.878D+00
 Coeff:     -0.155D-03 0.639D-03 0.282D-02 0.876D-02-0.140D-01-0.113D+00
 Coeff:     -0.493D-01 0.287D+00 0.878D+00
 Gap=     0.255 Goal=   None    Shift=    0.000
 RMSDP=1.60D-07 MaxDP=6.05D-06 DE=-1.08D-09 OVMax= 1.73D-05

 Cycle  10  Pass 1  IDiag  1:
 RMSU=  5.01D-08    CP:  9.99D-01  9.71D-01  1.37D+00  1.35D+00  1.46D+00
                    CP:  1.75D+00  1.74D+00  1.63D+00  1.42D+00
 E= -633.410559907365     Delta-E=       -0.000000000197 Rises=F Damp=F
 DIIS: error= 4.31D-07 at cycle  10 NSaved=  10.
 NSaved=10 IEnMin=10 EnMin= -633.410559907365     IErMin=10 ErrMin= 4.31D-07
 ErrMax= 4.31D-07  0.00D+00 EMaxC= 1.00D-01 BMatC= 8.37D-12 BMatP= 4.59D-11
 IDIUse=1 WtCom= 1.00D+00 WtEn= 0.00D+00
 Coeff-Com: -0.147D-03-0.557D-04-0.230D-03 0.417D-02 0.656D-02-0.129D-01
 Coeff-Com: -0.668D-01-0.878D-01 0.262D+00 0.895D+00
 Coeff:     -0.147D-03-0.557D-04-0.230D-03 0.417D-02 0.656D-02-0.129D-01
 Coeff:     -0.668D-01-0.878D-01 0.262D+00 0.895D+00
 Gap=     0.255 Goal=   None    Shift=    0.000
 RMSDP=7.64D-08 MaxDP=3.55D-06 DE=-1.97D-10 OVMax= 7.66D-06

 Cycle  11  Pass 1  IDiag  1:
 RMSU=  1.96D-08    CP:  9.99D-01  9.71D-01  1.37D+00  1.35D+00  1.45D+00
                    CP:  1.76D+00  1.79D+00  1.75D+00  1.78D+00  1.29D+00
 E= -633.410559907407     Delta-E=       -0.000000000042 Rises=F Damp=F
 DIIS: error= 1.42D-07 at cycle  11 NSaved=  11.
 NSaved=11 IEnMin=11 EnMin= -633.410559907407     IErMin=11 ErrMin= 1.42D-07
 ErrMax= 1.42D-07  0.00D+00 EMaxC= 1.00D-01 BMatC= 2.32D-12 BMatP= 8.37D-12
 IDIUse=1 WtCom= 1.00D+00 WtEn= 0.00D+00
 Coeff-Com: -0.395D-04-0.624D-04-0.554D-03 0.541D-03 0.476D-02 0.108D-01
 Coeff-Com: -0.171D-01-0.816D-01-0.322D-01 0.391D+00 0.725D+00
 Coeff:     -0.395D-04-0.624D-04-0.554D-03 0.541D-03 0.476D-02 0.108D-01
 Coeff:     -0.171D-01-0.816D-01-0.322D-01 0.391D+00 0.725D+00
 Gap=     0.255 Goal=   None    Shift=    0.000
 RMSDP=2.54D-08 MaxDP=8.79D-07 DE=-4.24D-11 OVMax= 2.30D-06

 Cycle  12  Pass 1  IDiag  1:
 RMSU=  8.56D-09    CP:  9.99D-01  9.71D-01  1.37D+00  1.35D+00  1.45D+00
                    CP:  1.77D+00  1.79D+00  1.79D+00  1.88D+00  1.52D+00
                    CP:  1.16D+00
 E= -633.410559907405     Delta-E=        0.000000000003 Rises=F Damp=F
 DIIS: error= 5.27D-08 at cycle  12 NSaved=  12.
 NSaved=12 IEnMin=11 EnMin= -633.410559907407     IErMin=12 ErrMin= 5.27D-08
 ErrMax= 5.27D-08  0.00D+00 EMaxC= 1.00D-01 BMatC= 4.16D-13 BMatP= 2.32D-12
 IDIUse=1 WtCom= 1.00D+00 WtEn= 0.00D+00
 Coeff-Com:  0.101D-04-0.778D-06-0.211D-03-0.647D-03 0.676D-03 0.672D-02
 Coeff-Com:  0.922D-02-0.176D-01-0.782D-01-0.457D-01 0.296D+00 0.829D+00
 Coeff:      0.101D-04-0.778D-06-0.211D-03-0.647D-03 0.676D-03 0.672D-02
 Coeff:      0.922D-02-0.176D-01-0.782D-01-0.457D-01 0.296D+00 0.829D+00
 Gap=     0.255 Goal=   None    Shift=    0.000
 RMSDP=1.57D-08 MaxDP=6.59D-07 DE= 2.50D-12 OVMax= 1.32D-06

 Cycle  13  Pass 1  IDiag  1:
 RMSU=  3.99D-09    CP:  9.99D-01  9.71D-01  1.37D+00  1.35D+00  1.45D+00
                    CP:  1.77D+00  1.79D+00  1.80D+00  1.96D+00  1.65D+00
                    CP:  1.43D+00  1.15D+00
 E= -633.410559907412     Delta-E=       -0.000000000008 Rises=F Damp=F
 DIIS: error= 1.42D-08 at cycle  13 NSaved=  13.
 NSaved=13 IEnMin=13 EnMin= -633.410559907412     IErMin=13 ErrMin= 1.42D-08
 ErrMax= 1.42D-08  0.00D+00 EMaxC= 1.00D-01 BMatC= 8.08D-14 BMatP= 4.16D-13
 IDIUse=1 WtCom= 1.00D+00 WtEn= 0.00D+00
 Coeff-Com:  0.104D-04 0.174D-04 0.505D-05-0.354D-03-0.514D-03 0.770D-03
 Coeff-Com:  0.820D-02 0.654D-02-0.251D-01-0.837D-01-0.269D-02 0.362D+00
 Coeff-Com:  0.735D+00
 Coeff:      0.104D-04 0.174D-04 0.505D-05-0.354D-03-0.514D-03 0.770D-03
 Coeff:      0.820D-02 0.654D-02-0.251D-01-0.837D-01-0.269D-02 0.362D+00
 Coeff:      0.735D+00
 Gap=     0.255 Goal=   None    Shift=    0.000
 RMSDP=4.58D-09 MaxDP=2.36D-07 DE=-7.62D-12 OVMax= 2.80D-07

 Error on total polarization charges =  0.00748
 SCF Done:  E(RwB97XD) =  -633.410559907     A.U. after   13 cycles
            NFock= 13  Conv=0.46D-08     -V/T= 2.0049
 KE= 6.303168434090D+02 PE=-3.269468414710D+03 EE= 1.108913799736D+03
 Leave Link  502 at Mon Mar  9 20:56:45 2026, MaxMem=  2147483648 cpu:            1094.3 elap:              35.0
 (Enter /data/home/wyx/g16/l601.exe)
 Copying SCF densities to generalized density rwf, IOpCl= 0 IROHF=0.

 **********************************************************************

            Population analysis using the SCF density.

 **********************************************************************

 Alpha  occ. eigenvalues --  -19.22934 -19.22041 -14.49316 -10.37376 -10.36957
 Alpha  occ. eigenvalues --  -10.36815 -10.36390 -10.30004 -10.29405 -10.29078
 Alpha  occ. eigenvalues --  -10.28781 -10.28303 -10.28240 -10.27689  -1.13225
 Alpha  occ. eigenvalues --   -1.12608  -1.10212  -0.92920  -0.92065  -0.85567
 Alpha  occ. eigenvalues --   -0.84194  -0.83319  -0.80071  -0.75244  -0.73968
 Alpha  occ. eigenvalues --   -0.70393  -0.63194  -0.59970  -0.58775  -0.56661
 Alpha  occ. eigenvalues --   -0.56102  -0.55650  -0.54101  -0.53391  -0.52591
 Alpha  occ. eigenvalues --   -0.51507  -0.51191  -0.50968  -0.50222  -0.49619
 Alpha  occ. eigenvalues --   -0.48910  -0.46967  -0.46802  -0.45698  -0.44953
 Alpha  occ. eigenvalues --   -0.43965  -0.43576  -0.43358  -0.34380  -0.33963
 Alpha  occ. eigenvalues --   -0.32949  -0.26718
 Alpha virt. eigenvalues --   -0.01257   0.04843   0.10324   0.12081   0.12348
 Alpha virt. eigenvalues --    0.12490   0.14200   0.14810   0.16319   0.17132
 Alpha virt. eigenvalues --    0.17580   0.18519   0.19267   0.19869   0.20585
 Alpha virt. eigenvalues --    0.21013   0.21485   0.21600   0.21917   0.22997
 Alpha virt. eigenvalues --    0.23466   0.25212   0.26542   0.26888   0.27253
 Alpha virt. eigenvalues --    0.27951   0.28277   0.29477   0.29853   0.30259
 Alpha virt. eigenvalues --    0.30836   0.31230   0.31855   0.32609   0.33477
 Alpha virt. eigenvalues --    0.34992   0.35004   0.35454   0.36497   0.37099
 Alpha virt. eigenvalues --    0.38200   0.38603   0.39772   0.40726   0.41465
 Alpha virt. eigenvalues --    0.43013   0.44004   0.44440   0.45246   0.45826
 Alpha virt. eigenvalues --    0.47130   0.47887   0.48644   0.49175   0.49362
 Alpha virt. eigenvalues --    0.50140   0.50567   0.50852   0.51406   0.52042
 Alpha virt. eigenvalues --    0.52579   0.53483   0.53940   0.54315   0.54426
 Alpha virt. eigenvalues --    0.55357   0.55458   0.56200   0.56564   0.56770
 Alpha virt. eigenvalues --    0.57190   0.58157   0.58750   0.59391   0.61194
 Alpha virt. eigenvalues --    0.61203   0.62526   0.63989   0.64545   0.65985
 Alpha virt. eigenvalues --    0.67235   0.67863   0.68853   0.69935   0.70201
 Alpha virt. eigenvalues --    0.71173   0.71970   0.72984   0.73992   0.75015
 Alpha virt. eigenvalues --    0.75931   0.77253   0.77897   0.78964   0.80030
 Alpha virt. eigenvalues --    0.81749   0.84209   0.86418   0.89638   0.90271
 Alpha virt. eigenvalues --    0.94095   0.98650   1.04399   1.06615   1.23608
 Alpha virt. eigenvalues --    1.26305   1.29405   1.30268   1.30536   1.32423
 Alpha virt. eigenvalues --    1.34165   1.35555   1.37058   1.37649   1.39106
 Alpha virt. eigenvalues --    1.39337   1.40325   1.40948   1.41443   1.41965
 Alpha virt. eigenvalues --    1.42332   1.42460   1.42974   1.43832   1.44705
 Alpha virt. eigenvalues --    1.45866   1.46109   1.46862   1.48002   1.49586
 Alpha virt. eigenvalues --    1.51151   1.52018   1.52439   1.53006   1.53777
 Alpha virt. eigenvalues --    1.54177   1.55365   1.55563   1.57927   1.61044
 Alpha virt. eigenvalues --    1.61679   1.62423   1.63382   1.63755   1.64668
 Alpha virt. eigenvalues --    1.64773   1.65041   1.65489   1.66588   1.67503
 Alpha virt. eigenvalues --    1.68601   1.68961   1.69583   1.70189   1.70518
 Alpha virt. eigenvalues --    1.71423   1.71903   1.72578   1.73101   1.74769
 Alpha virt. eigenvalues --    1.76528   1.77084   1.77826   1.79030   1.80698
 Alpha virt. eigenvalues --    1.83923   1.85257   1.86042   1.87940   1.88666
 Alpha virt. eigenvalues --    1.88722   1.89954   1.90972   1.91285   1.92383
 Alpha virt. eigenvalues --    1.93564   1.96220   1.96843   2.00938   2.01780
 Alpha virt. eigenvalues --    2.03642   2.05589   2.07753   2.08888   2.11490
 Alpha virt. eigenvalues --    2.12367   2.13172   2.17715   2.19721   2.21580
 Alpha virt. eigenvalues --    2.22225   2.23081   2.23892   2.24878   2.27788
 Alpha virt. eigenvalues --    2.28855   2.29399   2.31112   2.32739   2.33862
 Alpha virt. eigenvalues --    2.35757   2.36740   2.38315   2.39338   2.40507
 Alpha virt. eigenvalues --    2.40803   2.41730   2.42910   2.43938   2.46945
 Alpha virt. eigenvalues --    2.47373   2.49103   2.50528   2.51559   2.53215
 Alpha virt. eigenvalues --    2.54464   2.55676   2.56266   2.57914   2.58955
 Alpha virt. eigenvalues --    2.60340   2.61766   2.63170   2.63738   2.64636
 Alpha virt. eigenvalues --    2.66531   2.67308   2.68271   2.69276   2.70301
 Alpha virt. eigenvalues --    2.73544   2.73629   2.76176   2.76784   2.77171
 Alpha virt. eigenvalues --    2.78439   2.78775   2.79778   2.80199   2.81485
 Alpha virt. eigenvalues --    2.83060   2.83524   2.84809   2.85253   2.86385
 Alpha virt. eigenvalues --    2.87265   2.88455   2.90277   2.91176   2.94288
 Alpha virt. eigenvalues --    2.99328   3.00471   3.03195   3.09747   3.12677
 Alpha virt. eigenvalues --    3.14121   3.16444   3.20330   3.21449   3.23325
 Alpha virt. eigenvalues --    3.23607   3.24631   3.26224   3.27062   3.27611
 Alpha virt. eigenvalues --    3.31184   3.32415   3.33755   3.36155   3.38141
 Alpha virt. eigenvalues --    3.39749   3.40100   3.40568   3.40715   3.43086
 Alpha virt. eigenvalues --    3.43500   3.45053   3.46102   3.49198   3.49643
 Alpha virt. eigenvalues --    3.51465   3.52099   3.57641   3.59710   3.61292
 Alpha virt. eigenvalues --    3.62557   3.92701   4.02718   4.34111   4.37393
 Alpha virt. eigenvalues --   21.75148  21.86900  22.13599  22.16311  22.17588
 Alpha virt. eigenvalues --   22.20420  22.20717  22.22946  22.24459  22.30511
 Alpha virt. eigenvalues --   22.32530  31.98384  43.71896  43.74726
          Condensed to atoms (all electrons):
               1          2          3          4          5          6
     1  O    7.978399   0.000000  -0.000165   0.000015   0.016825   0.004813
     2  O    0.000000   8.018295   0.000348   0.000000  -0.185792   0.001154
     3  N   -0.000165   0.000348   6.256393   0.362397  -0.119684   0.333800
     4  H    0.000015   0.000000   0.362397   0.395647   0.016857  -0.039919
     5  C    0.016825  -0.185792  -0.119684   0.016857   6.976450  -0.083827
     6  C    0.004813   0.001154   0.333800  -0.039919  -0.083827   5.523612
     7  C    0.000039  -0.037997   0.396918  -0.029719   0.467368  -0.103014
     8  C   -0.000787   0.657824   0.004961  -0.000867  -0.347093   0.036719
     9  C    0.014497   0.023347   0.020881   0.000466  -0.562881  -0.031162
    10  H    0.006209   0.000055  -0.001221   0.000007  -0.088945   0.025915
    11  H    0.007163   0.000136   0.003028   0.000023  -0.070742  -0.020093
    12  C   -0.221705  -0.002668  -0.089038   0.015454   0.156941  -0.000245
    13  C    0.667246  -0.000010   0.002630   0.000393   0.068075   0.081852
    14  C   -0.000005   0.003801  -0.034613  -0.012765  -0.088440   0.013501
    15  H   -0.000000   0.003336   0.007856   0.002597   0.017185   0.005269
    16  H    0.000000   0.001431  -0.000998   0.000681  -0.000197  -0.001587
    17  H   -0.000000   0.002597  -0.002430   0.000812  -0.004761  -0.001057
    18  C    0.000392  -0.096737  -0.000579   0.000014  -0.239558   0.000555
    19  H    0.000001   0.007796   0.000007  -0.000001   0.024843   0.000010
    20  H    0.000117   0.003523   0.000103   0.000001   0.028568  -0.001006
    21  H   -0.000004   0.000510   0.000009  -0.000001   0.001543   0.000127
    22  C   -0.098029   0.000000  -0.000305   0.000111   0.003230  -0.024709
    23  H    0.000784   0.000000   0.000009  -0.000010  -0.000024   0.006317
    24  H    0.004473  -0.000000   0.000255  -0.000045  -0.000641  -0.019570
    25  H    0.006005   0.000000   0.000015  -0.000002  -0.000090  -0.001095
    26  C    0.000449   0.000009  -0.027600  -0.007842   0.001700   0.238744
    27  H   -0.000050  -0.000000  -0.002344   0.000408   0.000225  -0.024421
    28  H   -0.000177  -0.000000   0.000554   0.000606   0.000238  -0.050602
    29  H    0.000015   0.000000   0.003594   0.002202  -0.000295  -0.039993
               7          8          9         10         11         12
     1  O    0.000039  -0.000787   0.014497   0.006209   0.007163  -0.221705
     2  O   -0.037997   0.657824   0.023347   0.000055   0.000136  -0.002668
     3  N    0.396918   0.004961   0.020881  -0.001221   0.003028  -0.089038
     4  H   -0.029719  -0.000867   0.000466   0.000007   0.000023   0.015454
     5  C    0.467368  -0.347093  -0.562881  -0.088945  -0.070742   0.156941
     6  C   -0.103014   0.036719  -0.031162   0.025915  -0.020093  -0.000245
     7  C    5.379606  -0.205842  -0.193955   0.012907  -0.005766  -0.000608
     8  C   -0.205842   5.451794   0.173987  -0.008856   0.000732  -0.046902
     9  C   -0.193955   0.173987   6.165418   0.503016   0.442328  -0.101657
    10  H    0.012907  -0.008856   0.503016   0.541471  -0.048621  -0.098651
    11  H   -0.005766   0.000732   0.442328  -0.048621   0.563118  -0.005698
    12  C   -0.000608  -0.046902  -0.101657  -0.098651  -0.005698   7.216739
    13  C    0.022706  -0.010739  -0.182154  -0.001361  -0.009568  -0.493789
    14  C    0.301483  -0.029369   0.006244   0.000301  -0.000471   0.000675
    15  H   -0.077385   0.004530   0.000640  -0.000001   0.000031  -0.001304
    16  H   -0.024860  -0.007981  -0.000539  -0.000057   0.000167   0.000510
    17  H   -0.015157  -0.002861   0.000998   0.000058  -0.000059   0.000113
    18  C   -0.000132   0.348753   0.007049   0.013348  -0.015274  -0.001895
    19  H    0.000254  -0.051785  -0.002438   0.000600   0.000041  -0.000145
    20  H    0.002176  -0.052209   0.003520  -0.007849   0.003001   0.006607
    21  H   -0.000232  -0.022882  -0.011515  -0.000705   0.000880  -0.002056
    22  C   -0.000136  -0.000062   0.006068  -0.002055   0.003588  -0.207662
    23  H    0.000008   0.000000  -0.001537  -0.000106   0.000131  -0.013967
    24  H    0.000007   0.000010   0.001821   0.000199  -0.000215   0.056077
    25  H    0.000003   0.000002   0.000282  -0.000028  -0.000075   0.018443
    26  C    0.003553   0.000848   0.020443   0.000278  -0.000868  -0.101707
    27  H   -0.000612  -0.000013  -0.000563   0.000026  -0.000003  -0.014914
    28  H   -0.000805   0.000001  -0.000052  -0.000006  -0.000038  -0.003363
    29  H    0.002526  -0.000006  -0.000373  -0.000007   0.000049   0.019132
              13         14         15         16         17         18
     1  O    0.667246  -0.000005  -0.000000   0.000000  -0.000000   0.000392
     2  O   -0.000010   0.003801   0.003336   0.001431   0.002597  -0.096737
     3  N    0.002630  -0.034613   0.007856  -0.000998  -0.002430  -0.000579
     4  H    0.000393  -0.012765   0.002597   0.000681   0.000812   0.000014
     5  C    0.068075  -0.088440   0.017185  -0.000197  -0.004761  -0.239558
     6  C    0.081852   0.013501   0.005269  -0.001587  -0.001057   0.000555
     7  C    0.022706   0.301483  -0.077385  -0.024860  -0.015157  -0.000132
     8  C   -0.010739  -0.029369   0.004530  -0.007981  -0.002861   0.348753
     9  C   -0.182154   0.006244   0.000640  -0.000539   0.000998   0.007049
    10  H   -0.001361   0.000301  -0.000001  -0.000057   0.000058   0.013348
    11  H   -0.009568  -0.000471   0.000031   0.000167  -0.000059  -0.015274
    12  C   -0.493789   0.000675  -0.001304   0.000510   0.000113  -0.001895
    13  C    5.630579   0.000129  -0.000035  -0.000001  -0.000005   0.001292
    14  C    0.000129   5.008003   0.395603   0.413403   0.401698   0.001161
    15  H   -0.000035   0.395603   0.553831  -0.023450  -0.021549   0.000158
    16  H   -0.000001   0.413403  -0.023450   0.507117  -0.024163  -0.000094
    17  H   -0.000005   0.401698  -0.021549  -0.024163   0.504155   0.000009
    18  C    0.001292   0.001161   0.000158  -0.000094   0.000009   5.248239
    19  H   -0.000007   0.000061  -0.000003   0.000027  -0.000027   0.394340
    20  H    0.000718   0.000044  -0.000010  -0.000019   0.000003   0.374166
    21  H   -0.000134  -0.000179  -0.000003   0.000008  -0.000005   0.407326
    22  C    0.278310  -0.000010   0.000001   0.000000  -0.000000   0.000005
    23  H   -0.014180  -0.000001   0.000000  -0.000000   0.000000  -0.000001
    24  H   -0.090536   0.000003   0.000000   0.000000   0.000000   0.000001
    25  H   -0.030908   0.000000   0.000000  -0.000000  -0.000000  -0.000000
    26  C   -0.052015   0.000237   0.000299  -0.000013  -0.000047   0.000012
    27  H    0.005735  -0.000070  -0.000006   0.000003  -0.000003  -0.000000
    28  H   -0.002173   0.000027  -0.000005  -0.000002   0.000001   0.000000
    29  H   -0.001115  -0.000056   0.000076   0.000001  -0.000002  -0.000000
              19         20         21         22         23         24
     1  O    0.000001   0.000117  -0.000004  -0.098029   0.000784   0.004473
     2  O    0.007796   0.003523   0.000510   0.000000   0.000000  -0.000000
     3  N    0.000007   0.000103   0.000009  -0.000305   0.000009   0.000255
     4  H   -0.000001   0.000001  -0.000001   0.000111  -0.000010  -0.000045
     5  C    0.024843   0.028568   0.001543   0.003230  -0.000024  -0.000641
     6  C    0.000010  -0.001006   0.000127  -0.024709   0.006317  -0.019570
     7  C    0.000254   0.002176  -0.000232  -0.000136   0.000008   0.000007
     8  C   -0.051785  -0.052209  -0.022882  -0.000062   0.000000   0.000010
     9  C   -0.002438   0.003520  -0.011515   0.006068  -0.001537   0.001821
    10  H    0.000600  -0.007849  -0.000705  -0.002055  -0.000106   0.000199
    11  H    0.000041   0.003001   0.000880   0.003588   0.000131  -0.000215
    12  C   -0.000145   0.006607  -0.002056  -0.207662  -0.013967   0.056077
    13  C   -0.000007   0.000718  -0.000134   0.278310  -0.014180  -0.090536
    14  C    0.000061   0.000044  -0.000179  -0.000010  -0.000001   0.000003
    15  H   -0.000003  -0.000010  -0.000003   0.000001   0.000000   0.000000
    16  H    0.000027  -0.000019   0.000008   0.000000  -0.000000   0.000000
    17  H   -0.000027   0.000003  -0.000005  -0.000000   0.000000   0.000000
    18  C    0.394340   0.374166   0.407326   0.000005  -0.000001   0.000001
    19  H    0.507905  -0.021855  -0.009460  -0.000000   0.000000   0.000000
    20  H   -0.021855   0.527251  -0.020684   0.000033  -0.000000  -0.000000
    21  H   -0.009460  -0.020684   0.479513  -0.000009   0.000000   0.000000
    22  C   -0.000000   0.000033  -0.000009   5.357807   0.401526   0.398441
    23  H    0.000000  -0.000000   0.000000   0.401526   0.487142  -0.024908
    24  H    0.000000  -0.000000   0.000000   0.398441  -0.024908   0.535149
    25  H   -0.000000  -0.000000   0.000000   0.380553  -0.008004  -0.019470
    26  C    0.000000  -0.000015   0.000002  -0.022959  -0.007343   0.015223
    27  H    0.000000   0.000000  -0.000000  -0.009313   0.000374  -0.001224
    28  H   -0.000000  -0.000000   0.000000   0.005045  -0.000054  -0.006165
    29  H    0.000000   0.000000  -0.000000   0.001800   0.000154   0.000449
              25         26         27         28         29
     1  O    0.006005   0.000449  -0.000050  -0.000177   0.000015
     2  O    0.000000   0.000009  -0.000000  -0.000000   0.000000
     3  N    0.000015  -0.027600  -0.002344   0.000554   0.003594
     4  H   -0.000002  -0.007842   0.000408   0.000606   0.002202
     5  C   -0.000090   0.001700   0.000225   0.000238  -0.000295
     6  C   -0.001095   0.238744  -0.024421  -0.050602  -0.039993
     7  C    0.000003   0.003553  -0.000612  -0.000805   0.002526
     8  C    0.000002   0.000848  -0.000013   0.000001  -0.000006
     9  C    0.000282   0.020443  -0.000563  -0.000052  -0.000373
    10  H   -0.000028   0.000278   0.000026  -0.000006  -0.000007
    11  H   -0.000075  -0.000868  -0.000003  -0.000038   0.000049
    12  C    0.018443  -0.101707  -0.014914  -0.003363   0.019132
    13  C   -0.030908  -0.052015   0.005735  -0.002173  -0.001115
    14  C    0.000000   0.000237  -0.000070   0.000027  -0.000056
    15  H    0.000000   0.000299  -0.000006  -0.000005   0.000076
    16  H   -0.000000  -0.000013   0.000003  -0.000002   0.000001
    17  H   -0.000000  -0.000047  -0.000003   0.000001  -0.000002
    18  C   -0.000000   0.000012  -0.000000   0.000000  -0.000000
    19  H   -0.000000   0.000000   0.000000  -0.000000   0.000000
    20  H   -0.000000  -0.000015   0.000000  -0.000000   0.000000
    21  H    0.000000   0.000002  -0.000000   0.000000  -0.000000
    22  C    0.380553  -0.022959  -0.009313   0.005045   0.001800
    23  H   -0.008004  -0.007343   0.000374  -0.000054   0.000154
    24  H   -0.019470   0.015223  -0.001224  -0.006165   0.000449
    25  H    0.492306   0.002026   0.000116   0.000445  -0.000026
    26  C    0.002026   5.190321   0.419269   0.430907   0.384232
    27  H    0.000116   0.419269   0.474620  -0.026060  -0.012845
    28  H    0.000445   0.430907  -0.026060   0.501668  -0.020633
    29  H   -0.000026   0.384232  -0.012845  -0.020633   0.500302
 Mulliken charges:
               1
     1  O   -0.386519
     2  O   -0.400959
     3  N   -0.114780
     4  H    0.292479
     5  C    0.012920
     6  C    0.169913
     7  C    0.106667
     8  C    0.108092
     9  C   -0.302180
    10  H    0.154082
    11  H    0.153075
    12  C   -0.082720
    13  C    0.129062
    14  C   -0.380398
    15  H    0.132341
    16  H    0.160613
    17  H    0.161686
    18  C   -0.442549
    19  H    0.149835
    20  H    0.153818
    21  H    0.177950
    22  C   -0.471271
    23  H    0.173689
    24  H    0.150668
    25  H    0.159502
    26  C   -0.488144
    27  H    0.191664
    28  H    0.170644
    29  H    0.160818
 Sum of Mulliken charges =  -0.00000
 Mulliken charges with hydrogens summed into heavy atoms:
               1
     1  O   -0.386519
     2  O   -0.400959
     3  N    0.177699
     5  C    0.012920
     6  C    0.169913
     7  C    0.106667
     8  C    0.108092
     9  C    0.004976
    12  C   -0.082720
    13  C    0.129062
    14  C    0.074243
    18  C    0.039055
    22  C    0.012588
    26  C    0.034982
 Electronic spatial extent (au):  <R**2>=          50656.1521
 Charge=             -0.0000 electrons
 Dipole moment (field-independent basis, Debye):
    X=              1.1616    Y=              9.2493    Z=              0.2670  Tot=              9.3258
 Quadrupole moment (field-independent basis, Debye-Ang):
   XX=           -108.9730   YY=            136.5749   ZZ=            -83.1236
   XY=              1.4456   XZ=              2.2004   YZ=              5.6087
 Traceless Quadrupole moment (field-independent basis, Debye-Ang):
   XX=            -90.4658   YY=            155.0821   ZZ=            -64.6163
   XY=              1.4456   XZ=              2.2004   YZ=              5.6087
 Octapole moment (field-independent basis, Debye-Ang**2):
  XXX=            544.2434  YYY=           1149.6857  ZZZ=            -89.2206  XYY=            -15.3110
  XXY=          -1122.2683  XXZ=            -39.4930  XZZ=            131.0455  YZZ=           -932.0828
  YYZ=             65.3606  XYZ=             23.9260
 Hexadecapole moment (field-independent basis, Debye-Ang**3):
 XXXX=          -4698.8064 YYYY=           -650.3778 ZZZZ=           -233.2614 XXXY=           5426.1695
 XXXZ=             61.4867 YYYX=            308.7593 YYYZ=            445.6390 ZZZX=              5.9263
 ZZZY=          -1022.6868 XXYY=         -12335.5324 XXZZ=           -656.7399 YYZZ=         -10732.9767
 XXYZ=           -430.4860 YYXZ=            256.5676 ZZXY=           1397.7700
 N-N= 8.968272116577D+02 E-N=-3.269468416276D+03  KE= 6.303168434090D+02
 No NMR shielding tensors so no spin-rotation constants.
 Leave Link  601 at Mon Mar  9 20:56:46 2026, MaxMem=  2147483648 cpu:               3.6 elap:               0.1
 (Enter /data/home/wyx/g16/l9999.exe)
 1\1\GINC-CN013\SP\RwB97XD\TZVP\C11H15N1O2\WYX\09-Mar-2026\0\\#p wB97XD
 /TZVP SCRF=(Solvent=Water,NonEquilibrium=Read) Geom=Check Guess=Read N
 oSymm\\Title Card Required\\0,1\O,0,1.4054272404,9.8193529419,0.405286
 3499\O,0,-4.8839679324,9.727516798,0.2286233984\N,0,-2.1153659119,12.9
 170344206,0.2501583623\H,0,-2.4258738998,13.8791969163,0.2057411154\C,
 0,-2.7031837728,10.6327691433,0.1968163416\C,0,-0.7700085899,12.740834
 0416,0.3717258751\C,0,-3.0943921314,11.9882515132,0.1755800333\C,0,-3.
 6596807227,9.5414527283,0.1923489179\C,0,-1.2610495751,10.3189137859,0
 .218582423\H,0,-1.0476447037,9.5027359393,0.9211858781\H,0,-0.98627600
 52,9.8432902513,-0.746185301\C,0,-0.2985738419,11.418063719,0.43720752
 87\C,0,1.0731404302,10.9886717232,0.6570288995\C,0,-4.4867563953,12.51
 6374078,0.0523793228\H,0,-4.4774107986,13.603714334,-0.0400227328\H,0,
 -4.9855632514,12.0968245013,-0.820542985\H,0,-5.0893968564,12.24694254
 26,0.9196550786\C,0,-3.1383138107,8.1173890265,0.1817949505\H,0,-3.953
 2717059,7.4555581009,-0.1051657432\H,0,-2.3011354984,7.9693897146,-0.5
 003811585\H,0,-2.8022841851,7.8316867884,1.1829426312\C,0,2.1133736722
 ,11.9191960601,1.2406660458\H,0,2.6264106088,12.4696708782,0.447729145
 8\H,0,1.6972496799,12.6412866569,1.9405638357\H,0,2.8553328523,11.3092
 242648,1.7543949339\C,0,0.0375338847,14.0003202227,0.3735959945\H,0,0.
 3222687117,14.3105067807,1.3820105413\H,0,0.9490285917,13.880664343,-0
 .2089785337\H,0,-0.5287871134,14.8190022353,-0.0727411491\\Version=ES6
 4L-G16RevA.03\HF=-633.4105599\RMSD=4.581e-09\Dipole=0.457023,3.6389667
 ,0.1050451\Quadrupole=-67.2590864,115.2997512,-48.0406648,1.0747558,1.
 6359093,4.1699281\PG=C01 [X(C11H15N1O2)]\\@


 IT WAS AN ACT OF DESPARATION. FOR SIX YEARS I HAD STRUGGLED WITH THE
 BLACKBODY THEORY. I KNEW THE PROBLEM WAS FUNDAMENTAL, AND I KNEW
 THE ANSWER. I HAD TO FIND A THEORETICAL EXPLANATION AT ANY COST,
 EXCEPT FOR THE INVIOLABLITY OF THE TWO LAWS OF THERMODYNAMICS.
   -- MAX PLANCK, 1931
 Job cpu time:       0 days  0 hours 18 minutes 39.9 seconds.
 Elapsed time:       0 days  0 hours  0 minutes 36.0 seconds.
 File lengths (MBytes):  RWF=    336 Int=      0 D2E=      0 Chk=     67 Scr=      1
 Normal termination of Gaussian 16 at Mon Mar  9 20:56:46 2026.
