 Entering Gaussian System, Link 0=g16
 Input=DDL-S0min-S2-cLR.gjf
 Output=DDL-S0min-S2-cLR.log
 Initial command:
 /data/home/wyx/g16/l1.exe "/scr/tmp/wyx/13950/Gau-2972398.inp" -scrdir="/scr/tmp/wyx/13950/"
 Entering Link 1 = /data/home/wyx/g16/l1.exe PID=   2972399.
  
 Copyright (c) 1988,1990,1992,1993,1995,1998,2003,2009,2016,
            Gaussian, Inc.  All Rights Reserved.
  
 This is part of the Gaussian(R) 16 program.  It is based on
 the Gaussian(R) 09 system (copyright 2009, Gaussian, Inc.),
 the Gaussian(R) 03 system (copyright 2003, Gaussian, Inc.),
 the Gaussian(R) 98 system (copyright 1998, Gaussian, Inc.),
 the Gaussian(R) 94 system (copyright 1995, Gaussian, Inc.),
 the Gaussian 92(TM) system (copyright 1992, Gaussian, Inc.),
 the Gaussian 90(TM) system (copyright 1990, Gaussian, Inc.),
 the Gaussian 88(TM) system (copyright 1988, Gaussian, Inc.),
 the Gaussian 86(TM) system (copyright 1986, Carnegie Mellon
 University), and the Gaussian 82(TM) system (copyright 1983,
 Carnegie Mellon University). Gaussian is a federally registered
 trademark of Gaussian, Inc.
  
 This software contains proprietary and confidential information,
 including trade secrets, belonging to Gaussian, Inc.
  
 This software is provided under written license and may be
 used, copied, transmitted, or stored only in accord with that
 written license.
  
 The following legend is applicable only to US Government
 contracts under FAR:
  
                    RESTRICTED RIGHTS LEGEND
  
 Use, reproduction and disclosure by the US Government is
 subject to restrictions as set forth in subparagraphs (a)
 and (c) of the Commercial Computer Software - Restricted
 Rights clause in FAR 52.227-19.
  
 Gaussian, Inc.
 340 Quinnipiac St., Bldg. 40, Wallingford CT 06492
  
  
 ---------------------------------------------------------------
 Warning -- This program may not be used in any manner that
 competes with the business of Gaussian, Inc. or will provide
 assistance to any competitor of Gaussian, Inc.  The licensee
 of this program is prohibited from giving any competitor of
 Gaussian, Inc. access to this program.  By using this program,
 the user acknowledges that Gaussian, Inc. is engaged in the
 business of creating and licensing software in the field of
 computational chemistry and represents and warrants to the
 licensee that it is not a competitor of Gaussian, Inc. and that
 it will not use this program in any manner prohibited above.
 ---------------------------------------------------------------
  

 Cite this work as:
 Gaussian 16, Revision A.03,
 M. J. Frisch, G. W. Trucks, H. B. Schlegel, G. E. Scuseria, 
 M. A. Robb, J. R. Cheeseman, G. Scalmani, V. Barone, 
 G. A. Petersson, H. Nakatsuji, X. Li, M. Caricato, A. V. Marenich, 
 J. Bloino, B. G. Janesko, R. Gomperts, B. Mennucci, H. P. Hratchian, 
 J. V. Ortiz, A. F. Izmaylov, J. L. Sonnenberg, D. Williams-Young, 
 F. Ding, F. Lipparini, F. Egidi, J. Goings, B. Peng, A. Petrone, 
 T. Henderson, D. Ranasinghe, V. G. Zakrzewski, J. Gao, N. Rega, 
 G. Zheng, W. Liang, M. Hada, M. Ehara, K. Toyota, R. Fukuda, 
 J. Hasegawa, M. Ishida, T. Nakajima, Y. Honda, O. Kitao, H. Nakai, 
 T. Vreven, K. Throssell, J. A. Montgomery, Jr., J. E. Peralta, 
 F. Ogliaro, M. J. Bearpark, J. J. Heyd, E. N. Brothers, K. N. Kudin, 
 V. N. Staroverov, T. A. Keith, R. Kobayashi, J. Normand, 
 K. Raghavachari, A. P. Rendell, J. C. Burant, S. S. Iyengar, 
 J. Tomasi, M. Cossi, J. M. Millam, M. Klene, C. Adamo, R. Cammi, 
 J. W. Ochterski, R. L. Martin, K. Morokuma, O. Farkas, 
 J. B. Foresman, and D. J. Fox, Gaussian, Inc., Wallingford CT, 2016.
 
 ******************************************
 Gaussian 16:  ES64L-G16RevA.03 25-Dec-2016
                 9-Mar-2026 
 ******************************************
 %nprocshared=32
 Will use up to   32 processors via shared memory.
 %mem=16GB
 %oldchk=DDL-S0-opt-freq.chk
 %chk=DDL-S0min-S2-cLR.chk
 Copying data from "DDL-S0-opt-freq.chk" to current chk file "DDL-S0min-S2-cLR.chk"
 IOpt=  2 FromEx=T IUOpen= 4 IOptOp= 5 NList=   0 IFRang= 0 IUIn= 4 IUOut= 2.
 ----------------------------------------------------------------------
 #p wB97XD/TZVP TD=(NStates=6,Root=2) SCRF=(Solvent=Water,CorrectedLR) 
 Geom=Check Guess=Read
 ----------------------------------------------------------------------
 1/29=2,30=1,38=1,172=1/1;
 2/12=2,40=1/2;
 3/5=19,7=101,11=9,14=-4,25=1,30=1,70=2201,71=1,72=1,74=-58,116=-2/1,2,3,8;
 4/5=1/1;
 5/5=2,38=6,53=1/2;
 8/6=1,10=1,107=2,108=6/1;
 9/8=2,15=1,41=6,42=1,70=2,73=21/14;
 10/5=4,13=10,28=2,74=10/2;
 6/7=2,8=2,9=2,10=2,22=-1/1;
 99/5=1,9=1/99;
 Leave Link    1 at Mon Mar  9 15:45:20 2026, MaxMem=  2147483648 cpu:               1.4 elap:               0.1
 (Enter /data/home/wyx/g16/l101.exe)
 -------------------
 Title Card Required
 -------------------
 Structure from the checkpoint file:  "DDL-S0min-S2-cLR.chk"
 Charge =  0 Multiplicity = 1
 Redundant internal coordinates found in file.  (old form).
 O,0,1.3372756161,9.8092989609,0.7661321482
 O,0,-4.9233259977,9.7679255113,0.0431445168
 N,0,-2.1040755362,12.9162877363,0.1980261332
 H,0,-2.4084629011,13.8725520377,0.1306727416
 C,0,-2.7159211532,10.6381722683,0.2017851143
 C,0,-0.7652261157,12.6950202206,0.4311125452
 C,0,-3.0723124561,11.9426960298,0.1141777396
 C,0,-3.7159855719,9.5673631172,0.1261078329
 C,0,-1.2595918508,10.2506845235,0.3513146604
 H,0,-1.1345882645,9.5751684605,1.2026427684
 H,0,-0.9314418384,9.6644256787,-0.5146995631
 C,0,-0.3125739242,11.4210586217,0.5322783662
 C,0,1.0742351414,11.0087460145,0.7767739688
 C,0,-4.4568966164,12.4843259148,-0.069917991
 H,0,-4.4350391563,13.5683922715,-0.184944969
 H,0,-4.9317660981,12.0433281625,-0.9440023472
 H,0,-5.0827863105,12.2339098498,0.7858313548
 C,0,-3.2038385089,8.1444853181,0.155437952
 H,0,-4.0424329504,7.4592389531,0.053553269
 H,0,-2.4882678891,7.969278454,-0.651031075
 H,0,-2.6821222057,7.9411246423,1.0933649229
 C,0,2.1962980476,11.9804264579,1.0606544836
 H,0,2.3601750026,12.6639452482,0.2280021031
 H,0,1.9891711226,12.5786479594,1.9487760074
 H,0,3.1042094051,11.4046269741,1.2271678947
 C,0,0.020148415,13.9729095175,0.5279049488
 H,0,0.523907421,14.0618409238,1.4877328585
 H,0,0.7706474344,14.0363409432,-0.2584439209
 H,0,-0.6385832906,14.8336136787,0.4224455359
 Recover connectivity data from disk.
 ITRead=  0  0  0  0  0  0  0  0  0  0  0  0  0  0  0  0  0  0  0  0
 ITRead=  0  0  0  0  0  0  0  0  0
 MicOpt= -1 -1 -1 -1 -1 -1 -1 -1 -1 -1 -1 -1 -1 -1 -1 -1 -1 -1 -1 -1
 MicOpt= -1 -1 -1 -1 -1 -1 -1 -1 -1
                           ----------------------------
                           !    Current Parameters    !
                           ! (Angstroms and Degrees)  !
 --------------------------                            --------------------------
 ! Name  Definition              Value                                          !
 --------------------------------------------------------------------------------
 ! R1    R(1,13)                 1.228                                          !
 ! R2    R(2,8)                  1.2267                                         !
 ! R3    R(3,4)                  1.0058                                         !
 ! R4    R(3,6)                  1.3769                                         !
 ! R5    R(3,7)                  1.3756                                         !
 ! R6    R(5,7)                  1.3552                                         !
 ! R7    R(5,8)                  1.4671                                         !
 ! R8    R(5,9)                  1.5144                                         !
 ! R9    R(6,12)                 1.3558                                         !
 ! R10   R(6,26)                 1.5031                                         !
 ! R11   R(7,14)                 1.4981                                         !
 ! R12   R(8,18)                 1.5125                                         !
 ! R13   R(9,10)                 1.0939                                         !
 ! R14   R(9,11)                 1.0961                                         !
 ! R15   R(9,12)                 1.5164                                         !
 ! R16   R(12,13)                1.4673                                         !
 ! R17   R(13,22)                1.5112                                         !
 ! R18   R(14,15)                1.0904                                         !
 ! R19   R(14,16)                1.0881                                         !
 ! R20   R(14,17)                1.0894                                         !
 ! R21   R(18,19)                1.0877                                         !
 ! R22   R(18,20)                1.0923                                         !
 ! R23   R(18,21)                1.0924                                         !
 ! R24   R(22,23)                1.0897                                         !
 ! R25   R(22,24)                1.0907                                         !
 ! R26   R(22,25)                1.0879                                         !
 ! R27   R(26,27)                1.0876                                         !
 ! R28   R(26,28)                1.0889                                         !
 ! R29   R(26,29)                1.089                                          !
 ! A1    A(4,3,6)              117.2837                                         !
 ! A2    A(4,3,7)              117.116                                          !
 ! A3    A(6,3,7)              125.5198                                         !
 ! A4    A(7,5,8)              121.3316                                         !
 ! A5    A(7,5,9)              120.3708                                         !
 ! A6    A(8,5,9)              118.2845                                         !
 ! A7    A(3,6,12)             119.228                                          !
 ! A8    A(3,6,26)             112.4798                                         !
 ! A9    A(12,6,26)            128.2894                                         !
 ! A10   A(3,7,5)              119.4883                                         !
 ! A11   A(3,7,14)             113.7108                                         !
 ! A12   A(5,7,14)             126.8008                                         !
 ! A13   A(2,8,5)              123.7139                                         !
 ! A14   A(2,8,18)             119.2342                                         !
 ! A15   A(5,8,18)             117.0518                                         !
 ! A16   A(5,9,10)             110.1652                                         !
 ! A17   A(5,9,11)             110.2888                                         !
 ! A18   A(5,9,12)             114.5118                                         !
 ! A19   A(10,9,11)            104.5001                                         !
 ! A20   A(10,9,12)            108.2022                                         !
 ! A21   A(11,9,12)            108.6718                                         !
 ! A22   A(6,12,9)             120.5199                                         !
 ! A23   A(6,12,13)            126.3011                                         !
 ! A24   A(9,12,13)            113.158                                          !
 ! A25   A(1,13,12)            118.39                                           !
 ! A26   A(1,13,22)            118.0742                                         !
 ! A27   A(12,13,22)           123.5302                                         !
 ! A28   A(7,14,15)            110.7254                                         !
 ! A29   A(7,14,16)            110.8258                                         !
 ! A30   A(7,14,17)            110.5705                                         !
 ! A31   A(15,14,16)           109.0836                                         !
 ! A32   A(15,14,17)           108.84                                           !
 ! A33   A(16,14,17)           106.6857                                         !
 ! A34   A(8,18,19)            109.2548                                         !
 ! A35   A(8,18,20)            111.0018                                         !
 ! A36   A(8,18,21)            110.7016                                         !
 ! A37   A(19,18,20)           109.5632                                         !
 ! A38   A(19,18,21)           109.351                                          !
 ! A39   A(20,18,21)           106.9297                                         !
 ! A40   A(13,22,23)           111.8049                                         !
 ! A41   A(13,22,24)           111.3849                                         !
 ! A42   A(13,22,25)           107.9436                                         !
 ! A43   A(23,22,24)           107.8629                                         !
 ! A44   A(23,22,25)           108.8713                                         !
 ! A45   A(24,22,25)           108.9143                                         !
 ! A46   A(6,26,27)            111.6145                                         !
 ! A47   A(6,26,28)            111.2949                                         !
 ! A48   A(6,26,29)            110.4668                                         !
 ! A49   A(27,26,28)           108.2588                                         !
 ! A50   A(27,26,29)           107.5185                                         !
 ! A51   A(28,26,29)           107.515                                          !
 ! D1    D(4,3,6,12)           179.84                                           !
 ! D2    D(4,3,6,26)            -0.7165                                         !
 ! D3    D(7,3,6,12)             3.208                                          !
 ! D4    D(7,3,6,26)          -177.3485                                         !
 ! D5    D(4,3,7,5)           -179.8678                                         !
 ! D6    D(4,3,7,14)             0.0576                                         !
 ! D7    D(6,3,7,5)             -3.2307                                         !
 ! D8    D(6,3,7,14)           176.6947                                         !
 ! D9    D(8,5,7,3)            179.6052                                         !
 ! D10   D(8,5,7,14)            -0.3095                                         !
 ! D11   D(9,5,7,3)             -1.7311                                         !
 ! D12   D(9,5,7,14)           178.3542                                         !
 ! D13   D(7,5,8,2)             -3.4645                                         !
 ! D14   D(7,5,8,18)           176.606                                          !
 ! D15   D(9,5,8,2)            177.8447                                         !
 ! D16   D(9,5,8,18)            -2.0848                                         !
 ! D17   D(7,5,9,10)           128.1693                                         !
 ! D18   D(7,5,9,11)          -116.9873                                         !
 ! D19   D(7,5,9,12)             5.9486                                         !
 ! D20   D(8,5,9,10)           -53.1269                                         !
 ! D21   D(8,5,9,11)            61.7165                                         !
 ! D22   D(8,5,9,12)          -175.3476                                         !
 ! D23   D(3,6,12,9)             1.7655                                         !
 ! D24   D(3,6,12,13)          179.983                                          !
 ! D25   D(26,6,12,9)         -177.5794                                         !
 ! D26   D(26,6,12,13)           0.6382                                         !
 ! D27   D(3,6,26,27)          121.2605                                         !
 ! D28   D(3,6,26,28)         -117.6656                                         !
 ! D29   D(3,6,26,29)            1.6913                                         !
 ! D30   D(12,6,26,27)         -59.3582                                         !
 ! D31   D(12,6,26,28)          61.7157                                         !
 ! D32   D(12,6,26,29)        -178.9274                                         !
 ! D33   D(3,7,14,15)            4.5578                                         !
 ! D34   D(3,7,14,16)          125.7513                                         !
 ! D35   D(3,7,14,17)         -116.1582                                         !
 ! D36   D(5,7,14,15)         -175.5232                                         !
 ! D37   D(5,7,14,16)          -54.3297                                         !
 ! D38   D(5,7,14,17)           63.7608                                         !
 ! D39   D(2,8,18,19)            2.263                                          !
 ! D40   D(2,8,18,20)          123.1953                                         !
 ! D41   D(2,8,18,21)         -118.2157                                         !
 ! D42   D(5,8,18,19)         -177.8042                                         !
 ! D43   D(5,8,18,20)          -56.8719                                         !
 ! D44   D(5,8,18,21)           61.7171                                         !
 ! D45   D(5,9,12,6)            -5.9731                                         !
 ! D46   D(5,9,12,13)          175.5893                                         !
 ! D47   D(10,9,12,6)         -129.2556                                         !
 ! D48   D(10,9,12,13)          52.3067                                         !
 ! D49   D(11,9,12,6)          117.8313                                         !
 ! D50   D(11,9,12,13)         -60.6063                                         !
 ! D51   D(6,12,13,1)         -175.9174                                         !
 ! D52   D(6,12,13,22)           4.9609                                         !
 ! D53   D(9,12,13,1)            2.4126                                         !
 ! D54   D(9,12,13,22)        -176.7091                                         !
 ! D55   D(1,13,22,23)         119.1509                                         !
 ! D56   D(1,13,22,24)        -120.0874                                         !
 ! D57   D(1,13,22,25)          -0.5673                                         !
 ! D58   D(12,13,22,23)        -61.7248                                         !
 ! D59   D(12,13,22,24)         59.0369                                         !
 ! D60   D(12,13,22,25)        178.557                                          !
 --------------------------------------------------------------------------------
 NAtoms=     29 NQM=       29 NQMF=       0 NMMI=      0 NMMIF=      0
                NMic=       0 NMicF=      0.
                    Isotopes and Nuclear Properties:
 (Nuclear quadrupole moments (NQMom) in fm**2, nuclear magnetic moments (NMagM)
  in nuclear magnetons)

  Atom         1           2           3           4           5           6           7           8           9          10
 IAtWgt=          16          16          14           1          12          12          12          12          12           1
 AtmWgt=  15.9949146  15.9949146  14.0030740   1.0078250  12.0000000  12.0000000  12.0000000  12.0000000  12.0000000   1.0078250
 NucSpn=           0           0           2           1           0           0           0           0           0           1
 AtZEff=   5.6000000   5.6000000   4.5500000   1.0000000   3.6000000   3.6000000   3.6000000   3.6000000   3.6000000   1.0000000
 NQMom=    0.0000000   0.0000000   2.0440000   0.0000000   0.0000000   0.0000000   0.0000000   0.0000000   0.0000000   0.0000000
 NMagM=    0.0000000   0.0000000   0.4037610   2.7928460   0.0000000   0.0000000   0.0000000   0.0000000   0.0000000   2.7928460
 AtZNuc=   8.0000000   8.0000000   7.0000000   1.0000000   6.0000000   6.0000000   6.0000000   6.0000000   6.0000000   1.0000000

  Atom        11          12          13          14          15          16          17          18          19          20
 IAtWgt=           1          12          12          12           1           1           1          12           1           1
 AtmWgt=   1.0078250  12.0000000  12.0000000  12.0000000   1.0078250   1.0078250   1.0078250  12.0000000   1.0078250   1.0078250
 NucSpn=           1           0           0           0           1           1           1           0           1           1
 AtZEff=   1.0000000   3.6000000   3.6000000   3.6000000   1.0000000   1.0000000   1.0000000   3.6000000   1.0000000   1.0000000
 NQMom=    0.0000000   0.0000000   0.0000000   0.0000000   0.0000000   0.0000000   0.0000000   0.0000000   0.0000000   0.0000000
 NMagM=    2.7928460   0.0000000   0.0000000   0.0000000   2.7928460   2.7928460   2.7928460   0.0000000   2.7928460   2.7928460
 AtZNuc=   1.0000000   6.0000000   6.0000000   6.0000000   1.0000000   1.0000000   1.0000000   6.0000000   1.0000000   1.0000000

  Atom        21          22          23          24          25          26          27          28          29
 IAtWgt=           1          12           1           1           1          12           1           1           1
 AtmWgt=   1.0078250  12.0000000   1.0078250   1.0078250   1.0078250  12.0000000   1.0078250   1.0078250   1.0078250
 NucSpn=           1           0           1           1           1           0           1           1           1
 AtZEff=   1.0000000   3.6000000   1.0000000   1.0000000   1.0000000   3.6000000   1.0000000   1.0000000   1.0000000
 NQMom=    0.0000000   0.0000000   0.0000000   0.0000000   0.0000000   0.0000000   0.0000000   0.0000000   0.0000000
 NMagM=    2.7928460   0.0000000   2.7928460   2.7928460   2.7928460   0.0000000   2.7928460   2.7928460   2.7928460
 AtZNuc=   1.0000000   6.0000000   1.0000000   1.0000000   1.0000000   6.0000000   1.0000000   1.0000000   1.0000000
 Leave Link  101 at Mon Mar  9 15:45:22 2026, MaxMem=  2147483648 cpu:               6.6 elap:               0.2
 (Enter /data/home/wyx/g16/l202.exe)
                          Input orientation:                          
 ---------------------------------------------------------------------
 Center     Atomic      Atomic             Coordinates (Angstroms)
 Number     Number       Type             X           Y           Z
 ---------------------------------------------------------------------
      1          8           0        1.337276    9.809299    0.766132
      2          8           0       -4.923326    9.767926    0.043145
      3          7           0       -2.104076   12.916288    0.198026
      4          1           0       -2.408463   13.872552    0.130673
      5          6           0       -2.715921   10.638172    0.201785
      6          6           0       -0.765226   12.695020    0.431113
      7          6           0       -3.072312   11.942696    0.114178
      8          6           0       -3.715986    9.567363    0.126108
      9          6           0       -1.259592   10.250685    0.351315
     10          1           0       -1.134588    9.575168    1.202643
     11          1           0       -0.931442    9.664426   -0.514700
     12          6           0       -0.312574   11.421059    0.532278
     13          6           0        1.074235   11.008746    0.776774
     14          6           0       -4.456897   12.484326   -0.069918
     15          1           0       -4.435039   13.568392   -0.184945
     16          1           0       -4.931766   12.043328   -0.944002
     17          1           0       -5.082786   12.233910    0.785831
     18          6           0       -3.203839    8.144485    0.155438
     19          1           0       -4.042433    7.459239    0.053553
     20          1           0       -2.488268    7.969278   -0.651031
     21          1           0       -2.682122    7.941125    1.093365
     22          6           0        2.196298   11.980426    1.060654
     23          1           0        2.360175   12.663945    0.228002
     24          1           0        1.989171   12.578648    1.948776
     25          1           0        3.104209   11.404627    1.227168
     26          6           0        0.020148   13.972910    0.527905
     27          1           0        0.523907   14.061841    1.487733
     28          1           0        0.770647   14.036341   -0.258444
     29          1           0       -0.638583   14.833614    0.422446
 ---------------------------------------------------------------------
                    Distance matrix (angstroms):
                    1          2          3          4          5
     1  O    0.000000
     2  O    6.302345   0.000000
     3  N    4.671084   4.228989   0.000000
     4  H    5.562768   4.814578   1.005798   0.000000
     5  C    4.175395   2.378052   2.358851   3.249738   0.000000
     6  C    3.586104   5.099823   1.376883   2.043789   2.844016
     7  C    4.941750   2.856733   1.375643   2.040910   1.355165
     8  C    5.099374   1.226694   3.717354   4.499365   1.467136
     9  C    2.666574   3.708230   2.800373   3.806115   1.514398
    10  H    2.521006   3.966879   3.621082   4.608620   2.152279
    11  H    2.609329   4.032002   3.529540   4.506265   2.155435
    12  C    2.318288   4.922513   2.357310   3.250209   2.549160
    13  C    1.227997   6.168354   3.751709   4.554999   3.851392
    14  C    6.436395   2.758473   2.407105   2.482638   2.552078
    15  H    6.953772   3.838489   2.450571   2.073437   3.419227
    16  H    6.871414   2.480320   3.172085   3.296672   2.863086
    17  H    6.862676   2.580328   3.111892   3.204120   2.913681
    18  C    4.875066   2.367447   4.897080   5.783077   2.541395
    19  H    5.913697   2.471055   5.792882   6.618640   3.447785
    20  H    4.475356   3.105885   5.034025   5.955340   2.811070
    21  H    4.444403   3.076225   5.088027   6.015272   2.840796
    22  C    2.353393   7.524595   4.484772   5.064467   5.164223
    23  H    3.079759   7.840312   4.471477   4.920377   5.465455
    24  H    3.081056   7.701572   4.464728   4.931417   5.381014
    25  H    2.424805   8.277803   5.520008   6.138608   5.959260
    26  C    4.373469   6.508058   2.395328   2.462929   4.325841
    27  H    4.389349   7.084977   3.143554   3.236702   4.885863
    28  H    4.386195   7.122616   3.118800   3.207021   4.890350
    29  H    5.409795   6.645607   2.423669   2.035005   4.686764
                    6          7          8          9         10
     6  C    0.000000
     7  C    2.447261   0.000000
     8  C    4.310713   2.461029   0.000000
     9  C    2.495104   2.491002   2.559593   0.000000
    10  H    3.234990   3.247263   2.796891   1.093941   0.000000
    11  H    3.179102   3.188939   2.858975   1.096067   1.731618
    12  C    1.355768   2.839555   3.896713   1.516366   2.128945
    13  C    2.519250   4.301762   5.044518   2.490466   2.667473
    14  C    3.731468   1.498108   3.015965   3.922926   4.595687
    15  H    3.822281   2.142285   4.077012   4.623659   5.363228
    16  H    4.435730   2.141831   2.958659   4.286756   5.011832
    17  H    4.356578   2.139610   3.068200   4.328834   4.778170
    18  C    5.170125   3.800711   1.512526   2.873071   2.724938
    19  H    6.188380   4.587613   2.134483   3.952851   3.775331
    20  H    5.145148   4.088362   2.159887   2.778337   2.801328
    21  H    5.168423   4.138071   2.156180   2.812170   2.253198
    22  C    3.110883   5.353083   6.453786   3.929166   4.110989
    23  H    3.132148   5.481339   6.820479   4.352212   4.764854
    24  H    3.146990   5.421144   6.703638   4.304156   4.397212
    25  H    4.155881   6.299023   7.148631   4.597985   4.616809
    26  C    1.503058   3.722399   5.790421   3.940035   4.596609
    27  H    2.155577   4.394340   6.327009   4.358581   4.791880
    28  H    2.152565   4.392099   6.344251   4.338764   5.066237
    29  H    2.142357   3.791500   6.106686   4.625360   5.339099
                   11         12         13         14         15
    11  H    0.000000
    12  C    2.136567   0.000000
    13  C    2.738219   1.467317   0.000000
    14  C    4.536353   4.320716   5.786851   0.000000
    15  H    5.255938   4.703209   6.150512   1.090371   0.000000
    16  H    4.673978   4.889127   6.332731   1.088119   1.774465
    17  H    5.052454   4.845611   6.277740   1.089382   1.772802
    18  C    2.814798   4.386041   5.185746   4.522738   5.572296
    19  H    3.855389   5.462329   6.269158   5.043662   6.126400
    20  H    2.305606   4.248370   4.895755   4.959722   5.946195
    21  H    2.936072   4.247295   4.860118   5.014352   6.030998
    22  C    4.198614   2.624217   1.511217   6.767356   6.931651
    23  H    4.514805   2.963265   2.166674   6.825942   6.867568
    24  H    4.805349   2.940155   2.162242   6.755428   6.841260
    25  H    4.727461   3.486768   2.116689   7.747161   7.969706
    26  C    4.533826   2.573454   3.155836   4.755755   4.529954
    27  H    5.046290   2.930243   3.182721   5.451902   5.256662
    28  H    4.698555   2.939101   3.214059   5.456327   5.227193
    29  H    5.261607   3.429851   4.205818   4.510110   4.047565
                   16         17         18         19         20
    16  H    0.000000
    17  H    1.746841   0.000000
    18  C    4.404030   4.544363   0.000000
    19  H    4.774925   4.941260   1.087742   0.000000
    20  H    4.759664   5.194534   1.092305   1.781013   0.000000
    21  H    5.102924   4.928059   1.092360   1.778726   1.755360
    22  C    7.404857   7.288680   6.685457   7.770274   6.400339
    23  H    7.411556   7.476214   7.168614   8.253047   6.805879
    24  H    7.520246   7.175226   7.060114   8.135138   6.932009
    25  H    8.348582   8.240715   7.181128   8.247300   6.826789
    26  C    5.514640   5.397276   6.671083   7.691390   6.612536
    27  H    6.304927   5.938772   7.119424   8.154918   7.125084
    28  H    6.079442   6.213047   7.119115   8.156063   6.898109
    29  H    5.299461   5.161536   7.169119   8.130417   7.189769
                   21         22         23         24         25
    21  H    0.000000
    22  C    6.333720   0.000000
    23  H    6.962661   1.089662   0.000000
    24  H    6.637720   1.090656   1.762380   0.000000
    25  H    6.745027   1.087922   1.771384   1.772669   0.000000
    26  C    6.633584   2.998239   2.697972   2.799980   4.073877
    27  H    6.920789   2.703992   2.629242   2.135280   3.713036
    28  H    7.134470   2.828301   2.155620   2.912300   3.818177
    29  H    7.220290   4.072412   3.706457   3.784131   5.139458
                   26         27         28         29
    26  C    0.000000
    27  H    1.087636   0.000000
    28  H    1.088860   1.763708   0.000000
    29  H    1.088972   1.755521   1.756470   0.000000
 Stoichiometry    C11H15NO2
 Framework group  C1[X(C11H15NO2)]
 Deg. of freedom    81
 Full point group                 C1      NOp   1
 RotChk:  IX=0 Diff= 6.74D-16
 Largest Abelian subgroup         C1      NOp   1
 Largest concise Abelian subgroup C1      NOp   1
                         Standard orientation:                         
 ---------------------------------------------------------------------
 Center     Atomic      Atomic             Coordinates (Angstroms)
 Number     Number       Type             X           Y           Z
 ---------------------------------------------------------------------
      1          8           0        2.273213   -2.290168   -0.061825
      2          8           0       -3.677675   -0.224377    0.135640
      3          7           0        0.027079    1.805427   -0.061943
      4          1           0        0.054211    2.810852   -0.065770
      5          6           0       -1.305752   -0.140163   -0.012760
      6          6           0        1.232979    1.141610   -0.030977
      7          6           0       -1.213260    1.211808   -0.022338
      8          6           0       -2.607254   -0.815466    0.037701
      9          6           0       -0.056806   -0.993596   -0.084776
     10          1           0       -0.054575   -1.727931    0.726059
     11          1           0       -0.060341   -1.595911   -1.000509
     12          6           0        1.242321   -0.214092   -0.021444
     13          6           0        2.430538   -1.074418    0.010137
     14          6           0       -2.348205    2.189207    0.007985
     15          1           0       -1.980113    3.211057   -0.088137
     16          1           0       -3.053545    1.988065   -0.795782
     17          1           0       -2.903850    2.101739    0.940916
     18          6           0       -2.601647   -2.326216   -0.035363
     19          1           0       -3.626879   -2.689553   -0.026968
     20          1           0       -2.098286   -2.672497   -0.940817
     21          1           0       -2.059852   -2.751807    0.812329
     22          6           0        3.840016   -0.546484    0.145907
     23          1           0        4.112488    0.099252   -0.688447
     24          1           0        3.963390    0.025872    1.066080
     25          1           0        4.516402   -1.398322    0.167080
     26          6           0        2.406205    2.081125   -0.025250
     27          1           0        3.031930    1.935354    0.852344
     28          1           0        3.024659    1.946861   -0.911311
     29          1           0        2.065696    3.115458   -0.016909
 ---------------------------------------------------------------------
 Rotational constants (GHZ):           1.1032091           0.4816805           0.3391918
 Leave Link  202 at Mon Mar  9 15:45:22 2026, MaxMem=  2147483648 cpu:               0.1 elap:               0.0
 (Enter /data/home/wyx/g16/l301.exe)
 Standard basis: TZVP (5D, 7F)
 Ernie: Thresh=  0.10000D-02 Tol=  0.10000D-05 Strict=F.
 There are   370 symmetry adapted cartesian basis functions of A   symmetry.
 There are   356 symmetry adapted basis functions of A   symmetry.
   356 basis functions,   610 primitive gaussians,   370 cartesian basis functions
    52 alpha electrons       52 beta electrons
       nuclear repulsion energy       898.3605298352 Hartrees.
 IExCor= 4639 DFT=T Ex+Corr=wB97XD ExCW=0 ScaHFX=  1.000000
 ScaDFX=  1.000000  1.000000  1.000000  1.000000 ScalE2=  1.000000  1.000000
 IRadAn=      5 IRanWt=     -1 IRanGd=            0 ICorTp=0 IEmpDi=121
 HFx  wShort=  0.000000 wLong=  0.200000 cFull=  0.222036 cShort=  0.000000 cLong=  0.777964
 DFx  wShort=  0.000000 wLong=  0.200000 cFull=  0.000000 cShort=  0.000000 cLong=  1.000000
 NAtoms=   29 NActive=   29 NUniq=   29 SFac= 1.00D+00 NAtFMM=   60 NAOKFM=F Big=F
 Integral buffers will be    131072 words long.
 Raffenetti 1 integral format.
 Two-electron integral symmetry is turned on.
 R6Disp:  Grimme-D2 Dispersion energy=       -0.0199674096 Hartrees.
 Nuclear repulsion after empirical dispersion term =      898.3405624255 Hartrees.
 ------------------------------------------------------------------------------
 Polarizable Continuum Model (PCM)
 =================================
 Model                : PCM.
 Atomic radii         : UFF (Universal Force Field).
 Polarization charges : Total charges.
 Charge compensation  : None.
 Solution method      : On-the-fly selection.
 Cavity type          : Scaled VdW (van der Waals Surface) (Alpha=1.100).
 Cavity algorithm     : GePol (No added spheres)
                        Default sphere list used, NSphG=   29.
                        Lebedev-Laikov grids with approx.  5.0 points / Ang**2.
                        Smoothing algorithm: York/Karplus (Gamma=1.0000).
                        Polarization charges: spherical gaussians, with
                                              point-specific exponents (IZeta= 3).
                        Self-potential: point-specific (ISelfS= 7).
                        Self-field    : sphere-specific E.n sum rule (ISelfD= 2).
 1st derivatives      : Analytical E(r).r(x)/FMM algorithm (CHGder, D1EAlg=3).
                        Cavity 1st derivative terms included.
 Solvent              : Water, Eps=  78.355300 Eps(inf)=   1.777849
 ------------------------------------------------------------------------------
 GePol: Number of generator spheres                  =      29
 GePol: Total number of spheres                      =      29
 GePol: Number of exposed spheres                    =      29 (100.00%)
 GePol: Number of points                             =    2092
 GePol: Average weight of points                     =       0.13
 GePol: Minimum weight of points                     =   0.27D-10
 GePol: Maximum weight of points                     =    0.20577
 GePol: Number of points with low weight             =     139
 GePol: Fraction of low-weight points (<1% of avg)   =       6.64%
 GePol: Cavity surface area                          =    267.808 Ang**2
 GePol: Cavity volume                                =    287.184 Ang**3
 Leave Link  301 at Mon Mar  9 15:45:22 2026, MaxMem=  2147483648 cpu:               1.1 elap:               0.0
 (Enter /data/home/wyx/g16/l302.exe)
 NPDir=0 NMtPBC=     1 NCelOv=     1 NCel=       1 NClECP=     1 NCelD=      1
         NCelK=      1 NCelE2=     1 NClLst=     1 CellRange=     0.0.
 One-electron integrals computed using PRISM.
 One-electron integral symmetry used in STVInt
 NBasis=   356 RedAO= T EigKep=  3.53D-05  NBF=   356
 NBsUse=   356 1.00D-06 EigRej= -1.00D+00 NBFU=   356
 Precomputing XC quadrature grid using
 IXCGrd= 4 IRadAn=           5 IRanWt=          -1 IRanGd=           0 AccXCQ= 0.00D+00.
 Generated NRdTot=       0 NPtTot=           0 NUsed=           0 NTot=          32
 NSgBfM=   366   366   366   366   366 MxSgAt=    29 MxSgA2=    29.
 Leave Link  302 at Mon Mar  9 15:45:23 2026, MaxMem=  2147483648 cpu:               6.4 elap:               0.2
 (Enter /data/home/wyx/g16/l303.exe)
 DipDrv:  MaxL=1.
 Leave Link  303 at Mon Mar  9 15:45:23 2026, MaxMem=  2147483648 cpu:               1.1 elap:               0.0
 (Enter /data/home/wyx/g16/l308.exe)
 Leave Link  308 at Mon Mar  9 15:45:23 2026, MaxMem=  2147483648 cpu:               1.4 elap:               0.1
 (Enter /data/home/wyx/g16/l401.exe)
 Initial guess from the checkpoint file:  "DDL-S0min-S2-cLR.chk"
 B after Tr=    -0.000000    0.000000    0.000000
         Rot=    1.000000   -0.000000   -0.000000   -0.000000 Ang=   0.00 deg.
 Guess basis will be translated and rotated to current coordinates.
 JPrj=2 DoOrth=T DoCkMO=T.
 Leave Link  401 at Mon Mar  9 15:45:23 2026, MaxMem=  2147483648 cpu:               4.5 elap:               0.2
 (Enter /data/home/wyx/g16/l502.exe)
 Integral symmetry usage will be decided dynamically.
 Closed shell SCF:
 Using DIIS extrapolation, IDIIS=  1040.
 NGot=  2147483648 LenX=  2147194175 LenY=  2147056834
 Requested convergence on RMS density matrix=1.00D-08 within 128 cycles.
 Requested convergence on MAX density matrix=1.00D-06.
 Requested convergence on             energy=1.00D-06.
 No special actions if energy rises.
 Fock matrices will be formed incrementally for  20 cycles.

 Cycle   1  Pass 1  IDiag  1:
 FoFJK:  IHMeth= 1 ICntrl=       0 DoSepK=T KAlg= 0 I1Cent=           0 FoldK=F
 IRaf=         1 NMat=       1 IRICut=       1 DoRegI=T DoRafI=F ISym2E= 0 IDoP0=0 IntGTp=1.
 FoFCou: FMM=F IPFlag=           0 FMFlag=      100000 FMFlg1=           0
         NFxFlg=           0 DoJE=T BraDBF=F KetDBF=F FulRan=T
         wScrn=  0.000000 ICntrl=       500 IOpCl=  0 I1Cent=           0 NGrid=           0
         NMat0=    1 NMatS0=      1 NMatT0=    0 NMatD0=    1 NMtDS0=    0 NMtDT0=    0
 Symmetry not used in FoFCou.
 Inv3:  Mode=1 IEnd=    13129392.
 Iteration    1 A*A^-1 deviation from unit magnitude is 3.77D-15 for   1473.
 Iteration    1 A*A^-1 deviation from orthogonality  is 1.67D-15 for   1924    376.
 Iteration    1 A^-1*A deviation from unit magnitude is 3.55D-15 for   1473.
 Iteration    1 A^-1*A deviation from orthogonality  is 2.11D-15 for   1930    381.
 E= -633.422006934862    
 DIIS: error= 1.14D-08 at cycle   1 NSaved=   1.
 NSaved= 1 IEnMin= 1 EnMin= -633.422006934862     IErMin= 1 ErrMin= 1.14D-08
 ErrMax= 1.14D-08  0.00D+00 EMaxC= 1.00D-01 BMatC= 2.30D-14 BMatP= 2.30D-14
 IDIUse=1 WtCom= 1.00D+00 WtEn= 0.00D+00
 Coeff-Com:  0.100D+01
 Coeff:      0.100D+01
 Gap=     0.278 Goal=   None    Shift=    0.000
 RMSDP=1.23D-09 MaxDP=3.49D-08              OVMax= 1.64D-07

 Error on total polarization charges =  0.01387
 SCF Done:  E(RwB97XD) =  -633.422006935     A.U. after    1 cycles
            NFock=  1  Conv=0.12D-08     -V/T= 2.0047
 KE= 6.304653771886D+02 PE=-3.272776496690D+03 EE= 1.110548550141D+03
 Leave Link  502 at Mon Mar  9 15:45:28 2026, MaxMem=  2147483648 cpu:             120.9 elap:               4.1
 (Enter /data/home/wyx/g16/l801.exe)
 DoSCS=F DFT=T ScalE2(SS,OS)=  1.000000  1.000000
 ExpMin= 9.52D-02 ExpMax= 2.70D+04 ExpMxC= 9.22D+02 IAcc=3 IRadAn=         5 AccDes= 0.00D+00
 HarFok:  IExCor=  205 AccDes= 0.00D+00 IRadAn=         5 IDoV=-2 UseB2=F ITyADJ=14
 ICtDFT= 12500011 ScaDFX=  1.000000  1.000000  1.000000  1.000000
 Largest valence mixing into a core orbital is  6.53D-05
 Largest core mixing into a valence orbital is  1.47D-05
 Range of M.O.s used for correlation:    15   356
 NBasis=   356 NAE=    52 NBE=    52 NFC=    14 NFV=     0
 NROrb=    342 NOA=    38 NOB=    38 NVA=   304 NVB=   304

 **** Warning!!: The largest alpha MO coefficient is  0.52496015D+02

 Leave Link  801 at Mon Mar  9 15:45:28 2026, MaxMem=  2147483648 cpu:               1.6 elap:               0.1
 (Enter /data/home/wyx/g16/l914.exe)
 RHF ground state
 Two-electron integrals replicated using symmetry.
 MDV=  2147483648 DFT=T DoStab=F Mixed=T DoRPA=T DoScal=F NonHer=T
 NEqPCM:  Using non-equilibrium solvation (IEInf=1, Eps=  78.3553, EpsInf=   1.7778)
 Inv3:  Mode=1 IEnd=    13129392.
 Iteration    1 A*A^-1 deviation from unit magnitude is 3.22D-15 for    373.
 Iteration    1 A*A^-1 deviation from orthogonality  is 2.59D-15 for   1333    971.
 Iteration    1 A^-1*A deviation from unit magnitude is 3.33D-15 for    981.
 Iteration    1 A^-1*A deviation from orthogonality  is 2.90D-15 for   1364   1333.
 Making orbital integer symmetry assigments:
 Orbital symmetries:
       Occupied  (A) (A) (A) (A) (A) (A) (A) (A) (A) (A) (A) (A)
                 (A) (A) (A) (A) (A) (A) (A) (A) (A) (A) (A) (A)
                 (A) (A) (A) (A) (A) (A) (A) (A) (A) (A) (A) (A)
                 (A) (A) (A) (A) (A) (A) (A) (A) (A) (A) (A) (A)
                 (A) (A) (A) (A)
       Virtual   (A) (A) (A) (A) (A) (A) (A) (A) (A) (A) (A) (A)
                 (A) (A) (A) (A) (A) (A) (A) (A) (A) (A) (A) (A)
                 (A) (A) (A) (A) (A) (A) (A) (A) (A) (A) (A) (A)
                 (A) (A) (A) (A) (A) (A) (A) (A) (A) (A) (A) (A)
                 (A) (A) (A) (A) (A) (A) (A) (A) (A) (A) (A) (A)
                 (A) (A) (A) (A) (A) (A) (A) (A) (A) (A) (A) (A)
                 (A) (A) (A) (A) (A) (A) (A) (A) (A) (A) (A) (A)
                 (A) (A) (A) (A) (A) (A) (A) (A) (A) (A) (A) (A)
                 (A) (A) (A) (A) (A) (A) (A) (A) (A) (A) (A) (A)
                 (A) (A) (A) (A) (A) (A) (A) (A) (A) (A) (A) (A)
                 (A) (A) (A) (A) (A) (A) (A) (A) (A) (A) (A) (A)
                 (A) (A) (A) (A) (A) (A) (A) (A) (A) (A) (A) (A)
                 (A) (A) (A) (A) (A) (A) (A) (A) (A) (A) (A) (A)
                 (A) (A) (A) (A) (A) (A) (A) (A) (A) (A) (A) (A)
                 (A) (A) (A) (A) (A) (A) (A) (A) (A) (A) (A) (A)
                 (A) (A) (A) (A) (A) (A) (A) (A) (A) (A) (A) (A)
                 (A) (A) (A) (A) (A) (A) (A) (A) (A) (A) (A) (A)
                 (A) (A) (A) (A) (A) (A) (A) (A) (A) (A) (A) (A)
                 (A) (A) (A) (A) (A) (A) (A) (A) (A) (A) (A) (A)
                 (A) (A) (A) (A) (A) (A) (A) (A) (A) (A) (A) (A)
                 (A) (A) (A) (A) (A) (A) (A) (A) (A) (A) (A) (A)
                 (A) (A) (A) (A) (A) (A) (A) (A) (A) (A) (A) (A)
                 (A) (A) (A) (A) (A) (A) (A) (A) (A) (A) (A) (A)
                 (A) (A) (A) (A) (A) (A) (A) (A) (A) (A) (A) (A)
                 (A) (A) (A) (A) (A) (A) (A) (A) (A) (A) (A) (A)
                 (A) (A) (A) (A)
 PCM Corrected Linear-Response:
 Compute the excitation energies in the ground state reaction field.
    24 initial guesses have been made.
 Convergence on wavefunction:    0.000001000000000
 Davidson Disk Diagonalization:  ConvIn= 1.00D-06 SkipCon=T Conv= 1.00D-06.
 Max sub-space:  2000 roots to seek:    24 dimension of matrix:        23104
 Iteration     1 Dimension    24 NMult     0 NNew     24
 CISAX will form    24 AO SS matrices at one time.
 NMat=    24 NSing=    24 JSym2X= 0.
 FoFJK:  IHMeth= 1 ICntrl=       0 DoSepK=T KAlg= 0 I1Cent=           0 FoldK=F
 IRaf=         1 NMat=      48 IRICut=       1 DoRegI=T DoRafI=F ISym2E= 0 IDoP0=3 IntGTp=3.
 New state      3 was old state      4
 New state      4 was old state      3
 New state      5 was old state      6
 New state      6 was old state      5
 Excitation Energies [eV] at current iteration:
 Root      1 :     4.006218700494671
 Root      2 :     4.312420692969385
 Root      3 :     4.541020892192214
 Root      4 :     5.728120167288453
 Root      5 :     6.496576232263607
 Root      6 :     6.656089169553505
 Root      7 :     6.976629185556503
 Root      8 :     7.168144937260544
 Root      9 :     7.219783839661678
 Root     10 :     7.366613894168083
 Root     11 :     7.568074982310534
 Root     12 :     7.608313953014450
 Root     13 :     7.618786790692305
 Root     14 :     7.839013086385817
 Root     15 :     8.033741439390324
 Root     16 :     8.187436036199388
 Root     17 :     8.238518358138593
 Root     18 :     8.584614663114230
 Root     19 :     8.653073017421253
 Root     20 :     8.896132253281419
 Root     21 :     9.151751097020437
 Root     22 :     9.186242841166543
 Root     23 :     9.286095387006110
 Root     24 :     9.654306263282834
 Iteration     2 Dimension    36 NMult    24 NNew     12
 CISAX will form    12 AO SS matrices at one time.
 NMat=    12 NSing=    12 JSym2X= 0.
 Root      1 not converged, maximum delta is    0.047517051617161
 Root      2 not converged, maximum delta is    0.076546033788274
 Root      3 not converged, maximum delta is    0.099979911518235
 Root      4 not converged, maximum delta is    0.273855877461418
 New state      5 was old state      6
 Root      5 not converged, maximum delta is    0.241121613073126
 New state      6 was old state      5
 Root      6 not converged, maximum delta is    0.102161546442696
 Excitation Energies [eV] at current iteration:
 Root      1 :     3.527999546167758   Change is   -0.478219154326913
 Root      2 :     4.102249996472304   Change is   -0.210170696497081
 Root      3 :     4.299651533862588   Change is   -0.241369358329626
 Root      4 :     5.351451425079088   Change is   -0.376668742209365
 Root      5 :     5.843172999795970   Change is   -0.812916169757536
 Root      6 :     6.338995727221929   Change is   -0.157580505041677
 Iteration     3 Dimension    48 NMult    36 NNew     12
 CISAX will form    12 AO SS matrices at one time.
 NMat=    12 NSing=    12 JSym2X= 0.
 Root      1 not converged, maximum delta is    0.010072301277897
 Root      2 not converged, maximum delta is    0.018779557049444
 Root      3 not converged, maximum delta is    0.022152155194940
 Root      4 not converged, maximum delta is    0.027431255345088
 Root      5 not converged, maximum delta is    0.026041132790586
 Root      6 not converged, maximum delta is    0.010435543891651
 Excitation Energies [eV] at current iteration:
 Root      1 :     3.507864387036164   Change is   -0.020135159131594
 Root      2 :     4.086872570518059   Change is   -0.015377425954245
 Root      3 :     4.281967191132971   Change is   -0.017684342729618
 Root      4 :     5.326520227783288   Change is   -0.024931197295801
 Root      5 :     5.808063605311747   Change is   -0.035109394484222
 Root      6 :     6.329660462385887   Change is   -0.009335264836043
 Iteration     4 Dimension    60 NMult    48 NNew     12
 CISAX will form    12 AO SS matrices at one time.
 NMat=    12 NSing=    12 JSym2X= 0.
 Root      1 not converged, maximum delta is    0.003063729971366
 Root      2 not converged, maximum delta is    0.002202675805982
 Root      3 not converged, maximum delta is    0.002099966704132
 Root      4 not converged, maximum delta is    0.003188523630086
 Root      5 not converged, maximum delta is    0.004271445500414
 Root      6 not converged, maximum delta is    0.002758641861744
 Excitation Energies [eV] at current iteration:
 Root      1 :     3.506300489735998   Change is   -0.001563897300166
 Root      2 :     4.086180027075984   Change is   -0.000692543442075
 Root      3 :     4.281278879534201   Change is   -0.000688311598769
 Root      4 :     5.324335689538549   Change is   -0.002184538244738
 Root      5 :     5.804396575383572   Change is   -0.003667029928175
 Root      6 :     6.329079662196355   Change is   -0.000580800189531
 Iteration     5 Dimension    72 NMult    60 NNew     12
 CISAX will form    12 AO SS matrices at one time.
 NMat=    12 NSing=    12 JSym2X= 0.
 Root      1 not converged, maximum delta is    0.000929539986778
 Root      2 not converged, maximum delta is    0.000402485567693
 Root      3 not converged, maximum delta is    0.000299711391090
 Root      4 not converged, maximum delta is    0.000814207021256
 Root      5 not converged, maximum delta is    0.001018019404870
 Root      6 not converged, maximum delta is    0.000573747324128
 Excitation Energies [eV] at current iteration:
 Root      1 :     3.506208713187761   Change is   -0.000091776548237
 Root      2 :     4.086131734801981   Change is   -0.000048292274003
 Root      3 :     4.281239352060436   Change is   -0.000039527473766
 Root      4 :     5.324169753366398   Change is   -0.000165936172151
 Root      5 :     5.804122152808887   Change is   -0.000274422574685
 Root      6 :     6.329041460495672   Change is   -0.000038201700683
 Iteration     6 Dimension    84 NMult    72 NNew     12
 CISAX will form    12 AO SS matrices at one time.
 NMat=    12 NSing=    12 JSym2X= 0.
 Root      1 not converged, maximum delta is    0.000260173964794
 Root      2 not converged, maximum delta is    0.000070180091011
 Root      3 not converged, maximum delta is    0.000052053782870
 Root      4 not converged, maximum delta is    0.000192325015019
 Root      5 not converged, maximum delta is    0.000277376151507
 Root      6 not converged, maximum delta is    0.000161683137630
 Excitation Energies [eV] at current iteration:
 Root      1 :     3.506203721508139   Change is   -0.000004991679622
 Root      2 :     4.086129389322167   Change is   -0.000002345479814
 Root      3 :     4.281237426802930   Change is   -0.000001925257506
 Root      4 :     5.324157099396886   Change is   -0.000012653969512
 Root      5 :     5.804094738621793   Change is   -0.000027414187094
 Root      6 :     6.329038198600828   Change is   -0.000003261894844
 Iteration     7 Dimension    96 NMult    84 NNew     12
 CISAX will form    12 AO SS matrices at one time.
 NMat=    12 NSing=    12 JSym2X= 0.
 Root      1 not converged, maximum delta is    0.000021016662488
 Root      2 not converged, maximum delta is    0.000017960974303
 Root      3 not converged, maximum delta is    0.000012077977857
 Root      4 not converged, maximum delta is    0.000061268847282
 Root      5 not converged, maximum delta is    0.000104283788612
 Root      6 not converged, maximum delta is    0.000130688229137
 Excitation Energies [eV] at current iteration:
 Root      1 :     3.506203479465307   Change is   -0.000000242042832
 Root      2 :     4.086129264219244   Change is   -0.000000125102923
 Root      3 :     4.281237345760568   Change is   -0.000000081042362
 Root      4 :     5.324156087006811   Change is   -0.000001012390075
 Root      5 :     5.804092093604542   Change is   -0.000002645017252
 Root      6 :     6.329037735694148   Change is   -0.000000462906680
 Iteration     8 Dimension   108 NMult    96 NNew     12
 CISAX will form    12 AO SS matrices at one time.
 NMat=    12 NSing=    12 JSym2X= 0.
 Root      1 not converged, maximum delta is    0.000003790070075
 Root      2 not converged, maximum delta is    0.000003679953101
 Root      3 not converged, maximum delta is    0.000002793863872
 Root      4 not converged, maximum delta is    0.000011704134717
 Root      5 not converged, maximum delta is    0.000020717189685
 Root      6 not converged, maximum delta is    0.000055272176380
 Excitation Energies [eV] at current iteration:
 Root      1 :     3.506203471178491   Change is   -0.000000008286816
 Root      2 :     4.086129256681017   Change is   -0.000000007538227
 Root      3 :     4.281237341326831   Change is   -0.000000004433737
 Root      4 :     5.324156029378130   Change is   -0.000000057628682
 Root      5 :     5.804091930155178   Change is   -0.000000163449364
 Root      6 :     6.329037666889647   Change is   -0.000000068804501
 Iteration     9 Dimension   120 NMult   108 NNew     12
 CISAX will form    12 AO SS matrices at one time.
 NMat=    12 NSing=    12 JSym2X= 0.
 Root      1 has converged.
 Root      2 not converged, maximum delta is    0.000001032558847
 Root      3 not converged, maximum delta is    0.000001079637169
 Root      4 not converged, maximum delta is    0.000002458481288
 Root      5 not converged, maximum delta is    0.000004571238474
 Root      6 not converged, maximum delta is    0.000011237186006
 Excitation Energies [eV] at current iteration:
 Root      1 :     3.506203470926655   Change is   -0.000000000251836
 Root      2 :     4.086129256310934   Change is   -0.000000000370083
 Root      3 :     4.281237341107777   Change is   -0.000000000219054
 Root      4 :     5.324156026499685   Change is   -0.000000002878445
 Root      5 :     5.804091921479731   Change is   -0.000000008675447
 Root      6 :     6.329037660419308   Change is   -0.000000006470339
 Iteration    10 Dimension   130 NMult   120 NNew     10
 CISAX will form    10 AO SS matrices at one time.
 NMat=    10 NSing=    10 JSym2X= 0.
 Root      1 has converged.
 Root      2 has converged.
 Root      3 has converged.
 Root      4 has converged.
 Root      5 not converged, maximum delta is    0.000001516684974
 Root      6 not converged, maximum delta is    0.000002138695855
 Excitation Energies [eV] at current iteration:
 Root      1 :     3.506203470925881   Change is   -0.000000000000773
 Root      2 :     4.086129256298883   Change is   -0.000000000012051
 Root      3 :     4.281237341095929   Change is   -0.000000000011848
 Root      4 :     5.324156026355439   Change is   -0.000000000144245
 Root      5 :     5.804091920949400   Change is   -0.000000000530332
 Root      6 :     6.329037659952745   Change is   -0.000000000466563
 Iteration    11 Dimension   134 NMult   130 NNew      4
 CISAX will form     4 AO SS matrices at one time.
 NMat=     4 NSing=     4 JSym2X= 0.
 Root      1 has converged.
 Root      2 has converged.
 Root      3 has converged.
 Root      4 has converged.
 Root      5 has converged.
 Root      6 has converged.
 Excitation Energies [eV] at current iteration:
 Root      1 :     3.506203470925810   Change is   -0.000000000000071
 Root      2 :     4.086129256298904   Change is    0.000000000000020
 Root      3 :     4.281237341095833   Change is   -0.000000000000096
 Root      4 :     5.324156026352861   Change is   -0.000000000002578
 Root      5 :     5.804091920920648   Change is   -0.000000000028752
 Root      6 :     6.329037659916974   Change is   -0.000000000035772
 Convergence achieved on expansion vectors.
 PCM Corrected Linear-Response:
 The state of interest is root number   2
 Excitation energy =    4.0861 eV, Total energy =  -633.271844448    
 Recompute the excitation energies using the linear response reaction field.
 Convergence on wavefunction:    0.000001000000000
 Davidson Disk Diagonalization:  ConvIn= 1.00D-06 SkipCon=T Conv= 1.00D-06.
 Max sub-space:  2000 roots to seek:     6 dimension of matrix:        23104
 Iteration     1 Dimension     6 NMult     0 NNew      6
 CISAX will form     6 AO SS matrices at one time.
 NMat=     6 NSing=     6 JSym2X= 0.
 Excitation Energies [eV] at current iteration:
 Root      1 :     3.666879388384968
 Root      2 :     4.115313051688452
 Root      3 :     4.310836012155845
 Root      4 :     5.455693905494073
 Root      5 :     6.061936976473219
 Root      6 :     6.325912915853314
 Iteration     2 Dimension    18 NMult     6 NNew     12
 CISAX will form    12 AO SS matrices at one time.
 NMat=    12 NSing=    12 JSym2X= 0.
 Root      1 not converged, maximum delta is    0.018986072289457
 Root      2 not converged, maximum delta is    0.007957444334365
 Root      3 not converged, maximum delta is    0.002038433104445
 Root      4 not converged, maximum delta is    0.198623842375959
 Root      5 not converged, maximum delta is    0.223323924766785
 Root      6 not converged, maximum delta is    0.035128546369687
 Excitation Energies [eV] at current iteration:
 Root      1 :     3.456778265573189   Change is   -0.210101122811779
 Root      2 :     4.084593344519165   Change is   -0.030719707169287
 Root      3 :     4.279651507756795   Change is   -0.031184504399050
 Root      4 :     5.275438140756650   Change is   -0.180255764737423
 Root      5 :     5.755311661327168   Change is   -0.306625315146051
 Root      6 :     6.310574268693320   Change is   -0.015338647159994
 Iteration     3 Dimension    30 NMult    18 NNew     12
 CISAX will form    12 AO SS matrices at one time.
 NMat=    12 NSing=    12 JSym2X= 0.
 Root      1 not converged, maximum delta is    0.001850262414901
 Root      2 not converged, maximum delta is    0.000210334202056
 Root      3 not converged, maximum delta is    0.000264607182582
 Root      4 not converged, maximum delta is    0.004990635576330
 Root      5 not converged, maximum delta is    0.005329151118500
 Root      6 not converged, maximum delta is    0.001060673522695
 Excitation Energies [eV] at current iteration:
 Root      1 :     3.455135689222264   Change is   -0.001642576350924
 Root      2 :     4.084480387845793   Change is   -0.000112956673372
 Root      3 :     4.279546374557240   Change is   -0.000105133199555
 Root      4 :     5.272372813351309   Change is   -0.003065327405341
 Root      5 :     5.752032067161807   Change is   -0.003279594165360
 Root      6 :     6.310317190334383   Change is   -0.000257078358937
 Iteration     4 Dimension    42 NMult    30 NNew     12
 CISAX will form    12 AO SS matrices at one time.
 NMat=    12 NSing=    12 JSym2X= 0.
 Root      1 not converged, maximum delta is    0.001213960656211
 Root      2 not converged, maximum delta is    0.000113431177372
 Root      3 not converged, maximum delta is    0.000130508212267
 Root      4 not converged, maximum delta is    0.000683519343377
 Root      5 not converged, maximum delta is    0.001339208990843
 Root      6 not converged, maximum delta is    0.000933399276199
 Excitation Energies [eV] at current iteration:
 Root      1 :     3.454999559516729   Change is   -0.000136129705535
 Root      2 :     4.084475958944852   Change is   -0.000004428900941
 Root      3 :     4.279542554371814   Change is   -0.000003820185426
 Root      4 :     5.272170765894256   Change is   -0.000202047457052
 Root      5 :     5.751802148618408   Change is   -0.000229918543399
 Root      6 :     6.310274782578939   Change is   -0.000042407755445
 Iteration     5 Dimension    54 NMult    42 NNew     12
 CISAX will form    12 AO SS matrices at one time.
 NMat=    12 NSing=    12 JSym2X= 0.
 Root      1 not converged, maximum delta is    0.000664940259941
 Root      2 not converged, maximum delta is    0.000045847389216
 Root      3 not converged, maximum delta is    0.000047457084799
 Root      4 not converged, maximum delta is    0.000284632333506
 Root      5 not converged, maximum delta is    0.000304547325954
 Root      6 not converged, maximum delta is    0.000903299042564
 Excitation Energies [eV] at current iteration:
 Root      1 :     3.454984212000563   Change is   -0.000015347516166
 Root      2 :     4.084475677018701   Change is   -0.000000281926151
 Root      3 :     4.279542323315027   Change is   -0.000000231056786
 Root      4 :     5.272152177732639   Change is   -0.000018588161616
 Root      5 :     5.751778633361147   Change is   -0.000023515257261
 Root      6 :     6.310263976285570   Change is   -0.000010806293369
 Iteration     6 Dimension    66 NMult    54 NNew     12
 CISAX will form    12 AO SS matrices at one time.
 NMat=    12 NSing=    12 JSym2X= 0.
 Root      1 not converged, maximum delta is    0.000100111749392
 Root      2 not converged, maximum delta is    0.000013733430283
 Root      3 not converged, maximum delta is    0.000012238229590
 Root      4 not converged, maximum delta is    0.000110155652596
 Root      5 not converged, maximum delta is    0.000147138233547
 Root      6 not converged, maximum delta is    0.000529522945750
 Excitation Energies [eV] at current iteration:
 Root      1 :     3.454983103771956   Change is   -0.000001108228607
 Root      2 :     4.084475655747267   Change is   -0.000000021271435
 Root      3 :     4.279542304045715   Change is   -0.000000019269313
 Root      4 :     5.272150557806872   Change is   -0.000001619925768
 Root      5 :     5.751775846859926   Change is   -0.000002786501221
 Root      6 :     6.310261311388709   Change is   -0.000002664896860
 Iteration     7 Dimension    78 NMult    66 NNew     12
 CISAX will form    12 AO SS matrices at one time.
 NMat=    12 NSing=    12 JSym2X= 0.
 Root      1 not converged, maximum delta is    0.000012993877343
 Root      2 not converged, maximum delta is    0.000002205700581
 Root      3 not converged, maximum delta is    0.000003977840900
 Root      4 not converged, maximum delta is    0.000036241339491
 Root      5 not converged, maximum delta is    0.000069610461109
 Root      6 not converged, maximum delta is    0.000125209453149
 Excitation Energies [eV] at current iteration:
 Root      1 :     3.454983052032981   Change is   -0.000000051738975
 Root      2 :     4.084475654387619   Change is   -0.000000001359647
 Root      3 :     4.279542302582668   Change is   -0.000000001463046
 Root      4 :     5.272150407626308   Change is   -0.000000150180565
 Root      5 :     5.751775540983602   Change is   -0.000000305876324
 Root      6 :     6.310260846350145   Change is   -0.000000465038564
 Iteration     8 Dimension    90 NMult    78 NNew     12
 CISAX will form    12 AO SS matrices at one time.
 NMat=    12 NSing=    12 JSym2X= 0.
 Root      1 not converged, maximum delta is    0.000005740458277
 Root      2 has converged.
 Root      3 has converged.
 Root      4 not converged, maximum delta is    0.000012143751063
 Root      5 not converged, maximum delta is    0.000026199618451
 Root      6 not converged, maximum delta is    0.000047824172548
 Excitation Energies [eV] at current iteration:
 Root      1 :     3.454983048798510   Change is   -0.000000003234471
 Root      2 :     4.084475654317115   Change is   -0.000000000070504
 Root      3 :     4.279542302497839   Change is   -0.000000000084829
 Root      4 :     5.272150395563962   Change is   -0.000000012062346
 Root      5 :     5.751775511711338   Change is   -0.000000029272263
 Root      6 :     6.310260786877941   Change is   -0.000000059472204
 Iteration     9 Dimension    98 NMult    90 NNew      8
 CISAX will form     8 AO SS matrices at one time.
 NMat=     8 NSing=     8 JSym2X= 0.
 Root      1 has converged.
 Root      2 has converged.
 Root      3 has converged.
 Root      4 not converged, maximum delta is    0.000004363963223
 Root      5 not converged, maximum delta is    0.000009743626132
 Root      6 not converged, maximum delta is    0.000018852903510
 Excitation Energies [eV] at current iteration:
 Root      1 :     3.454983048650297   Change is   -0.000000000148212
 Root      2 :     4.084475654316490   Change is   -0.000000000000625
 Root      3 :     4.279542302497033   Change is   -0.000000000000807
 Root      4 :     5.272150394690266   Change is   -0.000000000873695
 Root      5 :     5.751775508265692   Change is   -0.000000003445647
 Root      6 :     6.310260776479850   Change is   -0.000000010398092
 Iteration    10 Dimension   104 NMult    98 NNew      6
 CISAX will form     6 AO SS matrices at one time.
 NMat=     6 NSing=     6 JSym2X= 0.
 Root      1 has converged.
 Root      2 has converged.
 Root      3 has converged.
 Root      4 not converged, maximum delta is    0.000001698953749
 Root      5 not converged, maximum delta is    0.000003635103973
 Root      6 not converged, maximum delta is    0.000007420014482
 Excitation Energies [eV] at current iteration:
 Root      1 :     3.454983048649916   Change is   -0.000000000000381
 Root      2 :     4.084475654316329   Change is   -0.000000000000161
 Root      3 :     4.279542302496898   Change is   -0.000000000000134
 Root      4 :     5.272150394593451   Change is   -0.000000000096815
 Root      5 :     5.751775507853666   Change is   -0.000000000412026
 Root      6 :     6.310260774749721   Change is   -0.000000001730129
 Iteration    11 Dimension   110 NMult   104 NNew      6
 CISAX will form     6 AO SS matrices at one time.
 NMat=     6 NSing=     6 JSym2X= 0.
 Root      1 has converged.
 Root      2 has converged.
 Root      3 has converged.
 Root      4 has converged.
 Root      5 not converged, maximum delta is    0.000001340055194
 Root      6 not converged, maximum delta is    0.000002353595212
 Excitation Energies [eV] at current iteration:
 Root      1 :     3.454983048649940   Change is    0.000000000000023
 Root      2 :     4.084475654316269   Change is   -0.000000000000060
 Root      3 :     4.279542302496782   Change is   -0.000000000000116
 Root      4 :     5.272150394579480   Change is   -0.000000000013971
 Root      5 :     5.751775507793051   Change is   -0.000000000060615
 Root      6 :     6.310260774489246   Change is   -0.000000000260474
 Iteration    12 Dimension   114 NMult   110 NNew      4
 CISAX will form     4 AO SS matrices at one time.
 NMat=     4 NSing=     4 JSym2X= 0.
 Root      1 has converged.
 Root      2 has converged.
 Root      3 has converged.
 Root      4 has converged.
 Root      5 has converged.
 Root      6 has converged.
 Excitation Energies [eV] at current iteration:
 Root      1 :     3.454983048649821   Change is   -0.000000000000119
 Root      2 :     4.084475654316148   Change is   -0.000000000000121
 Root      3 :     4.279542302496668   Change is   -0.000000000000115
 Root      4 :     5.272150394578950   Change is   -0.000000000000530
 Root      5 :     5.751775507782832   Change is   -0.000000000010220
 Root      6 :     6.310260774453160   Change is   -0.000000000036087
 Convergence achieved on expansion vectors.
 ***********************************************************************
 Excited states from <AA,BB:AA,BB> singles matrix:
 ***********************************************************************
 
 1PDM for each excited state written to RWF  633
 Ground to excited state transition densities written to RWF  633
 Ground to excited state transition electric dipole moments (Au):
       state          X           Y           Z        Dip. S.      Osc.
         1         1.5279     -0.1365     -0.0118      2.3532      0.1992
         2         0.0410      0.0001     -0.0362      0.0030      0.0003
         3         0.0173     -0.0261      0.0306      0.0019      0.0002
         4        -0.1244     -1.3752      0.0329      1.9078      0.2464
         5         0.1029      1.3945     -0.0201      1.9557      0.2756
         6         0.0088      0.0949      0.0185      0.0094      0.0015
 Ground to excited state transition velocity dipole moments (Au):
       state          X           Y           Z        Dip. S.      Osc.
         1        -0.1871      0.0129      0.0015      0.0352      0.1846
         2        -0.0057      0.0003      0.0023      0.0000      0.0002
         3        -0.0028      0.0036     -0.0017      0.0000      0.0001
         4         0.0292      0.2520     -0.0053      0.0644      0.2216
         5        -0.0219     -0.2878      0.0045      0.0833      0.2628
         6        -0.0025     -0.0213     -0.0225      0.0010      0.0028
 Ground to excited state transition magnetic dipole moments (Au):
       state          X           Y           Z
         1         0.0146     -0.0016      1.5237
         2        -0.8459      0.1805      0.1133
         3        -0.1347      0.9967      0.0721
         4         0.0089     -0.0126      0.1643
         5        -0.0475      0.0193     -0.2292
         6         0.1133      0.0014     -0.0134
 Ground to excited state transition velocity quadrupole moments (Au):
       state          XX          YY          ZZ          XY          XZ          YZ
         1         0.1757     -0.0911     -0.0051      0.5185     -0.0224     -0.0029
         2        -0.0005      0.0023     -0.0019      0.0167     -0.0111     -0.0761
         3        -0.0037      0.0035     -0.0102      0.0153     -0.0783     -0.0080
         4        -1.2909      0.2212      0.0241      0.0818      0.0196     -0.0133
         5         0.5934     -0.2807     -0.0349     -0.1337     -0.0107     -0.0031
         6        -0.0438     -0.0789      0.0609      0.0072      0.0144      0.1664
 <0|del|b> * <b|rxdel|0> + <0|del|b> * <b|delr+rdel|0>
 Rotatory Strengths (R) in cgs (10**-40 erg-esu-cm/Gauss)
       state          XX          YY          ZZ    R(velocity)    E-M Angle
         1         9.5202     -1.7874    -10.0038     -0.7570       90.08
         2         0.8341     12.9084     10.4389      8.0605       17.37
         3         8.3028      0.6851      8.1762      5.7214       38.61
         4       -17.2177     -1.0319      4.4157     -4.6113       95.19
         5       -17.1240      1.1430     -2.5210     -6.1673       94.68
         6         0.6332     -0.3642     -0.3093     -0.0134       90.00
 1/2[<0|r|b>*<b|rxdel|0> + (<0|rxdel|b>*<b|r|0>)*]
 Rotatory Strengths (R) in cgs (10**-40 erg-esu-cm/Gauss)
       state          XX          YY          ZZ     R(length)
         1       -15.8173     -0.1571     12.7671     -1.0691
         2        24.5242     -0.0153      2.9010      9.1366
         3         1.6503     18.3748     -1.5588      6.1554
         4         0.7864    -12.2683     -3.8189     -5.1003
         5         3.4526    -19.0147     -3.2520     -6.2714
         6        -0.7035     -0.0919      0.1752     -0.2067
  1/2[<0|del|b>*<b|r|0> + (<0|r|b>*<b|del|0>)*] (Au)
       state          X           Y           Z        Dip. S.   Osc.(frdel)
         1        -0.2858     -0.0018     -0.0000      0.2876      0.1917
         2        -0.0002      0.0000     -0.0001      0.0003      0.0002
         3        -0.0000     -0.0001     -0.0001      0.0002      0.0001
         4        -0.0036     -0.3466     -0.0002      0.3504      0.2336
         5        -0.0023     -0.4013     -0.0001      0.4037      0.2691
         6        -0.0000     -0.0020     -0.0004      0.0025      0.0016

 Excitation energies and oscillator strengths:
 
 Excited State   1:      Singlet-A      3.4550 eV  358.86 nm  f=0.1992  <S**2>=0.000
      52 -> 53         0.69992
 
 Excited State   2:      Singlet-A      4.0845 eV  303.55 nm  f=0.0003  <S**2>=0.000
      50 -> 54        -0.17884
      51 -> 53         0.57640
      51 -> 54        -0.32930
 This state for optimization and/or second-order correction.
 Total Energy, E(TD-HF/TD-DFT) =  -633.271905216    
 Copying the excited state density for this state as the 1-particle RhoCI density.
 
 Excited State   3:      Singlet-A      4.2795 eV  289.71 nm  f=0.0002  <S**2>=0.000
      50 -> 53         0.56563
      50 -> 54         0.31689
      50 -> 57         0.13070
      51 -> 53        -0.10186
      51 -> 54        -0.20681
 
 Excited State   4:      Singlet-A      5.2722 eV  235.17 nm  f=0.2464  <S**2>=0.000
      52 -> 54         0.69863
 
 Excited State   5:      Singlet-A      5.7518 eV  215.56 nm  f=0.2756  <S**2>=0.000
      49 -> 53         0.69193
 
 Excited State   6:      Singlet-A      6.3103 eV  196.48 nm  f=0.0015  <S**2>=0.000
      52 -> 55         0.65875
      52 -> 56        -0.14536
      52 -> 63        -0.14025
 SavETr:  write IOETrn=   770 NScale= 10 NData=  16 NLR=1 NState=    6 LETran=     118.
 The selected state is a singlet.
 CISGrd: IGrad=1 NXY=2 DFT=T
 CISAX will form     1 AO SS matrices at one time.
 NMat=     1 NSing=     1 JSym2X= 0.
 Leave Link  914 at Mon Mar  9 15:53:20 2026, MaxMem=  2147483648 cpu:           15017.9 elap:             471.6
 (Enter /data/home/wyx/g16/l1002.exe)
 Minotr:  Closed shell wavefunction.
          Computing CIS/TDA/TD derivatives.
          Using Z-Vector for PSCF gradient.
          Skipping F1 and S1 gradient terms here.
 NEqPCM:  Using equilibrium solvation (IEInf=0, Eps=  78.3553, EpsInf=   1.7778)
          Frozen-core window.
          Direct CPHF calculation.
          Differentiating once with respect to electric field.
                with respect to dipole field.
          Electric field/nuclear overlap derivatives assumed to be zero.
          Requested convergence is 1.0D-10 RMS, and 1.0D-09 maximum.
          NewPWx=F KeepS1=T KeepF1=T KeepIn=T MapXYZ=F SortEE=F KeepMc=T.
 Two-electron integral symmetry used by symmetrizing perturbed Fock matrices.
          MDV=    2147483648 using IRadAn=       5.
          Solving linear equations separately, MaxMat=     384.
          There are     1 degrees of freedom in the 1st order CPHF.  IDoFFX=0 NUNeed=     1.
 FoFJK:  IHMeth= 1 ICntrl=       0 DoSepK=T KAlg= 0 I1Cent=           0 FoldK=F
 IRaf=         1 NMat=       1 IRICut=       1 DoRegI=T DoRafI=F ISym2E=-1 IDoP0=0 IntGTp=1.
 FoFCou: FMM=F IPFlag=           0 FMFlag=      100000 FMFlg1=           0
         NFxFlg=           0 DoJE=T BraDBF=F KetDBF=F FulRan=T
         wScrn=  0.000000 ICntrl=       500 IOpCl=  0 I1Cent=           0 NGrid=           0
         NMat0=    1 NMatS0=      1 NMatT0=    0 NMatD0=    1 NMtDS0=    0 NMtDT0=    0
 Petite list used in FoFCou.
 LinEq1:  Iter=  0 NonCon=     1 RMS=7.01D-03 Max=2.67D-01 NDo=     1
 AX will form     1 AO Fock derivatives at one time.
 LinEq1:  Iter=  1 NonCon=     1 RMS=1.88D-03 Max=8.35D-02 NDo=     1
 LinEq1:  Iter=  2 NonCon=     1 RMS=1.24D-03 Max=6.75D-02 NDo=     1
 LinEq1:  Iter=  3 NonCon=     1 RMS=4.97D-04 Max=2.57D-02 NDo=     1
 LinEq1:  Iter=  4 NonCon=     1 RMS=2.35D-04 Max=1.08D-02 NDo=     1
 LinEq1:  Iter=  5 NonCon=     1 RMS=1.18D-04 Max=6.23D-03 NDo=     1
 LinEq1:  Iter=  6 NonCon=     1 RMS=5.39D-05 Max=1.92D-03 NDo=     1
 LinEq1:  Iter=  7 NonCon=     1 RMS=2.85D-05 Max=1.13D-03 NDo=     1
 LinEq1:  Iter=  8 NonCon=     1 RMS=1.02D-05 Max=4.61D-04 NDo=     1
 LinEq1:  Iter=  9 NonCon=     1 RMS=5.34D-06 Max=1.78D-04 NDo=     1
 LinEq1:  Iter= 10 NonCon=     1 RMS=2.42D-06 Max=7.24D-05 NDo=     1
 LinEq1:  Iter= 11 NonCon=     1 RMS=1.59D-06 Max=5.85D-05 NDo=     1
 LinEq1:  Iter= 12 NonCon=     1 RMS=5.91D-07 Max=1.79D-05 NDo=     1
 LinEq1:  Iter= 13 NonCon=     1 RMS=2.08D-07 Max=6.06D-06 NDo=     1
 LinEq1:  Iter= 14 NonCon=     1 RMS=9.28D-08 Max=3.18D-06 NDo=     1
 LinEq1:  Iter= 15 NonCon=     1 RMS=2.80D-08 Max=6.20D-07 NDo=     1
 LinEq1:  Iter= 16 NonCon=     1 RMS=1.10D-08 Max=1.89D-07 NDo=     1
 LinEq1:  Iter= 17 NonCon=     1 RMS=3.78D-09 Max=1.11D-07 NDo=     1
 LinEq1:  Iter= 18 NonCon=     1 RMS=1.43D-09 Max=5.74D-08 NDo=     1
 LinEq1:  Iter= 19 NonCon=     1 RMS=5.34D-10 Max=2.54D-08 NDo=     1
 LinEq1:  Iter= 20 NonCon=     1 RMS=1.85D-10 Max=7.55D-09 NDo=     1
 LinEq1:  Iter= 21 NonCon=     1 RMS=5.83D-11 Max=1.49D-09 NDo=     1
 LinEq1:  Iter= 22 NonCon=     0 RMS=2.40D-11 Max=3.86D-10 NDo=     1
 Linear equations converged to 1.000D-10 1.000D-09 after    22 iterations.
 PCM Corrected Linear-Response - Non-equilibrium solvation:
 Corrected transition energy               =    4.0510          eV
 Total energy after correction             = -633.273134380     a.u.
 End of Minotr F.D. properties file   721 does not exist.
 End of Minotr F.D. properties file   722 does not exist.
 End of Minotr F.D. properties file   788 does not exist.
 Leave Link 1002 at Mon Mar  9 15:54:43 2026, MaxMem=  2147483648 cpu:            2619.0 elap:              82.4
 (Enter /data/home/wyx/g16/l601.exe)
 Copying SCF densities to generalized density rwf, IOpCl= 0 IROHF=0.

 **********************************************************************

            Population analysis using the CI density.

 **********************************************************************

 Orbital symmetries:
       Occupied  (A) (A) (A) (A) (A) (A) (A) (A) (A) (A) (A) (A)
                 (A) (A) (A) (A) (A) (A) (A) (A) (A) (A) (A) (A)
                 (A) (A) (A) (A) (A) (A) (A) (A) (A) (A) (A) (A)
                 (A) (A) (A) (A) (A) (A) (A) (A) (A) (A) (A) (A)
                 (A) (A) (A) (A)
       Virtual   (A) (A) (A) (A) (A) (A) (A) (A) (A) (A) (A) (A)
                 (A) (A) (A) (A) (A) (A) (A) (A) (A) (A) (A) (A)
                 (A) (A) (A) (A) (A) (A) (A) (A) (A) (A) (A) (A)
                 (A) (A) (A) (A) (A) (A) (A) (A) (A) (A) (A) (A)
                 (A) (A) (A) (A) (A) (A) (A) (A) (A) (A) (A) (A)
                 (A) (A) (A) (A) (A) (A) (A) (A) (A) (A) (A) (A)
                 (A) (A) (A) (A) (A) (A) (A) (A) (A) (A) (A) (A)
                 (A) (A) (A) (A) (A) (A) (A) (A) (A) (A) (A) (A)
                 (A) (A) (A) (A) (A) (A) (A) (A) (A) (A) (A) (A)
                 (A) (A) (A) (A) (A) (A) (A) (A) (A) (A) (A) (A)
                 (A) (A) (A) (A) (A) (A) (A) (A) (A) (A) (A) (A)
                 (A) (A) (A) (A) (A) (A) (A) (A) (A) (A) (A) (A)
                 (A) (A) (A) (A) (A) (A) (A) (A) (A) (A) (A) (A)
                 (A) (A) (A) (A) (A) (A) (A) (A) (A) (A) (A) (A)
                 (A) (A) (A) (A) (A) (A) (A) (A) (A) (A) (A) (A)
                 (A) (A) (A) (A) (A) (A) (A) (A) (A) (A) (A) (A)
                 (A) (A) (A) (A) (A) (A) (A) (A) (A) (A) (A) (A)
                 (A) (A) (A) (A) (A) (A) (A) (A) (A) (A) (A) (A)
                 (A) (A) (A) (A) (A) (A) (A) (A) (A) (A) (A) (A)
                 (A) (A) (A) (A) (A) (A) (A) (A) (A) (A) (A) (A)
                 (A) (A) (A) (A) (A) (A) (A) (A) (A) (A) (A) (A)
                 (A) (A) (A) (A) (A) (A) (A) (A) (A) (A) (A) (A)
                 (A) (A) (A) (A) (A) (A) (A) (A) (A) (A) (A) (A)
                 (A) (A) (A) (A) (A) (A) (A) (A) (A) (A) (A) (A)
                 (A) (A) (A) (A) (A) (A) (A) (A) (A) (A) (A) (A)
                 (A) (A) (A) (A)
 The electronic state is 1-A.
 Alpha  occ. eigenvalues --  -19.22890 -19.22592 -14.48654 -10.37346 -10.37151
 Alpha  occ. eigenvalues --  -10.36148 -10.35601 -10.29647 -10.29155 -10.29104
 Alpha  occ. eigenvalues --  -10.28765 -10.28697 -10.28117 -10.27810  -1.13985
 Alpha  occ. eigenvalues --   -1.13666  -1.09180  -0.92908  -0.91869  -0.85481
 Alpha  occ. eigenvalues --   -0.84108  -0.83157  -0.80161  -0.75856  -0.72935
 Alpha  occ. eigenvalues --   -0.70204  -0.63440  -0.59991  -0.58629  -0.56614
 Alpha  occ. eigenvalues --   -0.56291  -0.55765  -0.54123  -0.53781  -0.52339
 Alpha  occ. eigenvalues --   -0.51728  -0.51143  -0.50835  -0.50205  -0.49988
 Alpha  occ. eigenvalues --   -0.48500  -0.47179  -0.46680  -0.45336  -0.44725
 Alpha  occ. eigenvalues --   -0.44364  -0.44062  -0.43635  -0.34993  -0.34041
 Alpha  occ. eigenvalues --   -0.33112  -0.27875
 Alpha virt. eigenvalues --   -0.00072   0.05193   0.10277   0.12062   0.12334
 Alpha virt. eigenvalues --    0.12515   0.14598   0.14967   0.16773   0.17025
 Alpha virt. eigenvalues --    0.17158   0.18195   0.19312   0.20567   0.20721
[...]
 Alpha virt. eigenvalues --    2.54910   2.56115   2.56638   2.57665   2.58275
 Alpha virt. eigenvalues --    2.59414   2.60583   2.61851   2.63797   2.64021
 Alpha virt. eigenvalues --    2.65210   2.67383   2.67933   2.69963   2.70670
 Alpha virt. eigenvalues --    2.73466   2.74435   2.76284   2.77521   2.77876
 Alpha virt. eigenvalues --    2.78669   2.78827   2.79507   2.80465   2.81121
 Alpha virt. eigenvalues --    2.83090   2.84491   2.84689   2.85716   2.85816
 Alpha virt. eigenvalues --    2.86580   2.88207   2.90141   2.93490   2.95085
 Alpha virt. eigenvalues --    3.00190   3.01508   3.03642   3.09103   3.12841
 Alpha virt. eigenvalues --    3.15416   3.16990   3.21574   3.23565   3.23630
 Alpha virt. eigenvalues --    3.26083   3.27393   3.28147   3.29317   3.29465
 Alpha virt. eigenvalues --    3.32855   3.34926   3.35817   3.37931   3.39653
 Alpha virt. eigenvalues --    3.40010   3.40759   3.40939   3.41489   3.42205
 Alpha virt. eigenvalues --    3.42910   3.44196   3.48136   3.48424   3.48972
 Alpha virt. eigenvalues --    3.52975   3.56531   3.59179   3.62759   3.64854
 Alpha virt. eigenvalues --    3.66093   3.95421   4.03656   4.38459   4.39371
 Alpha virt. eigenvalues --   21.72707  21.86029  22.16591  22.17037  22.19601
 Alpha virt. eigenvalues --   22.20989  22.23338  22.26648  22.28199  22.33387
 Alpha virt. eigenvalues --   22.37507  31.99660  43.72494  43.74520
          Condensed to atoms (all electrons):
               1          2          3          4          5          6
     1  O    7.989406   0.000000  -0.000198   0.000016   0.017138   0.014728
     2  O    0.000000   7.995604   0.000671   0.000014  -0.086454   0.000234
     3  N   -0.000198   0.000671   6.273474   0.362122  -0.102696   0.405949
     4  H    0.000016   0.000014   0.362122   0.406203   0.019685  -0.037375
     5  C    0.017138  -0.086454  -0.102696   0.019685   5.992975  -0.075307
     6  C    0.014728   0.000234   0.405949  -0.037375  -0.075307   5.574694
     7  C    0.000013   0.009197   0.324617  -0.036310   0.255092  -0.096003
     8  C   -0.000600   0.263036   0.014337  -0.000888   0.322341   0.021633
     9  C    0.012762   0.010245   0.020301   0.000168  -0.246644  -0.110298
    10  H    0.008657  -0.000039  -0.000522  -0.000001  -0.094349   0.013419
    11  H    0.006455  -0.000022   0.001806   0.000021  -0.048953  -0.001558
    12  C   -0.253618  -0.001044  -0.108485   0.021816   0.141209  -0.064593
    13  C    0.690198   0.000026  -0.000085   0.000375   0.058780   0.084220
    14  C   -0.000005   0.027106  -0.031631  -0.011757  -0.121676   0.017555
    15  H    0.000000   0.000659   0.006965   0.002693   0.015476   0.003309
    16  H   -0.000000  -0.003453  -0.000581   0.000650   0.006585  -0.001340
    17  H   -0.000000  -0.003992  -0.001751   0.000654   0.007461  -0.001451
    18  C    0.000595  -0.042089  -0.000343   0.000010  -0.021165  -0.001101
    19  H   -0.000002  -0.000951   0.000002  -0.000001   0.010410   0.000026
    20  H   -0.000074   0.001678   0.000001   0.000000  -0.025121  -0.000038
    21  H   -0.000096   0.001722  -0.000012   0.000001  -0.021613   0.000164
    22  C   -0.112381   0.000000  -0.000178   0.000133   0.002275  -0.012914
    23  H    0.001924  -0.000000   0.000149  -0.000040  -0.000230  -0.002861
    24  H    0.002858  -0.000000   0.000149  -0.000022  -0.000291  -0.006834
    25  H    0.010311  -0.000000   0.000010  -0.000002  -0.000025  -0.002098
    26  C    0.000360   0.000003  -0.031385  -0.014476  -0.000916   0.259034
    27  H   -0.000065   0.000000  -0.003084   0.000812   0.000400  -0.031279
    28  H   -0.000007   0.000000  -0.003097   0.000559   0.000287  -0.054080
    29  H    0.000010  -0.000000   0.006353   0.003073  -0.000412  -0.048476
               7          8          9         10         11         12
     1  O    0.000013  -0.000600   0.012762   0.008657   0.006455  -0.253618
     2  O    0.009197   0.263036   0.010245  -0.000039  -0.000022  -0.001044
     3  N    0.324617   0.014337   0.020301  -0.000522   0.001806  -0.108485
     4  H   -0.036310  -0.000888   0.000168  -0.000001   0.000021   0.021816
     5  C    0.255092   0.322341  -0.246644  -0.094349  -0.048953   0.141209
     6  C   -0.096003   0.021633  -0.110298   0.013419  -0.001558  -0.064593
     7  C    5.572992  -0.109030  -0.042413   0.009463  -0.002894  -0.062583
     8  C   -0.109030   5.442546  -0.027218  -0.002577  -0.005444  -0.014440
     9  C   -0.042413  -0.027218   5.781455   0.506873   0.428477   0.074589
    10  H    0.009463  -0.002577   0.506873   0.540741  -0.044747  -0.072508
    11  H   -0.002894  -0.005444   0.428477  -0.044747   0.550167  -0.021200
    12  C   -0.062583  -0.014440   0.074589  -0.072508  -0.021200   7.206685
    13  C    0.017926  -0.005347  -0.170066  -0.005771  -0.001202  -0.404767
    14  C    0.247364  -0.015586   0.016992   0.000372  -0.000276  -0.003286
    15  H   -0.059473   0.000755  -0.000734   0.000003   0.000017  -0.000185
    16  H   -0.045666  -0.011726  -0.000305  -0.000050   0.000099   0.000423
    17  H   -0.048095  -0.009041   0.000541   0.000069  -0.000055   0.000446
    18  C    0.011462   0.222151  -0.031223  -0.000817  -0.005638   0.003791
    19  H   -0.000850  -0.043209   0.001830   0.000174  -0.000048  -0.000222
    20  H   -0.000687  -0.023225   0.009534  -0.002015   0.002374   0.001234
    21  H    0.000033  -0.032327  -0.000004   0.001529  -0.000321   0.000595
    22  C   -0.000422  -0.000026   0.013285  -0.000277   0.001931  -0.266601
    23  H    0.000019   0.000002  -0.001244  -0.000112   0.000080   0.009033
    24  H    0.000012   0.000003   0.000043   0.000142  -0.000154   0.026536
    25  H    0.000007  -0.000001   0.000043  -0.000069  -0.000020   0.025252
    26  C    0.012145   0.000442   0.016066   0.000426  -0.000795  -0.133643
    27  H   -0.000770  -0.000018  -0.000234  -0.000026   0.000019   0.007356
    28  H   -0.000981  -0.000005  -0.000015  -0.000002   0.000034  -0.001877
    29  H    0.003745   0.000002  -0.000679   0.000013  -0.000004   0.017201
              13         14         15         16         17         18
     1  O    0.690198  -0.000005   0.000000  -0.000000  -0.000000   0.000595
     2  O    0.000026   0.027106   0.000659  -0.003453  -0.003992  -0.042089
     3  N   -0.000085  -0.031631   0.006965  -0.000581  -0.001751  -0.000343
     4  H    0.000375  -0.011757   0.002693   0.000650   0.000654   0.000010
     5  C    0.058780  -0.121676   0.015476   0.006585   0.007461  -0.021165
     6  C    0.084220   0.017555   0.003309  -0.001340  -0.001451  -0.001101
     7  C    0.017926   0.247364  -0.059473  -0.045666  -0.048095   0.011462
     8  C   -0.005347  -0.015586   0.000755  -0.011726  -0.009041   0.222151
     9  C   -0.170066   0.016992  -0.000734  -0.000305   0.000541  -0.031223
    10  H   -0.005771   0.000372   0.000003  -0.000050   0.000069  -0.000817
    11  H   -0.001202  -0.000276   0.000017   0.000099  -0.000055  -0.005638
    12  C   -0.404767  -0.003286  -0.000185   0.000423   0.000446   0.003791
    13  C    5.477267  -0.000125   0.000002   0.000004  -0.000002   0.001182
    14  C   -0.000125   5.080416   0.402181   0.431359   0.427975   0.002547
    15  H    0.000002   0.402181   0.526910  -0.019209  -0.018703  -0.000001
    16  H    0.000004   0.431359  -0.019209   0.514537  -0.031108  -0.000517
    17  H   -0.000002   0.427975  -0.018703  -0.031108   0.516527  -0.000626
    18  C    0.001182   0.002547  -0.000001  -0.000517  -0.000626   4.962849
    19  H   -0.000012   0.000128   0.000004   0.000012   0.000008   0.405544
    20  H   -0.000133  -0.000306  -0.000001   0.000014   0.000030   0.409054
    21  H   -0.000185  -0.000254  -0.000001   0.000014  -0.000011   0.424162
    22  C    0.323133  -0.000009   0.000002  -0.000001   0.000000   0.000037
    23  H   -0.024002  -0.000000   0.000000   0.000000  -0.000000  -0.000002
    24  H   -0.064434   0.000003  -0.000000   0.000000  -0.000000  -0.000001
    25  H   -0.043895   0.000000  -0.000000  -0.000000   0.000000   0.000000
    26  C   -0.041499  -0.000167   0.000003   0.000021  -0.000052  -0.000013
    27  H   -0.007518  -0.000065   0.000001   0.000001  -0.000003   0.000000
    28  H    0.001754  -0.000003  -0.000006  -0.000002   0.000003   0.000000
    29  H    0.000458   0.000145   0.000072  -0.000003  -0.000006  -0.000000
              19         20         21         22         23         24
     1  O   -0.000002  -0.000074  -0.000096  -0.112381   0.001924   0.002858
     2  O   -0.000951   0.001678   0.001722   0.000000  -0.000000  -0.000000
     3  N    0.000002   0.000001  -0.000012  -0.000178   0.000149   0.000149
     4  H   -0.000001   0.000000   0.000001   0.000133  -0.000040  -0.000022
     5  C    0.010410  -0.025121  -0.021613   0.002275  -0.000230  -0.000291
     6  C    0.000026  -0.000038   0.000164  -0.012914  -0.002861  -0.006834
     7  C   -0.000850  -0.000687   0.000033  -0.000422   0.000019   0.000012
     8  C   -0.043209  -0.023225  -0.032327  -0.000026   0.000002   0.000003
     9  C    0.001830   0.009534  -0.000004   0.013285  -0.001244   0.000043
    10  H    0.000174  -0.002015   0.001529  -0.000277  -0.000112   0.000142
    11  H   -0.000048   0.002374  -0.000321   0.001931   0.000080  -0.000154
    12  C   -0.000222   0.001234   0.000595  -0.266601   0.009033   0.026536
    13  C   -0.000012  -0.000133  -0.000185   0.323133  -0.024002  -0.064434
    14  C    0.000128  -0.000306  -0.000254  -0.000009  -0.000000   0.000003
    15  H    0.000004  -0.000001  -0.000001   0.000002   0.000000  -0.000000
    16  H    0.000012   0.000014   0.000014  -0.000001   0.000000   0.000000
    17  H    0.000008   0.000030  -0.000011   0.000000  -0.000000  -0.000000
    18  C    0.405544   0.409054   0.424162   0.000037  -0.000002  -0.000001
    19  H    0.489271  -0.016945  -0.016387  -0.000000   0.000000   0.000000
    20  H   -0.016945   0.523523  -0.038762   0.000003   0.000000   0.000000
    21  H   -0.016387  -0.038762   0.517867  -0.000005   0.000000  -0.000000
    22  C   -0.000000   0.000003  -0.000005   5.346137   0.367940   0.419605
    23  H    0.000000   0.000000   0.000000   0.367940   0.539296  -0.030368
    24  H    0.000000   0.000000  -0.000000   0.419605  -0.030368   0.513714
    25  H    0.000000   0.000000   0.000000   0.380483  -0.014100  -0.011778
    26  C    0.000000  -0.000003   0.000001  -0.033040   0.017105  -0.009110
    27  H   -0.000000  -0.000000   0.000000   0.010140  -0.005015  -0.001676
    28  H    0.000000   0.000000  -0.000000  -0.009287  -0.002827   0.000720
    29  H    0.000000   0.000000  -0.000000   0.001375   0.000592   0.000164
              25         26         27         28         29
     1  O    0.010311   0.000360  -0.000065  -0.000007   0.000010
     2  O   -0.000000   0.000003   0.000000   0.000000  -0.000000
     3  N    0.000010  -0.031385  -0.003084  -0.003097   0.006353
     4  H   -0.000002  -0.014476   0.000812   0.000559   0.003073
     5  C   -0.000025  -0.000916   0.000400   0.000287  -0.000412
     6  C   -0.002098   0.259034  -0.031279  -0.054080  -0.048476
     7  C    0.000007   0.012145  -0.000770  -0.000981   0.003745
     8  C   -0.000001   0.000442  -0.000018  -0.000005   0.000002
     9  C    0.000043   0.016066  -0.000234  -0.000015  -0.000679
    10  H   -0.000069   0.000426  -0.000026  -0.000002   0.000013
    11  H   -0.000020  -0.000795   0.000019   0.000034  -0.000004
    12  C    0.025252  -0.133643   0.007356  -0.001877   0.017201
    13  C   -0.043895  -0.041499  -0.007518   0.001754   0.000458
    14  C    0.000000  -0.000167  -0.000065  -0.000003   0.000145
    15  H   -0.000000   0.000003   0.000001  -0.000006   0.000072
    16  H   -0.000000   0.000021   0.000001  -0.000002  -0.000003
    17  H    0.000000  -0.000052  -0.000003   0.000003  -0.000006
    18  C    0.000000  -0.000013   0.000000   0.000000  -0.000000
    19  H    0.000000   0.000000  -0.000000   0.000000   0.000000
    20  H    0.000000  -0.000003  -0.000000   0.000000   0.000000
    21  H    0.000000   0.000001   0.000000  -0.000000  -0.000000
    22  C    0.380483  -0.033040   0.010140  -0.009287   0.001375
    23  H   -0.014100   0.017105  -0.005015  -0.002827   0.000592
    24  H   -0.011778  -0.009110  -0.001676   0.000720   0.000164
    25  H    0.498282   0.001795   0.000417   0.000058  -0.000033
    26  C    0.001795   5.191237   0.400300   0.440833   0.387695
    27  H    0.000417   0.400300   0.521179  -0.033157  -0.018055
    28  H    0.000058   0.440833  -0.033157   0.498282  -0.014268
    29  H   -0.000033   0.387695  -0.018055  -0.014268   0.513041
 Mulliken charges:
               1
     1  O   -0.388384
     2  O   -0.172153
     3  N   -0.132857
     4  H    0.281867
     5  C   -0.004261
     6  C    0.152642
     7  C    0.042091
     8  C    0.013461
     9  C   -0.262127
    10  H    0.142000
    11  H    0.141851
    12  C   -0.127113
    13  C    0.113719
    14  C   -0.468997
    15  H    0.139262
    16  H    0.160241
    17  H    0.161182
    18  C   -0.339849
    19  H    0.171217
    20  H    0.159864
    21  H    0.163889
    22  C   -0.431340
    23  H    0.144657
    24  H    0.160718
    25  H    0.155363
    26  C   -0.462365
    27  H    0.160343
    28  H    0.177081
    29  H    0.147995
 Sum of Mulliken charges =  -0.00000
 Mulliken charges with hydrogens summed into heavy atoms:
               1
     1  O   -0.388384
     2  O   -0.172153
     3  N    0.149011
     5  C   -0.004261
     6  C    0.152642
     7  C    0.042091
     8  C    0.013461
     9  C    0.021724
    12  C   -0.127113
    13  C    0.113719
    14  C   -0.008312
    18  C    0.155122
    22  C    0.029398
    26  C    0.023055
 Electronic spatial extent (au):  <R**2>=           3215.2978
 Charge=             -0.0000 electrons
 Dipole moment (field-independent basis, Debye):
    X=              0.3781    Y=              6.1602    Z=             -0.0073  Tot=              6.1718
 Quadrupole moment (field-independent basis, Debye-Ang):
   XX=            -84.8761   YY=            -77.8031   ZZ=            -85.1034
   XY=             16.3034   XZ=              1.1924   YZ=             -0.4855
 Traceless Quadrupole moment (field-independent basis, Debye-Ang):
   XX=             -2.2819   YY=              4.7911   ZZ=             -2.5092
   XY=             16.3034   XZ=              1.1924   YZ=             -0.4855
 Octapole moment (field-independent basis, Debye-Ang**2):
  XXX=             46.3893  YYY=             57.6818  ZZZ=              0.4286  XYY=            -42.8516
  XXY=             17.7979  XXZ=             -0.7558  XZZ=              1.5089  YZZ=             -2.7966
  YYZ=              0.5799  XYZ=             -1.6947
 Hexadecapole moment (field-independent basis, Debye-Ang**3):
 XXXX=          -2846.3110 YYYY=          -1246.6977 ZZZZ=           -124.1930 XXXY=             92.2168
 XXXZ=             12.0869 YYYX=            108.9176 YYYZ=             -5.6638 ZZZX=             -1.1026
 ZZZY=              1.6471 XXYY=           -678.5470 XXZZ=           -481.6625 YYZZ=           -238.8182
 XXYZ=             -2.9749 YYXZ=              1.8103 ZZXY=              2.1844
 N-N= 8.983405624255D+02 E-N=-3.272995888581D+03  KE= 6.305618240044D+02
 No NMR shielding tensors so no spin-rotation constants.
 Leave Link  601 at Mon Mar  9 15:54:43 2026, MaxMem=  2147483648 cpu:               3.9 elap:               0.1
 (Enter /data/home/wyx/g16/l9999.exe)
 Electronic transition elements 
                 1             2             3             4             5 
      1  -0.633295D+03 -0.633272D+03 -0.633265D+03 -0.633228D+03 -0.633211D+03
      2   0.147233D+01  0.435025D-01  0.202681D-01  0.330900D+00 -0.359178D+00
      3   0.382475D+00  0.131370D-01 -0.181790D-01 -0.133666D+01  0.134790D+01
      4   0.197754D+00 -0.304500D-01  0.342366D-01  0.108023D+00 -0.994614D-01
      5  -0.179006D+00 -0.574525D-02 -0.354638D-02 -0.548053D-01  0.734063D-01
      6  -0.504437D-01 -0.161511D-02  0.239444D-02  0.247126D+00 -0.278399D+00
      7  -0.238624D-01  0.154667D-02 -0.227204D-02 -0.182498D-01  0.207506D-01
      8  -0.208107D+00 -0.865167D+00 -0.463644D+00 -0.114785D-01 -0.171890D-01
      9   0.326609D-01 -0.110834D+00  0.895302D+00 -0.573403D-02 -0.212615D-02
     10   0.150918D+01 -0.109262D-01 -0.128607D-01  0.164508D+00 -0.234231D+00
     11  -0.168976D+00 -0.147161D-01  0.810379D-02 -0.115652D+01  0.570292D+00
     12   0.265395D+00  0.961139D-02  0.110657D-01  0.103077D+00 -0.267267D+00
     13  -0.168730D-01  0.501175D-02 -0.295146D-01  0.782322D-02 -0.251583D-01
     14   0.483074D+00  0.233126D-01  0.131059D-01 -0.407430D+00  0.170168D+00
     15  -0.536914D-01  0.124121D-01 -0.687597D-01 -0.143273D+00  0.769184D-01
     16   0.556524D-01 -0.730187D-01 -0.325474D-01 -0.676768D-01  0.230660D-01
                 6 
      1  -0.633190D+03
      2  -0.256971D-01
      3   0.927417D-01
      4   0.131568D-01
      5   0.794926D-02
      6  -0.213830D-01
      7  -0.211321D-01
      8   0.107213D+00
      9   0.389424D-01
     10   0.155104D-02
     11  -0.377484D-01
     12  -0.641653D-01
     13   0.401253D-01
     14  -0.821635D-02
     15  -0.560954D-01
     16   0.164608D+00
 1\1\GINC-CN013\SP\RwB97XD TD-FC\TZVP\C11H15N1O2\WYX\09-Mar-2026\0\\#p 
 wB97XD/TZVP TD=(NStates=6,Root=2) SCRF=(Solvent=Water,CorrectedLR) Geo
 m=Check Guess=Read\\Title Card Required\\0,1\O,0,1.3372756161,9.809298
 9609,0.7661321482\O,0,-4.9233259977,9.7679255113,0.0431445168\N,0,-2.1
 040755362,12.9162877363,0.1980261332\H,0,-2.4084629011,13.8725520377,0
 .1306727416\C,0,-2.7159211532,10.6381722683,0.2017851143\C,0,-0.765226
 1157,12.6950202206,0.4311125452\C,0,-3.0723124561,11.9426960298,0.1141
 777396\C,0,-3.7159855719,9.5673631172,0.1261078329\C,0,-1.2595918508,1
 0.2506845235,0.3513146604\H,0,-1.1345882645,9.5751684605,1.2026427684\
 H,0,-0.9314418384,9.6644256787,-0.5146995631\C,0,-0.3125739242,11.4210
 586217,0.5322783662\C,0,1.0742351414,11.0087460145,0.7767739688\C,0,-4
 .4568966164,12.4843259148,-0.069917991\H,0,-4.4350391563,13.5683922715
 ,-0.184944969\H,0,-4.9317660981,12.0433281625,-0.9440023472\H,0,-5.082
 7863105,12.2339098498,0.7858313548\C,0,-3.2038385089,8.1444853181,0.15
 5437952\H,0,-4.0424329504,7.4592389531,0.053553269\H,0,-2.4882678891,7
 .969278454,-0.651031075\H,0,-2.6821222057,7.9411246423,1.0933649229\C,
 0,2.1962980476,11.9804264579,1.0606544836\H,0,2.3601750026,12.66394524
 82,0.2280021031\H,0,1.9891711226,12.5786479594,1.9487760074\H,0,3.1042
 094051,11.4046269741,1.2271678947\C,0,0.020148415,13.9729095175,0.5279
 049488\H,0,0.523907421,14.0618409238,1.4877328585\H,0,0.7706474344,14.
 0363409432,-0.2584439209\H,0,-0.6385832906,14.8336136787,0.4224455359\
 \Version=ES64L-G16RevA.03\State=1-A\HF=-633.4220069\RMSD=1.232e-09\Dip
 ole=-0.6568946,2.3331285,-0.1451259\Quadrupole=-8.8397895,10.6128104,-
 1.7730209,7.7219171,-0.2225335,0.8525551\PG=C01 [X(C11H15N1O2)]\\@


 10 WHATSOEVER THY HAND FINDETH TO DO, DO IT WITH THY  
 MIGHT. FOR THERE IS NO WORK, NOR DEVICE, NOR KNOWLEDGE, NOR  
 WISDOM, IN THE GRAVE, WHITHER THOU GOEST.                    
 11 I RETURNED AND SAW UNDER THE SUN, THAT THE RACE IS NOT TO 
 THE SWIFT, NOR THE BATTLE TO THE STRONG, NEITHER YET BREAD TO
 THE WISE, NOR YET RICHES TO MEN OF UNDERSTANDING, NOR YET    
 FAVOR TO MEN OF SKILL. BUT TIME AND CHANCE HAPPEN TO THEM ALL.
 12 FOR MAN ALSO KNOWETH NOT HIS TIME. AS THE FISHES   
 THAT ARE TAKEN IN AN EVIL NET, AND AS THE BIRDS THAT ARE     
 CAUGHT IN THE SNARE. SO ARE THE SONS OF MEN SNARED IN AN EVIL
 TIME, WHEN IT FALLETH SUDDENLY UPON THEM.
                                         ECCLESIASTES 9
 Job cpu time:       0 days  4 hours 56 minutes 27.3 seconds.
 Elapsed time:       0 days  0 hours  9 minutes 19.3 seconds.
 File lengths (MBytes):  RWF=    821 Int=      0 D2E=      0 Chk=     67 Scr=      1
 Normal termination of Gaussian 16 at Mon Mar  9 15:54:45 2026.
