 Entering Gaussian System, Link 0=g16
 Input=DDL-S1min-S1-cLR-1.gjf
 Output=DDL-S1min-S1-cLR-1.log
 Initial command:
 /data/home/wyx/g16/l1.exe "/scr/tmp/wyx/13952/Gau-2530351.inp" -scrdir="/scr/tmp/wyx/13952/"
 Entering Link 1 = /data/home/wyx/g16/l1.exe PID=   2530352.
  
 Copyright (c) 1988,1990,1992,1993,1995,1998,2003,2009,2016,
            Gaussian, Inc.  All Rights Reserved.
  
 This is part of the Gaussian(R) 16 program.  It is based on
 the Gaussian(R) 09 system (copyright 2009, Gaussian, Inc.),
 the Gaussian(R) 03 system (copyright 2003, Gaussian, Inc.),
 the Gaussian(R) 98 system (copyright 1998, Gaussian, Inc.),
 the Gaussian(R) 94 system (copyright 1995, Gaussian, Inc.),
 the Gaussian 92(TM) system (copyright 1992, Gaussian, Inc.),
 the Gaussian 90(TM) system (copyright 1990, Gaussian, Inc.),
 the Gaussian 88(TM) system (copyright 1988, Gaussian, Inc.),
 the Gaussian 86(TM) system (copyright 1986, Carnegie Mellon
 University), and the Gaussian 82(TM) system (copyright 1983,
 Carnegie Mellon University). Gaussian is a federally registered
 trademark of Gaussian, Inc.
  
 This software contains proprietary and confidential information,
 including trade secrets, belonging to Gaussian, Inc.
  
 This software is provided under written license and may be
 used, copied, transmitted, or stored only in accord with that
 written license.
  
 The following legend is applicable only to US Government
 contracts under FAR:
  
                    RESTRICTED RIGHTS LEGEND
  
 Use, reproduction and disclosure by the US Government is
 subject to restrictions as set forth in subparagraphs (a)
 and (c) of the Commercial Computer Software - Restricted
 Rights clause in FAR 52.227-19.
  
 Gaussian, Inc.
 340 Quinnipiac St., Bldg. 40, Wallingford CT 06492
  
  
 ---------------------------------------------------------------
 Warning -- This program may not be used in any manner that
 competes with the business of Gaussian, Inc. or will provide
 assistance to any competitor of Gaussian, Inc.  The licensee
 of this program is prohibited from giving any competitor of
 Gaussian, Inc. access to this program.  By using this program,
 the user acknowledges that Gaussian, Inc. is engaged in the
 business of creating and licensing software in the field of
 computational chemistry and represents and warrants to the
 licensee that it is not a competitor of Gaussian, Inc. and that
 it will not use this program in any manner prohibited above.
 ---------------------------------------------------------------
  

 Cite this work as:
 Gaussian 16, Revision A.03,
 M. J. Frisch, G. W. Trucks, H. B. Schlegel, G. E. Scuseria, 
 M. A. Robb, J. R. Cheeseman, G. Scalmani, V. Barone, 
 G. A. Petersson, H. Nakatsuji, X. Li, M. Caricato, A. V. Marenich, 
 J. Bloino, B. G. Janesko, R. Gomperts, B. Mennucci, H. P. Hratchian, 
 J. V. Ortiz, A. F. Izmaylov, J. L. Sonnenberg, D. Williams-Young, 
 F. Ding, F. Lipparini, F. Egidi, J. Goings, B. Peng, A. Petrone, 
 T. Henderson, D. Ranasinghe, V. G. Zakrzewski, J. Gao, N. Rega, 
 G. Zheng, W. Liang, M. Hada, M. Ehara, K. Toyota, R. Fukuda, 
 J. Hasegawa, M. Ishida, T. Nakajima, Y. Honda, O. Kitao, H. Nakai, 
 T. Vreven, K. Throssell, J. A. Montgomery, Jr., J. E. Peralta, 
 F. Ogliaro, M. J. Bearpark, J. J. Heyd, E. N. Brothers, K. N. Kudin, 
 V. N. Staroverov, T. A. Keith, R. Kobayashi, J. Normand, 
 K. Raghavachari, A. P. Rendell, J. C. Burant, S. S. Iyengar, 
 J. Tomasi, M. Cossi, J. M. Millam, M. Klene, C. Adamo, R. Cammi, 
 J. W. Ochterski, R. L. Martin, K. Morokuma, O. Farkas, 
 J. B. Foresman, and D. J. Fox, Gaussian, Inc., Wallingford CT, 2016.
 
 ******************************************
 Gaussian 16:  ES64L-G16RevA.03 25-Dec-2016
                 9-Mar-2026 
 ******************************************
 %nprocshared=32
 Will use up to   32 processors via shared memory.
 %mem=16GB
 %oldchk=DDL-S1min-S1-cLR.chk
 %chk=DDL-S1min-S1-cLR-1.chk
 Copying data from "DDL-S1min-S1-cLR.chk" to current chk file "DDL-S1min-S1-cLR-1.chk"
 IOpt=  2 FromEx=T IUOpen= 4 IOptOp= 5 NList=   0 IFRang= 0 IUIn= 4 IUOut= 2.
 ----------------------------------------------------------------------
 #p M062X/TZVP em=gd3 SCRF=(Solvent=Water,NonEquilibrium=Read) Geom=Che
 ck Guess=Read NoSymm
 ----------------------------------------------------------------------
 1/29=2,38=1,172=1/1;
 2/12=2,15=1,40=1/2;
 3/5=19,7=101,11=2,14=-4,25=1,30=1,70=6002201,72=1,74=-55,116=-2,124=31/1,2,3;
 4/5=1/1;
 5/5=2,38=6,53=1/2;
 6/7=2,8=2,9=2,10=2,28=1/1;
 99/5=1,9=1/99;
 Leave Link    1 at Mon Mar  9 19:06:16 2026, MaxMem=  2147483648 cpu:               1.6 elap:               0.1
 (Enter /data/home/wyx/g16/l101.exe)
 -------------------
 Title Card Required
 -------------------
 Structure from the checkpoint file:  "DDL-S1min-S1-cLR-1.chk"
 Charge =  0 Multiplicity = 1
 Redundant internal coordinates found in file.  (old form).
 O,0,1.2682267808,9.843376622,1.3133338202
 O,0,-4.778500079,9.7332697815,-0.4550475916
 N,0,-2.1179132315,12.9177164978,0.27283834
 H,0,-2.4245934795,13.8823125853,0.1975088184
 C,0,-2.7009255482,10.6315228047,0.2100416155
 C,0,-0.7989997832,12.7433533076,0.5683427647
 C,0,-3.0770921472,11.9857421502,0.073677624
 C,0,-3.6224808473,9.5427478339,-0.0520667359
 C,0,-1.3221036104,10.3191256089,0.6357389827
 H,0,-1.3516969048,9.8682549621,1.6506959964
 H,0,-0.9082760248,9.4880591737,0.0479393681
 C,0,-0.3380949615,11.420615377,0.6922600437
 C,0,1.0328419609,10.9987155761,0.9266666788
 C,0,-4.4425558924,12.504913031,-0.2445837959
 H,0,-4.4549811266,13.5940993907,-0.1932845138
 H,0,-4.7574649188,12.1954413863,-1.2405168973
 H,0,-5.177659798,12.1090314921,0.4548019701
 C,0,-3.1372903507,8.1190044198,0.136577108
 H,0,-4.0068113497,7.46899726,0.2036313064
 H,0,-2.543231669,7.8097258155,-0.7279218197
 H,0,-2.5208260835,7.9896955557,1.0251221314
 C,0,2.2039138849,11.9180814804,0.6571168271
 H,0,2.005732484,12.6441863097,-0.1273171047
 H,0,2.4840422829,12.4569844776,1.5656553521
 H,0,3.0488959845,11.2954951814,0.366953447
 C,0,-0.0210454295,14.0054018395,0.7758548664
 H,0,0.6854168684,13.8947920185,1.5958453952
 H,0,0.5384706558,14.2993917623,-0.1151534417
 H,0,-0.6941686967,14.8257807485,1.0272894444
 Recover connectivity data from disk.
 ITRead=  0  0  0  0  0  0  0  0  0  0  0  0  0  0  0  0  0  0  0  0
 ITRead=  0  0  0  0  0  0  0  0  0
 MicOpt= -1 -1 -1 -1 -1 -1 -1 -1 -1 -1 -1 -1 -1 -1 -1 -1 -1 -1 -1 -1
 MicOpt= -1 -1 -1 -1 -1 -1 -1 -1 -1
                           ----------------------------
                           !    Current Parameters    !
                           ! (Angstroms and Degrees)  !
 --------------------------                            --------------------------
 ! Name  Definition              Value                                          !
 --------------------------------------------------------------------------------
 ! R1    R(1,13)                 1.2409                                         !
 ! R2    R(2,8)                  1.239                                          !
 ! R3    R(3,4)                  1.015                                          !
 ! R4    R(3,6)                  1.3628                                         !
 ! R5    R(3,7)                  1.3521                                         !
 ! R6    R(5,7)                  1.4121                                         !
 ! R7    R(5,8)                  1.4503                                         !
 ! R8    R(5,9)                  1.4765                                         !
 ! R9    R(6,12)                 1.4062                                         !
 ! R10   R(6,26)                 1.497                                          !
 ! R11   R(7,14)                 1.4951                                         !
 ! R12   R(8,18)                 1.5159                                         !
 ! R13   R(9,10)                 1.111                                          !
 ! R14   R(9,11)                 1.0988                                         !
 ! R15   R(9,12)                 1.4781                                         !
 ! R16   R(12,13)                1.4534                                         !
 ! R17   R(13,22)                1.513                                          !
 ! R18   R(14,15)                1.0905                                         !
 ! R19   R(14,16)                1.0894                                         !
 ! R20   R(14,17)                1.0891                                         !
 ! R21   R(18,19)                1.0877                                         !
 ! R22   R(18,20)                1.0936                                         !
 ! R23   R(18,21)                1.0892                                         !
 ! R24   R(22,23)                1.0871                                         !
 ! R25   R(22,24)                1.0929                                         !
 ! R26   R(22,25)                1.0889                                         !
 ! R27   R(26,27)                1.088                                          !
 ! R28   R(26,28)                1.0924                                         !
 ! R29   R(26,29)                1.0906                                         !
 ! A1    A(4,3,6)              115.4745                                         !
 ! A2    A(4,3,7)              115.4533                                         !
 ! A3    A(6,3,7)              129.071                                          !
 ! A4    A(7,5,8)              122.224                                          !
 ! A5    A(7,5,9)              118.6545                                         !
 ! A6    A(8,5,9)              119.1215                                         !
 ! A7    A(3,6,12)             117.172                                          !
 ! A8    A(3,6,26)             115.1587                                         !
 ! A9    A(12,6,26)            127.6227                                         !
 ! A10   A(3,7,5)              117.2464                                         !
 ! A11   A(3,7,14)             116.0964                                         !
 ! A12   A(5,7,14)             126.6457                                         !
 ! A13   A(2,8,5)              122.4263                                         !
 ! A14   A(2,8,18)             118.916                                          !
 ! A15   A(5,8,18)             118.6334                                         !
 ! A16   A(5,9,10)             108.9287                                         !
 ! A17   A(5,9,11)             110.9463                                         !
 ! A18   A(5,9,12)             118.3627                                         !
 ! A19   A(10,9,11)            101.0572                                         !
 ! A20   A(10,9,12)            106.5724                                         !
 ! A21   A(11,9,12)            109.4725                                         !
 ! A22   A(6,12,9)             118.6465                                         !
 ! A23   A(6,12,13)            126.6145                                         !
 ! A24   A(9,12,13)            114.6956                                         !
 ! A25   A(1,13,12)            119.9645                                         !
 ! A26   A(1,13,22)            118.3231                                         !
 ! A27   A(12,13,22)           121.6647                                         !
 ! A28   A(7,14,15)            110.3182                                         !
 ! A29   A(7,14,16)            111.0977                                         !
 ! A30   A(7,14,17)            110.7018                                         !
 ! A31   A(15,14,16)           108.8718                                         !
 ! A32   A(15,14,17)           108.9749                                         !
 ! A33   A(16,14,17)           106.7794                                         !
 ! A34   A(8,18,19)            108.2443                                         !
 ! A35   A(8,18,20)            109.9443                                         !
 ! A36   A(8,18,21)            113.2148                                         !
 ! A37   A(19,18,20)           108.2997                                         !
 ! A38   A(19,18,21)           109.3434                                         !
 ! A39   A(20,18,21)           107.6904                                         !
 ! A40   A(13,22,23)           113.1596                                         !
 ! A41   A(13,22,24)           110.4823                                         !
 ! A42   A(13,22,25)           107.4969                                         !
 ! A43   A(23,22,24)           108.4962                                         !
 ! A44   A(23,22,25)           109.3328                                         !
 ! A45   A(24,22,25)           107.7312                                         !
 ! A46   A(6,26,27)            110.8673                                         !
 ! A47   A(6,26,28)            112.3327                                         !
 ! A48   A(6,26,29)            110.2054                                         !
 ! A49   A(27,26,28)           108.0295                                         !
 ! A50   A(27,26,29)           107.6677                                         !
 ! A51   A(28,26,29)           107.5616                                         !
 ! D1    D(4,3,6,12)           179.4808                                         !
 ! D2    D(4,3,6,26)             1.7742                                         !
 ! D3    D(7,3,6,12)            -0.0844                                         !
 ! D4    D(7,3,6,26)          -177.791                                          !
 ! D5    D(4,3,7,5)           -178.109                                          !
 ! D6    D(4,3,7,14)             0.7384                                         !
 ! D7    D(6,3,7,5)              1.4562                                         !
 ! D8    D(6,3,7,14)          -179.6963                                         !
 ! D9    D(8,5,7,3)           -176.4895                                         !
 ! D10   D(8,5,7,14)             4.8005                                         !
 ! D11   D(9,5,7,3)              3.5877                                         !
 ! D12   D(9,5,7,14)          -175.1222                                         !
 ! D13   D(7,5,8,2)              2.5571                                         !
 ! D14   D(7,5,8,18)          -179.2571                                         !
 ! D15   D(9,5,8,2)           -177.5205                                         !
 ! D16   D(9,5,8,18)             0.6653                                         !
 ! D17   D(7,5,9,10)           112.2844                                         !
 ! D18   D(7,5,9,11)          -137.3279                                         !
 ! D19   D(7,5,9,12)            -9.5728                                         !
 ! D20   D(8,5,9,10)           -67.6408                                         !
 ! D21   D(8,5,9,11)            42.747                                          !
 ! D22   D(8,5,9,12)           170.502                                          !
 ! D23   D(3,6,12,9)            -6.2118                                         !
 ! D24   D(3,6,12,13)          176.3208                                         !
 ! D25   D(26,6,12,9)          171.1671                                         !
 ! D26   D(26,6,12,13)          -6.3003                                         !
 ! D27   D(3,6,26,27)          140.5855                                         !
 ! D28   D(3,6,26,28)          -98.4377                                         !
 ! D29   D(3,6,26,29)           21.4814                                         !
 ! D30   D(12,6,26,27)         -36.8384                                         !
 ! D31   D(12,6,26,28)          84.1384                                         !
 ! D32   D(12,6,26,29)        -155.9425                                         !
 ! D33   D(3,7,14,15)           -4.0801                                         !
 ! D34   D(3,7,14,16)          116.754                                          !
 ! D35   D(3,7,14,17)         -124.783                                          !
 ! D36   D(5,7,14,15)          174.6429                                         !
 ! D37   D(5,7,14,16)          -64.5231                                         !
 ! D38   D(5,7,14,17)           53.9399                                         !
 ! D39   D(2,8,18,19)          -19.1504                                         !
 ! D40   D(2,8,18,20)           98.9695                                         !
 ! D41   D(2,8,18,21)         -140.5412                                         !
 ! D42   D(5,8,18,19)          162.599                                          !
 ! D43   D(5,8,18,20)          -79.2811                                         !
 ! D44   D(5,8,18,21)           41.2082                                         !
 ! D45   D(5,9,12,6)            10.9203                                         !
 ! D46   D(5,9,12,13)         -171.317                                          !
 ! D47   D(10,9,12,6)         -112.1233                                         !
 ! D48   D(10,9,12,13)          65.6394                                         !
 ! D49   D(11,9,12,6)          139.3672                                         !
 ! D50   D(11,9,12,13)         -42.8701                                         !
 ! D51   D(6,12,13,1)          163.7373                                         !
 ! D52   D(6,12,13,22)         -18.8164                                         !
 ! D53   D(9,12,13,1)          -13.8164                                         !
 ! D54   D(9,12,13,22)         163.6299                                         !
 ! D55   D(1,13,22,23)         149.1338                                         !
 ! D56   D(1,13,22,24)         -88.9878                                         !
 ! D57   D(1,13,22,25)          28.3109                                         !
 ! D58   D(12,13,22,23)        -28.3529                                         !
 ! D59   D(12,13,22,24)         93.5255                                         !
 ! D60   D(12,13,22,25)       -149.1759                                         !
 --------------------------------------------------------------------------------
 NAtoms=     29 NQM=       29 NQMF=       0 NMMI=      0 NMMIF=      0
                NMic=       0 NMicF=      0.
                    Isotopes and Nuclear Properties:
 (Nuclear quadrupole moments (NQMom) in fm**2, nuclear magnetic moments (NMagM)
  in nuclear magnetons)

  Atom         1           2           3           4           5           6           7           8           9          10
 IAtWgt=          16          16          14           1          12          12          12          12          12           1
 AtmWgt=  15.9949146  15.9949146  14.0030740   1.0078250  12.0000000  12.0000000  12.0000000  12.0000000  12.0000000   1.0078250
 NucSpn=           0           0           2           1           0           0           0           0           0           1
 AtZEff=   5.6000000   5.6000000   4.5500000   1.0000000   3.6000000   3.6000000   3.6000000   3.6000000   3.6000000   1.0000000
 NQMom=    0.0000000   0.0000000   2.0440000   0.0000000   0.0000000   0.0000000   0.0000000   0.0000000   0.0000000   0.0000000
 NMagM=    0.0000000   0.0000000   0.4037610   2.7928460   0.0000000   0.0000000   0.0000000   0.0000000   0.0000000   2.7928460
 AtZNuc=   8.0000000   8.0000000   7.0000000   1.0000000   6.0000000   6.0000000   6.0000000   6.0000000   6.0000000   1.0000000

  Atom        11          12          13          14          15          16          17          18          19          20
 IAtWgt=           1          12          12          12           1           1           1          12           1           1
 AtmWgt=   1.0078250  12.0000000  12.0000000  12.0000000   1.0078250   1.0078250   1.0078250  12.0000000   1.0078250   1.0078250
 NucSpn=           1           0           0           0           1           1           1           0           1           1
 AtZEff=   1.0000000   3.6000000   3.6000000   3.6000000   1.0000000   1.0000000   1.0000000   3.6000000   1.0000000   1.0000000
 NQMom=    0.0000000   0.0000000   0.0000000   0.0000000   0.0000000   0.0000000   0.0000000   0.0000000   0.0000000   0.0000000
 NMagM=    2.7928460   0.0000000   0.0000000   0.0000000   2.7928460   2.7928460   2.7928460   0.0000000   2.7928460   2.7928460
 AtZNuc=   1.0000000   6.0000000   6.0000000   6.0000000   1.0000000   1.0000000   1.0000000   6.0000000   1.0000000   1.0000000

  Atom        21          22          23          24          25          26          27          28          29
 IAtWgt=           1          12           1           1           1          12           1           1           1
 AtmWgt=   1.0078250  12.0000000   1.0078250   1.0078250   1.0078250  12.0000000   1.0078250   1.0078250   1.0078250
 NucSpn=           1           0           1           1           1           0           1           1           1
 AtZEff=   1.0000000   3.6000000   1.0000000   1.0000000   1.0000000   3.6000000   1.0000000   1.0000000   1.0000000
 NQMom=    0.0000000   0.0000000   0.0000000   0.0000000   0.0000000   0.0000000   0.0000000   0.0000000   0.0000000
 NMagM=    2.7928460   0.0000000   2.7928460   2.7928460   2.7928460   0.0000000   2.7928460   2.7928460   2.7928460
 AtZNuc=   1.0000000   6.0000000   1.0000000   1.0000000   1.0000000   6.0000000   1.0000000   1.0000000   1.0000000
 Leave Link  101 at Mon Mar  9 19:06:19 2026, MaxMem=  2147483648 cpu:               6.5 elap:               0.2
 (Enter /data/home/wyx/g16/l202.exe)
                          Input orientation:                          
 ---------------------------------------------------------------------
 Center     Atomic      Atomic             Coordinates (Angstroms)
 Number     Number       Type             X           Y           Z
 ---------------------------------------------------------------------
      1          8           0        1.268227    9.843377    1.313334
      2          8           0       -4.778500    9.733270   -0.455048
      3          7           0       -2.117913   12.917716    0.272838
      4          1           0       -2.424593   13.882313    0.197509
      5          6           0       -2.700926   10.631523    0.210042
      6          6           0       -0.799000   12.743353    0.568343
      7          6           0       -3.077092   11.985742    0.073678
      8          6           0       -3.622481    9.542748   -0.052067
      9          6           0       -1.322104   10.319126    0.635739
     10          1           0       -1.351697    9.868255    1.650696
     11          1           0       -0.908276    9.488059    0.047939
     12          6           0       -0.338095   11.420615    0.692260
     13          6           0        1.032842   10.998716    0.926667
     14          6           0       -4.442556   12.504913   -0.244584
     15          1           0       -4.454981   13.594099   -0.193285
     16          1           0       -4.757465   12.195441   -1.240517
     17          1           0       -5.177660   12.109031    0.454802
     18          6           0       -3.137290    8.119004    0.136577
     19          1           0       -4.006811    7.468997    0.203631
     20          1           0       -2.543232    7.809726   -0.727922
     21          1           0       -2.520826    7.989696    1.025122
     22          6           0        2.203914   11.918081    0.657117
     23          1           0        2.005732   12.644186   -0.127317
     24          1           0        2.484042   12.456984    1.565655
     25          1           0        3.048896   11.295495    0.366953
     26          6           0       -0.021045   14.005402    0.775855
     27          1           0        0.685417   13.894792    1.595845
     28          1           0        0.538471   14.299392   -0.115153
     29          1           0       -0.694169   14.825781    1.027289
 ---------------------------------------------------------------------
                    Distance matrix (angstroms):
                    1          2          3          4          5
     1  O    0.000000
     2  O    6.300968   0.000000
     3  N    4.690431   4.212985   0.000000
     4  H    5.585248   4.814692   1.014974   0.000000
     5  C    4.194353   2.359135   2.360197   3.262537   0.000000
     6  C    3.638448   5.093560   1.362813   2.019233   2.864530
     7  C    5.000827   2.871928   1.352134   2.009494   1.412093
     8  C    5.086621   1.238980   3.709407   4.508774   1.450309
     9  C    2.719427   3.671474   2.741840   3.755507   1.476469
    10  H    2.641672   4.024346   3.432899   4.401763   2.116242
    11  H    2.542565   3.910468   3.643673   4.650920   2.132458
    12  C    2.335312   4.886783   2.363256   3.264691   2.537355
    13  C    1.240857   6.105914   3.746640   4.560774   3.819608
    14  C    6.490294   2.799850   2.417043   2.482911   2.597990
    15  H    7.006635   3.883193   2.477226   2.087645   3.466445
    16  H    6.954374   2.584510   3.127165   3.218034   2.962991
    17  H    6.886198   2.575150   3.170036   3.284829   2.894331
    18  C    4.875120   2.376855   4.907681   5.807527   2.551188
    19  H    5.890258   2.481188   5.767258   6.605609   3.421542
    20  H    4.778041   2.961572   5.222450   6.143843   2.977781
    21  H    4.228016   3.213728   5.001366   5.951230   2.770567
    22  C    2.368656   7.400298   4.452542   5.049012   5.090438
    23  H    3.234799   7.389632   4.152035   4.611535   5.130035
    24  H    2.893582   8.015384   4.802254   5.291322   5.661616
    25  H    2.484968   8.023987   5.416307   6.056354   5.790158
    26  C    4.390166   6.511498   2.415148   2.475213   4.345683
    27  H    4.102858   7.167902   3.250182   3.409936   4.902723
    28  H    4.735947   7.016778   3.019261   3.008565   4.904355
    29  H    5.362571   6.694233   2.497389   2.138466   4.720886
                    6          7          8          9         10
     6  C    0.000000
     7  C    2.451198   0.000000
     8  C    4.312868   2.506288   0.000000
     9  C    2.480939   2.484655   2.523405   0.000000
    10  H    3.121402   3.154002   2.856889   1.110990   0.000000
    11  H    3.298439   3.307997   2.716597   1.098833   1.705872
    12  C    1.406209   2.864283   3.855853   1.478089   2.087058
    13  C    2.554956   4.312003   4.974916   2.468248   2.736455
    14  C    3.740749   1.495099   3.079612   3.910225   4.483019
    15  H    3.830149   2.134633   4.138411   4.607348   5.187731
    16  H    4.386528   2.143533   3.120478   4.340807   5.037277
    17  H    4.425824   2.138420   3.043240   4.254623   4.592302
    18  C    5.199868   3.867718   1.515929   2.895617   2.922461
    19  H    6.184004   4.613269   2.124508   3.939239   3.860060
    20  H    5.391041   4.285637   2.150564   3.106093   3.363795
    21  H    5.076475   4.145246   2.187682   2.648547   2.299389
    22  C    3.115517   5.313568   6.331827   3.871681   4.222719
    23  H    2.891418   5.129235   6.426614   4.130697   4.705258
    24  H    3.443110   5.777048   6.956970   4.463399   4.628353
    25  H    4.116206   6.171724   6.910497   4.486778   4.801065
    26  C    1.497011   3.729812   5.794055   3.911651   4.433054
    27  H    2.141277   4.485303   6.341442   4.211571   4.512853
    28  H    2.162695   4.296618   6.320060   4.457364   5.130880
    29  H    2.134977   3.827991   6.135997   4.567007   5.039647
                   11         12         13         14         15
    11  H    0.000000
    12  C    2.115426   0.000000
    13  C    2.611931   1.453415   0.000000
    14  C    4.655976   4.347410   5.798314   0.000000
    15  H    5.431102   4.738879   6.173047   1.090465   0.000000
    16  H    4.879169   4.885367   6.297340   1.089414   1.773256
    17  H    5.026198   4.894046   6.326594   1.089147   1.774178
    18  C    2.617379   4.364048   5.129033   4.591862   5.641080
    19  H    3.701590   5.414196   6.195143   5.074566   6.154289
    20  H    2.468166   4.462966   5.069085   5.087812   6.115521
    21  H    2.408381   4.079991   4.657516   5.068766   6.052670
    22  C    3.995226   2.590466   1.513043   6.732978   6.919039
    23  H    4.299221   2.768097   2.182882   6.450858   6.530506
    24  H    4.756659   3.130709   2.154260   7.159401   7.248237
    25  H    4.362087   3.404877   2.113251   7.613049   7.868012
    26  C    4.660839   2.605500   3.189606   4.779385   4.557213
    27  H    4.935095   2.825879   2.992618   5.622726   5.451155
    28  H    5.026788   3.115708   3.496320   5.295992   5.043620
    29  H    5.431044   3.440085   4.199895   4.588518   4.141322
                   16         17         18         19         20
    16  H    0.000000
    17  H    1.748753   0.000000
    18  C    4.597683   4.492738   0.000000
    19  H    4.998832   4.792065   1.087691   0.000000
    20  H    4.939644   5.179100   1.093580   1.768036   0.000000
    21  H    5.274843   4.934872   1.089156   1.775986   1.762400
    22  C    7.220716   7.386814   6.575136   7.653307   6.429021
    23  H    6.868874   7.226782   6.855479   7.939949   6.665269
    24  H    7.770613   7.749629   7.242908   8.298573   7.220180
    25  H    8.020794   8.267151   6.957878   8.028186   6.679913
    26  C    5.456682   5.503632   6.690989   7.677132   6.856323
    27  H    6.368493   6.234307   7.078296   8.077506   7.269945
    28  H    5.808613   6.147900   7.195261   8.210694   7.210280
    29  H    5.345279   5.273534   7.193265   8.110134   7.464906
                   21         22         23         24         25
    21  H    0.000000
    22  C    6.155551   0.000000
    23  H    6.594098   1.087125   0.000000
    24  H    6.730346   1.092854   1.769175   0.000000
    25  H    6.510246   1.088946   1.775236   1.762102   0.000000
    26  C    6.519184   3.053105   2.603163   3.049073   4.115256
    27  H    6.743581   2.663537   2.505302   2.302880   3.721902
    28  H    7.104350   3.006783   2.211947   3.163042   3.944370
    29  H    7.075927   4.121969   3.658133   4.000257   5.187436
                   26         27         28         29
    26  C    0.000000
    27  H    1.087983   0.000000
    28  H    1.092421   1.764316   0.000000
    29  H    1.090567   1.758764   1.761153   0.000000
 Symmetry turned off by external request.
 Stoichiometry    C11H15NO2
 Framework group  C1[X(C11H15NO2)]
 Deg. of freedom    81
 Full point group                 C1      NOp   1
 Rotational constants (GHZ):           1.0689315           0.4875898           0.3414096
 Leave Link  202 at Mon Mar  9 19:06:19 2026, MaxMem=  2147483648 cpu:               0.1 elap:               0.0
 (Enter /data/home/wyx/g16/l301.exe)
 Standard basis: TZVP (5D, 7F)
 Ernie: Thresh=  0.10000D-02 Tol=  0.10000D-05 Strict=F.
   356 basis functions,   610 primitive gaussians,   370 cartesian basis functions
    52 alpha electrons       52 beta electrons
       nuclear repulsion energy       897.0856539528 Hartrees.
 IExCor= 4336 DFT=T Ex+Corr=M062X ExCW=0 ScaHFX=  0.540000
 ScaDFX=  1.000000  1.000000  1.000000  1.000000 ScalE2=  1.000000  1.000000
 IRadAn=      5 IRanWt=     -1 IRanGd=            0 ICorTp=0 IEmpDi=131
 NAtoms=   29 NActive=   29 NUniq=   29 SFac= 1.00D+00 NAtFMM=   60 NAOKFM=F Big=F
 Integral buffers will be    131072 words long.
 Raffenetti 2 integral format.
 Two-electron integral symmetry is turned off.
 R6Disp:  Grimme-D3 Dispersion energy=       -0.0014541118 Hartrees.
 Nuclear repulsion after empirical dispersion term =      897.0841998410 Hartrees.
 ------------------------------------------------------------------------------
 Polarizable Continuum Model (PCM)
 =================================
 Model                : PCM.
 Atomic radii         : UFF (Universal Force Field).
 Polarization charges : Total charges.
 Charge compensation  : None.
 Solution method      : On-the-fly selection.
 Cavity type          : Scaled VdW (van der Waals Surface) (Alpha=1.100).
 Cavity algorithm     : GePol (No added spheres)
                        Default sphere list used, NSphG=   29.
                        Lebedev-Laikov grids with approx.  5.0 points / Ang**2.
                        Smoothing algorithm: York/Karplus (Gamma=1.0000).
                        Polarization charges: spherical gaussians, with
                                              point-specific exponents (IZeta= 3).
                        Self-potential: point-specific (ISelfS= 7).
                        Self-field    : sphere-specific E.n sum rule (ISelfD= 2).
 Solvent              : Water, Eps=  78.355300 Eps(inf)=   1.777849
 ------------------------------------------------------------------------------
 GePol: Number of generator spheres                  =      29
 GePol: Total number of spheres                      =      29
 GePol: Number of exposed spheres                    =      29 (100.00%)
 GePol: Number of points                             =    2101
 GePol: Average weight of points                     =       0.13
 GePol: Minimum weight of points                     =   0.63D-09
 GePol: Maximum weight of points                     =    0.20577
 GePol: Number of points with low weight             =     136
 GePol: Fraction of low-weight points (<1% of avg)   =       6.47%
 GePol: Cavity surface area                          =    270.074 Ang**2
 GePol: Cavity volume                                =    287.442 Ang**3
 Leave Link  301 at Mon Mar  9 19:06:23 2026, MaxMem=  2147483648 cpu:               1.1 elap:               0.0
 (Enter /data/home/wyx/g16/l302.exe)
 NPDir=0 NMtPBC=     1 NCelOv=     1 NCel=       1 NClECP=     1 NCelD=      1
         NCelK=      1 NCelE2=     1 NClLst=     1 CellRange=     0.0.
 One-electron integrals computed using PRISM.
 NBasis=   356 RedAO= T EigKep=  4.02D-05  NBF=   356
 NBsUse=   356 1.00D-06 EigRej= -1.00D+00 NBFU=   356
 Precomputing XC quadrature grid using
 IXCGrd= 4 IRadAn=           5 IRanWt=          -1 IRanGd=           0 AccXCQ= 0.00D+00.
 Generated NRdTot=       0 NPtTot=           0 NUsed=           0 NTot=          32
 NSgBfM=   366   366   366   366   366 MxSgAt=    29 MxSgA2=    29.
 Leave Link  302 at Mon Mar  9 19:06:23 2026, MaxMem=  2147483648 cpu:               6.2 elap:               0.2
 (Enter /data/home/wyx/g16/l303.exe)
 DipDrv:  MaxL=1.
 Leave Link  303 at Mon Mar  9 19:06:23 2026, MaxMem=  2147483648 cpu:               1.1 elap:               0.1
 (Enter /data/home/wyx/g16/l401.exe)
 Initial guess from the checkpoint file:  "DDL-S1min-S1-cLR-1.chk"
 B after Tr=     0.000000    0.000000    0.000000
         Rot=    1.000000    0.000000    0.000000    0.000000 Ang=   0.00 deg.
 Guess basis will be translated and rotated to current coordinates.
 JPrj=2 DoOrth=T DoCkMO=T.
 Leave Link  401 at Mon Mar  9 19:06:24 2026, MaxMem=  2147483648 cpu:               4.4 elap:               0.2
 (Enter /data/home/wyx/g16/l502.exe)
 Two-electron integral symmetry not used.
 Closed shell SCF:
 Using DIIS extrapolation, IDIIS=  1040.
 NGot=  2147483648 LenX=  2147195087 LenY=  2147057746
 Requested convergence on RMS density matrix=1.00D-08 within 128 cycles.
 Requested convergence on MAX density matrix=1.00D-06.
 Requested convergence on             energy=1.00D-06.
 No special actions if energy rises.
 Fock matrices will be formed incrementally for  20 cycles.

 Cycle   1  Pass 1  IDiag  1:
 FoFJK:  IHMeth= 1 ICntrl=       0 DoSepK=F KAlg= 0 I1Cent=           0 FoldK=F
 IRaf= 870000000 NMat=       1 IRICut=       1 DoRegI=T DoRafI=F ISym2E= 0 IDoP0=0 IntGTp=1.
 FoFCou: FMM=F IPFlag=           0 FMFlag=      100000 FMFlg1=           0
         NFxFlg=           0 DoJE=F BraDBF=F KetDBF=F FulRan=T
         wScrn=  0.000000 ICntrl=         0 IOpCl=  0 I1Cent=           0 NGrid=           0
         NMat0=    1 NMatS0=      1 NMatT0=    0 NMatD0=    1 NMtDS0=    0 NMtDT0=    0
 Symmetry not used in FoFCou.
 Inv3:  Mode=1 IEnd=    13242603.
 Iteration    1 A*A^-1 deviation from unit magnitude is 3.55D-15 for    567.
 Iteration    1 A*A^-1 deviation from orthogonality  is 2.35D-15 for   1646   1345.
 Iteration    1 A^-1*A deviation from unit magnitude is 3.77D-15 for    567.
 Iteration    1 A^-1*A deviation from orthogonality  is 1.25D-14 for   1810   1763.
 NEqPCM:  Using non-equilibrium solvation (IEInf=1, Eps=  78.3553, EpsInf=   1.7778)
 Inv3:  Mode=1 IEnd=    13242603.
 Iteration    1 A*A^-1 deviation from unit magnitude is 3.22D-15 for    734.
 Iteration    1 A*A^-1 deviation from orthogonality  is 2.44D-15 for   1932    361.
 Iteration    1 A^-1*A deviation from unit magnitude is 3.00D-15 for    734.
 Iteration    1 A^-1*A deviation from orthogonality  is 2.15D-15 for   2002    573.
 E= -633.341634724527    
 DIIS: error= 3.36D-04 at cycle   1 NSaved=   1.
 NSaved= 1 IEnMin= 1 EnMin= -633.341634724527     IErMin= 1 ErrMin= 3.36D-04
 ErrMax= 3.36D-04  0.00D+00 EMaxC= 1.00D-01 BMatC= 2.46D-05 BMatP= 2.46D-05
 IDIUse=3 WtCom= 9.97D-01 WtEn= 3.36D-03
 Coeff-Com:  0.100D+01
 Coeff-En:   0.100D+01
 Coeff:      0.100D+01
 Gap=     0.196 Goal=   None    Shift=    0.000
 RMSDP=2.24D-04 MaxDP=1.33D-02              OVMax= 4.86D-03

 Cycle   2  Pass 1  IDiag  1:
 RMSU=  2.22D-04    CP:  9.98D-01
 E= -633.341678611235     Delta-E=       -0.000043886709 Rises=F Damp=F
 DIIS: error= 1.87D-04 at cycle   2 NSaved=   2.
 NSaved= 2 IEnMin= 2 EnMin= -633.341678611235     IErMin= 2 ErrMin= 1.87D-04
 ErrMax= 1.87D-04  0.00D+00 EMaxC= 1.00D-01 BMatC= 1.58D-05 BMatP= 2.46D-05
 IDIUse=3 WtCom= 9.98D-01 WtEn= 1.87D-03
 Coeff-Com:  0.426D+00 0.574D+00
 Coeff-En:   0.000D+00 0.100D+01
 Coeff:      0.425D+00 0.575D+00
 Gap=     0.197 Goal=   None    Shift=    0.000
 RMSDP=4.37D-05 MaxDP=3.40D-03 DE=-4.39D-05 OVMax= 1.41D-03

 Cycle   3  Pass 1  IDiag  1:
 RMSU=  3.16D-05    CP:  9.99D-01  8.85D-01
 E= -633.341692141417     Delta-E=       -0.000013530182 Rises=F Damp=F
 DIIS: error= 1.24D-04 at cycle   3 NSaved=   3.
 NSaved= 3 IEnMin= 3 EnMin= -633.341692141417     IErMin= 3 ErrMin= 1.24D-04
 ErrMax= 1.24D-04  0.00D+00 EMaxC= 1.00D-01 BMatC= 3.23D-06 BMatP= 1.58D-05
 IDIUse=3 WtCom= 9.99D-01 WtEn= 1.24D-03
 Coeff-Com:  0.808D-01 0.297D+00 0.622D+00
 Coeff-En:   0.000D+00 0.647D-01 0.935D+00
 Coeff:      0.807D-01 0.297D+00 0.622D+00
 Gap=     0.197 Goal=   None    Shift=    0.000
 RMSDP=1.44D-05 MaxDP=6.88D-04 DE=-1.35D-05 OVMax= 7.25D-04

 Cycle   4  Pass 1  IDiag  1:
 RMSU=  1.35D-05    CP:  9.99D-01  8.82D-01  8.99D-01
 E= -633.341694756042     Delta-E=       -0.000002614625 Rises=F Damp=F
 DIIS: error= 2.30D-05 at cycle   4 NSaved=   4.
 NSaved= 4 IEnMin= 4 EnMin= -633.341694756042     IErMin= 4 ErrMin= 2.30D-05
 ErrMax= 2.30D-05  0.00D+00 EMaxC= 1.00D-01 BMatC= 2.37D-07 BMatP= 3.23D-06
 IDIUse=1 WtCom= 1.00D+00 WtEn= 0.00D+00
 Coeff-Com: -0.986D-02 0.477D-01 0.229D+00 0.733D+00
 Coeff:     -0.986D-02 0.477D-01 0.229D+00 0.733D+00
 Gap=     0.197 Goal=   None    Shift=    0.000
 RMSDP=7.54D-06 MaxDP=5.90D-04 DE=-2.61D-06 OVMax= 2.44D-04

 Cycle   5  Pass 1  IDiag  1:
 RMSU=  4.64D-06    CP:  9.99D-01  8.85D-01  1.06D+00  1.07D+00
 E= -633.341694966627     Delta-E=       -0.000000210585 Rises=F Damp=F
 DIIS: error= 7.39D-06 at cycle   5 NSaved=   5.
 NSaved= 5 IEnMin= 5 EnMin= -633.341694966627     IErMin= 5 ErrMin= 7.39D-06
 ErrMax= 7.39D-06  0.00D+00 EMaxC= 1.00D-01 BMatC= 4.24D-08 BMatP= 2.37D-07
 IDIUse=1 WtCom= 1.00D+00 WtEn= 0.00D+00
 Coeff-Com: -0.123D-01-0.171D-01 0.238D-01 0.324D+00 0.682D+00
 Coeff:     -0.123D-01-0.171D-01 0.238D-01 0.324D+00 0.682D+00
 Gap=     0.197 Goal=   None    Shift=    0.000
 RMSDP=1.88D-06 MaxDP=1.32D-04 DE=-2.11D-07 OVMax= 1.05D-04

 Cycle   6  Pass 1  IDiag  1:
 RMSU=  1.39D-06    CP:  9.99D-01  8.84D-01  1.09D+00  1.14D+00  1.10D+00
 E= -633.341695016548     Delta-E=       -0.000000049921 Rises=F Damp=F
 DIIS: error= 3.56D-06 at cycle   6 NSaved=   6.
 NSaved= 6 IEnMin= 6 EnMin= -633.341695016548     IErMin= 6 ErrMin= 3.56D-06
 ErrMax= 3.56D-06  0.00D+00 EMaxC= 1.00D-01 BMatC= 2.92D-09 BMatP= 4.24D-08
 IDIUse=1 WtCom= 1.00D+00 WtEn= 0.00D+00
 Coeff-Com: -0.128D-02-0.913D-02-0.120D-01-0.148D-01 0.158D+00 0.879D+00
 Coeff:     -0.128D-02-0.913D-02-0.120D-01-0.148D-01 0.158D+00 0.879D+00
 Gap=     0.197 Goal=   None    Shift=    0.000
 RMSDP=1.27D-06 MaxDP=9.52D-05 DE=-4.99D-08 OVMax= 6.78D-05

 Cycle   7  Pass 1  IDiag  1:
 RMSU=  5.03D-07    CP:  9.99D-01  8.82D-01  1.11D+00  1.17D+00  1.25D+00
                    CP:  1.26D+00
 E= -633.341695022453     Delta-E=       -0.000000005905 Rises=F Damp=F
 DIIS: error= 2.30D-06 at cycle   7 NSaved=   7.
 NSaved= 7 IEnMin= 7 EnMin= -633.341695022453     IErMin= 7 ErrMin= 2.30D-06
 ErrMax= 2.30D-06  0.00D+00 EMaxC= 1.00D-01 BMatC= 7.38D-10 BMatP= 2.92D-09
 IDIUse=1 WtCom= 1.00D+00 WtEn= 0.00D+00
 Coeff-Com:  0.894D-03-0.253D-02-0.485D-02-0.415D-01-0.128D-01 0.359D+00
 Coeff-Com:  0.702D+00
 Coeff:      0.894D-03-0.253D-02-0.485D-02-0.415D-01-0.128D-01 0.359D+00
 Coeff:      0.702D+00
 Gap=     0.197 Goal=   None    Shift=    0.000
 RMSDP=3.08D-07 MaxDP=1.32D-05 DE=-5.90D-09 OVMax= 2.85D-05

 Cycle   8  Pass 1  IDiag  1:
 RMSU=  1.77D-07    CP:  9.99D-01  8.82D-01  1.11D+00  1.17D+00  1.28D+00
                    CP:  1.33D+00  1.04D+00
 E= -633.341695023596     Delta-E=       -0.000000001143 Rises=F Damp=F
 DIIS: error= 7.88D-07 at cycle   8 NSaved=   8.
 NSaved= 8 IEnMin= 8 EnMin= -633.341695023596     IErMin= 8 ErrMin= 7.88D-07
 ErrMax= 7.88D-07  0.00D+00 EMaxC= 1.00D-01 BMatC= 2.16D-10 BMatP= 7.38D-10
 IDIUse=1 WtCom= 1.00D+00 WtEn= 0.00D+00
 Coeff-Com:  0.750D-03 0.204D-03 0.867D-03-0.177D-01-0.467D-01-0.413D-01
 Coeff-Com:  0.368D+00 0.735D+00
 Coeff:      0.750D-03 0.204D-03 0.867D-03-0.177D-01-0.467D-01-0.413D-01
 Coeff:      0.368D+00 0.735D+00
 Gap=     0.197 Goal=   None    Shift=    0.000
 RMSDP=2.66D-07 MaxDP=1.83D-05 DE=-1.14D-09 OVMax= 1.69D-05

 Cycle   9  Pass 1  IDiag  1:
 RMSU=  1.03D-07    CP:  9.99D-01  8.81D-01  1.11D+00  1.17D+00  1.30D+00
                    CP:  1.42D+00  1.32D+00  9.98D-01
 E= -633.341695023952     Delta-E=       -0.000000000356 Rises=F Damp=F
 DIIS: error= 3.98D-07 at cycle   9 NSaved=   9.
 NSaved= 9 IEnMin= 9 EnMin= -633.341695023952     IErMin= 9 ErrMin= 3.98D-07
 ErrMax= 3.98D-07  0.00D+00 EMaxC= 1.00D-01 BMatC= 2.02D-11 BMatP= 2.16D-10
 IDIUse=1 WtCom= 1.00D+00 WtEn= 0.00D+00
 Coeff-Com:  0.183D-03 0.386D-03 0.130D-02 0.286D-03-0.171D-01-0.813D-01
 Coeff-Com:  0.438D-01 0.280D+00 0.772D+00
 Coeff:      0.183D-03 0.386D-03 0.130D-02 0.286D-03-0.171D-01-0.813D-01
 Coeff:      0.438D-01 0.280D+00 0.772D+00
 Gap=     0.197 Goal=   None    Shift=    0.000
 RMSDP=7.34D-08 MaxDP=2.80D-06 DE=-3.56D-10 OVMax= 6.75D-06

 Cycle  10  Pass 1  IDiag  1:
 RMSU=  3.28D-08    CP:  9.99D-01  8.81D-01  1.11D+00  1.17D+00  1.30D+00
                    CP:  1.45D+00  1.40D+00  1.10D+00  1.19D+00
 E= -633.341695023999     Delta-E=       -0.000000000047 Rises=F Damp=F
 DIIS: error= 1.71D-07 at cycle  10 NSaved=  10.
 NSaved=10 IEnMin=10 EnMin= -633.341695023999     IErMin=10 ErrMin= 1.71D-07
 ErrMax= 1.71D-07  0.00D+00 EMaxC= 1.00D-01 BMatC= 2.62D-12 BMatP= 2.02D-11
 IDIUse=1 WtCom= 1.00D+00 WtEn= 0.00D+00
 Coeff-Com: -0.480D-04 0.126D-03 0.179D-03 0.293D-02 0.161D-02-0.193D-01
 Coeff-Com: -0.343D-01-0.315D-01 0.232D+00 0.848D+00
 Coeff:     -0.480D-04 0.126D-03 0.179D-03 0.293D-02 0.161D-02-0.193D-01
 Coeff:     -0.343D-01-0.315D-01 0.232D+00 0.848D+00
 Gap=     0.197 Goal=   None    Shift=    0.000
 RMSDP=3.26D-08 MaxDP=2.00D-06 DE=-4.74D-11 OVMax= 3.01D-06

 Cycle  11  Pass 1  IDiag  1:
 RMSU=  1.06D-08    CP:  9.99D-01  8.81D-01  1.11D+00  1.17D+00  1.30D+00
                    CP:  1.46D+00  1.44D+00  1.13D+00  1.36D+00  1.14D+00
 E= -633.341695024004     Delta-E=       -0.000000000005 Rises=F Damp=F
 DIIS: error= 4.52D-08 at cycle  11 NSaved=  11.
 NSaved=11 IEnMin=11 EnMin= -633.341695024004     IErMin=11 ErrMin= 4.52D-08
 ErrMax= 4.52D-08  0.00D+00 EMaxC= 1.00D-01 BMatC= 6.32D-13 BMatP= 2.62D-12
 IDIUse=1 WtCom= 1.00D+00 WtEn= 0.00D+00
 Coeff-Com: -0.443D-04 0.301D-04-0.162D-03 0.119D-02 0.290D-02 0.310D-02
 Coeff-Com: -0.186D-01-0.526D-01-0.171D-01 0.341D+00 0.740D+00
 Coeff:     -0.443D-04 0.301D-04-0.162D-03 0.119D-02 0.290D-02 0.310D-02
 Coeff:     -0.186D-01-0.526D-01-0.171D-01 0.341D+00 0.740D+00
 Gap=     0.197 Goal=   None    Shift=    0.000
 RMSDP=1.17D-08 MaxDP=4.35D-07 DE=-4.55D-12 OVMax= 8.96D-07

 Cycle  12  Pass 1  IDiag  1:
 RMSU=  3.71D-09    CP:  9.99D-01  8.81D-01  1.11D+00  1.17D+00  1.30D+00
                    CP:  1.46D+00  1.45D+00  1.15D+00  1.41D+00  1.29D+00
                    CP:  1.17D+00
 E= -633.341695024006     Delta-E=       -0.000000000002 Rises=F Damp=F
 DIIS: error= 2.11D-08 at cycle  12 NSaved=  12.
 NSaved=12 IEnMin=12 EnMin= -633.341695024006     IErMin=12 ErrMin= 2.11D-08
 ErrMax= 2.11D-08  0.00D+00 EMaxC= 1.00D-01 BMatC= 9.09D-14 BMatP= 6.32D-13
 IDIUse=1 WtCom= 1.00D+00 WtEn= 0.00D+00
 Coeff-Com: -0.982D-05 0.625D-05-0.108D-03-0.252D-04 0.742D-03 0.437D-02
 Coeff-Com: -0.283D-04-0.150D-01-0.495D-01-0.235D-01 0.269D+00 0.814D+00
 Coeff:     -0.982D-05 0.625D-05-0.108D-03-0.252D-04 0.742D-03 0.437D-02
 Coeff:     -0.283D-04-0.150D-01-0.495D-01-0.235D-01 0.269D+00 0.814D+00
 Gap=     0.197 Goal=   None    Shift=    0.000
 RMSDP=5.59D-09 MaxDP=2.89D-07 DE=-2.05D-12 OVMax= 4.79D-07

 Error on total polarization charges =  0.00843
 SCF Done:  E(RM062X) =  -633.341695024     A.U. after   12 cycles
            NFock= 12  Conv=0.56D-08     -V/T= 2.0050
 KE= 6.302030987009D+02 PE=-3.269066681937D+03 EE= 1.108437688371D+03
 Leave Link  502 at Mon Mar  9 19:06:52 2026, MaxMem=  2147483648 cpu:             883.7 elap:              28.4
 (Enter /data/home/wyx/g16/l601.exe)
 Copying SCF densities to generalized density rwf, IOpCl= 0 IROHF=0.

 **********************************************************************

            Population analysis using the SCF density.

 **********************************************************************

 Alpha  occ. eigenvalues --  -19.61194 -19.60229 -14.80862 -10.62973 -10.62409
 Alpha  occ. eigenvalues --  -10.62392 -10.61834 -10.55312 -10.54917 -10.54356
 Alpha  occ. eigenvalues --  -10.54253 -10.53793 -10.53590 -10.53066  -1.15570
 Alpha  occ. eigenvalues --   -1.14882  -1.11112  -0.92883  -0.92110  -0.85345
 Alpha  occ. eigenvalues --   -0.83835  -0.82986  -0.79454  -0.74375  -0.72927
 Alpha  occ. eigenvalues --   -0.69490  -0.61893  -0.58621  -0.57474  -0.55206
 Alpha  occ. eigenvalues --   -0.54355  -0.54298  -0.52600  -0.51721  -0.50919
 Alpha  occ. eigenvalues --   -0.50335  -0.49667  -0.49199  -0.48443  -0.47784
 Alpha  occ. eigenvalues --   -0.46920  -0.45149  -0.44923  -0.43891  -0.43045
 Alpha  occ. eigenvalues --   -0.42341  -0.41837  -0.41463  -0.33404  -0.32237
 Alpha  occ. eigenvalues --   -0.31792  -0.24340
 Alpha virt. eigenvalues --   -0.04656   0.01526   0.05809   0.07649   0.07974
 Alpha virt. eigenvalues --    0.08858   0.10095   0.10645   0.11814   0.12727
 Alpha virt. eigenvalues --    0.13083   0.14306   0.14791   0.15514   0.16057
 Alpha virt. eigenvalues --    0.16562   0.16973   0.17080   0.17586   0.18293
 Alpha virt. eigenvalues --    0.18959   0.20820   0.21789   0.22222   0.22730
 Alpha virt. eigenvalues --    0.23404   0.23542   0.24602   0.25301   0.25547
 Alpha virt. eigenvalues --    0.26295   0.26945   0.27370   0.28310   0.28953
 Alpha virt. eigenvalues --    0.30354   0.30598   0.30956   0.31917   0.32826
 Alpha virt. eigenvalues --    0.33669   0.34310   0.35108   0.36028   0.36923
 Alpha virt. eigenvalues --    0.38166   0.39272   0.39726   0.40351   0.40985
 Alpha virt. eigenvalues --    0.42366   0.43310   0.44218   0.44606   0.44923
 Alpha virt. eigenvalues --    0.45906   0.46102   0.46464   0.47020   0.47717
 Alpha virt. eigenvalues --    0.48266   0.49203   0.49589   0.49894   0.50253
 Alpha virt. eigenvalues --    0.50771   0.51371   0.51775   0.52168   0.52965
 Alpha virt. eigenvalues --    0.53076   0.53935   0.54519   0.55316   0.56712
 Alpha virt. eigenvalues --    0.57090   0.58497   0.59172   0.60167   0.61607
 Alpha virt. eigenvalues --    0.62600   0.63550   0.64613   0.65171   0.65484
 Alpha virt. eigenvalues --    0.66844   0.67527   0.68908   0.69427   0.70200
 Alpha virt. eigenvalues --    0.71443   0.72520   0.73541   0.73897   0.74908
 Alpha virt. eigenvalues --    0.77048   0.78211   0.81139   0.84518   0.85295
 Alpha virt. eigenvalues --    0.89491   0.93906   1.00311   1.02473   1.20929
 Alpha virt. eigenvalues --    1.23722   1.26075   1.27052   1.27524   1.29088
 Alpha virt. eigenvalues --    1.30448   1.31892   1.33490   1.34356   1.35399
 Alpha virt. eigenvalues --    1.35714   1.36737   1.37087   1.38018   1.38574
 Alpha virt. eigenvalues --    1.38668   1.39213   1.39614   1.40219   1.40871
 Alpha virt. eigenvalues --    1.41424   1.42529   1.43029   1.43896   1.45721
 Alpha virt. eigenvalues --    1.46809   1.47808   1.48017   1.48905   1.49606
 Alpha virt. eigenvalues --    1.50120   1.51031   1.52112   1.53646   1.56495
 Alpha virt. eigenvalues --    1.57729   1.58108   1.58603   1.59822   1.60141
 Alpha virt. eigenvalues --    1.60777   1.61187   1.61505   1.62082   1.63488
 Alpha virt. eigenvalues --    1.63795   1.64718   1.65172   1.65569   1.66336
 Alpha virt. eigenvalues --    1.66954   1.67538   1.67853   1.68475   1.69913
 Alpha virt. eigenvalues --    1.71861   1.72320   1.73135   1.74058   1.75830
 Alpha virt. eigenvalues --    1.78742   1.80734   1.81601   1.83066   1.83770
 Alpha virt. eigenvalues --    1.83796   1.84837   1.85928   1.86347   1.87368
 Alpha virt. eigenvalues --    1.88456   1.91267   1.91672   1.96277   1.97244
 Alpha virt. eigenvalues --    1.98818   2.00701   2.02760   2.03934   2.06602
 Alpha virt. eigenvalues --    2.07325   2.08570   2.12686   2.14365   2.16266
 Alpha virt. eigenvalues --    2.16728   2.17550   2.18340   2.19051   2.22121
 Alpha virt. eigenvalues --    2.22921   2.23711   2.24933   2.26932   2.27218
 Alpha virt. eigenvalues --    2.29950   2.30853   2.32495   2.33036   2.34267
 Alpha virt. eigenvalues --    2.35027   2.36207   2.37129   2.38215   2.41033
 Alpha virt. eigenvalues --    2.41494   2.43124   2.44264   2.45229   2.46963
 Alpha virt. eigenvalues --    2.48225   2.49637   2.50443   2.51523   2.53364
 Alpha virt. eigenvalues --    2.54467   2.55995   2.56958   2.57425   2.58453
 Alpha virt. eigenvalues --    2.60882   2.61472   2.62415   2.63645   2.64436
 Alpha virt. eigenvalues --    2.67228   2.67842   2.70396   2.70918   2.71071
 Alpha virt. eigenvalues --    2.72619   2.72978   2.73625   2.75360   2.76756
 Alpha virt. eigenvalues --    2.78075   2.79270   2.80540   2.81286   2.81549
 Alpha virt. eigenvalues --    2.82083   2.82885   2.84837   2.86482   2.89842
 Alpha virt. eigenvalues --    2.94716   2.95381   2.96860   3.03018   3.05633
 Alpha virt. eigenvalues --    3.07390   3.08507   3.11820   3.13322   3.15229
 Alpha virt. eigenvalues --    3.16446   3.16950   3.19781   3.22444   3.23189
 Alpha virt. eigenvalues --    3.23787   3.24034   3.25447   3.28415   3.30183
 Alpha virt. eigenvalues --    3.31912   3.32399   3.32873   3.33225   3.34650
 Alpha virt. eigenvalues --    3.35980   3.36799   3.38032   3.40733   3.41469
 Alpha virt. eigenvalues --    3.42709   3.43551   3.48370   3.52716   3.54283
 Alpha virt. eigenvalues --    3.55327   3.82997   3.93606   4.28297   4.31514
 Alpha virt. eigenvalues --   21.75952  21.87605  22.13848  22.16668  22.17868
 Alpha virt. eigenvalues --   22.20941  22.20965  22.23120  22.24661  22.30508
 Alpha virt. eigenvalues --   22.32417  32.00513  43.76005  43.78717
          Condensed to atoms (all electrons):
               1          2          3          4          5          6
     1  O    8.050984   0.000000  -0.000143   0.000018   0.015981   0.005397
     2  O    0.000000   8.103809   0.000509   0.000012  -0.181431   0.001364
     3  N   -0.000143   0.000509   6.420900   0.371135  -0.111231   0.313917
     4  H    0.000018   0.000012   0.371135   0.386029   0.016614  -0.048773
     5  C    0.015981  -0.181431  -0.111231   0.016614   7.117005  -0.091760
     6  C    0.005397   0.001364   0.313917  -0.048773  -0.091760   5.520868
     7  C    0.000026  -0.039785   0.379100  -0.039152   0.420144  -0.119498
     8  C   -0.000742   0.620146   0.005272  -0.000660  -0.286384   0.032358
     9  C    0.001101   0.026225   0.014000  -0.000598  -0.704894   0.015720
    10  H    0.006451   0.000139   0.003771   0.000047  -0.071141  -0.022630
    11  H    0.005264   0.000020  -0.001131   0.000017  -0.099438   0.028023
    12  C   -0.208251  -0.003103  -0.080729   0.014828   0.240155  -0.064005
    13  C    0.629837  -0.000006   0.001252   0.000539   0.059808   0.112997
    14  C   -0.000006  -0.009997  -0.030557  -0.010787  -0.094543   0.009290
    15  H   -0.000000   0.003489   0.006552   0.001286   0.022764   0.005463
    16  H   -0.000000   0.001509  -0.001683   0.000799  -0.011581  -0.000965
    17  H    0.000000   0.000540  -0.000463   0.000675  -0.006199  -0.001520
    18  C    0.000313  -0.097722  -0.000588   0.000020  -0.237823   0.000592
    19  H    0.000001   0.005858   0.000009  -0.000001   0.025490   0.000020
    20  H    0.000002   0.000599   0.000011  -0.000001   0.000211   0.000140
    21  H    0.000131   0.003896   0.000108   0.000001   0.029713  -0.001150
    22  C   -0.099180  -0.000000   0.000019   0.000126   0.002236  -0.018692
    23  H    0.005106  -0.000000   0.000257  -0.000060  -0.000766  -0.025130
    24  H    0.001199   0.000000   0.000001  -0.000008   0.000032   0.008083
    25  H    0.003675   0.000000   0.000018  -0.000002  -0.000066  -0.000775
    26  C    0.000538   0.000012  -0.023766  -0.006412   0.001597   0.158049
    27  H   -0.000270  -0.000000   0.001149   0.000612   0.000078  -0.057632
    28  H   -0.000063  -0.000000  -0.001939   0.000358   0.000311  -0.031616
    29  H    0.000021  -0.000000   0.002083   0.001037  -0.000118  -0.041546
               7          8          9         10         11         12
     1  O    0.000026  -0.000742   0.001101   0.006451   0.005264  -0.208251
     2  O   -0.039785   0.620146   0.026225   0.000139   0.000020  -0.003103
     3  N    0.379100   0.005272   0.014000   0.003771  -0.001131  -0.080729
     4  H   -0.039152  -0.000660  -0.000598   0.000047   0.000017   0.014828
     5  C    0.420144  -0.286384  -0.704894  -0.071141  -0.099438   0.240155
     6  C   -0.119498   0.032358   0.015720  -0.022630   0.028023  -0.064005
     7  C    5.344605  -0.181033  -0.157630  -0.007106   0.012560   0.006414
     8  C   -0.181033   5.355128   0.163141  -0.001156  -0.009645  -0.048387
     9  C   -0.157630   0.163141   6.497046   0.447784   0.518615  -0.273798
    10  H   -0.007106  -0.001156   0.447784   0.540116  -0.053994  -0.012491
    11  H    0.012560  -0.009645   0.518615  -0.053994   0.519637  -0.108267
    12  C    0.006414  -0.048387  -0.273798  -0.012491  -0.108267   7.398140
    13  C    0.022154  -0.008852  -0.182328  -0.012189  -0.000114  -0.480690
    14  C    0.270952  -0.031423   0.005557  -0.000653   0.000345   0.002046
    15  H   -0.078076   0.003767   0.000447   0.000034  -0.000002  -0.001254
    16  H   -0.021501  -0.001250   0.000871  -0.000066   0.000074   0.000049
    17  H   -0.033279  -0.006632  -0.000590   0.000190  -0.000065   0.000430
    18  C    0.001062   0.327512   0.006746  -0.016533   0.010808  -0.003451
    19  H   -0.000309  -0.052791  -0.002237   0.000157   0.000652  -0.000183
    20  H   -0.000520  -0.029487  -0.013356   0.001101  -0.002058  -0.002468
    21  H    0.003073  -0.061299   0.002111   0.001145  -0.009222   0.008237
    22  C    0.000217  -0.000065   0.008026   0.003775  -0.002762  -0.199845
    23  H    0.000053   0.000013   0.003276  -0.000246   0.000215   0.060260
    24  H   -0.000006  -0.000000  -0.002167   0.000192  -0.000116  -0.016949
    25  H    0.000002   0.000002  -0.000103  -0.000093   0.000033   0.017936
    26  C   -0.000116   0.000867   0.027744  -0.000741   0.000251  -0.096768
    27  H   -0.000656   0.000001   0.000388  -0.000092   0.000002  -0.009185
    28  H   -0.000672  -0.000013  -0.000993  -0.000003   0.000034  -0.019304
    29  H    0.002335  -0.000005  -0.000783   0.000073  -0.000013   0.024254
              13         14         15         16         17         18
     1  O    0.629837  -0.000006  -0.000000  -0.000000   0.000000   0.000313
     2  O   -0.000006  -0.009997   0.003489   0.001509   0.000540  -0.097722
     3  N    0.001252  -0.030557   0.006552  -0.001683  -0.000463  -0.000588
     4  H    0.000539  -0.010787   0.001286   0.000799   0.000675   0.000020
     5  C    0.059808  -0.094543   0.022764  -0.011581  -0.006199  -0.237823
     6  C    0.112997   0.009290   0.005463  -0.000965  -0.001520   0.000592
     7  C    0.022154   0.270952  -0.078076  -0.021501  -0.033279   0.001062
     8  C   -0.008852  -0.031423   0.003767  -0.001250  -0.006632   0.327512
     9  C   -0.182328   0.005557   0.000447   0.000871  -0.000590   0.006746
    10  H   -0.012189  -0.000653   0.000034  -0.000066   0.000190  -0.016533
    11  H   -0.000114   0.000345  -0.000002   0.000074  -0.000065   0.010808
    12  C   -0.480690   0.002046  -0.001254   0.000049   0.000430  -0.003451
    13  C    5.623031   0.000232  -0.000032  -0.000005  -0.000001   0.001251
    14  C    0.000232   5.114853   0.390090   0.409996   0.422553   0.000406
    15  H   -0.000032   0.390090   0.547984  -0.022676  -0.024469   0.000146
    16  H   -0.000005   0.409996  -0.022676   0.494471  -0.030362  -0.000078
    17  H   -0.000001   0.422553  -0.024469  -0.030362   0.498214  -0.000102
    18  C    0.001251   0.000406   0.000146  -0.000078  -0.000102   5.345406
    19  H   -0.000015   0.000059  -0.000002  -0.000030   0.000038   0.394494
    20  H   -0.000134  -0.000190  -0.000003   0.000000   0.000008   0.412651
    21  H    0.000799   0.000116  -0.000011   0.000006  -0.000020   0.376948
    22  C    0.234239  -0.000007   0.000001  -0.000000   0.000000   0.000005
    23  H   -0.104060   0.000005   0.000000   0.000000  -0.000000   0.000001
    24  H   -0.022981  -0.000001   0.000000   0.000000  -0.000000  -0.000001
    25  H   -0.027898   0.000000   0.000000  -0.000000   0.000000  -0.000000
    26  C   -0.061941   0.000224   0.000395  -0.000046  -0.000011   0.000011
    27  H   -0.001217   0.000044  -0.000007   0.000001  -0.000002   0.000000
    28  H    0.008326  -0.000083  -0.000009  -0.000005   0.000004  -0.000000
    29  H   -0.001729  -0.000098   0.000098  -0.000001   0.000001  -0.000000
              19         20         21         22         23         24
     1  O    0.000001   0.000002   0.000131  -0.099180   0.005106   0.001199
     2  O    0.005858   0.000599   0.003896  -0.000000  -0.000000   0.000000
     3  N    0.000009   0.000011   0.000108   0.000019   0.000257   0.000001
     4  H   -0.000001  -0.000001   0.000001   0.000126  -0.000060  -0.000008
     5  C    0.025490   0.000211   0.029713   0.002236  -0.000766   0.000032
     6  C    0.000020   0.000140  -0.001150  -0.018692  -0.025130   0.008083
     7  C   -0.000309  -0.000520   0.003073   0.000217   0.000053  -0.000006
     8  C   -0.052791  -0.029487  -0.061299  -0.000065   0.000013  -0.000000
     9  C   -0.002237  -0.013356   0.002111   0.008026   0.003276  -0.002167
    10  H    0.000157   0.001101   0.001145   0.003775  -0.000246   0.000192
    11  H    0.000652  -0.002058  -0.009222  -0.002762   0.000215  -0.000116
    12  C   -0.000183  -0.002468   0.008237  -0.199845   0.060260  -0.016949
    13  C   -0.000015  -0.000134   0.000799   0.234239  -0.104060  -0.022981
    14  C    0.000059  -0.000190   0.000116  -0.000007   0.000005  -0.000001
    15  H   -0.000002  -0.000003  -0.000011   0.000001   0.000000   0.000000
    16  H   -0.000030   0.000000   0.000006  -0.000000   0.000000   0.000000
    17  H    0.000038   0.000008  -0.000020   0.000000  -0.000000  -0.000000
    18  C    0.394494   0.412651   0.376948   0.000005   0.000001  -0.000001
    19  H    0.499224  -0.009758  -0.024445  -0.000000   0.000000   0.000000
    20  H   -0.009758   0.464237  -0.022793  -0.000009   0.000000   0.000000
    21  H   -0.024445  -0.022793   0.522003   0.000038  -0.000001  -0.000000
    22  C   -0.000000  -0.000009   0.000038   5.479306   0.403837   0.408898
    23  H    0.000000   0.000000  -0.000001   0.403837   0.529603  -0.026155
    24  H    0.000000   0.000000  -0.000000   0.408898  -0.026155   0.466881
    25  H   -0.000000   0.000000  -0.000001   0.378942  -0.022177  -0.008413
    26  C    0.000000   0.000002  -0.000017  -0.030994   0.017581  -0.011491
    27  H   -0.000000   0.000000  -0.000000   0.004913  -0.008967  -0.001504
    28  H    0.000000  -0.000000   0.000000  -0.013348  -0.003234   0.001072
    29  H    0.000000  -0.000000   0.000000   0.001783   0.000695   0.000152
              25         26         27         28         29
     1  O    0.003675   0.000538  -0.000270  -0.000063   0.000021
     2  O    0.000000   0.000012  -0.000000  -0.000000  -0.000000
     3  N    0.000018  -0.023766   0.001149  -0.001939   0.002083
     4  H   -0.000002  -0.006412   0.000612   0.000358   0.001037
     5  C   -0.000066   0.001597   0.000078   0.000311  -0.000118
     6  C   -0.000775   0.158049  -0.057632  -0.031616  -0.041546
     7  C    0.000002  -0.000116  -0.000656  -0.000672   0.002335
     8  C    0.000002   0.000867   0.000001  -0.000013  -0.000005
     9  C   -0.000103   0.027744   0.000388  -0.000993  -0.000783
    10  H   -0.000093  -0.000741  -0.000092  -0.000003   0.000073
    11  H    0.000033   0.000251   0.000002   0.000034  -0.000013
    12  C    0.017936  -0.096768  -0.009185  -0.019304   0.024254
    13  C   -0.027898  -0.061941  -0.001217   0.008326  -0.001729
    14  C    0.000000   0.000224   0.000044  -0.000083  -0.000098
    15  H    0.000000   0.000395  -0.000007  -0.000009   0.000098
    16  H   -0.000000  -0.000046   0.000001  -0.000005  -0.000001
    17  H    0.000000  -0.000011  -0.000002   0.000004   0.000001
    18  C   -0.000000   0.000011   0.000000  -0.000000  -0.000000
    19  H   -0.000000   0.000000  -0.000000   0.000000   0.000000
    20  H    0.000000   0.000002   0.000000  -0.000000  -0.000000
    21  H   -0.000001  -0.000017  -0.000000   0.000000   0.000000
    22  C    0.378942  -0.030994   0.004913  -0.013348   0.001783
    23  H   -0.022177   0.017581  -0.008967  -0.003234   0.000695
    24  H   -0.008413  -0.011491  -0.001504   0.001072   0.000152
    25  H    0.483479   0.001933   0.000687   0.000139  -0.000027
    26  C    0.001933   5.346405   0.436687   0.424726   0.381918
    27  H    0.000687   0.436687   0.496782  -0.028606  -0.023022
    28  H    0.000139   0.424726  -0.028606   0.460455  -0.013775
    29  H   -0.000027   0.381918  -0.023022  -0.013775   0.494926
 Mulliken charges:
               1
     1  O   -0.417389
     2  O   -0.436085
     3  N   -0.267833
     4  H    0.312302
     5  C   -0.054764
     6  C    0.313411
     7  C    0.216642
     8  C    0.211618
     9  C   -0.399321
    10  H    0.194160
    11  H    0.190277
    12  C   -0.143620
    13  C    0.209728
    14  C   -0.448424
    15  H    0.144025
    16  H    0.182474
    17  H    0.181061
    18  C   -0.522072
    19  H    0.163768
    20  H    0.201816
    21  H    0.170636
    22  C   -0.561459
    23  H    0.169895
    24  H    0.203284
    25  H    0.172709
    26  C   -0.566636
    27  H    0.189815
    28  H    0.218239
    29  H    0.171743
 Sum of Mulliken charges =  -0.00000
 Mulliken charges with hydrogens summed into heavy atoms:
               1
     1  O   -0.417389
     2  O   -0.436085
     3  N    0.044469
     5  C   -0.054764
     6  C    0.313411
     7  C    0.216642
     8  C    0.211618
     9  C   -0.014884
    12  C   -0.143620
    13  C    0.209728
    14  C    0.059136
    18  C    0.014148
    22  C   -0.015571
    26  C    0.013161
 Electronic spatial extent (au):  <R**2>=          50691.6770
 Charge=             -0.0000 electrons
 Dipole moment (field-independent basis, Debye):
    X=              1.2710    Y=              9.1299    Z=             -0.2317  Tot=              9.2209
 Quadrupole moment (field-independent basis, Debye-Ang):
   XX=           -106.3856   YY=            133.7366   ZZ=            -87.9056
   XY=              2.5732   XZ=             -7.4308   YZ=              2.2512
 Traceless Quadrupole moment (field-independent basis, Debye-Ang):
   XX=            -86.2007   YY=            153.9214   ZZ=            -67.7207
   XY=              2.5732   XZ=             -7.4308   YZ=              2.2512
 Octapole moment (field-independent basis, Debye-Ang**2):
  XXX=            533.9161  YYY=           1097.5401  ZZZ=           -103.9202  XYY=             -2.7027
  XXY=          -1099.9678  XXZ=            -10.5198  XZZ=            130.1735  YZZ=           -977.5504
  YYZ=             48.1037  XYZ=            -66.3190
 Hexadecapole moment (field-independent basis, Debye-Ang**3):
 XXXX=          -4553.7405 YYYY=          -1525.2209 ZZZZ=           -317.2469 XXXY=           5336.8590
 XXXZ=           -214.6091 YYYX=            459.1995 YYYZ=            440.2811 ZZZX=            -81.4196
 ZZZY=          -1185.0505 XXYY=         -12147.0426 XXZZ=           -688.9704 YYZZ=         -11177.0486
 XXYZ=           -165.4356 YYXZ=           -609.2247 ZZXY=           1393.1206
 N-N= 8.970841998410D+02 E-N=-3.269066682425D+03  KE= 6.302030987009D+02
 No NMR shielding tensors so no spin-rotation constants.
 Leave Link  601 at Mon Mar  9 19:06:53 2026, MaxMem=  2147483648 cpu:               3.5 elap:               0.1
 (Enter /data/home/wyx/g16/l9999.exe)
 1\1\GINC-CN015\SP\RM062X\TZVP\C11H15N1O2\WYX\09-Mar-2026\0\\#p M062X/T
 ZVP em=gd3 SCRF=(Solvent=Water,NonEquilibrium=Read) Geom=Check Guess=R
 ead NoSymm\\Title Card Required\\0,1\O,0,1.2682267808,9.843376622,1.31
 33338202\O,0,-4.778500079,9.7332697815,-0.4550475916\N,0,-2.1179132315
 ,12.9177164978,0.27283834\H,0,-2.4245934795,13.8823125853,0.1975088184
 \C,0,-2.7009255482,10.6315228047,0.2100416155\C,0,-0.7989997832,12.743
 3533076,0.5683427647\C,0,-3.0770921472,11.9857421502,0.073677624\C,0,-
 3.6224808473,9.5427478339,-0.0520667359\C,0,-1.3221036104,10.319125608
 9,0.6357389827\H,0,-1.3516969048,9.8682549621,1.6506959964\H,0,-0.9082
 760248,9.4880591737,0.0479393681\C,0,-0.3380949615,11.420615377,0.6922
 600437\C,0,1.0328419609,10.9987155761,0.9266666788\C,0,-4.4425558924,1
 2.504913031,-0.2445837959\H,0,-4.4549811266,13.5940993907,-0.193284513
 8\H,0,-4.7574649188,12.1954413863,-1.2405168973\H,0,-5.177659798,12.10
 90314921,0.4548019701\C,0,-3.1372903507,8.1190044198,0.136577108\H,0,-
 4.0068113497,7.46899726,0.2036313064\H,0,-2.543231669,7.8097258155,-0.
 7279218197\H,0,-2.5208260835,7.9896955557,1.0251221314\C,0,2.203913884
 9,11.9180814804,0.6571168271\H,0,2.005732484,12.6441863097,-0.12731710
 47\H,0,2.4840422829,12.4569844776,1.5656553521\H,0,3.0488959845,11.295
 4951814,0.366953447\C,0,-0.0210454295,14.0054018395,0.7758548664\H,0,0
 .6854168684,13.8947920185,1.5958453952\H,0,0.5384706558,14.2993917623,
 -0.1151534417\H,0,-0.6941686967,14.8257807485,1.0272894444\\Version=ES
 64L-G16RevA.03\HF=-633.341695\RMSD=5.594e-09\Dipole=0.5000447,3.591981
 1,-0.0911459\Quadrupole=-64.088126,114.4368086,-50.3486826,1.9130968,-
 5.5246011,1.6737465\PG=C01 [X(C11H15N1O2)]\\@


 THE TEST OF A FIRST RATE INTELLIGENCE IS THE ABILITY TO HOLD TWO OPPOSED
 IDEAS IN THE MIND AT THE SAME TIME, AND STILL RETAIN THE ABILITY TO FUNCTION.
 ONE SHOULD, FOR EXAMPLE, BE ABLE TO SEE THAT THINGS ARE HOPELESS AND YET BE
 DETERMINED TO MAKE THEM OTHERWISE.

                                                       -- F. SCOTT FITZGERALD
 Job cpu time:       0 days  0 hours 15 minutes  9.0 seconds.
 Elapsed time:       0 days  0 hours  0 minutes 29.4 seconds.
 File lengths (MBytes):  RWF=    339 Int=      0 D2E=      0 Chk=     67 Scr=      1
 Normal termination of Gaussian 16 at Mon Mar  9 19:06:53 2026.
