 Entering Gaussian System, Link 0=g16
 Input=DDL-S1-opt-freq.gjf
 Output=DDL-S1-opt-freq.log
 Initial command:
 /data/home/wyx/g16/l1.exe "/scr/tmp/wyx/13952/Gau-2518885.inp" -scrdir="/scr/tmp/wyx/13952/"
 Entering Link 1 = /data/home/wyx/g16/l1.exe PID=   2518886.
  
 Copyright (c) 1988,1990,1992,1993,1995,1998,2003,2009,2016,
            Gaussian, Inc.  All Rights Reserved.
  
 This is part of the Gaussian(R) 16 program.  It is based on
 the Gaussian(R) 09 system (copyright 2009, Gaussian, Inc.),
 the Gaussian(R) 03 system (copyright 2003, Gaussian, Inc.),
 the Gaussian(R) 98 system (copyright 1998, Gaussian, Inc.),
 the Gaussian(R) 94 system (copyright 1995, Gaussian, Inc.),
 the Gaussian 92(TM) system (copyright 1992, Gaussian, Inc.),
 the Gaussian 90(TM) system (copyright 1990, Gaussian, Inc.),
 the Gaussian 88(TM) system (copyright 1988, Gaussian, Inc.),
 the Gaussian 86(TM) system (copyright 1986, Carnegie Mellon
 University), and the Gaussian 82(TM) system (copyright 1983,
 Carnegie Mellon University). Gaussian is a federally registered
 trademark of Gaussian, Inc.
  
 This software contains proprietary and confidential information,
 including trade secrets, belonging to Gaussian, Inc.
  
 This software is provided under written license and may be
 used, copied, transmitted, or stored only in accord with that
 written license.
  
 The following legend is applicable only to US Government
 contracts under FAR:
  
                    RESTRICTED RIGHTS LEGEND
  
 Use, reproduction and disclosure by the US Government is
 subject to restrictions as set forth in subparagraphs (a)
 and (c) of the Commercial Computer Software - Restricted
 Rights clause in FAR 52.227-19.
  
 Gaussian, Inc.
 340 Quinnipiac St., Bldg. 40, Wallingford CT 06492
  
  
 ---------------------------------------------------------------
 Warning -- This program may not be used in any manner that
 competes with the business of Gaussian, Inc. or will provide
 assistance to any competitor of Gaussian, Inc.  The licensee
 of this program is prohibited from giving any competitor of
 Gaussian, Inc. access to this program.  By using this program,
 the user acknowledges that Gaussian, Inc. is engaged in the
 business of creating and licensing software in the field of
 computational chemistry and represents and warrants to the
 licensee that it is not a competitor of Gaussian, Inc. and that
 it will not use this program in any manner prohibited above.
 ---------------------------------------------------------------
  

 Cite this work as:
 Gaussian 16, Revision A.03,
 M. J. Frisch, G. W. Trucks, H. B. Schlegel, G. E. Scuseria, 
 M. A. Robb, J. R. Cheeseman, G. Scalmani, V. Barone, 
 G. A. Petersson, H. Nakatsuji, X. Li, M. Caricato, A. V. Marenich, 
 J. Bloino, B. G. Janesko, R. Gomperts, B. Mennucci, H. P. Hratchian, 
 J. V. Ortiz, A. F. Izmaylov, J. L. Sonnenberg, D. Williams-Young, 
 F. Ding, F. Lipparini, F. Egidi, J. Goings, B. Peng, A. Petrone, 
 T. Henderson, D. Ranasinghe, V. G. Zakrzewski, J. Gao, N. Rega, 
 G. Zheng, W. Liang, M. Hada, M. Ehara, K. Toyota, R. Fukuda, 
 J. Hasegawa, M. Ishida, T. Nakajima, Y. Honda, O. Kitao, H. Nakai, 
 T. Vreven, K. Throssell, J. A. Montgomery, Jr., J. E. Peralta, 
 F. Ogliaro, M. J. Bearpark, J. J. Heyd, E. N. Brothers, K. N. Kudin, 
 V. N. Staroverov, T. A. Keith, R. Kobayashi, J. Normand, 
 K. Raghavachari, A. P. Rendell, J. C. Burant, S. S. Iyengar, 
 J. Tomasi, M. Cossi, J. M. Millam, M. Klene, C. Adamo, R. Cammi, 
 J. W. Ochterski, R. L. Martin, K. Morokuma, O. Farkas, 
 J. B. Foresman, and D. J. Fox, Gaussian, Inc., Wallingford CT, 2016.
 
 ******************************************
 Gaussian 16:  ES64L-G16RevA.03 25-Dec-2016
                 9-Mar-2026 
 ******************************************
 %nprocshared=32
 Will use up to   32 processors via shared memory.
 %mem=16GB
 %oldchk=DDL-S0-TD.chk
 %chk=DDL-S1-opt-freq.chk
 Copying data from "DDL-S0-TD.chk" to current chk file "DDL-S1-opt-freq.chk"
 IOpt=  2 FromEx=T IUOpen= 4 IOptOp= 5 NList=   0 IFRang= 0 IUIn= 4 IUOut= 2.
 ----------------------------------------------------------------------
 #p M062X/TZVP em=gd3 TD=(NStates=6,Root=1) SCRF=Solvent=Water Geom=Che
 ck Guess=Read Opt Freq NoSymm
 ----------------------------------------------------------------------
 1/18=20,19=15,26=3,29=2,38=1/1,3;
 2/9=110,12=2,15=1,40=1/2;
 3/5=19,7=101,11=9,14=-4,25=1,30=1,70=2201,71=1,72=1,74=-55,116=-2,124=31/1,2,3,8;
 4/5=1/1;
 5/5=2,38=6,53=1/2;
 8/6=1,10=1,107=1,108=6/1;
 9/8=1,15=2,41=6,42=1,70=2/14;
 10/5=4,28=1,31=1/2;
 6/7=2,8=2,9=2,10=2/1;
 7/12=6,13=5,14=1,30=1/1,2,3,16;
 1/18=20,19=15,26=3/3(2);
 2/9=110,15=1/2;
 99//99;
 2/9=110,15=1/2;
 3/5=19,7=101,11=9,14=-2,25=1,30=1,70=2205,71=1,72=1,74=-55,124=31/1,2,3,8;
 4/5=5,16=3,69=1/1;
 5/5=2,38=5,53=1/2;
 8/6=1,10=1,107=1,108=6/1;
 9/8=1,15=2,41=6,42=1,49=4,70=2/14;
 10/5=4,28=1,31=1/2;
 7/12=6,13=5,14=1,30=1/1,2,3,16;
 1/18=20,19=15,26=3/3(-8);
 2/9=110,15=1/2;
 6/7=2,8=2,9=2,10=2/1;
 99//99;
 Leave Link    1 at Mon Mar  9 16:19:01 2026, MaxMem=  2147483648 cpu:               1.6 elap:               0.1
 (Enter /data/home/wyx/g16/l101.exe)
 -------------------
 Title Card Required
 -------------------
 Structure from the checkpoint file:  "DDL-S1-opt-freq.chk"
 Charge =  0 Multiplicity = 1
 Redundant internal coordinates found in file.  (old form).
 O,0,1.3050219639,9.8473456318,1.1528070319
 O,0,-4.6923409795,9.7678976593,-0.7021515782
 N,0,-2.1563501074,12.9183177664,0.5139062475
 H,0,-2.4603325288,13.8779050154,0.4460675259
 C,0,-2.6944301893,10.6410373966,0.2371240778
 C,0,-0.802170023,12.6964836765,0.6749587575
 C,0,-3.0646207654,11.9429069037,0.1598246879
 C,0,-3.6134455236,9.5672381589,-0.1570432302
 C,0,-1.3468136189,10.2776737449,0.8243593131
 H,0,-1.4544799532,9.9462017652,1.86612169
 H,0,-0.9186428513,9.4255049293,0.2967116016
 C,0,-0.3542037499,11.4202398297,0.7519880052
 C,0,1.0520745188,11.0094247674,0.8560987761
 C,0,-4.3941197561,12.4757067887,-0.2822870593
 H,0,-4.4684934387,13.5398422843,-0.0602179452
 H,0,-4.5231292684,12.3292572185,-1.3546020827
 H,0,-5.2064709683,11.9444620438,0.2072894117
 C,0,-3.1779328826,8.1486330051,0.1328238056
 H,0,-4.0156902256,7.4776487625,-0.0388152123
 H,0,-2.35573869,7.870648952,-0.5310155217
 H,0,-2.8158543237,8.043673437,1.1564986443
 C,0,2.206818663,11.9418766241,0.5642756923
 H,0,1.9921811969,12.6443600061,-0.2372433399
 H,0,2.467111917,12.508237675,1.4607199634
 H,0,3.0641668957,11.3282895942,0.2958142543
 C,0,-0.0160804012,13.9751375625,0.7416928935
 H,0,0.836497633,13.9016414287,1.4065358025
 H,0,0.3355482593,14.2627217798,-0.2509147497
 H,0,-0.6572518325,14.7755200426,1.1106725371
 Recover connectivity data from disk.
 ITRead=  0  0  0  0  0  0  0  0  0  0  0  0  0  0  0  0  0  0  0  0
 ITRead=  0  0  0  0  0  0  0  0  0
 MicOpt= -1 -1 -1 -1 -1 -1 -1 -1 -1 -1 -1 -1 -1 -1 -1 -1 -1 -1 -1 -1
 MicOpt= -1 -1 -1 -1 -1 -1 -1 -1 -1
 NAtoms=     29 NQM=       29 NQMF=       0 NMMI=      0 NMMIF=      0
                NMic=       0 NMicF=      0.
                    Isotopes and Nuclear Properties:
 (Nuclear quadrupole moments (NQMom) in fm**2, nuclear magnetic moments (NMagM)
  in nuclear magnetons)

  Atom         1           2           3           4           5           6           7           8           9          10
 IAtWgt=          16          16          14           1          12          12          12          12          12           1
 AtmWgt=  15.9949146  15.9949146  14.0030740   1.0078250  12.0000000  12.0000000  12.0000000  12.0000000  12.0000000   1.0078250
 NucSpn=           0           0           2           1           0           0           0           0           0           1
 AtZEff=   5.6000000   5.6000000   4.5500000   1.0000000   3.6000000   3.6000000   3.6000000   3.6000000   3.6000000   1.0000000
 NQMom=    0.0000000   0.0000000   2.0440000   0.0000000   0.0000000   0.0000000   0.0000000   0.0000000   0.0000000   0.0000000
 NMagM=    0.0000000   0.0000000   0.4037610   2.7928460   0.0000000   0.0000000   0.0000000   0.0000000   0.0000000   2.7928460
 AtZNuc=   8.0000000   8.0000000   7.0000000   1.0000000   6.0000000   6.0000000   6.0000000   6.0000000   6.0000000   1.0000000

  Atom        11          12          13          14          15          16          17          18          19          20
 IAtWgt=           1          12          12          12           1           1           1          12           1           1
 AtmWgt=   1.0078250  12.0000000  12.0000000  12.0000000   1.0078250   1.0078250   1.0078250  12.0000000   1.0078250   1.0078250
 NucSpn=           1           0           0           0           1           1           1           0           1           1
 AtZEff=   1.0000000   3.6000000   3.6000000   3.6000000   1.0000000   1.0000000   1.0000000   3.6000000   1.0000000   1.0000000
 NQMom=    0.0000000   0.0000000   0.0000000   0.0000000   0.0000000   0.0000000   0.0000000   0.0000000   0.0000000   0.0000000
 NMagM=    2.7928460   0.0000000   0.0000000   0.0000000   2.7928460   2.7928460   2.7928460   0.0000000   2.7928460   2.7928460
 AtZNuc=   1.0000000   6.0000000   6.0000000   6.0000000   1.0000000   1.0000000   1.0000000   6.0000000   1.0000000   1.0000000

  Atom        21          22          23          24          25          26          27          28          29
 IAtWgt=           1          12           1           1           1          12           1           1           1
 AtmWgt=   1.0078250  12.0000000   1.0078250   1.0078250   1.0078250  12.0000000   1.0078250   1.0078250   1.0078250
 NucSpn=           1           0           1           1           1           0           1           1           1
 AtZEff=   1.0000000   3.6000000   1.0000000   1.0000000   1.0000000   3.6000000   1.0000000   1.0000000   1.0000000
 NQMom=    0.0000000   0.0000000   0.0000000   0.0000000   0.0000000   0.0000000   0.0000000   0.0000000   0.0000000
 NMagM=    2.7928460   0.0000000   2.7928460   2.7928460   2.7928460   0.0000000   2.7928460   2.7928460   2.7928460
 AtZNuc=   1.0000000   6.0000000   1.0000000   1.0000000   1.0000000   6.0000000   1.0000000   1.0000000   1.0000000
 Leave Link  101 at Mon Mar  9 16:19:05 2026, MaxMem=  2147483648 cpu:               6.6 elap:               0.2
 (Enter /data/home/wyx/g16/l103.exe)

 GradGradGradGradGradGradGradGradGradGradGradGradGradGradGradGradGradGrad
 Berny optimization.
 Initialization pass.
                           ----------------------------
                           !    Initial Parameters    !
                           ! (Angstroms and Degrees)  !
 --------------------------                            --------------------------
 ! Name  Definition              Value          Derivative Info.                !
 --------------------------------------------------------------------------------
 ! R1    R(1,13)                 1.2257         estimate D2E/DX2                !
 ! R2    R(2,8)                  1.2253         estimate D2E/DX2                !
 ! R3    R(3,4)                  1.0089         estimate D2E/DX2                !
 ! R4    R(3,6)                  1.3816         estimate D2E/DX2                !
 ! R5    R(3,7)                  1.379          estimate D2E/DX2                !
 ! R6    R(5,7)                  1.3557         estimate D2E/DX2                !
 ! R7    R(5,8)                  1.4673         estimate D2E/DX2                !
 ! R8    R(5,9)                  1.5142         estimate D2E/DX2                !
 ! R9    R(6,12)                 1.3548         estimate D2E/DX2                !
 ! R10   R(6,26)                 1.5024         estimate D2E/DX2                !
 ! R11   R(7,14)                 1.499          estimate D2E/DX2                !
 ! R12   R(8,18)                 1.512          estimate D2E/DX2                !
 ! R13   R(9,10)                 1.0985         estimate D2E/DX2                !
 ! R14   R(9,11)                 1.0899         estimate D2E/DX2                !
 ! R15   R(9,12)                 1.5152         estimate D2E/DX2                !
 ! R16   R(12,13)                1.4688         estimate D2E/DX2                !
 ! R17   R(13,22)                1.5126         estimate D2E/DX2                !
 ! R18   R(14,15)                1.0896         estimate D2E/DX2                !
 ! R19   R(14,16)                1.0899         estimate D2E/DX2                !
 ! R20   R(14,17)                1.0871         estimate D2E/DX2                !
 ! R21   R(18,19)                1.087          estimate D2E/DX2                !
 ! R22   R(18,20)                1.0927         estimate D2E/DX2                !
 ! R23   R(18,21)                1.0909         estimate D2E/DX2                !
 ! R24   R(22,23)                1.0872         estimate D2E/DX2                !
 ! R25   R(22,24)                1.0918         estimate D2E/DX2                !
 ! R26   R(22,25)                1.0879         estimate D2E/DX2                !
 ! R27   R(26,27)                1.0837         estimate D2E/DX2                !
 ! R28   R(26,28)                1.0916         estimate D2E/DX2                !
 ! R29   R(26,29)                1.0899         estimate D2E/DX2                !
 ! A1    A(4,3,6)              117.1211         estimate D2E/DX2                !
 ! A2    A(4,3,7)              117.1966         estimate D2E/DX2                !
 ! A3    A(6,3,7)              124.187          estimate D2E/DX2                !
 ! A4    A(7,5,8)              121.0924         estimate D2E/DX2                !
 ! A5    A(7,5,9)              119.7071         estimate D2E/DX2                !
 ! A6    A(8,5,9)              119.0762         estimate D2E/DX2                !
 ! A7    A(3,6,12)             118.8137         estimate D2E/DX2                !
 ! A8    A(3,6,26)             112.4167         estimate D2E/DX2                !
 ! A9    A(12,6,26)            128.7696         estimate D2E/DX2                !
 ! A10   A(3,7,5)              118.9958         estimate D2E/DX2                !
 ! A11   A(3,7,14)             114.1095         estimate D2E/DX2                !
 ! A12   A(5,7,14)             126.8946         estimate D2E/DX2                !
 ! A13   A(2,8,5)              123.4454         estimate D2E/DX2                !
 ! A14   A(2,8,18)             119.5082         estimate D2E/DX2                !
 ! A15   A(5,8,18)             117.0461         estimate D2E/DX2                !
 ! A16   A(5,9,10)             110.6681         estimate D2E/DX2                !
 ! A17   A(5,9,11)             110.4561         estimate D2E/DX2                !
 ! A18   A(5,9,12)             112.5525         estimate D2E/DX2                !
 ! A19   A(10,9,11)            105.17           estimate D2E/DX2                !
 ! A20   A(10,9,12)            109.696          estimate D2E/DX2                !
 ! A21   A(11,9,12)            108.0045         estimate D2E/DX2                !
 ! A22   A(6,12,9)             119.7652         estimate D2E/DX2                !
 ! A23   A(6,12,13)            125.7405         estimate D2E/DX2                !
 ! A24   A(9,12,13)            114.3886         estimate D2E/DX2                !
 ! A25   A(1,13,12)            118.6802         estimate D2E/DX2                !
 ! A26   A(1,13,22)            118.2674         estimate D2E/DX2                !
 ! A27   A(12,13,22)           123.0132         estimate D2E/DX2                !
 ! A28   A(7,14,15)            110.3385         estimate D2E/DX2                !
 ! A29   A(7,14,16)            110.3284         estimate D2E/DX2                !
 ! A30   A(7,14,17)            110.87           estimate D2E/DX2                !
 ! A31   A(15,14,16)           108.8844         estimate D2E/DX2                !
 ! A32   A(15,14,17)           109.5399         estimate D2E/DX2                !
 ! A33   A(16,14,17)           106.7955         estimate D2E/DX2                !
 ! A34   A(8,18,19)            109.0805         estimate D2E/DX2                !
 ! A35   A(8,18,20)            109.8132         estimate D2E/DX2                !
 ! A36   A(8,18,21)            111.4553         estimate D2E/DX2                !
 ! A37   A(19,18,20)           109.0842         estimate D2E/DX2                !
 ! A38   A(19,18,21)           110.1572         estimate D2E/DX2                !
 ! A39   A(20,18,21)           107.21           estimate D2E/DX2                !
 ! A40   A(13,22,23)           112.9439         estimate D2E/DX2                !
 ! A41   A(13,22,24)           110.0814         estimate D2E/DX2                !
 ! A42   A(13,22,25)           107.5498         estimate D2E/DX2                !
 ! A43   A(23,22,24)           108.4934         estimate D2E/DX2                !
 ! A44   A(23,22,25)           109.7598         estimate D2E/DX2                !
 ! A45   A(24,22,25)           107.8956         estimate D2E/DX2                !
 ! A46   A(6,26,27)            112.4061         estimate D2E/DX2                !
 ! A47   A(6,26,28)            110.6313         estimate D2E/DX2                !
 ! A48   A(6,26,29)            109.4038         estimate D2E/DX2                !
 ! A49   A(27,26,28)           108.8028         estimate D2E/DX2                !
 ! A50   A(27,26,29)           107.7549         estimate D2E/DX2                !
 ! A51   A(28,26,29)           107.6904         estimate D2E/DX2                !
 ! D1    D(4,3,6,12)          -179.1304         estimate D2E/DX2                !
 ! D2    D(4,3,6,26)             0.912          estimate D2E/DX2                !
 ! D3    D(7,3,6,12)           -13.5066         estimate D2E/DX2                !
 ! D4    D(7,3,6,26)           166.5359         estimate D2E/DX2                !
 ! D5    D(4,3,7,5)            179.9971         estimate D2E/DX2                !
 ! D6    D(4,3,7,14)             0.0419         estimate D2E/DX2                !
 ! D7    D(6,3,7,5)             14.3832         estimate D2E/DX2                !
 ! D8    D(6,3,7,14)          -165.5721         estimate D2E/DX2                !
 ! D9    D(8,5,7,3)           -178.6022         estimate D2E/DX2                !
 ! D10   D(8,5,7,14)             1.3467         estimate D2E/DX2                !
 ! D11   D(9,5,7,3)              5.489          estimate D2E/DX2                !
 ! D12   D(9,5,7,14)          -174.5621         estimate D2E/DX2                !
 ! D13   D(7,5,8,2)              7.9441         estimate D2E/DX2                !
 ! D14   D(7,5,8,18)          -172.2681         estimate D2E/DX2                !
 ! D15   D(9,5,8,2)           -176.1217         estimate D2E/DX2                !
 ! D16   D(9,5,8,18)             3.6661         estimate D2E/DX2                !
 ! D17   D(7,5,9,10)           100.0749         estimate D2E/DX2                !
 ! D18   D(7,5,9,11)          -143.871          estimate D2E/DX2                !
 ! D19   D(7,5,9,12)           -23.0659         estimate D2E/DX2                !
 ! D20   D(8,5,9,10)           -75.9166         estimate D2E/DX2                !
 ! D21   D(8,5,9,11)            40.1375         estimate D2E/DX2                !
 ! D22   D(8,5,9,12)           160.9425         estimate D2E/DX2                !
 ! D23   D(3,6,12,9)            -7.1417         estimate D2E/DX2                !
 ! D24   D(3,6,12,13)          176.8145         estimate D2E/DX2                !
 ! D25   D(26,6,12,9)          172.808          estimate D2E/DX2                !
 ! D26   D(26,6,12,13)          -3.2359         estimate D2E/DX2                !
 ! D27   D(3,6,26,27)          145.9565         estimate D2E/DX2                !
 ! D28   D(3,6,26,28)          -92.1897         estimate D2E/DX2                !
 ! D29   D(3,6,26,29)           26.2911         estimate D2E/DX2                !
 ! D30   D(12,6,26,27)         -33.9957         estimate D2E/DX2                !
 ! D31   D(12,6,26,28)          87.858          estimate D2E/DX2                !
 ! D32   D(12,6,26,29)        -153.6611         estimate D2E/DX2                !
 ! D33   D(3,7,14,15)          -11.0029         estimate D2E/DX2                !
 ! D34   D(3,7,14,16)          109.3572         estimate D2E/DX2                !
 ! D35   D(3,7,14,17)         -132.5414         estimate D2E/DX2                !
 ! D36   D(5,7,14,15)          169.0461         estimate D2E/DX2                !
 ! D37   D(5,7,14,16)          -70.5939         estimate D2E/DX2                !
 ! D38   D(5,7,14,17)           47.5075         estimate D2E/DX2                !
 ! D39   D(2,8,18,19)          -10.4654         estimate D2E/DX2                !
 ! D40   D(2,8,18,20)          109.0301         estimate D2E/DX2                !
 ! D41   D(2,8,18,21)         -132.317          estimate D2E/DX2                !
 ! D42   D(5,8,18,19)          169.738          estimate D2E/DX2                !
 ! D43   D(5,8,18,20)          -70.7664         estimate D2E/DX2                !
 ! D44   D(5,8,18,21)           47.8865         estimate D2E/DX2                !
 ! D45   D(5,9,12,6)            23.9294         estimate D2E/DX2                !
 ! D46   D(5,9,12,13)         -159.5958         estimate D2E/DX2                !
 ! D47   D(10,9,12,6)          -99.7531         estimate D2E/DX2                !
 ! D48   D(10,9,12,13)          76.7217         estimate D2E/DX2                !
 ! D49   D(11,9,12,6)          146.1299         estimate D2E/DX2                !
 ! D50   D(11,9,12,13)         -37.3952         estimate D2E/DX2                !
 ! D51   D(6,12,13,1)          167.3406         estimate D2E/DX2                !
 ! D52   D(6,12,13,22)         -14.977          estimate D2E/DX2                !
 ! D53   D(9,12,13,1)           -8.889          estimate D2E/DX2                !
 ! D54   D(9,12,13,22)         168.7935         estimate D2E/DX2                !
 ! D55   D(1,13,22,23)         142.9318         estimate D2E/DX2                !
 ! D56   D(1,13,22,24)         -95.6353         estimate D2E/DX2                !
 ! D57   D(1,13,22,25)          21.672          estimate D2E/DX2                !
 ! D58   D(12,13,22,23)        -34.7597         estimate D2E/DX2                !
 ! D59   D(12,13,22,24)         86.6732         estimate D2E/DX2                !
 ! D60   D(12,13,22,25)       -156.0195         estimate D2E/DX2                !
 --------------------------------------------------------------------------------
 Trust Radius=3.00D-01 FncErr=1.00D-07 GrdErr=1.00D-06 EigMax=2.50D+02 EigMin=1.00D-04
 Number of steps in this run=    150 maximum allowed number of steps=    174.
 GradGradGradGradGradGradGradGradGradGradGradGradGradGradGradGradGradGrad

 Leave Link  103 at Mon Mar  9 16:19:05 2026, MaxMem=  2147483648 cpu:               0.2 elap:               0.0
 (Enter /data/home/wyx/g16/l202.exe)
                          Input orientation:                          
 ---------------------------------------------------------------------
 Center     Atomic      Atomic             Coordinates (Angstroms)
 Number     Number       Type             X           Y           Z
 ---------------------------------------------------------------------
      1          8           0        1.305022    9.847346    1.152807
      2          8           0       -4.692341    9.767898   -0.702152
      3          7           0       -2.156350   12.918318    0.513906
      4          1           0       -2.460333   13.877905    0.446068
      5          6           0       -2.694430   10.641037    0.237124
      6          6           0       -0.802170   12.696484    0.674959
      7          6           0       -3.064621   11.942907    0.159825
      8          6           0       -3.613446    9.567238   -0.157043
      9          6           0       -1.346814   10.277674    0.824359
     10          1           0       -1.454480    9.946202    1.866122
     11          1           0       -0.918643    9.425505    0.296712
     12          6           0       -0.354204   11.420240    0.751988
     13          6           0        1.052075   11.009425    0.856099
     14          6           0       -4.394120   12.475707   -0.282287
     15          1           0       -4.468493   13.539842   -0.060218
     16          1           0       -4.523129   12.329257   -1.354602
     17          1           0       -5.206471   11.944462    0.207289
     18          6           0       -3.177933    8.148633    0.132824
     19          1           0       -4.015690    7.477649   -0.038815
     20          1           0       -2.355739    7.870649   -0.531016
     21          1           0       -2.815854    8.043673    1.156499
     22          6           0        2.206819   11.941877    0.564276
     23          1           0        1.992181   12.644360   -0.237243
     24          1           0        2.467112   12.508238    1.460720
     25          1           0        3.064167   11.328290    0.295814
     26          6           0       -0.016080   13.975138    0.741693
     27          1           0        0.836498   13.901641    1.406536
     28          1           0        0.335548   14.262722   -0.250915
     29          1           0       -0.657252   14.775520    1.110673
 ---------------------------------------------------------------------
                    Distance matrix (angstroms):
                    1          2          3          4          5
     1  O    0.000000
     2  O    6.278180   0.000000
     3  N    4.671205   4.223173   0.000000
     4  H    5.560826   4.815852   1.008868   0.000000
     5  C    4.179000   2.374081   2.356299   3.252041   0.000000
     6  C    3.575777   5.060284   1.381648   2.048817   2.827933
     7  C    4.946834   2.850113   1.379042   2.047271   1.355685
     8  C    5.097597   1.225326   3.715244   4.502806   1.467311
     9  C    2.706528   3.712501   2.779340   3.787439   1.514249
    10  H    2.851919   4.136613   3.339848   4.299603   2.161922
    11  H    2.419821   3.918642   3.711985   4.714126   2.152787
    12  C    2.321138   4.864585   2.355558   3.251074   2.519703
    13  C    1.225743   6.080119   3.748994   4.553384   3.815119
    14  C    6.438012   2.756348   2.416080   2.497237   2.554358
    15  H    6.959845   3.832721   2.462096   2.098409   3.411566
    16  H    6.812806   2.648563   3.072452   3.145767   2.954288
    17  H    6.905899   2.414300   3.216465   3.366971   2.830222
    18  C    4.901314   2.369100   4.892724   5.782528   2.541010
    19  H    5.945200   2.478530   5.776117   6.604357   3.439317
    20  H    4.488180   3.014722   5.158544   6.087098   2.894789
    21  H    4.498318   3.154161   4.960850   5.888070   2.757951
    22  C    2.355136   7.343598   4.471377   5.054155   5.081481
    23  H    3.198080   7.291983   4.224878   4.670485   5.118853
    24  H    2.919865   7.965252   4.737196   5.213944   5.623623
    25  H    2.454022   7.974595   5.461644   6.086313   5.799759
    26  C    4.353503   6.453911   2.397813   2.463984   4.306318
    27  H    4.089157   7.218203   3.274271   3.433970   4.946364
    28  H    4.733483   6.759196   2.932905   2.907029   4.747162
    29  H    5.304639   6.681658   2.460209   2.120970   4.691176
                    6          7          8          9         10
     6  C    0.000000
     7  C    2.439657   0.000000
     8  C    4.288085   2.458743   0.000000
     9  C    2.483868   2.483036   2.570115   0.000000
    10  H    3.067316   3.080720   2.982942   1.098515   0.000000
    11  H    3.294835   3.310781   2.736411   1.089924   1.738187
    12  C    1.354771   2.823154   3.857799   1.515246   2.150509
    13  C    2.513405   4.278243   4.987328   2.508213   2.904032
    14  C    3.723864   1.498968   3.014022   3.916898   4.433457
    15  H    3.833232   2.137634   4.064734   4.600990   5.070435
    16  H    4.254352   2.137756   3.144904   4.364155   5.046645
    17  H    4.492451   2.142377   2.884729   4.249225   4.563135
    18  C    5.159564   3.796062   1.511997   2.892064   3.034117
    19  H    6.170286   4.569740   2.131235   3.963346   4.035138
    20  H    5.211202   4.190830   2.144784   2.940874   3.296430
    21  H    5.092686   4.032278   2.163976   2.694282   2.444692
    22  C    3.104142   5.286933   6.327297   3.932622   4.368367
    23  H    2.939937   5.120639   6.395167   4.228131   4.856303
    24  H    3.367649   5.710691   6.945489   4.463899   4.701836
    25  H    4.118770   6.161030   6.920758   4.565074   4.979378
    26  C    1.502447   3.709735   5.760064   3.930512   4.423308
    27  H    2.161676   4.539786   6.405765   4.270705   4.594051
    28  H    2.145867   4.136592   6.136035   4.457260   5.130145
    29  H    2.129141   3.837087   6.121469   4.559396   4.952635
                   11         12         13         14         15
    11  H    0.000000
    12  C    2.122460   0.000000
    13  C    2.589487   1.468750   0.000000
    14  C    4.660248   4.301704   5.753863   0.000000
    15  H    5.445788   4.698912   6.141606   1.089601   0.000000
    16  H    4.914360   4.758569   6.141014   1.089931   1.773114
    17  H    4.973792   4.910805   6.361182   1.087116   1.778035
    18  C    2.600318   4.365801   5.157540   4.513867   5.546886
    19  H    3.674020   5.438371   6.241518   5.018274   6.079118
    20  H    2.273313   4.272217   4.836237   5.042164   6.068372
    21  H    2.499621   4.198161   4.883318   4.919751   5.866812
    22  C    4.021471   2.620339   1.512634   6.676379   6.892262
    23  H    4.372532   2.825344   2.179957   6.388686   6.524840
    24  H    4.724563   3.105779   2.148101   7.079239   7.174962
    25  H    4.413996   3.449900   2.112844   7.568144   7.858670
    26  C    4.659591   2.577195   3.154282   4.739626   4.544945
    27  H    4.934372   2.829056   2.952011   5.678448   5.515904
    28  H    5.027082   3.092131   3.510389   5.056102   4.861866
    29  H    5.417889   3.387978   4.143679   4.603657   4.174140
                   16         17         18         19         20
    16  H    0.000000
    17  H    1.747721   0.000000
    18  C    4.636767   4.304513   0.000000
    19  H    5.052415   4.629357   1.086976   0.000000
    20  H    5.025442   5.026701   1.092685   1.775429   0.000000
    21  H    5.252299   4.672494   1.090884   1.785711   1.757654
    22  C    7.008877   7.421880   6.600788   7.681970   6.212205
    23  H    6.617934   7.246245   6.861384   7.926462   6.463670
    24  H    7.538007   7.795691   7.255067   8.341592   6.980983
    25  H    7.828977   8.294031   7.007181   8.066213   6.481844
    26  C    5.236112   5.599052   6.657040   7.669644   6.660223
    27  H    6.230720   6.464226   7.129874   8.179269   7.093472
    28  H    5.344451   6.024803   7.062145   8.063218   6.941187
    29  H    5.196806   5.433819   7.157210   8.115378   7.297756
                   21         22         23         24         25
    21  H    0.000000
    22  C    6.385449   0.000000
    23  H    6.798973   1.087191   0.000000
    24  H    6.923483   1.091847   1.768380   0.000000
    25  H    6.790002   1.087937   1.779142   1.762316   0.000000
    26  C    6.572143   3.017765   2.600461   2.972379   4.085650
    27  H    6.907820   2.535322   2.370310   2.145557   3.580273
    28  H    7.112574   3.090714   2.315969   3.248303   4.044152
    29  H    7.069613   4.065831   3.657624   3.876177   5.137738
                   26         27         28         29
    26  C    0.000000
    27  H    1.083655   0.000000
    28  H    1.091612   1.768749   0.000000
    29  H    1.089889   1.755701   1.761401   0.000000
 Symmetry turned off by external request.
 Stoichiometry    C11H15NO2
 Framework group  C1[X(C11H15NO2)]
 Deg. of freedom    81
 Full point group                 C1      NOp   1
 Rotational constants (GHZ):           1.0809802           0.4879101           0.3457976
 Leave Link  202 at Mon Mar  9 16:19:05 2026, MaxMem=  2147483648 cpu:               0.1 elap:               0.0
 (Enter /data/home/wyx/g16/l301.exe)
 Standard basis: TZVP (5D, 7F)
 Ernie: Thresh=  0.10000D-02 Tol=  0.10000D-05 Strict=F.
   356 basis functions,   610 primitive gaussians,   370 cartesian basis functions
    52 alpha electrons       52 beta electrons
       nuclear repulsion energy       899.5331745986 Hartrees.
 IExCor= 4336 DFT=T Ex+Corr=M062X ExCW=0 ScaHFX=  0.540000
 ScaDFX=  1.000000  1.000000  1.000000  1.000000 ScalE2=  1.000000  1.000000
 IRadAn=      5 IRanWt=     -1 IRanGd=            0 ICorTp=0 IEmpDi=131
 NAtoms=   29 NActive=   29 NUniq=   29 SFac= 1.00D+00 NAtFMM=   60 NAOKFM=F Big=F
 Integral buffers will be    131072 words long.
 Regular integral format.
 Two-electron integral symmetry is turned off.
 R6Disp:  Grimme-D3 Dispersion energy=       -0.0014613257 Hartrees.
 Nuclear repulsion after empirical dispersion term =      899.5317132730 Hartrees.
 ------------------------------------------------------------------------------
 Polarizable Continuum Model (PCM)
 =================================
 Model                : PCM.
 Atomic radii         : UFF (Universal Force Field).
 Polarization charges : Total charges.
 Charge compensation  : None.
 Solution method      : On-the-fly selection.
 Cavity type          : Scaled VdW (van der Waals Surface) (Alpha=1.100).
 Cavity algorithm     : GePol (No added spheres)
                        Default sphere list used, NSphG=   29.
                        Lebedev-Laikov grids with approx.  5.0 points / Ang**2.
                        Smoothing algorithm: York/Karplus (Gamma=1.0000).
                        Polarization charges: spherical gaussians, with
                                              point-specific exponents (IZeta= 3).
                        Self-potential: point-specific (ISelfS= 7).
                        Self-field    : sphere-specific E.n sum rule (ISelfD= 2).
 1st derivatives      : Analytical E(r).r(x)/FMM algorithm (CHGder, D1EAlg=3).
                        Cavity 1st derivative terms included.
 Solvent              : Water, Eps=  78.355300 Eps(inf)=   1.777849
 ------------------------------------------------------------------------------
 GePol: Number of generator spheres                  =      29
 GePol: Total number of spheres                      =      29
 GePol: Number of exposed spheres                    =      29 (100.00%)
 GePol: Number of points                             =    2089
 GePol: Average weight of points                     =       0.13
 GePol: Minimum weight of points                     =   0.15D-11
 GePol: Maximum weight of points                     =    0.20577
 GePol: Number of points with low weight             =     131
 GePol: Fraction of low-weight points (<1% of avg)   =       6.27%
 GePol: Cavity surface area                          =    269.281 Ang**2
 GePol: Cavity volume                                =    288.922 Ang**3
 Leave Link  301 at Mon Mar  9 16:19:05 2026, MaxMem=  2147483648 cpu:               1.2 elap:               0.0
 (Enter /data/home/wyx/g16/l302.exe)
 NPDir=0 NMtPBC=     1 NCelOv=     1 NCel=       1 NClECP=     1 NCelD=      1
         NCelK=      1 NCelE2=     1 NClLst=     1 CellRange=     0.0.
 One-electron integrals computed using PRISM.
 NBasis=   356 RedAO= T EigKep=  4.80D-05  NBF=   356
 NBsUse=   356 1.00D-06 EigRej= -1.00D+00 NBFU=   356
 Precomputing XC quadrature grid using
 IXCGrd= 4 IRadAn=           5 IRanWt=          -1 IRanGd=           0 AccXCQ= 0.00D+00.
 Generated NRdTot=       0 NPtTot=           0 NUsed=           0 NTot=          32
 NSgBfM=   366   366   366   366   366 MxSgAt=    29 MxSgA2=    29.
 Leave Link  302 at Mon Mar  9 16:19:06 2026, MaxMem=  2147483648 cpu:               6.3 elap:               0.2
 (Enter /data/home/wyx/g16/l303.exe)
 DipDrv:  MaxL=1.
 Leave Link  303 at Mon Mar  9 16:19:06 2026, MaxMem=  2147483648 cpu:               1.1 elap:               0.0
 (Enter /data/home/wyx/g16/l308.exe)
 Leave Link  308 at Mon Mar  9 16:19:06 2026, MaxMem=  2147483648 cpu:               1.3 elap:               0.1
 (Enter /data/home/wyx/g16/l401.exe)
 Initial guess from the checkpoint file:  "DDL-S1-opt-freq.chk"
 B after Tr=    -2.900060   21.183180    0.726801
         Rot=    0.980439    0.018145    0.096749   -0.170440 Ang=  22.70 deg.
 Guess basis will be translated and rotated to current coordinates.
 JPrj=2 DoOrth=T DoCkMO=T.
 Leave Link  401 at Mon Mar  9 16:19:06 2026, MaxMem=  2147483648 cpu:               4.5 elap:               0.2
 (Enter /data/home/wyx/g16/l502.exe)
 Two-electron integral symmetry not used.
 Closed shell SCF:
 Using DIIS extrapolation, IDIIS=  1040.
 NGot=  2147483648 LenX=  2147195087 LenY=  2147057746
 Requested convergence on RMS density matrix=1.00D-08 within 128 cycles.
 Requested convergence on MAX density matrix=1.00D-06.
 Requested convergence on             energy=1.00D-06.
 No special actions if energy rises.
 Fock matrices will be formed incrementally for  20 cycles.

 Cycle   1  Pass 1  IDiag  1:
 FoFJK:  IHMeth= 1 ICntrl=       0 DoSepK=F KAlg= 0 I1Cent=           0 FoldK=F
 IRaf= 870000000 NMat=       1 IRICut=       1 DoRegI=T DoRafI=F ISym2E= 0 IDoP0=0 IntGTp=1.
 FoFCou: FMM=F IPFlag=           0 FMFlag=      100000 FMFlg1=           0
         NFxFlg=           0 DoJE=F BraDBF=F KetDBF=F FulRan=T
         wScrn=  0.000000 ICntrl=         0 IOpCl=  0 I1Cent=           0 NGrid=           0
         NMat0=    1 NMatS0=      1 NMatT0=    0 NMatD0=    1 NMtDS0=    0 NMtDT0=    0
 Symmetry not used in FoFCou.
 Inv3:  Mode=1 IEnd=    13091763.
 Iteration    1 A*A^-1 deviation from unit magnitude is 4.22D-15 for    573.
 Iteration    1 A*A^-1 deviation from orthogonality  is 1.97D-15 for   1663    722.
 Iteration    1 A^-1*A deviation from unit magnitude is 4.22D-15 for    573.
 Iteration    1 A^-1*A deviation from orthogonality  is 2.28D-15 for   1637   1337.
 E= -633.354111792327    
 DIIS: error= 3.47D-06 at cycle   1 NSaved=   1.
 NSaved= 1 IEnMin= 1 EnMin= -633.354111792327     IErMin= 1 ErrMin= 3.47D-06
 ErrMax= 3.47D-06  0.00D+00 EMaxC= 1.00D-01 BMatC= 1.74D-08 BMatP= 1.74D-08
 IDIUse=1 WtCom= 1.00D+00 WtEn= 0.00D+00
 Coeff-Com:  0.100D+01
 Coeff:      0.100D+01
 Gap=     0.225 Goal=   None    Shift=    0.000
 RMSDP=7.27D-06 MaxDP=3.83D-04              OVMax= 3.45D-05

 Cycle   2  Pass 1  IDiag  1:
 RMSU=  7.15D-06    CP:  1.00D+00
 E= -633.354111823941     Delta-E=       -0.000000031614 Rises=F Damp=F
 DIIS: error= 1.29D-06 at cycle   2 NSaved=   2.
 NSaved= 2 IEnMin= 2 EnMin= -633.354111823941     IErMin= 2 ErrMin= 1.29D-06
 ErrMax= 1.29D-06  0.00D+00 EMaxC= 1.00D-01 BMatC= 1.34D-09 BMatP= 1.74D-08
 IDIUse=1 WtCom= 1.00D+00 WtEn= 0.00D+00
 Coeff-Com:  0.858D-01 0.914D+00
 Coeff:      0.858D-01 0.914D+00
 Gap=     0.225 Goal=   None    Shift=    0.000
 RMSDP=8.12D-07 MaxDP=5.13D-05 DE=-3.16D-08 OVMax= 1.06D-05

 Cycle   3  Pass 1  IDiag  1:
 RMSU=  6.39D-07    CP:  1.00D+00  1.07D+00
 E= -633.354111825441     Delta-E=       -0.000000001500 Rises=F Damp=F
 DIIS: error= 6.13D-07 at cycle   3 NSaved=   3.
 NSaved= 3 IEnMin= 3 EnMin= -633.354111825441     IErMin= 3 ErrMin= 6.13D-07
 ErrMax= 6.13D-07  0.00D+00 EMaxC= 1.00D-01 BMatC= 3.38D-10 BMatP= 1.34D-09
 IDIUse=1 WtCom= 1.00D+00 WtEn= 0.00D+00
 Coeff-Com: -0.290D-01 0.289D+00 0.740D+00
 Coeff:     -0.290D-01 0.289D+00 0.740D+00
 Gap=     0.225 Goal=   None    Shift=    0.000
 RMSDP=3.25D-07 MaxDP=1.99D-05 DE=-1.50D-09 OVMax= 5.42D-06

 Cycle   4  Pass 1  IDiag  1:
 RMSU=  1.92D-07    CP:  1.00D+00  1.10D+00  1.04D+00
 E= -633.354111825750     Delta-E=       -0.000000000309 Rises=F Damp=F
 DIIS: error= 2.68D-07 at cycle   4 NSaved=   4.
 NSaved= 4 IEnMin= 4 EnMin= -633.354111825750     IErMin= 4 ErrMin= 2.68D-07
 ErrMax= 2.68D-07  0.00D+00 EMaxC= 1.00D-01 BMatC= 6.02D-11 BMatP= 3.38D-10
 IDIUse=1 WtCom= 1.00D+00 WtEn= 0.00D+00
 Coeff-Com: -0.196D-01 0.576D-01 0.326D+00 0.636D+00
 Coeff:     -0.196D-01 0.576D-01 0.326D+00 0.636D+00
 Gap=     0.225 Goal=   None    Shift=    0.000
 RMSDP=6.36D-08 MaxDP=3.41D-06 DE=-3.09D-10 OVMax= 2.34D-06

 Cycle   5  Pass 1  IDiag  1:
 RMSU=  4.08D-08    CP:  1.00D+00  1.11D+00  1.09D+00  1.02D+00
 E= -633.354111825806     Delta-E=       -0.000000000055 Rises=F Damp=F
 DIIS: error= 1.40D-07 at cycle   5 NSaved=   5.
 NSaved= 5 IEnMin= 5 EnMin= -633.354111825806     IErMin= 5 ErrMin= 1.40D-07
 ErrMax= 1.40D-07  0.00D+00 EMaxC= 1.00D-01 BMatC= 6.89D-12 BMatP= 6.02D-11
 IDIUse=1 WtCom= 1.00D+00 WtEn= 0.00D+00
 Coeff-Com: -0.590D-02-0.117D-02 0.657D-01 0.279D+00 0.662D+00
 Coeff:     -0.590D-02-0.117D-02 0.657D-01 0.279D+00 0.662D+00
 Gap=     0.225 Goal=   None    Shift=    0.000
 RMSDP=3.73D-08 MaxDP=1.92D-06 DE=-5.54D-11 OVMax= 5.86D-07

 Cycle   6  Pass 1  IDiag  1:
 RMSU=  1.84D-08    CP:  1.00D+00  1.11D+00  1.12D+00  1.13D+00  9.98D-01
 E= -633.354111825810     Delta-E=       -0.000000000005 Rises=F Damp=F
 DIIS: error= 4.63D-08 at cycle   6 NSaved=   6.
 NSaved= 6 IEnMin= 6 EnMin= -633.354111825810     IErMin= 6 ErrMin= 4.63D-08
 ErrMax= 4.63D-08  0.00D+00 EMaxC= 1.00D-01 BMatC= 1.06D-12 BMatP= 6.89D-12
 IDIUse=1 WtCom= 1.00D+00 WtEn= 0.00D+00
 Coeff-Com:  0.465D-03-0.936D-02-0.263D-01 0.264D-01 0.313D+00 0.696D+00
 Coeff:      0.465D-03-0.936D-02-0.263D-01 0.264D-01 0.313D+00 0.696D+00
 Gap=     0.225 Goal=   None    Shift=    0.000
 RMSDP=1.13D-08 MaxDP=6.17D-07 DE=-4.66D-12 OVMax= 2.68D-07

 Cycle   7  Pass 1  IDiag  1:
 RMSU=  5.21D-09    CP:  1.00D+00  1.11D+00  1.12D+00  1.18D+00  1.07D+00
                    CP:  9.75D-01
 E= -633.354111825803     Delta-E=        0.000000000008 Rises=F Damp=F
 DIIS: error= 9.67D-09 at cycle   7 NSaved=   7.
 NSaved= 7 IEnMin= 6 EnMin= -633.354111825810     IErMin= 7 ErrMin= 9.67D-09
 ErrMax= 9.67D-09  0.00D+00 EMaxC= 1.00D-01 BMatC= 5.28D-14 BMatP= 1.06D-12
 IDIUse=1 WtCom= 1.00D+00 WtEn= 0.00D+00
 Coeff-Com:  0.498D-03-0.305D-02-0.127D-01-0.748D-02 0.535D-01 0.237D+00
 Coeff-Com:  0.732D+00
 Coeff:      0.498D-03-0.305D-02-0.127D-01-0.748D-02 0.535D-01 0.237D+00
 Coeff:      0.732D+00
 Gap=     0.225 Goal=   None    Shift=    0.000
 RMSDP=3.53D-09 MaxDP=1.50D-07 DE= 7.84D-12 OVMax= 9.67D-08

 Error on total polarization charges =  0.01453
 SCF Done:  E(RM062X) =  -633.354111826     A.U. after    7 cycles
            NFock=  7  Conv=0.35D-08     -V/T= 2.0047
 KE= 6.303607468941D+02 PE=-3.274292972953D+03 EE= 1.111046400960D+03
 Leave Link  502 at Mon Mar  9 16:19:23 2026, MaxMem=  2147483648 cpu:             511.5 elap:              16.4
 (Enter /data/home/wyx/g16/l801.exe)
 DoSCS=F DFT=T ScalE2(SS,OS)=  1.000000  1.000000
 ExpMin= 9.52D-02 ExpMax= 2.70D+04 ExpMxC= 9.22D+02 IAcc=3 IRadAn=         5 AccDes= 0.00D+00
 HarFok:  IExCor=  205 AccDes= 0.00D+00 IRadAn=         5 IDoV=-2 UseB2=F ITyADJ=14
 ICtDFT= 12500011 ScaDFX=  1.000000  1.000000  1.000000  1.000000
 Largest valence mixing into a core orbital is  1.03D-04
 Largest core mixing into a valence orbital is  2.96D-05
 Range of M.O.s used for correlation:    15   356
 NBasis=   356 NAE=    52 NBE=    52 NFC=    14 NFV=     0
 NROrb=    342 NOA=    38 NOB=    38 NVA=   304 NVB=   304

 **** Warning!!: The largest alpha MO coefficient is  0.50291229D+02

 Leave Link  801 at Mon Mar  9 16:19:23 2026, MaxMem=  2147483648 cpu:               1.6 elap:               0.1
 (Enter /data/home/wyx/g16/l914.exe)
 RHF ground state
 Two-electron integral symmetry not used.
 MDV=  2147483648 DFT=T DoStab=F Mixed=T DoRPA=T DoScal=F NonHer=T
 NEqPCM:  Using equilibrium solvation (IEInf=0, Eps=  78.3553, EpsInf=   1.7778)
 Making orbital integer symmetry assigments:
    24 initial guesses have been made.
 Convergence on wavefunction:    0.000001000000000
 Davidson Disk Diagonalization:  ConvIn= 1.00D-06 SkipCon=T Conv= 1.00D-06.
 Max sub-space:  2000 roots to seek:    24 dimension of matrix:        23104
 Iteration     1 Dimension    24 NMult     0 NNew     24
 CISAX will form    24 AO SS matrices at one time.
 NMat=    24 NSing=    24 JSym2X= 0.
 FoFJK:  IHMeth= 1 ICntrl=       0 DoSepK=F KAlg= 0 I1Cent=           0 FoldK=F
 IRaf= 870000000 NMat=      48 IRICut=      60 DoRegI=T DoRafI=T ISym2E= 0 IDoP0=3 IntGTp=3.
 FoFCou: FMM=F IPFlag=           0 FMFlag=      100000 FMFlg1=           0
         NFxFlg=           0 DoJE=F BraDBF=F KetDBF=F FulRan=T
         wScrn=  0.000000 ICntrl=         0 IOpCl=  0 I1Cent=           0 NGrid=           0
         NMat0=   48 NMatS0=     24 NMatT0=    0 NMatD0=   48 NMtDS0=    0 NMtDT0=    0
 Symmetry not used in FoFCou.
 Raff kept on since  85.41% of shell-pairs survive, threshold=   0.20 IRatSp=85.
 New state      2 was old state      3
 New state      3 was old state      5
 New state      4 was old state      2
 New state      5 was old state      6
 New state      6 was old state      4
 Excitation Energies [eV] at current iteration:
 Root      1 :     3.859558274632689
 Root      2 :     4.427365882674410
 Root      3 :     4.616671394275126
 Root      4 :     5.532349077531732
 Root      5 :     6.172990242073703
 Root      6 :     6.284476868285522
 Root      7 :     6.888094055201421
 Root      8 :     6.995961427901476
 Root      9 :     7.168054841510074
 Root     10 :     7.199536691034429
 Root     11 :     7.331254080186659
 Root     12 :     7.492073712458120
 Root     13 :     7.619508733105936
 Root     14 :     7.669340693538485
 Root     15 :     7.996795555396436
 Root     16 :     8.127434530571607
 Root     17 :     8.313859543141364
 Root     18 :     8.362611302575326
 Root     19 :     8.422054220239309
 Root     20 :     8.499015916576687
 Root     21 :     8.650720027628301
 Root     22 :     8.714107285054510
 Root     23 :     8.984816215185878
 Root     24 :     9.044912551536543
 Iteration     2 Dimension    36 NMult    24 NNew     12
 CISAX will form    12 AO SS matrices at one time.
 NMat=    12 NSing=    12 JSym2X= 0.
 Root      1 not converged, maximum delta is    0.039622137422963
 Root      2 not converged, maximum delta is    0.076901581075992
 Root      3 not converged, maximum delta is    0.119398927432617
 Root      4 not converged, maximum delta is    0.303869785074212
 Root      5 not converged, maximum delta is    0.471446182703434
 Root      6 not converged, maximum delta is    0.287279874535358
 Excitation Energies [eV] at current iteration:
 Root      1 :     3.442490348760634   Change is   -0.417067925872056
 Root      2 :     4.002729848790150   Change is   -0.424636033884261
 Root      3 :     4.132959566335652   Change is   -0.483711827939474
 Root      4 :     5.068114279182119   Change is   -0.464234798349613
 Root      5 :     5.627849263738844   Change is   -0.545140978334858
 Root      6 :     6.080987457220297   Change is   -0.203489411065226
 Iteration     3 Dimension    48 NMult    36 NNew     12
 CISAX will form    12 AO SS matrices at one time.
 NMat=    12 NSing=    12 JSym2X= 0.
 Root      1 not converged, maximum delta is    0.006622132863992
 Root      2 not converged, maximum delta is    0.010323595031644
 Root      3 not converged, maximum delta is    0.015037260130029
 Root      4 not converged, maximum delta is    0.010588585706732
 Root      5 not converged, maximum delta is    0.011374017725230
 Root      6 not converged, maximum delta is    0.008270407563520
 Excitation Energies [eV] at current iteration:
 Root      1 :     3.425900956950310   Change is   -0.016589391810324
 Root      2 :     3.977978691522333   Change is   -0.024751157267817
 Root      3 :     4.107675997131540   Change is   -0.025283569204112
 Root      4 :     5.044064451739177   Change is   -0.024049827442942
 Root      5 :     5.610776423657313   Change is   -0.017072840081531
 Root      6 :     6.074413195025175   Change is   -0.006574262195121
 Iteration     4 Dimension    60 NMult    48 NNew     12
 CISAX will form    12 AO SS matrices at one time.
 NMat=    12 NSing=    12 JSym2X= 0.
 Root      1 not converged, maximum delta is    0.001913755847366
 Root      2 not converged, maximum delta is    0.003382829442756
 Root      3 not converged, maximum delta is    0.002577403295438
 Root      4 not converged, maximum delta is    0.002614316146698
 Root      5 not converged, maximum delta is    0.002051669331223
 Root      6 not converged, maximum delta is    0.002113194559453
 Excitation Energies [eV] at current iteration:
 Root      1 :     3.424394914871913   Change is   -0.001506042078397
 Root      2 :     3.975869669279049   Change is   -0.002109022243284
 Root      3 :     4.106068596096329   Change is   -0.001607401035210
 Root      4 :     5.041808491210428   Change is   -0.002255960528749
 Root      5 :     5.608755431807039   Change is   -0.002020991850274
 Root      6 :     6.073821503069254   Change is   -0.000591691955922
 Iteration     5 Dimension    72 NMult    60 NNew     12
 CISAX will form    12 AO SS matrices at one time.
 NMat=    12 NSing=    12 JSym2X= 0.
 Root      1 not converged, maximum delta is    0.000548247048320
 Root      2 not converged, maximum delta is    0.000766760894374
 Root      3 not converged, maximum delta is    0.000527360324029
 Root      4 not converged, maximum delta is    0.000727446345548
 Root      5 not converged, maximum delta is    0.000989719780542
 Root      6 not converged, maximum delta is    0.000446113639235
 Excitation Energies [eV] at current iteration:
 Root      1 :     3.424315106258757   Change is   -0.000079808613156
 Root      2 :     3.975728868315517   Change is   -0.000140800963532
 Root      3 :     4.105952763905445   Change is   -0.000115832190885
 Root      4 :     5.041610380539336   Change is   -0.000198110671093
 Root      5 :     5.608573287206601   Change is   -0.000182144600438
 Root      6 :     6.073777784797143   Change is   -0.000043718272111
 Iteration     6 Dimension    84 NMult    72 NNew     12
 CISAX will form    12 AO SS matrices at one time.
 NMat=    12 NSing=    12 JSym2X= 0.
 Root      1 not converged, maximum delta is    0.000132603519470
 Root      2 not converged, maximum delta is    0.000158001329654
 Root      3 not converged, maximum delta is    0.000134140004572
 Root      4 not converged, maximum delta is    0.000192016288609
 Root      5 not converged, maximum delta is    0.000400362098401
 Root      6 not converged, maximum delta is    0.000104081891718
 Excitation Energies [eV] at current iteration:
 Root      1 :     3.424310514315874   Change is   -0.000004591942884
 Root      2 :     3.975720814393802   Change is   -0.000008053921715
 Root      3 :     4.105947307664258   Change is   -0.000005456241187
 Root      4 :     5.041597339787185   Change is   -0.000013040752150
 Root      5 :     5.608558129914335   Change is   -0.000015157292266
 Root      6 :     6.073774426016641   Change is   -0.000003358780501
 Iteration     7 Dimension    96 NMult    84 NNew     12
 CISAX will form    12 AO SS matrices at one time.
 NMat=    12 NSing=    12 JSym2X= 0.
 Root      1 not converged, maximum delta is    0.000024594200095
 Root      2 not converged, maximum delta is    0.000026096750017
 Root      3 not converged, maximum delta is    0.000032403469602
 Root      4 not converged, maximum delta is    0.000060439574662
 Root      5 not converged, maximum delta is    0.000102878336545
 Root      6 not converged, maximum delta is    0.000026310233453
 Excitation Energies [eV] at current iteration:
 Root      1 :     3.424310225619235   Change is   -0.000000288696638
 Root      2 :     3.975720385871630   Change is   -0.000000428522171
 Root      3 :     4.105947027432329   Change is   -0.000000280231929
 Root      4 :     5.041596163378435   Change is   -0.000001176408751
 Root      5 :     5.608556505639454   Change is   -0.000001624274882
 Root      6 :     6.073774108392175   Change is   -0.000000317624466
 Iteration     8 Dimension   108 NMult    96 NNew     12
 CISAX will form    12 AO SS matrices at one time.
 NMat=    12 NSing=    12 JSym2X= 0.
 Root      1 not converged, maximum delta is    0.000004707235364
 Root      2 not converged, maximum delta is    0.000005476255437
 Root      3 not converged, maximum delta is    0.000004930432099
 Root      4 not converged, maximum delta is    0.000024940265843
 Root      5 not converged, maximum delta is    0.000025649949553
 Root      6 not converged, maximum delta is    0.000011077562450
 Excitation Energies [eV] at current iteration:
 Root      1 :     3.424310213576950   Change is   -0.000000012042286
 Root      2 :     3.975720367749304   Change is   -0.000000018122326
 Root      3 :     4.105947015022618   Change is   -0.000000012409711
 Root      4 :     5.041596075977490   Change is   -0.000000087400944
 Root      5 :     5.608556377133271   Change is   -0.000000128506182
 Root      6 :     6.073774080795883   Change is   -0.000000027596292
 Iteration     9 Dimension   120 NMult   108 NNew     12
 CISAX will form    12 AO SS matrices at one time.
 NMat=    12 NSing=    12 JSym2X= 0.
 Root      1 has converged.
 Root      2 has converged.
 Root      3 not converged, maximum delta is    0.000001124297047
 Root      4 not converged, maximum delta is    0.000004522679247
 Root      5 not converged, maximum delta is    0.000005963958697
 Root      6 not converged, maximum delta is    0.000003571210564
 Excitation Energies [eV] at current iteration:
 Root      1 :     3.424310213121921   Change is   -0.000000000455029
 Root      2 :     3.975720367147717   Change is   -0.000000000601588
 Root      3 :     4.105947014433563   Change is   -0.000000000589055
 Root      4 :     5.041596070283911   Change is   -0.000000005693579
 Root      5 :     5.608556368833877   Change is   -0.000000008299394
 Root      6 :     6.073774078819079   Change is   -0.000000001976803
 Iteration    10 Dimension   128 NMult   120 NNew      8
 CISAX will form     8 AO SS matrices at one time.
 NMat=     8 NSing=     8 JSym2X= 0.
 Root      1 has converged.
 Root      2 has converged.
 Root      3 has converged.
 Root      4 has converged.
 Root      5 has converged.
 Root      6 has converged.
 Excitation Energies [eV] at current iteration:
 Root      1 :     3.424310213120072   Change is   -0.000000000001849
 Root      2 :     3.975720367141555   Change is   -0.000000000006161
 Root      3 :     4.105947014411240   Change is   -0.000000000022323
 Root      4 :     5.041596069936857   Change is   -0.000000000347054
 Root      5 :     5.608556368346500   Change is   -0.000000000487377
 Root      6 :     6.073774078685789   Change is   -0.000000000133291
 Convergence achieved on expansion vectors.
 ***********************************************************************
 Excited states from <AA,BB:AA,BB> singles matrix:
 ***********************************************************************
 
 1PDM for each excited state written to RWF  633
 Ground to excited state transition densities written to RWF  633
 Ground to excited state transition electric dipole moments (Au):
       state          X           Y           Z        Dip. S.      Osc.
         1        -1.6211     -0.3634     -0.3827      2.9063      0.2438
         2         0.1418      0.0730      0.0802      0.0319      0.0031
         3         0.0689     -0.1283     -0.0239      0.0218      0.0022
         4        -0.4927      1.9425      0.0460      4.0180      0.4963
         5        -0.3882      1.2919     -0.0713      1.8248      0.2507
         6         0.0701     -0.2574     -0.0190      0.0715      0.0106
 Ground to excited state transition velocity dipole moments (Au):
       state          X           Y           Z        Dip. S.      Osc.
         1         0.2007      0.0492      0.0486      0.0451      0.2387
         2        -0.0209     -0.0108     -0.0087      0.0006      0.0029
         3        -0.0098      0.0185      0.0004      0.0004      0.0019
         4         0.0867     -0.3596     -0.0046      0.1369      0.4926
         5         0.0823     -0.2720      0.0139      0.0810      0.2619
         6        -0.0105      0.0556     -0.0151      0.0034      0.0103
 Ground to excited state transition magnetic dipole moments (Au):
       state          X           Y           Z
         1         1.3796      0.3046     -5.8281
         2         0.5998      0.1410      1.0099
         3         0.5118     -0.9699      0.4859
         4         0.3247     -0.0505     -0.9185
         5         0.7666      0.0599     -1.1924
         6        -0.3446     -0.0763      0.0252
 Ground to excited state transition velocity quadrupole moments (Au):
       state          XX          YY          ZZ          XY          XZ          YZ
         1        -0.9592      1.8047      0.0569      3.5783     -0.0085      0.9266
         2         0.0906     -0.4095     -0.0208     -0.3843     -0.0108     -0.0884
         3        -0.0099      0.8260     -0.0071     -0.2299      0.0506      0.0639
         4         0.7163    -15.4807      0.0898      3.3160      0.4466     -0.2900
         5        -0.0431    -11.8371      0.0092      2.5511      0.1723      0.1665
         6         0.3696      2.6335     -0.2033     -0.4011      0.1576     -0.2002
 <0|del|b> * <b|rxdel|0> + <0|del|b> * <b|delr+rdel|0>
 Rotatory Strengths (R) in cgs (10**-40 erg-esu-cm/Gauss)
       state          XX          YY          ZZ    R(velocity)    E-M Angle
         1      -263.7486     16.7859    296.3606     16.4660       89.60
         2       -17.1049    -55.1440    -38.1432    -36.7974      140.37
         3       -43.9328    -12.5061    -50.0726    -35.5038      154.96
         4       320.2282     42.7278   -170.0684     64.2959       81.95
         5        84.8330     42.5769    -23.6423     34.5892       85.70
         6       -11.5850     -1.1882      9.5549     -1.0727       92.81
 1/2[<0|r|b>*<b|rxdel|0> + (<0|rxdel|b>*<b|r|0>)*]
 Rotatory Strengths (R) in cgs (10**-40 erg-esu-cm/Gauss)
       state          XX          YY          ZZ     R(length)
         1      1581.4589     78.2600  -1577.3799     27.4463
         2       -60.1385     -7.2762    -57.2603    -41.5584
         3       -24.9255    -87.9699      8.1985    -34.8990
         4       113.1324     69.3902     29.9083     70.8103
         5       210.4226    -54.6867    -60.1131     31.8743
         6        17.0817    -13.8919      0.3379      1.1759
  1/2[<0|del|b>*<b|r|0> + (<0|r|b>*<b|del|0>)*] (Au)
       state          X           Y           Z        Dip. S.   Osc.(frdel)
         1        -0.3253     -0.0179     -0.0186      0.3618      0.2412
         2        -0.0030     -0.0008     -0.0007      0.0044      0.0030
         3        -0.0007     -0.0024     -0.0000      0.0031      0.0020
         4        -0.0427     -0.6986     -0.0002      0.7416      0.4944
         5        -0.0319     -0.3515     -0.0010      0.3844      0.2563
         6        -0.0007     -0.0143      0.0003      0.0148      0.0098

 Excitation energies and oscillator strengths:
 
 Excited state symmetry could not be determined.
 Excited State   1:      Singlet-?Sym    3.4243 eV  362.07 nm  f=0.2438  <S**2>=0.000
      52 -> 53         0.69836
 This state for optimization and/or second-order correction.
 Total Energy, E(TD-HF/TD-DFT) =  -633.228270741    
 Copying the excited state density for this state as the 1-particle RhoCI density.
 
 Excited state symmetry could not be determined.
 Excited State   2:      Singlet-?Sym    3.9757 eV  311.85 nm  f=0.0031  <S**2>=0.000
      49 -> 54        -0.19024
      50 -> 53        -0.30115
      50 -> 54         0.22424
      51 -> 53         0.46185
      51 -> 54        -0.25805
 
 Excited state symmetry could not be determined.
 Excited State   3:      Singlet-?Sym    4.1059 eV  301.96 nm  f=0.0022  <S**2>=0.000
      49 -> 53         0.52830
      49 -> 54         0.30947
      49 -> 58        -0.14678
      51 -> 53        -0.11810
      51 -> 54        -0.22994
 
 Excited state symmetry could not be determined.
 Excited State   4:      Singlet-?Sym    5.0416 eV  245.92 nm  f=0.4963  <S**2>=0.000
      52 -> 54         0.68325
 
 Excited state symmetry could not be determined.
 Excited State   5:      Singlet-?Sym    5.6086 eV  221.06 nm  f=0.2507  <S**2>=0.000
      49 -> 53         0.15695
      50 -> 53         0.52948
      51 -> 53         0.39000
      52 -> 54        -0.14674
 
 Excited state symmetry could not be determined.
 Excited State   6:      Singlet-?Sym    6.0738 eV  204.13 nm  f=0.0106  <S**2>=0.000
      52 -> 55         0.67076
      52 -> 56        -0.10082
      52 -> 63         0.10301
 SavETr:  write IOETrn=   770 NScale= 10 NData=  16 NLR=1 NState=    6 LETran=     118.
 The selected state is a singlet.
 CISGrd: IGrad=2 NXY=2 DFT=T
 CISAX will form     1 AO SS matrices at one time.
 NMat=     1 NSing=     1 JSym2X= 0.
 GePol: Maximum number of non-zero 1st derivatives   =     198
 Leave Link  914 at Mon Mar  9 16:25:09 2026, MaxMem=  2147483648 cpu:           11031.9 elap:             345.9
 (Enter /data/home/wyx/g16/l1002.exe)
 Minotr:  Closed shell wavefunction.
          Computing CIS/TDA/TD derivatives.
          Using Z-Vector for PSCF gradient.
          Skipping F1 and S1 gradient terms here.
          IDoAtm=11111111111111111111111111111
 NEqPCM:  Using equilibrium solvation (IEInf=0, Eps=  78.3553, EpsInf=   1.7778)
          Frozen-core window.
          Direct CPHF calculation.
          Differentiating once with respect to electric field.
                with respect to dipole field.
          Differentiating once with respect to nuclear coordinates.
          Requested convergence is 1.0D-10 RMS, and 1.0D-09 maximum.
          NewPWx=F KeepS1=T KeepF1=T KeepIn=T MapXYZ=F SortEE=F KeepMc=T.
 Keep R1 ints in memory in canonical form, NReq=2056168964.
 FoFCou: FMM=F IPFlag=           0 FMFlag=           0 FMFlg1=           0
         NFxFlg=           0 DoJE=F BraDBF=F KetDBF=F FulRan=T
         wScrn=  0.000000 ICntrl=       600 IOpCl=  0 I1Cent=           0 NGrid=           0
         NMat0=    1 NMatS0=  63546 NMatT0=    0 NMatD0=    1 NMtDS0=    0 NMtDT0=    0
 Symmetry not used in FoFCou.
 Two-electron integral symmetry not used.
          MDV=    2147483648 using IRadAn=       5.
          Solving linear equations separately, MaxMat=       0.
          There are     1 degrees of freedom in the 1st order CPHF.  IDoFFX=0 NUNeed=     1.
 LinEq1:  Iter=  0 NonCon=     1 RMS=3.57D-03 Max=1.51D-01 NDo=     1
 AX will form     1 AO Fock derivatives at one time.
 LinEq1:  Iter=  1 NonCon=     1 RMS=1.40D-03 Max=8.68D-02 NDo=     1
 LinEq1:  Iter=  2 NonCon=     1 RMS=5.39D-04 Max=1.49D-02 NDo=     1
 LinEq1:  Iter=  3 NonCon=     1 RMS=3.29D-04 Max=1.37D-02 NDo=     1
 LinEq1:  Iter=  4 NonCon=     1 RMS=1.43D-04 Max=4.11D-03 NDo=     1
 LinEq1:  Iter=  5 NonCon=     1 RMS=6.26D-05 Max=2.25D-03 NDo=     1
 LinEq1:  Iter=  6 NonCon=     1 RMS=3.21D-05 Max=1.72D-03 NDo=     1
 LinEq1:  Iter=  7 NonCon=     1 RMS=1.65D-05 Max=4.71D-04 NDo=     1
 LinEq1:  Iter=  8 NonCon=     1 RMS=8.00D-06 Max=2.55D-04 NDo=     1
 LinEq1:  Iter=  9 NonCon=     1 RMS=4.16D-06 Max=1.44D-04 NDo=     1
 LinEq1:  Iter= 10 NonCon=     1 RMS=1.75D-06 Max=5.07D-05 NDo=     1
 LinEq1:  Iter= 11 NonCon=     1 RMS=8.08D-07 Max=1.84D-05 NDo=     1
 LinEq1:  Iter= 12 NonCon=     1 RMS=3.66D-07 Max=1.30D-05 NDo=     1
 LinEq1:  Iter= 13 NonCon=     1 RMS=1.85D-07 Max=4.05D-06 NDo=     1
 LinEq1:  Iter= 14 NonCon=     1 RMS=8.48D-08 Max=3.17D-06 NDo=     1
 LinEq1:  Iter= 15 NonCon=     1 RMS=5.19D-08 Max=2.36D-06 NDo=     1
 LinEq1:  Iter= 16 NonCon=     1 RMS=2.61D-08 Max=1.27D-06 NDo=     1
 LinEq1:  Iter= 17 NonCon=     1 RMS=8.83D-09 Max=3.60D-07 NDo=     1
 LinEq1:  Iter= 18 NonCon=     1 RMS=3.46D-09 Max=7.70D-08 NDo=     1
 LinEq1:  Iter= 19 NonCon=     1 RMS=1.46D-09 Max=3.61D-08 NDo=     1
 LinEq1:  Iter= 20 NonCon=     1 RMS=3.99D-10 Max=1.02D-08 NDo=     1
 LinEq1:  Iter= 21 NonCon=     1 RMS=2.02D-10 Max=5.51D-09 NDo=     1
 LinEq1:  Iter= 22 NonCon=     1 RMS=7.09D-11 Max=1.92D-09 NDo=     1
 LinEq1:  Iter= 23 NonCon=     0 RMS=2.36D-11 Max=9.24D-10 NDo=     1
 Linear equations converged to 1.000D-10 1.000D-09 after    23 iterations.
 End of Minotr F.D. properties file   721 does not exist.
 End of Minotr F.D. properties file   722 does not exist.
 End of Minotr F.D. properties file   788 does not exist.
 Leave Link 1002 at Mon Mar  9 16:27:17 2026, MaxMem=  2147483648 cpu:            2112.0 elap:             127.1
 (Enter /data/home/wyx/g16/l601.exe)
 Copying SCF densities to generalized density rwf, IOpCl= 0 IROHF=0.

 **********************************************************************

            Population analysis using the SCF density.

 **********************************************************************

 Alpha  occ. eigenvalues --  -19.61288 -19.60853 -14.80097 -10.63072 -10.62772
 Alpha  occ. eigenvalues --  -10.61395 -10.60934 -10.54897 -10.54607 -10.54497
 Alpha  occ. eigenvalues --  -10.54113 -10.54061 -10.53514 -10.53186  -1.16543
 Alpha  occ. eigenvalues --   -1.16107  -1.09906  -0.92777  -0.91920  -0.85213
 Alpha  occ. eigenvalues --   -0.83775  -0.82803  -0.79513  -0.74922  -0.71675
 Alpha  occ. eigenvalues --   -0.69347  -0.62036  -0.58723  -0.57265  -0.55372
 Alpha  occ. eigenvalues --   -0.54483  -0.54350  -0.52775  -0.51984  -0.50783
 Alpha  occ. eigenvalues --   -0.50704  -0.49807  -0.48995  -0.48423  -0.48165
 Alpha  occ. eigenvalues --   -0.46509  -0.45347  -0.44855  -0.43354  -0.42821
 Alpha  occ. eigenvalues --   -0.42617  -0.42493  -0.41658  -0.33426  -0.32692
 Alpha  occ. eigenvalues --   -0.31917  -0.25836
 Alpha virt. eigenvalues --   -0.03320   0.01518   0.05732   0.07540   0.08129
 Alpha virt. eigenvalues --    0.09217   0.10013   0.11192   0.11970   0.12840
 Alpha virt. eigenvalues --    0.13174   0.14272   0.14903   0.15167   0.16146
 Alpha virt. eigenvalues --    0.16602   0.16683   0.17094   0.17317   0.18272
 Alpha virt. eigenvalues --    0.18988   0.20798   0.21696   0.22111   0.22431
 Alpha virt. eigenvalues --    0.23165   0.23946   0.24474   0.24758   0.25149
 Alpha virt. eigenvalues --    0.25704   0.25896   0.27490   0.28053   0.28879
 Alpha virt. eigenvalues --    0.30273   0.30591   0.31236   0.32056   0.33117
 Alpha virt. eigenvalues --    0.34037   0.34466   0.35447   0.36605   0.37227
 Alpha virt. eigenvalues --    0.38449   0.39176   0.40106   0.40465   0.41087
 Alpha virt. eigenvalues --    0.42388   0.42657   0.43856   0.44539   0.44659
 Alpha virt. eigenvalues --    0.45810   0.46225   0.46524   0.46757   0.47668
 Alpha virt. eigenvalues --    0.47896   0.48937   0.49208   0.49979   0.50360
 Alpha virt. eigenvalues --    0.51128   0.51698   0.52034   0.52762   0.53115
 Alpha virt. eigenvalues --    0.53386   0.54448   0.54680   0.55067   0.56342
 Alpha virt. eigenvalues --    0.56869   0.58104   0.58666   0.59672   0.60791
 Alpha virt. eigenvalues --    0.61967   0.63825   0.64164   0.64739   0.66229
 Alpha virt. eigenvalues --    0.66823   0.68376   0.69020   0.70273   0.71129
 Alpha virt. eigenvalues --    0.71475   0.71782   0.73089   0.74231   0.75704
 Alpha virt. eigenvalues --    0.76200   0.78241   0.79871   0.82066   0.82313
 Alpha virt. eigenvalues --    0.87180   0.90985   0.97518   0.99404   1.23366
 Alpha virt. eigenvalues --    1.24720   1.25998   1.26464   1.28367   1.30313
 Alpha virt. eigenvalues --    1.30981   1.31753   1.32900   1.33706   1.35214
 Alpha virt. eigenvalues --    1.35376   1.36049   1.37013   1.38005   1.38386
 Alpha virt. eigenvalues --    1.38983   1.39319   1.40143   1.40518   1.40702
 Alpha virt. eigenvalues --    1.41731   1.42765   1.43249   1.44083   1.45725
 Alpha virt. eigenvalues --    1.46119   1.47498   1.48061   1.49164   1.49579
 Alpha virt. eigenvalues --    1.50471   1.51068   1.52508   1.53566   1.55461
 Alpha virt. eigenvalues --    1.56728   1.58142   1.58720   1.59280   1.60282
 Alpha virt. eigenvalues --    1.60775   1.61623   1.61900   1.62650   1.63699
 Alpha virt. eigenvalues --    1.64545   1.64998   1.65232   1.65572   1.65983
 Alpha virt. eigenvalues --    1.66365   1.67328   1.68095   1.69449   1.69828
 Alpha virt. eigenvalues --    1.70903   1.72390   1.73431   1.74413   1.75970
 Alpha virt. eigenvalues --    1.76798   1.80784   1.81845   1.83333   1.83853
 Alpha virt. eigenvalues --    1.84161   1.84375   1.85566   1.86504   1.88041
 Alpha virt. eigenvalues --    1.88485   1.91311   1.91990   1.95097   1.96842
 Alpha virt. eigenvalues --    1.97950   2.00772   2.01349   2.03682   2.06869
 Alpha virt. eigenvalues --    2.08541   2.09987   2.11236   2.13065   2.15845
 Alpha virt. eigenvalues --    2.16314   2.17324   2.18224   2.18760   2.21498
 Alpha virt. eigenvalues --    2.22908   2.23773   2.24779   2.26023   2.27232
 Alpha virt. eigenvalues --    2.28075   2.31132   2.31368   2.31440   2.33977
 Alpha virt. eigenvalues --    2.35473   2.36698   2.37263   2.39202   2.40484
 Alpha virt. eigenvalues --    2.41570   2.43805   2.45848   2.46178   2.47608
 Alpha virt. eigenvalues --    2.48280   2.49799   2.50626   2.52729   2.54309
 Alpha virt. eigenvalues --    2.54345   2.55417   2.56265   2.56989   2.57708
 Alpha virt. eigenvalues --    2.60165   2.61607   2.62985   2.63420   2.64834
 Alpha virt. eigenvalues --    2.65921   2.67665   2.68785   2.69709   2.71157
 Alpha virt. eigenvalues --    2.72259   2.72406   2.73919   2.75613   2.76462
 Alpha virt. eigenvalues --    2.77545   2.78921   2.80299   2.80624   2.81848
 Alpha virt. eigenvalues --    2.82296   2.82808   2.83879   2.87723   2.89352
 Alpha virt. eigenvalues --    2.95196   2.95804   2.97315   2.99789   3.05224
 Alpha virt. eigenvalues --    3.07623   3.10106   3.10570   3.11283   3.13982
 Alpha virt. eigenvalues --    3.15730   3.16958   3.19315   3.21031   3.23084
 Alpha virt. eigenvalues --    3.24402   3.25344   3.26673   3.28808   3.30036
 Alpha virt. eigenvalues --    3.30897   3.32908   3.33004   3.33967   3.34710
 Alpha virt. eigenvalues --    3.36121   3.37640   3.38830   3.39767   3.40728
 Alpha virt. eigenvalues --    3.41401   3.42576   3.47778   3.52103   3.54896
 Alpha virt. eigenvalues --    3.55208   3.82184   3.92392   4.30600   4.32171
 Alpha virt. eigenvalues --   21.70443  21.86078  22.14715  22.17546  22.18124
 Alpha virt. eigenvalues --   22.20676  22.21765  22.24351  22.27068  22.30641
 Alpha virt. eigenvalues --   22.36175  32.02435  43.74963  43.77332
          Condensed to atoms (all electrons):
               1          2          3          4          5          6
     1  O    8.047237   0.000000  -0.000228   0.000017   0.013503   0.015470
     2  O    0.000000   8.077360   0.000555   0.000032  -0.179492   0.000850
     3  N   -0.000228   0.000555   6.495648   0.377073  -0.109533   0.311615
     4  H    0.000017   0.000032   0.377073   0.385798   0.017509  -0.049819
     5  C    0.013503  -0.179492  -0.109533   0.017509   6.944789  -0.063243
     6  C    0.015470   0.000850   0.311615  -0.049819  -0.063243   5.677486
     7  C   -0.000437  -0.025366   0.356883  -0.042955   0.286803  -0.082481
     8  C   -0.000152   0.629472   0.005683  -0.000412  -0.159648   0.023009
     9  C   -0.020176   0.017200   0.012694  -0.000879  -0.460460  -0.099611
    10  H    0.001602   0.000085   0.003440   0.000006  -0.028246  -0.015331
    11  H    0.011942  -0.000030  -0.001192   0.000018  -0.113356   0.023440
    12  C   -0.194230  -0.002146  -0.090743   0.014543   0.176288  -0.227681
    13  C    0.622418  -0.000018   0.000774   0.000386   0.048729   0.182436
    14  C   -0.000004  -0.013396  -0.035195  -0.008928  -0.085448   0.008489
    15  H   -0.000000   0.003765   0.003912   0.000301   0.021673   0.005881
    16  H   -0.000000  -0.000414  -0.002394   0.000801  -0.003479  -0.002048
    17  H   -0.000000  -0.001770   0.001331   0.000628  -0.013419  -0.000684
    18  C   -0.000051  -0.103024  -0.000698   0.000018  -0.257547   0.001179
    19  H   -0.000002   0.007623   0.000004  -0.000001   0.024327   0.000034
    20  H    0.000036   0.000860   0.000008  -0.000000   0.000404   0.000245
    21  H    0.000064   0.003092   0.000138   0.000001   0.031830  -0.001084
    22  C   -0.100176   0.000000  -0.000082   0.000102   0.002847  -0.004597
    23  H    0.004487  -0.000000  -0.000107  -0.000053  -0.000476  -0.040263
    24  H    0.000839  -0.000000  -0.000063  -0.000016  -0.000060   0.012979
    25  H    0.005056   0.000000   0.000031  -0.000002  -0.000082  -0.000807
    26  C    0.000866   0.000003  -0.031865  -0.005380   0.002278   0.131076
    27  H   -0.000302   0.000000   0.003684   0.000840  -0.000064  -0.041233
    28  H   -0.000048  -0.000000  -0.002201   0.000259   0.000334  -0.037353
    29  H    0.000023  -0.000000  -0.000142  -0.000304  -0.000478  -0.047606
               7          8          9         10         11         12
     1  O   -0.000437  -0.000152  -0.020176   0.001602   0.011942  -0.194230
     2  O   -0.025366   0.629472   0.017200   0.000085  -0.000030  -0.002146
     3  N    0.356883   0.005683   0.012694   0.003440  -0.001192  -0.090743
     4  H   -0.042955  -0.000412  -0.000879   0.000006   0.000018   0.014543
     5  C    0.286803  -0.159648  -0.460460  -0.028246  -0.113356   0.176288
     6  C   -0.082481   0.023009  -0.099611  -0.015331   0.023440  -0.227681
     7  C    5.421550  -0.106449  -0.143708  -0.002281   0.015692  -0.010464
     8  C   -0.106449   5.251058   0.041369  -0.002900  -0.008350  -0.029774
     9  C   -0.143708   0.041369   6.353715   0.390064   0.541949  -0.085586
    10  H   -0.002281  -0.002900   0.390064   0.510757  -0.035364  -0.014908
    11  H    0.015692  -0.008350   0.541949  -0.035364   0.481523  -0.106151
    12  C   -0.010464  -0.029774  -0.085586  -0.014908  -0.106151   7.266774
    13  C    0.011626  -0.004063  -0.206886   0.000264  -0.006083  -0.307739
    14  C    0.243556  -0.038470   0.010740  -0.001095   0.000544  -0.003047
    15  H   -0.069526   0.003833  -0.000138   0.000049  -0.000002  -0.000957
    16  H   -0.033594  -0.003210   0.000806  -0.000071   0.000058   0.000865
    17  H   -0.030860  -0.005500  -0.001098   0.000198  -0.000055  -0.000032
    18  C    0.008231   0.306836   0.007213  -0.009889   0.008839  -0.007360
    19  H   -0.000349  -0.051096  -0.000087  -0.000022   0.000555  -0.000237
    20  H    0.001171  -0.028371  -0.012771   0.001454  -0.004039  -0.003844
    21  H   -0.000660  -0.058185  -0.004899   0.000229  -0.005608   0.008259
    22  C    0.000193  -0.000035   0.004436   0.001490  -0.000075  -0.212128
    23  H   -0.000019  -0.000009   0.003702  -0.000114   0.000007   0.064521
    24  H    0.000040   0.000002  -0.002149   0.000131  -0.000082  -0.018928
    25  H    0.000005   0.000003  -0.000324  -0.000016  -0.000090   0.021672
    26  C   -0.001583   0.000413   0.023986  -0.000705   0.000178  -0.077318
    27  H   -0.000521   0.000004  -0.000879  -0.000078  -0.000002  -0.010959
    28  H   -0.000746  -0.000009  -0.000372  -0.000019   0.000040  -0.023182
    29  H    0.003561  -0.000004  -0.000781   0.000084  -0.000009   0.027747
              13         14         15         16         17         18
     1  O    0.622418  -0.000004  -0.000000  -0.000000  -0.000000  -0.000051
     2  O   -0.000018  -0.013396   0.003765  -0.000414  -0.001770  -0.103024
     3  N    0.000774  -0.035195   0.003912  -0.002394   0.001331  -0.000698
     4  H    0.000386  -0.008928   0.000301   0.000801   0.000628   0.000018
     5  C    0.048729  -0.085448   0.021673  -0.003479  -0.013419  -0.257547
     6  C    0.182436   0.008489   0.005881  -0.002048  -0.000684   0.001179
     7  C    0.011626   0.243556  -0.069526  -0.033594  -0.030860   0.008231
     8  C   -0.004063  -0.038470   0.003833  -0.003210  -0.005500   0.306836
     9  C   -0.206886   0.010740  -0.000138   0.000806  -0.001098   0.007213
    10  H    0.000264  -0.001095   0.000049  -0.000071   0.000198  -0.009889
    11  H   -0.006083   0.000544  -0.000002   0.000058  -0.000055   0.008839
    12  C   -0.307739  -0.003047  -0.000957   0.000865  -0.000032  -0.007360
    13  C    5.385867   0.000048  -0.000011  -0.000019   0.000002   0.000167
    14  C    0.000048   5.146820   0.385513   0.417858   0.427467   0.001208
    15  H   -0.000011   0.385513   0.552358  -0.023070  -0.025569   0.000202
    16  H   -0.000019   0.417858  -0.023070   0.492310  -0.029947  -0.000294
    17  H    0.000002   0.427467  -0.025569  -0.029947   0.500899  -0.000233
    18  C    0.000167   0.001208   0.000202  -0.000294  -0.000233   5.391510
    19  H   -0.000012   0.000084  -0.000003  -0.000015   0.000027   0.390802
    20  H   -0.000036  -0.000281  -0.000005  -0.000001   0.000023   0.407483
    21  H    0.000379   0.000034  -0.000014   0.000011  -0.000020   0.383449
    22  C    0.257061  -0.000021   0.000002   0.000000  -0.000000   0.000016
    23  H   -0.095127  -0.000004   0.000000   0.000000   0.000000   0.000004
    24  H   -0.019462  -0.000000   0.000000   0.000000  -0.000000  -0.000002
    25  H   -0.037219   0.000000   0.000000  -0.000000   0.000000  -0.000001
    26  C   -0.065100   0.000774   0.000189  -0.000174   0.000067   0.000042
    27  H   -0.005673   0.000101  -0.000011   0.000001  -0.000001  -0.000000
    28  H    0.007997  -0.000097  -0.000004  -0.000013   0.000004  -0.000001
    29  H   -0.000786  -0.000180   0.000126   0.000002  -0.000005   0.000000
              19         20         21         22         23         24
     1  O   -0.000002   0.000036   0.000064  -0.100176   0.004487   0.000839
     2  O    0.007623   0.000860   0.003092   0.000000  -0.000000  -0.000000
     3  N    0.000004   0.000008   0.000138  -0.000082  -0.000107  -0.000063
     4  H   -0.000001  -0.000000   0.000001   0.000102  -0.000053  -0.000016
     5  C    0.024327   0.000404   0.031830   0.002847  -0.000476  -0.000060
     6  C    0.000034   0.000245  -0.001084  -0.004597  -0.040263   0.012979
     7  C   -0.000349   0.001171  -0.000660   0.000193  -0.000019   0.000040
     8  C   -0.051096  -0.028371  -0.058185  -0.000035  -0.000009   0.000002
     9  C   -0.000087  -0.012771  -0.004899   0.004436   0.003702  -0.002149
    10  H   -0.000022   0.001454   0.000229   0.001490  -0.000114   0.000131
    11  H    0.000555  -0.004039  -0.005608  -0.000075   0.000007  -0.000082
    12  C   -0.000237  -0.003844   0.008259  -0.212128   0.064521  -0.018928
    13  C   -0.000012  -0.000036   0.000379   0.257061  -0.095127  -0.019462
    14  C    0.000084  -0.000281   0.000034  -0.000021  -0.000004  -0.000000
    15  H   -0.000003  -0.000005  -0.000014   0.000002   0.000000   0.000000
    16  H   -0.000015  -0.000001   0.000011   0.000000   0.000000   0.000000
    17  H    0.000027   0.000023  -0.000020  -0.000000   0.000000  -0.000000
    18  C    0.390802   0.407483   0.383449   0.000016   0.000004  -0.000002
    19  H    0.492264  -0.008645  -0.020692  -0.000000   0.000000  -0.000000
    20  H   -0.008645   0.478198  -0.027493  -0.000011  -0.000000   0.000000
    21  H   -0.020692  -0.027493   0.519412   0.000016  -0.000000  -0.000000
    22  C   -0.000000  -0.000011   0.000016   5.450437   0.406573   0.406039
    23  H    0.000000  -0.000000  -0.000000   0.406573   0.520837  -0.025379
    24  H   -0.000000   0.000000  -0.000000   0.406039  -0.025379   0.466339
    25  H   -0.000000  -0.000000  -0.000000   0.384807  -0.022105  -0.007616
    26  C    0.000000   0.000005  -0.000017  -0.020748   0.020320  -0.018585
    27  H   -0.000000  -0.000000  -0.000000   0.012616  -0.013688  -0.002602
    28  H   -0.000000   0.000000  -0.000000  -0.013898  -0.002801   0.001433
    29  H    0.000000  -0.000000   0.000000   0.001666   0.000883   0.000227
              25         26         27         28         29
     1  O    0.005056   0.000866  -0.000302  -0.000048   0.000023
     2  O    0.000000   0.000003   0.000000  -0.000000  -0.000000
     3  N    0.000031  -0.031865   0.003684  -0.002201  -0.000142
     4  H   -0.000002  -0.005380   0.000840   0.000259  -0.000304
     5  C   -0.000082   0.002278  -0.000064   0.000334  -0.000478
[...]
 670,0.00001832,-0.00001252,-0.00002808,-0.00000044,0.00000505,0.000007
 65,-0.00000975,-0.00001199,-0.00000266,-0.00000678,0.00000782,-0.00001
 323,-0.06011080,0.03691053,-0.03786042,0.06178387,-0.00546976,-0.00379
 179,0.00138994,-0.00045319,0.00002266,-0.00023615,0.00033216,0.0000639
 7,0.00014763,0.00001739,-0.00000285,0.00002737,-0.00014512,-0.00051500
 ,0.00009760,-0.00059140,0.00026928,0.00034036,-0.00018561,0.00019533,-
 0.00017339,0.00056287,0.00017225,0.00036705,0.00013544,0.00011131,-0.0
 0037873,-0.00000393,-0.00004385,-0.00000619,-0.00003059,0.00003486,0.0
 0005682,-0.00043838,0.00011372,-0.00081918,0.00906824,-0.01187559,0.01
 092346,0.00002674,-0.00003225,-0.00001632,-0.00000520,0.00001593,0.000
 00185,-0.00003546,0.00002295,-0.00000453,-0.00002216,0.00001009,0.0000
 0219,0.00002771,-0.00002155,-0.00003233,-0.00000651,-0.00001259,0.0000
 0949,-0.00000120,-0.00003869,-0.00000139,0.00000628,-0.00000933,-0.000
 00247,0.03517300,-0.16897316,0.13843330,-0.04046964,0.18618970,0.00072
 093,0.00035472,0.00065926,0.00006198,-0.00002873,0.00005060,0.00003678
 ,-0.00012574,0.00000843,0.00008028,0.00001348,-0.00000679,-0.00010218,
 0.00029622,-0.00010355,0.00045960,0.00043836,-0.00033979,-0.00002970,-
 0.00032658,0.00006302,-0.00009094,0.00002753,-0.00007981,0.00005370,-0
 .00012058,0.00029020,-0.00003136,0.00001511,-0.00004861,0.00003957,-0.
 00004449,-0.00004474,0.00033537,-0.00013557,0.00058898,-0.00335352,-0.
 00022604,-0.00307131,-0.00001166,-0.00000870,-0.00000621,0.00000216,0.
 00000022,0.00000143,-0.00000255,-0.00000294,-0.00000220,-0.00000149,0.
 00000027,-0.00000514,-0.00001731,-0.00000052,0.00001316,0.00000085,-0.
 00000224,-0.00000472,0.00000347,0.00000928,0.00000119,0.00000003,0.000
 00356,0.00000240,-0.03534208,0.13668846,-0.19255616,0.04207905,-0.1486
 4847,0.20420940,-0.00010970,0.00238068,0.00142517,-0.00099912,0.000025
 68,-0.00021616,0.00151883,0.00087725,0.00035199,-0.00001758,-0.0000490
 3,0.00006473,0.00016439,-0.00136577,0.00003271,-0.00096771,-0.00055031
 ,-0.00079550,-0.00074336,0.00022833,-0.00012987,0.00141068,0.00032925,
 0.00005687,-0.00063627,0.00018742,0.00036375,0.00007956,-0.00000682,0.
 00012931,-0.00029664,-0.00009280,-0.00005048,-0.00187856,0.00008216,0.
 00250783,-0.00674977,-0.01372237,-0.02208336,0.00005403,-0.00009736,0.
 00005505,-0.00002060,0.00004239,0.00000088,-0.00008278,0.00005538,-0.0
 0003012,-0.00008323,0.00006589,-0.00000431,0.00007590,-0.00007700,-0.0
 0003753,-0.00000825,-0.00003112,0.00003436,-0.00003234,-0.00008265,-0.
 00000607,0.00000431,-0.00005039,-0.00000641,-0.05859587,-0.03580371,-0
 .05960035,-0.00218227,-0.00289284,-0.00452749,0.06353354,-0.00157984,0
 .00090386,0.00310966,-0.00049816,-0.00000626,-0.00011356,0.00065456,0.
 00025334,0.00029087,0.00002601,-0.00000456,0.00004342,0.00006478,-0.00
 074277,0.00004821,-0.00050950,0.00047133,-0.00032481,-0.00030892,0.000
 16832,-0.00001477,0.00069282,0.00021602,0.00002137,-0.00042293,0.00010
 981,0.00000386,0.00005236,-0.00001992,0.00008498,-0.00016139,-0.000001
 05,0.00000627,-0.00048443,-0.00036995,0.00105111,-0.00265555,-0.011372
 27,-0.01575995,0.00002781,-0.00004540,0.00000259,-0.00000907,0.0000210
 4,0.00000009,-0.00004729,0.00002551,-0.00001583,-0.00003284,0.00002635
 ,-0.00000382,0.00002278,-0.00004331,-0.00001051,-0.00000625,-0.0000171
 8,0.00001390,-0.00001402,-0.00003248,0.00000137,0.00000702,-0.00001959
 ,-0.00000142,-0.03386545,-0.10810995,-0.11366229,0.00600673,0.01166781
 ,0.01826171,0.03739827,0.11632489,0.00004326,0.00050035,-0.00183268,0.
 00011582,-0.00001304,-0.00000882,-0.00028407,0.00002627,0.00000233,-0.
 00002987,-0.00000926,-0.00005079,0.00002721,-0.00001384,-0.00001662,0.
 00033276,-0.00010785,-0.00036928,0.00011643,0.00006412,0.00010911,-0.0
 0016923,-0.00001058,0.00004843,-0.00006679,0.00022015,0.00007915,-0.00
 017318,-0.00003740,-0.00006930,0.00008962,-0.00003861,-0.00001130,-0.0
 0004050,-0.00115266,-0.00010682,-0.00032660,0.00391423,0.00820399,0.00
 000513,0.00001822,-0.00001538,0.00000045,-0.00000449,0.00000186,0.0000
 0654,-0.00000595,0.00000124,0.00001375,-0.00001126,0.00000060,-0.00000
 988,-0.00001011,0.00000428,-0.00000045,0.00000172,-0.00000256,-0.00000
 410,0.00001029,0.00000362,-0.00000265,0.00000905,-0.00000379,-0.054567
 24,-0.10910431,-0.23058286,-0.00493817,-0.01232037,-0.01818054,0.06093
 957,0.12180518,0.24913333,0.00473740,0.00213629,-0.00261746,-0.0005737
 5,-0.00008581,-0.00026061,0.00059042,0.00032268,0.00014156,0.00000399,
 -0.00000450,0.00003683,-0.00033568,-0.00076715,-0.00000923,0.00001195,
 -0.00011487,-0.00006327,-0.00017102,-0.00024029,-0.00006220,0.00052953
 ,0.00042804,0.00028511,-0.00080941,0.00072760,-0.00068692,0.00006056,0
 .00005957,0.00004417,-0.00003311,-0.00004438,-0.00001054,-0.00165269,-
 0.00443513,0.00092780,-0.02609281,0.01519524,0.00764178,0.00000874,-0.
 00003271,-0.00000026,-0.00001234,0.00002855,-0.00000070,-0.00004118,0.
 00002701,-0.00000659,-0.00003371,0.00002063,-0.00000475,0.00000170,-0.
 00003944,-0.00001580,-0.00000866,-0.00002420,0.00000620,0.00000636,-0.
 00003626,-0.00000178,0.00000696,-0.00000229,-0.00000842,-0.20933901,0.
 12409647,0.05938326,-0.00326176,0.00140100,0.00071800,0.00736434,-0.00
 545225,-0.00196940,0.22872300,-0.00015848,0.00117550,-0.00073410,0.000
 12361,-0.00004781,0.00001548,-0.00011538,0.00009115,-0.00005994,-0.000
 06512,-0.00001837,-0.00002890,-0.00003207,-0.00002111,-0.00004425,-0.0
 0009440,-0.00033805,0.00015538,0.00011043,-0.00014956,0.00006015,-0.00
 030234,0.00002164,-0.00002147,-0.00069828,0.00039894,-0.00047178,0.000
 00805,0.00007680,-0.00003019,0.00006215,0.00000497,0.00001333,-0.00127
 722,-0.00279016,0.00007189,-0.01865425,0.01026064,0.00705786,-0.000008
 87,0.00003052,0.00000651,-0.00000376,-0.00000163,-0.00000103,0.0000138
 3,-0.00000771,0.00000424,0.00001055,-0.00000729,-0.00000009,-0.0000217
 5,0.00000162,0.00000787,0.00000050,-0.00000033,-0.00000524,0.00000431,
 0.00001427,0.00000204,-0.00000058,0.00001245,-0.00000563,0.12742244,-0
 .13873567,-0.04144975,0.01396672,-0.01027756,-0.00725507,0.01184480,-0
 .00875773,-0.00294374,-0.13302381,0.14950737,-0.00024833,0.00024816,0.
 00020150,0.00035978,-0.00002665,0.00023316,-0.00047303,-0.00023734,-0.
 00001501,-0.00000380,0.00001024,-0.00001999,0.00003618,0.00057281,-0.0
 0004367,0.00015009,0.00031626,-0.00008645,0.00024693,-0.00015123,0.000
 10688,-0.00043746,-0.00010419,-0.00039820,-0.00005477,-0.00035677,0.00
 032350,0.00011718,0.00006485,-0.00001047,-0.00003442,0.00001613,-0.000
 01046,0.00065631,0.00070843,0.00039360,0.00224668,-0.00414086,-0.00252
 678,-0.00002319,0.00003407,-0.00000937,0.00000636,-0.00001492,-0.00000
 191,0.00003121,-0.00002643,0.00000664,0.00002885,-0.00001544,-0.000002
 62,-0.00003403,0.00002069,0.00004676,0.00000370,0.00001061,-0.00001368
 ,0.00000517,0.00004029,0.00000236,-0.00000209,0.00001208,0.00000483,0.
 05861725,-0.04001183,-0.06595080,-0.01881098,0.01216503,0.00808379,0.0
 2146485,-0.01492197,-0.00675450,-0.06349544,0.04582544,0.06625464,0.00
 009806,-0.00020337,0.00011340,0.00169586,-0.00025082,0.00066682,-0.035
 14070,-0.03390831,-0.00909710,-0.00036613,-0.00297725,0.00020080,-0.00
 093657,0.00151086,0.00004331,-0.11897531,-0.04451442,-0.01196044,0.000
 43396,0.00208913,-0.00053339,-0.00190578,-0.00013925,-0.00067404,-0.00
 131116,0.00295304,-0.00139094,0.00013274,0.00058730,-0.00001920,0.0002
 8216,0.00047118,-0.00015577,0.01617448,0.00159527,0.00146781,-0.001486
 43,0.00100749,0.00041363,-0.00039313,-0.00066305,-0.00023024,0.0000998
 8,-0.00001161,0.00000522,-0.00008814,-0.00000472,0.00001719,-0.0000253
 4,-0.00009806,-0.00007222,-0.00010657,-0.00003792,0.00004439,0.0000489
 9,0.00001544,-0.00002014,-0.00000825,0.00014277,-0.00001360,-0.0000316
 4,0.00004514,0.00001043,-0.00149635,0.00114908,0.00102273,-0.00170591,
 0.00190261,-0.00043183,-0.00003474,-0.00010041,0.00035377,0.00024363,0
 .00042480,-0.00037914,0.57179596,0.00016288,-0.00149214,0.00036136,0.0
 0267103,-0.00024505,0.00099637,-0.00655474,0.00155592,-0.00284202,0.00
 217993,0.00248049,0.00168463,0.00110169,0.00239824,0.00015317,-0.06688
 951,-0.18559864,-0.01404886,0.00468336,-0.00186193,0.00018933,-0.00346
 965,-0.00072803,-0.00125168,0.00248768,-0.00014652,-0.00036688,-0.0003
 6398,-0.00056102,0.00005500,-0.00052124,-0.00069270,0.00014618,-0.0121
 4530,-0.02255835,-0.00300941,-0.00234246,0.00283691,-0.00001810,-0.000
 05635,0.00067706,0.00010967,-0.00003090,-0.00013200,-0.00001055,0.0002
 6243,-0.00017267,0.00004343,0.00024455,-0.00013348,-0.00000262,-0.0002
 5038,-0.00009247,0.00015554,-0.00000979,0.00005698,-0.00006578,-0.0000
 4445,0.00022767,0.00004933,-0.00003993,0.00014037,-0.00008119,0.003712
 94,-0.00144299,-0.00174469,0.00164845,-0.00149933,0.00101269,0.0000067
 4,-0.00009154,-0.00061479,-0.00014709,-0.00080037,0.00016897,-0.042952
 56,0.51688023,-0.00042233,0.00030932,-0.00030329,0.00043479,0.00005567
 ,0.00021927,-0.01390717,-0.01095471,-0.00091212,0.00197087,0.00005587,
 -0.00269742,0.00055228,-0.00035549,-0.00031638,-0.01463158,-0.01905236
 ,-0.06479493,0.00021717,0.00258604,0.00444946,-0.00035771,-0.00044238,
 -0.00057164,-0.00101102,0.00114418,0.00308466,-0.00025565,-0.00048695,
 0.00011860,0.00028810,0.00055619,0.00010818,0.00032952,0.00343877,0.00
 289254,0.00149169,0.00037113,-0.00040246,-0.00062172,-0.00005356,0.001
 33471,0.00003623,-0.00008229,-0.00004781,0.00039981,-0.00028990,0.0001
 4116,-0.00039863,0.00022797,-0.00005587,-0.00004293,0.00004663,-0.0000
 2754,-0.00001019,0.00000683,-0.00000263,-0.00003775,-0.00000491,0.0000
 2547,0.00005013,0.00005351,0.00004356,0.00157648,-0.00057938,0.0001413
 8,0.00090841,-0.00061656,0.00021672,-0.00028913,-0.00021877,-0.0007707
 0,-0.00001373,-0.00054327,-0.00044775,0.01020231,-0.00864184,0.5505825
 1,-0.00008202,-0.00016363,0.00015722,-0.00068545,0.00003826,-0.0002460
 1,-0.00194489,-0.00353557,-0.00182259,0.00070877,-0.00022820,0.0000207
 0,-0.00013372,-0.00073426,0.00003071,-0.01270988,0.00019475,-0.0104844
 8,-0.00036059,0.00109686,-0.00009893,0.00087698,0.00015039,0.00029499,
 -0.00017370,-0.00031250,0.00030430,0.00001473,0.00000214,-0.00002478,0
 .00000809,0.00007334,-0.00000617,-0.00006737,0.00196593,0.00064369,0.0
 0084134,-0.00024250,-0.00055716,-0.00010171,-0.00019260,0.00016911,0.0
 0002538,0.00002153,0.00000042,-0.00003448,0.00001118,-0.00000361,-0.00
 012160,0.00005626,-0.00002649,0.00002882,-0.00000388,-0.00003470,-0.00
 000569,-0.00002212,0.00000948,0.00001208,-0.00005512,-0.00000908,0.000
 01157,-0.00002230,0.00000757,-0.00165597,0.00113312,0.00039641,-0.0001
 2447,-0.00000604,0.00023352,-0.00103887,0.00134514,0.00048420,-0.00000
 261,0.00017580,0.00018926,-0.16031434,0.02044414,-0.13827901,0.1775223
 2,0.00034388,-0.00024700,0.00015666,-0.00023904,-0.00008331,-0.0000043
 7,-0.00145084,-0.00405149,-0.00135776,-0.00037815,-0.00061142,-0.00036
 363,-0.00046837,0.00055662,-0.00044308,-0.02044692,0.00502110,-0.02147
 659,-0.00115935,-0.00043218,0.00050378,0.00031420,0.00029730,-0.000115
 79,-0.00010250,-0.00010822,0.00035587,0.00007658,0.00008779,0.00000740
 ,0.00004974,0.00015563,-0.00001408,0.00062307,0.00049700,0.00075036,-0
 .00063723,-0.00040687,-0.00021847,-0.00017798,-0.00020369,0.00032959,0
 .00000839,0.00002108,-0.00000403,0.00002573,-0.00002954,0.00000645,-0.
 00015102,0.00006346,-0.00004415,-0.00002815,0.00000382,0.00003298,0.00
 000066,-0.00001837,-0.00000156,0.00001569,0.00000365,0.00000060,0.0000
 1638,-0.00000425,0.00001802,0.00130592,-0.00088404,-0.00055064,0.00016
 321,-0.00015373,-0.00008161,0.00132084,-0.00051373,-0.00022951,0.00008
 492,-0.00001498,0.00003611,0.02156432,-0.05059339,0.02424502,-0.020465
 16,0.05478936,0.00024451,0.00010653,0.00013173,-0.00044766,0.00006259,
 -0.00017691,0.00168660,0.00006127,-0.00049944,-0.00015976,-0.00006513,
 -0.00000074,-0.00008004,-0.00040482,0.00004764,-0.00149649,-0.00080765
 ,-0.00012822,-0.00017744,0.00045715,-0.00039578,0.00053243,0.00004782,
 0.00024689,0.00001023,-0.00021778,0.00020083,-0.00001374,0.00000422,-0
 .00002994,0.00001629,0.00005644,-0.00001446,0.00017805,0.00044407,0.00
 030216,-0.00050349,-0.00074106,-0.00079594,0.00001668,-0.00004509,0.00
 013660,-0.00000228,0.00000981,-0.00000087,-0.00000436,0.00000673,0.000
 00250,-0.00005599,0.00002469,-0.00000043,0.00003776,0.00002466,-0.0000
 2089,-0.00000209,-0.00000723,0.00000713,0.00001175,-0.00003875,-0.0000
 0964,0.00000442,-0.00001946,0.00000290,-0.00113697,0.00042444,0.000317
 48,0.00004845,-0.00011473,-0.00090156,0.00017667,0.00014257,0.00090406
 ,0.00000734,0.00055367,0.00014101,-0.13790789,0.02228846,-0.20483329,0
 .14962830,-0.02563201,0.21781443,0.00011586,-0.00040958,0.00006315,-0.
 00113164,0.00007549,-0.00043437,0.00127892,-0.00148302,0.00061212,-0.0
 0011020,-0.00010140,0.00066224,-0.00020763,-0.00087059,-0.00018198,-0.
 01143212,-0.00828241,0.00987273,-0.00119036,0.00027894,-0.00084173,0.0
 0137325,0.00026330,0.00050814,0.00003760,-0.00059898,-0.00000048,0.000
 04436,0.00008732,-0.00008324,-0.00004874,-0.00000812,-0.00002266,-0.00
 088580,0.00195063,0.00006115,0.00039336,0.00027557,0.00000696,0.000089
 89,-0.00017517,-0.00015781,-0.00000216,0.00004636,0.00001673,-0.000160
 60,0.00007766,-0.00004971,-0.00004414,0.00003046,-0.00000523,0.0000431
 5,0.00000382,-0.00001318,-0.00000925,-0.00003495,0.00001883,0.00002111
 ,-0.00007799,-0.00001255,0.00001378,-0.00004636,0.00000700,-0.00029625
 ,0.00003300,0.00022398,-0.00102826,0.00184660,-0.00023712,-0.00000115,
 -0.00000983,-0.00018621,0.00003605,-0.00010242,-0.00001676,-0.11152401
 ,-0.03289969,0.11369616,0.01123707,0.00576079,-0.01737608,0.12347895,0
 .00027471,0.00066346,-0.00015859,-0.00183640,0.00000352,-0.00067860,0.
 00433870,-0.00026232,0.00179490,-0.00020125,-0.00002608,0.00019838,-0.
 00107263,-0.00084456,-0.00011496,-0.01800252,-0.00945798,0.01996560,-0
 .00183617,-0.00121436,-0.00098072,0.00227053,0.00092489,0.00088912,0.0
 0030596,-0.00067313,-0.00050800,0.00014693,0.00016683,-0.00007682,0.00
 000075,-0.00006590,-0.00005232,-0.00096129,-0.00035829,-0.00077039,-0.
 00042363,-0.00077448,0.00064849,0.00019215,-0.00021938,-0.00035465,-0.
 00002900,0.00010123,0.00001214,-0.00024204,0.00015627,-0.00006001,-0.0
 0003810,0.00002665,0.00000403,0.00007640,-0.00002590,-0.00005256,-0.00
 001037,-0.00005564,0.00002546,0.00004076,-0.00011565,-0.00001627,0.000
 01779,-0.00006980,0.00001880,0.00016232,-0.00012876,0.00031313,0.00165
 133,-0.00162355,-0.00007906,0.00000154,-0.00003529,0.00000951,-0.00003
 787,0.00026883,-0.00019352,-0.03481258,-0.06126685,0.05719724,-0.00151
 850,-0.00139949,0.00334102,0.03979855,0.06940795,-0.00007974,-0.000070
 23,0.00013422,0.00013052,-0.00001241,0.00002400,-0.00042769,-0.0004146
 2,-0.00049862,-0.00013711,0.00008512,0.00008414,-0.00007350,0.00009996
 ,0.00031368,-0.00402485,0.00192082,0.01062806,0.00014524,-0.00010058,-
 0.00089113,-0.00019868,-0.00003704,0.00004289,0.00002019,0.00017258,-0
 .00016487,-0.00004605,0.00000251,-0.00002223,-0.00000450,-0.00000333,-
 0.00002753,0.00111747,-0.00102643,-0.00037545,-0.00020222,-0.00000107,
 -0.00034868,0.00001007,-0.00002344,-0.00007154,0.00001261,0.00000081,-
 0.00000192,-0.00002121,0.00000988,0.00000219,0.00002471,-0.00002966,0.
 00000794,0.00000151,-0.00000479,-0.00002191,0.00000131,0.00000533,-0.0
 0000149,-0.00000147,0.00000168,-0.00000253,-0.00000428,0.00001001,-0.0
 0000863,0.00061588,-0.00037136,-0.00077470,0.00025510,-0.00042341,0.00
 101219,-0.00000355,0.00016565,0.00003592,-0.00000981,-0.00025194,0.000
 25997,0.11027728,0.05398116,-0.22639031,0.01298029,0.00530007,-0.01990
 563,-0.12271308,-0.06009804,0.24231960,0.00024806,0.00006184,-0.000033
 59,0.00020778,0.00000379,0.00008471,0.00092085,-0.00258345,-0.00021753
 ,-0.00036020,-0.00066857,-0.00046812,0.00034832,0.00017889,-0.00027450
 ,0.01004023,-0.01579608,-0.00504296,0.00036583,-0.00039732,0.00007913,
 -0.00027930,-0.00013023,-0.00018216,0.00011937,-0.00048171,0.00041932,
 -0.00007091,-0.00013331,-0.00001174,-0.00003067,-0.00007562,0.00001515
 ,-0.00212270,-0.00168722,-0.00024449,-0.00060829,-0.00028997,-0.000052
 07,-0.00004919,0.00011916,0.00020465,-0.00002312,-0.00000646,-0.000000
 24,0.00007641,-0.00004384,0.00000168,-0.00000334,0.00002438,-0.0000045
 8,-0.00005359,0.00000131,0.00006233,-0.00000509,-0.00000308,-0.0000079
 0,-0.00000265,0.00002961,0.00000440,-0.00000126,0.00001215,-0.00000645
 ,-0.00077372,0.00044763,0.00077058,-0.00006086,0.00025699,-0.00064604,
 0.00027323,-0.00014014,0.00023984,0.00004311,0.00039077,-0.00014634,-0
 .15515520,0.12911218,0.03812459,-0.01172980,0.01403041,0.00676479,-0.0
 1009104,0.01174392,0.00235555,0.16877776,0.00017844,-0.00001291,0.0000
 4653,-0.00097318,-0.00000159,-0.00036389,0.00532039,0.00254984,0.00237
 719,-0.00213586,-0.00049745,-0.00127947,-0.00022744,-0.00018806,0.0000
 0248,0.01536859,-0.02389099,-0.00520910,-0.00130419,-0.00082799,-0.000
 09642,0.00111386,0.00049017,0.00041266,0.00080554,-0.00064980,0.000248
 93,-0.00003005,-0.00020529,-0.00002419,-0.00009224,-0.00018836,0.00004
 930,-0.00432390,-0.00169281,-0.00183602,-0.00011972,0.00015902,0.00009
 502,0.00009475,-0.00005160,-0.00006985,-0.00005200,0.00006263,-0.00001
 159,-0.00007552,0.00007120,-0.00001528,-0.00004037,0.00003644,0.000009
 02,0.00003129,-0.00002246,-0.00003524,-0.00002221,-0.00002301,0.000009
 04,0.00000981,-0.00006646,0.00000962,0.00002342,-0.00001695,0.00000344
 ,-0.00017609,0.00015824,0.00000258,0.00008563,-0.00001903,-0.00003527,
 -0.00002446,-0.00000530,0.00004866,-0.00003995,0.00010363,-0.00004903,
 0.12521590,-0.19714437,-0.04797200,0.00079357,-0.00174111,0.00003760,-
 0.00542798,0.00689777,0.00111276,-0.13397604,0.21671660,-0.00003470,0.
 00021387,-0.00004354,-0.00034369,-0.00001189,-0.00010759,0.00151173,0.
 00023430,0.00074773,-0.00105410,-0.00088361,0.00006588,-0.00025605,-0.
 00000302,-0.00009470,0.00148960,-0.00104053,-0.00226540,-0.00034569,-0
 .00066393,-0.00015420,0.00041592,0.00024876,0.00010641,0.00006304,-0.0
 0003746,0.00019726,-0.00001356,-0.00003501,0.00004832,0.00000785,0.000
 06030,0.00004098,-0.00029272,-0.00050715,0.00019088,0.00000125,-0.0002
 3119,-0.00004152,0.00003638,0.00000679,-0.00001325,-0.00002538,0.00002
 381,0.00000248,-0.00001356,0.00001887,-0.00000290,-0.00000300,0.000018
 14,0.00000603,0.00001340,0.00000063,-0.00000157,-0.00000261,-0.0000107
 5,0.00000414,0.00000527,-0.00001899,0.00000096,0.00000672,-0.00001012,
 0.00000681,-0.00019073,0.00032194,-0.00034393,-0.00008153,-0.00016787,
 0.00015037,0.00017658,-0.00000512,0.00024803,0.00004489,0.00007253,0.0
 0023300,0.03804686,-0.04869687,-0.06078406,-0.01395715,0.01879437,0.00
 745838,0.01658301,-0.02022331,-0.00535763,-0.04178802,0.05253250,0.059
 70263\\0.00000080,-0.00000583,-0.00000369,0.00001085,-0.00000044,0.000
 00341,-0.00002568,0.00000714,0.00000360,0.00000210,-0.00000136,-0.0000
 0329,0.,0.00000655,0.00001029,0.00002663,-0.00002293,0.00000602,0.0000
 1767,0.00000186,-0.00000181,-0.00001507,-0.00000215,-0.00001110,0.0000
 0166,0.00001642,0.00000781,0.00000114,-0.00000521,-0.00000381,0.000004
 35,-0.00000332,0.00000045,-0.00001864,0.00000862,-0.00000546,0.0000024
 4,0.00000556,-0.00000543,-0.00000282,0.00000147,-0.00000084,0.00000052
 ,-0.00000093,0.00000262,-0.00000117,0.00000010,0.00000249,0.00000016,-
 0.00000224,0.00000345,-0.00000177,-0.00000341,0.00001098,-0.00000004,-
 0.00000088,0.00000299,-0.00000291,0.00000020,-0.00000209,-0.00000060,-
 0.00000278,-0.00000319,0.00000719,-0.00000541,-0.00000051,-0.00000072,
 0.00000181,-0.00000271,-0.00000212,0.00000368,-0.00000341,-0.00000223,
 0.00000003,0.00000024,-0.00000433,0.00000345,-0.00000520,0.00000046,0.
 00000125,0.00000037,0.00000148,-0.00000065,0.00000040,0.00000065,-0.00
 000062,-0.00000259\\\@


 MYSTERY IS THE WISDOM OF BLOCKHEADS... HORACE WALPOLE 
 Job cpu time:       0 days  7 hours 40 minutes 11.5 seconds.
 Elapsed time:       0 days  0 hours 16 minutes 30.4 seconds.
 File lengths (MBytes):  RWF=   1417 Int=      0 D2E=      0 Chk=     67 Scr=      1
 Normal termination of Gaussian 16 at Mon Mar  9 18:49:24 2026.
