 Entering Gaussian System, Link 0=g16
 Input=DDL-S2min-S2-cLR-1.gjf
 Output=DDL-S2min-S2-cLR-1.log
 Initial command:
 /data/home/wyx/g16/l1.exe "/scr/tmp/wyx/13952/Gau-2546693.inp" -scrdir="/scr/tmp/wyx/13952/"
 Entering Link 1 = /data/home/wyx/g16/l1.exe PID=   2546694.
  
 Copyright (c) 1988,1990,1992,1993,1995,1998,2003,2009,2016,
            Gaussian, Inc.  All Rights Reserved.
  
 This is part of the Gaussian(R) 16 program.  It is based on
 the Gaussian(R) 09 system (copyright 2009, Gaussian, Inc.),
 the Gaussian(R) 03 system (copyright 2003, Gaussian, Inc.),
 the Gaussian(R) 98 system (copyright 1998, Gaussian, Inc.),
 the Gaussian(R) 94 system (copyright 1995, Gaussian, Inc.),
 the Gaussian 92(TM) system (copyright 1992, Gaussian, Inc.),
 the Gaussian 90(TM) system (copyright 1990, Gaussian, Inc.),
 the Gaussian 88(TM) system (copyright 1988, Gaussian, Inc.),
 the Gaussian 86(TM) system (copyright 1986, Carnegie Mellon
 University), and the Gaussian 82(TM) system (copyright 1983,
 Carnegie Mellon University). Gaussian is a federally registered
 trademark of Gaussian, Inc.
  
 This software contains proprietary and confidential information,
 including trade secrets, belonging to Gaussian, Inc.
  
 This software is provided under written license and may be
 used, copied, transmitted, or stored only in accord with that
 written license.
  
 The following legend is applicable only to US Government
 contracts under FAR:
  
                    RESTRICTED RIGHTS LEGEND
  
 Use, reproduction and disclosure by the US Government is
 subject to restrictions as set forth in subparagraphs (a)
 and (c) of the Commercial Computer Software - Restricted
 Rights clause in FAR 52.227-19.
  
 Gaussian, Inc.
 340 Quinnipiac St., Bldg. 40, Wallingford CT 06492
  
  
 ---------------------------------------------------------------
 Warning -- This program may not be used in any manner that
 competes with the business of Gaussian, Inc. or will provide
 assistance to any competitor of Gaussian, Inc.  The licensee
 of this program is prohibited from giving any competitor of
 Gaussian, Inc. access to this program.  By using this program,
 the user acknowledges that Gaussian, Inc. is engaged in the
 business of creating and licensing software in the field of
 computational chemistry and represents and warrants to the
 licensee that it is not a competitor of Gaussian, Inc. and that
 it will not use this program in any manner prohibited above.
 ---------------------------------------------------------------
  

 Cite this work as:
 Gaussian 16, Revision A.03,
 M. J. Frisch, G. W. Trucks, H. B. Schlegel, G. E. Scuseria, 
 M. A. Robb, J. R. Cheeseman, G. Scalmani, V. Barone, 
 G. A. Petersson, H. Nakatsuji, X. Li, M. Caricato, A. V. Marenich, 
 J. Bloino, B. G. Janesko, R. Gomperts, B. Mennucci, H. P. Hratchian, 
 J. V. Ortiz, A. F. Izmaylov, J. L. Sonnenberg, D. Williams-Young, 
 F. Ding, F. Lipparini, F. Egidi, J. Goings, B. Peng, A. Petrone, 
 T. Henderson, D. Ranasinghe, V. G. Zakrzewski, J. Gao, N. Rega, 
 G. Zheng, W. Liang, M. Hada, M. Ehara, K. Toyota, R. Fukuda, 
 J. Hasegawa, M. Ishida, T. Nakajima, Y. Honda, O. Kitao, H. Nakai, 
 T. Vreven, K. Throssell, J. A. Montgomery, Jr., J. E. Peralta, 
 F. Ogliaro, M. J. Bearpark, J. J. Heyd, E. N. Brothers, K. N. Kudin, 
 V. N. Staroverov, T. A. Keith, R. Kobayashi, J. Normand, 
 K. Raghavachari, A. P. Rendell, J. C. Burant, S. S. Iyengar, 
 J. Tomasi, M. Cossi, J. M. Millam, M. Klene, C. Adamo, R. Cammi, 
 J. W. Ochterski, R. L. Martin, K. Morokuma, O. Farkas, 
 J. B. Foresman, and D. J. Fox, Gaussian, Inc., Wallingford CT, 2016.
 
 ******************************************
 Gaussian 16:  ES64L-G16RevA.03 25-Dec-2016
                 9-Mar-2026 
 ******************************************
 %nprocshared=32
 Will use up to   32 processors via shared memory.
 %mem=16GB
 %oldchk=DDL-S2min-S2-cLR.chk
 %chk=DDL-S2min-S2-cLR-1.chk
 Copying data from "DDL-S2min-S2-cLR.chk" to current chk file "DDL-S2min-S2-cLR-1.chk"
 IOpt=  2 FromEx=T IUOpen= 4 IOptOp= 5 NList=   0 IFRang= 0 IUIn= 4 IUOut= 2.
 ----------------------------------------------------------------------
 #p M062X/TZVP em=gd3 SCRF=(Solvent=Water,NonEquilibrium=Read) Geom=Che
 ck Guess=Read NoSymm
 ----------------------------------------------------------------------
 1/29=2,38=1,172=1/1;
 2/12=2,15=1,40=1/2;
 3/5=19,7=101,11=2,14=-4,25=1,30=1,70=6002201,72=1,74=-55,116=-2,124=31/1,2,3;
 4/5=1/1;
 5/5=2,38=6,53=1/2;
 6/7=2,8=2,9=2,10=2,28=1/1;
 99/5=1,9=1/99;
 Leave Link    1 at Mon Mar  9 23:06:47 2026, MaxMem=  2147483648 cpu:               1.6 elap:               0.1
 (Enter /data/home/wyx/g16/l101.exe)
 -------------------
 Title Card Required
 -------------------
 Structure from the checkpoint file:  "DDL-S2min-S2-cLR-1.chk"
 Charge =  0 Multiplicity = 1
 Redundant internal coordinates found in file.  (old form).
 O,0,1.3204133029,9.8455159569,1.0446426101
 O,0,-4.8207559336,9.7622675218,-0.3855686362
 N,0,-2.1017649441,12.9416221948,0.337310063
 H,0,-2.4152014455,13.897181652,0.2715308017
 C,0,-2.6778687415,10.6389838679,0.2061250798
 C,0,-0.7801592342,12.7251757553,0.5666783554
 C,0,-3.0525112023,11.9460513239,0.1057630323
 C,0,-3.5980678295,9.5716519209,-0.0190347855
 C,0,-1.267350596,10.2605613586,0.6004607107
 H,0,-1.270998259,9.7467155076,1.5692121952
 H,0,-0.866180229,9.5302259445,-0.1073203614
 C,0,-0.3157054559,11.4408417034,0.6606892128
 C,0,1.0675658354,11.0391132765,0.86761847
 C,0,-4.42754602,12.4414296131,-0.2191791643
 H,0,-4.4382425649,13.5274060277,-0.3168464629
 H,0,-4.7864257046,12.0240684501,-1.1620840723
 H,0,-5.144268673,12.1692097485,0.558896094
 C,0,-3.2636241037,8.0888153662,0.0847173071
 H,0,-4.0355972664,7.5690294224,0.6529291414
 H,0,-3.2047696486,7.6395445959,-0.9091716325
 H,0,-2.3097454442,7.9783365503,0.5938312535
 C,0,2.2332888647,12.0068628033,0.8524915377
 H,0,2.1771227702,12.7203893995,0.0338420626
 H,0,2.2823626551,12.5648986928,1.7890246452
 H,0,3.1437699592,11.4193313502,0.7581233718
 C,0,0.0103264473,14.0007490737,0.682514535
 H,0,0.7037763903,13.9752777891,1.5168761666
 H,0,0.5749528669,14.1943724638,-0.2300064603
 H,0,-0.665966826,14.8402051194,0.8379349295
 Recover connectivity data from disk.
 ITRead=  0  0  0  0  0  0  0  0  0  0  0  0  0  0  0  0  0  0  0  0
 ITRead=  0  0  0  0  0  0  0  0  0
 MicOpt= -1 -1 -1 -1 -1 -1 -1 -1 -1 -1 -1 -1 -1 -1 -1 -1 -1 -1 -1 -1
 MicOpt= -1 -1 -1 -1 -1 -1 -1 -1 -1
                           ----------------------------
                           !    Current Parameters    !
                           ! (Angstroms and Degrees)  !
 --------------------------                            --------------------------
 ! Name  Definition              Value                                          !
 --------------------------------------------------------------------------------
 ! R1    R(1,13)                 1.2329                                         !
 ! R2    R(2,8)                  1.2906                                         !
 ! R3    R(3,4)                  1.0078                                         !
 ! R4    R(3,6)                  1.3587                                         !
 ! R5    R(3,7)                  1.396                                          !
 ! R6    R(5,7)                  1.3634                                         !
 ! R7    R(5,8)                  1.4271                                         !
 ! R8    R(5,9)                  1.5127                                         !
 ! R9    R(6,12)                 1.369                                          !
 ! R10   R(6,26)                 1.5051                                         !
 ! R11   R(7,14)                 1.4972                                         !
 ! R12   R(8,18)                 1.5236                                         !
 ! R13   R(9,10)                 1.0966                                         !
 ! R14   R(9,11)                 1.0933                                         !
 ! R15   R(9,12)                 1.5173                                         !
 ! R16   R(12,13)                1.4552                                         !
 ! R17   R(13,22)                1.5151                                         !
 ! R18   R(14,15)                1.0904                                         !
 ! R19   R(14,16)                1.0918                                         !
 ! R20   R(14,17)                1.0923                                         !
 ! R21   R(18,19)                1.0904                                         !
 ! R22   R(18,20)                1.0923                                         !
 ! R23   R(18,21)                1.0869                                         !
 ! R24   R(22,23)                1.0874                                         !
 ! R25   R(22,24)                1.0913                                         !
 ! R26   R(22,25)                1.0877                                         !
 ! R27   R(26,27)                1.0852                                         !
 ! R28   R(26,28)                1.0904                                         !
 ! R29   R(26,29)                1.0891                                         !
 ! A1    A(4,3,6)              117.683                                          !
 ! A2    A(4,3,7)              116.9727                                         !
 ! A3    A(6,3,7)              125.23                                           !
 ! A4    A(7,5,8)              121.8839                                         !
 ! A5    A(7,5,9)              121.0136                                         !
 ! A6    A(8,5,9)              117.0825                                         !
 ! A7    A(3,6,12)             119.4099                                         !
 ! A8    A(3,6,26)             112.8824                                         !
 ! A9    A(12,6,26)            127.7072                                         !
 ! A10   A(3,7,5)              118.9704                                         !
 ! A11   A(3,7,14)             115.1835                                         !
 ! A12   A(5,7,14)             125.8402                                         !
 ! A13   A(2,8,5)              123.0393                                         !
 ! A14   A(2,8,18)             111.7796                                         !
 ! A15   A(5,8,18)             125.1413                                         !
 ! A16   A(5,9,10)             110.1459                                         !
 ! A17   A(5,9,11)             109.9075                                         !
 ! A18   A(5,9,12)             113.6138                                         !
 ! A19   A(10,9,11)            105.0767                                         !
 ! A20   A(10,9,12)            109.3606                                         !
 ! A21   A(11,9,12)            108.372                                          !
 ! A22   A(6,12,9)             120.9481                                         !
 ! A23   A(6,12,13)            126.2465                                         !
 ! A24   A(9,12,13)            112.773                                          !
 ! A25   A(1,13,12)            118.8579                                         !
 ! A26   A(1,13,22)            117.5173                                         !
 ! A27   A(12,13,22)           123.6142                                         !
 ! A28   A(7,14,15)            110.9753                                         !
 ! A29   A(7,14,16)            111.2738                                         !
 ! A30   A(7,14,17)            111.441                                          !
 ! A31   A(15,14,16)           107.4655                                         !
 ! A32   A(15,14,17)           107.7918                                         !
 ! A33   A(16,14,17)           107.7112                                         !
 ! A34   A(8,18,19)            110.1215                                         !
 ! A35   A(8,18,20)            110.4973                                         !
 ! A36   A(8,18,21)            108.873                                          !
 ! A37   A(19,18,20)           108.4352                                         !
 ! A38   A(19,18,21)           109.1954                                         !
 ! A39   A(20,18,21)           109.7016                                         !
 ! A40   A(13,22,23)           112.7607                                         !
 ! A41   A(13,22,24)           110.6489                                         !
 ! A42   A(13,22,25)           107.4506                                         !
 ! A43   A(23,22,24)           108.2323                                         !
 ! A44   A(23,22,25)           109.412                                          !
 ! A45   A(24,22,25)           108.2419                                         !
 ! A46   A(6,26,27)            112.0171                                         !
 ! A47   A(6,26,28)            110.9797                                         !
 ! A48   A(6,26,29)            109.7594                                         !
 ! A49   A(27,26,28)           108.4638                                         !
 ! A50   A(27,26,29)           107.7678                                         !
 ! A51   A(28,26,29)           107.7035                                         !
 ! D1    D(4,3,6,12)          -179.9145                                         !
 ! D2    D(4,3,6,26)            -0.1494                                         !
 ! D3    D(7,3,6,12)            -3.9307                                         !
 ! D4    D(7,3,6,26)           175.8345                                         !
 ! D5    D(4,3,7,5)           -178.9201                                         !
 ! D6    D(4,3,7,14)             0.246                                          !
 ! D7    D(6,3,7,5)              5.0704                                         !
 ! D8    D(6,3,7,14)          -175.7636                                         !
 ! D9    D(8,5,7,3)           -179.9262                                         !
 ! D10   D(8,5,7,14)             1.0048                                         !
 ! D11   D(9,5,7,3)              1.7523                                         !
 ! D12   D(9,5,7,14)          -177.3167                                         !
 ! D13   D(7,5,8,2)              3.0492                                         !
 ! D14   D(7,5,8,18)          -179.4387                                         !
 ! D15   D(9,5,8,2)           -178.5664                                         !
 ! D16   D(9,5,8,18)            -1.0544                                         !
 ! D17   D(7,5,9,10)           114.6735                                         !
 ! D18   D(7,5,9,11)          -130.0159                                         !
 ! D19   D(7,5,9,12)            -8.4035                                         !
 ! D20   D(8,5,9,10)           -63.7258                                         !
 ! D21   D(8,5,9,11)            51.5848                                         !
 ! D22   D(8,5,9,12)           173.1972                                         !
 ! D23   D(3,6,12,9)            -3.913                                          !
 ! D24   D(3,6,12,13)          178.3117                                         !
 ! D25   D(26,6,12,9)          176.3605                                         !
 ! D26   D(26,6,12,13)          -1.4147                                         !
 ! D27   D(3,6,26,27)          135.5107                                         !
 ! D28   D(3,6,26,28)         -103.0944                                         !
 ! D29   D(3,6,26,29)           15.8397                                         !
 ! D30   D(12,6,26,27)         -44.748                                          !
 ! D31   D(12,6,26,28)          76.6469                                         !
 ! D32   D(12,6,26,29)        -164.4189                                         !
 ! D33   D(3,7,14,15)            5.5209                                         !
 ! D34   D(3,7,14,16)          125.1381                                         !
 ! D35   D(3,7,14,17)         -114.6203                                         !
 ! D36   D(5,7,14,15)         -175.3792                                         !
 ! D37   D(5,7,14,16)          -55.7619                                         !
 ! D38   D(5,7,14,17)           64.4797                                         !
 ! D39   D(2,8,18,19)          -48.3074                                         !
 ! D40   D(2,8,18,20)           71.4622                                         !
 ! D41   D(2,8,18,21)         -167.9971                                         !
 ! D42   D(5,8,18,19)          133.9385                                         !
 ! D43   D(5,8,18,20)         -106.292                                          !
 ! D44   D(5,8,18,21)           14.2488                                         !
 ! D45   D(5,9,12,6)             9.5404                                         !
 ! D46   D(5,9,12,13)         -172.4054                                         !
 ! D47   D(10,9,12,6)         -113.966                                          !
 ! D48   D(10,9,12,13)          64.0882                                         !
 ! D49   D(11,9,12,6)          132.0044                                         !
 ! D50   D(11,9,12,13)         -49.9414                                         !
 ! D51   D(6,12,13,1)          173.9341                                         !
 ! D52   D(6,12,13,22)          -7.2832                                         !
 ! D53   D(9,12,13,1)           -3.9966                                         !
 ! D54   D(9,12,13,22)         174.7861                                         !
 ! D55   D(1,13,22,23)         134.6977                                         !
 ! D56   D(1,13,22,24)        -103.9236                                         !
 ! D57   D(1,13,22,25)          14.0538                                         !
 ! D58   D(12,13,22,23)        -44.1002                                         !
 ! D59   D(12,13,22,24)         77.2785                                         !
 ! D60   D(12,13,22,25)       -164.7441                                         !
 --------------------------------------------------------------------------------
 NAtoms=     29 NQM=       29 NQMF=       0 NMMI=      0 NMMIF=      0
                NMic=       0 NMicF=      0.
                    Isotopes and Nuclear Properties:
 (Nuclear quadrupole moments (NQMom) in fm**2, nuclear magnetic moments (NMagM)
  in nuclear magnetons)

  Atom         1           2           3           4           5           6           7           8           9          10
 IAtWgt=          16          16          14           1          12          12          12          12          12           1
 AtmWgt=  15.9949146  15.9949146  14.0030740   1.0078250  12.0000000  12.0000000  12.0000000  12.0000000  12.0000000   1.0078250
 NucSpn=           0           0           2           1           0           0           0           0           0           1
 AtZEff=   5.6000000   5.6000000   4.5500000   1.0000000   3.6000000   3.6000000   3.6000000   3.6000000   3.6000000   1.0000000
 NQMom=    0.0000000   0.0000000   2.0440000   0.0000000   0.0000000   0.0000000   0.0000000   0.0000000   0.0000000   0.0000000
 NMagM=    0.0000000   0.0000000   0.4037610   2.7928460   0.0000000   0.0000000   0.0000000   0.0000000   0.0000000   2.7928460
 AtZNuc=   8.0000000   8.0000000   7.0000000   1.0000000   6.0000000   6.0000000   6.0000000   6.0000000   6.0000000   1.0000000

  Atom        11          12          13          14          15          16          17          18          19          20
 IAtWgt=           1          12          12          12           1           1           1          12           1           1
 AtmWgt=   1.0078250  12.0000000  12.0000000  12.0000000   1.0078250   1.0078250   1.0078250  12.0000000   1.0078250   1.0078250
 NucSpn=           1           0           0           0           1           1           1           0           1           1
 AtZEff=   1.0000000   3.6000000   3.6000000   3.6000000   1.0000000   1.0000000   1.0000000   3.6000000   1.0000000   1.0000000
 NQMom=    0.0000000   0.0000000   0.0000000   0.0000000   0.0000000   0.0000000   0.0000000   0.0000000   0.0000000   0.0000000
 NMagM=    2.7928460   0.0000000   0.0000000   0.0000000   2.7928460   2.7928460   2.7928460   0.0000000   2.7928460   2.7928460
 AtZNuc=   1.0000000   6.0000000   6.0000000   6.0000000   1.0000000   1.0000000   1.0000000   6.0000000   1.0000000   1.0000000

  Atom        21          22          23          24          25          26          27          28          29
 IAtWgt=           1          12           1           1           1          12           1           1           1
 AtmWgt=   1.0078250  12.0000000   1.0078250   1.0078250   1.0078250  12.0000000   1.0078250   1.0078250   1.0078250
 NucSpn=           1           0           1           1           1           0           1           1           1
 AtZEff=   1.0000000   3.6000000   1.0000000   1.0000000   1.0000000   3.6000000   1.0000000   1.0000000   1.0000000
 NQMom=    0.0000000   0.0000000   0.0000000   0.0000000   0.0000000   0.0000000   0.0000000   0.0000000   0.0000000
 NMagM=    2.7928460   0.0000000   2.7928460   2.7928460   2.7928460   0.0000000   2.7928460   2.7928460   2.7928460
 AtZNuc=   1.0000000   6.0000000   1.0000000   1.0000000   1.0000000   6.0000000   1.0000000   1.0000000   1.0000000
 Leave Link  101 at Mon Mar  9 23:06:50 2026, MaxMem=  2147483648 cpu:               6.6 elap:               0.2
 (Enter /data/home/wyx/g16/l202.exe)
                          Input orientation:                          
 ---------------------------------------------------------------------
 Center     Atomic      Atomic             Coordinates (Angstroms)
 Number     Number       Type             X           Y           Z
 ---------------------------------------------------------------------
      1          8           0        1.320413    9.845516    1.044643
      2          8           0       -4.820756    9.762268   -0.385569
      3          7           0       -2.101765   12.941622    0.337310
      4          1           0       -2.415201   13.897182    0.271531
      5          6           0       -2.677869   10.638984    0.206125
      6          6           0       -0.780159   12.725176    0.566678
      7          6           0       -3.052511   11.946051    0.105763
      8          6           0       -3.598068    9.571652   -0.019035
      9          6           0       -1.267351   10.260561    0.600461
     10          1           0       -1.270998    9.746716    1.569212
     11          1           0       -0.866180    9.530226   -0.107320
     12          6           0       -0.315705   11.440842    0.660689
     13          6           0        1.067566   11.039113    0.867618
     14          6           0       -4.427546   12.441430   -0.219179
     15          1           0       -4.438243   13.527406   -0.316846
     16          1           0       -4.786426   12.024068   -1.162084
     17          1           0       -5.144269   12.169210    0.558896
     18          6           0       -3.263624    8.088815    0.084717
     19          1           0       -4.035597    7.569029    0.652929
     20          1           0       -3.204770    7.639545   -0.909172
     21          1           0       -2.309745    7.978337    0.593831
     22          6           0        2.233289   12.006863    0.852492
     23          1           0        2.177123   12.720389    0.033842
     24          1           0        2.282363   12.564899    1.789025
     25          1           0        3.143770   11.419331    0.758123
     26          6           0        0.010326   14.000749    0.682515
     27          1           0        0.703776   13.975278    1.516876
     28          1           0        0.574953   14.194372   -0.230006
     29          1           0       -0.665967   14.840205    0.837935
 ---------------------------------------------------------------------
                    Distance matrix (angstroms):
                    1          2          3          4          5
     1  O    0.000000
     2  O    6.306060   0.000000
     3  N    4.668779   4.245440   0.000000
     4  H    5.564936   4.828663   1.007801   0.000000
     5  C    4.161606   2.389707   2.377235   3.269423   0.000000
     6  C    3.596289   5.100198   1.358713   2.033242   2.843149
     7  C    4.941276   2.852544   1.395956   2.059260   1.363398
     8  C    5.039630   1.290600   3.704403   4.493752   1.427116
     9  C    2.658210   3.721188   2.820210   3.827632   1.512701
    10  H    2.645817   4.052430   3.523519   4.496615   2.152541
    11  H    2.491509   3.971138   3.655406   4.649010   2.147046
    12  C    2.317190   4.920137   2.355191   3.254679   2.535630
    13  C    1.232860   6.154116   3.734357   4.544617   3.824390
    14  C    6.432344   2.712971   2.443180   2.531707   2.547757
    15  H    6.969368   3.785143   2.496035   2.139069   3.422776
    16  H    6.849030   2.391631   3.208970   3.344624   2.869925
    17  H    6.886771   2.605771   3.146832   3.242880   2.923896
    18  C    5.002085   2.333725   4.996344   5.872975   2.619391
    19  H    5.832896   2.550538   5.718748   6.543444   3.386396
    20  H    5.400091   2.718736   5.557190   6.416814   3.243169
    21  H    4.107024   3.232152   4.974260   5.928552   2.713830
    22  C    2.354078   7.505368   4.464513   5.051661   5.138906
    23  H    3.165528   7.608988   4.295337   4.746660   5.285156
    24  H    2.979009   7.939640   4.633570   5.113206   5.551452
    25  H    2.425617   8.215082   5.478147   6.105627   5.899587
    26  C    4.371891   6.514974   2.387854   2.462279   4.330682
    27  H    4.202164   7.203416   3.214169   3.359316   4.927925
    28  H    4.592711   6.984370   3.009327   3.046454   4.838579
    29  H    5.379159   6.674180   2.432439   2.066381   4.700765
                    6          7          8          9         10
     6  C    0.000000
     7  C    2.446030   0.000000
     8  C    4.269471   2.439463   0.000000
     9  C    2.512533   2.504476   2.508110   0.000000
    10  H    3.180758   3.186307   2.822841   1.096599   0.000000
    11  H    3.266401   3.265220   2.733628   1.093289   1.738248
    12  C    1.368967   2.837831   3.837942   1.517339   2.146640
    13  C    2.519417   4.286956   4.970688   2.475753   2.762500
    14  C    3.741860   1.497233   2.993947   3.926173   4.519250
    15  H    3.847826   2.144652   4.054945   4.644166   5.280367
    16  H    4.419315   2.149414   2.955182   4.312819   5.000455
    17  H    4.399387   2.151878   3.077669   4.321477   4.678829
    18  C    5.281640   3.863066   1.523621   2.994592   2.987125
    19  H    6.098456   4.519311   2.157189   3.861384   3.636605
    20  H    5.824132   4.427107   2.163346   3.591979   3.784445
    21  H    4.987269   4.066039   2.138699   2.509020   2.271019
    22  C    3.111034   5.338631   6.379227   3.920149   4.231073
    23  H    3.004905   5.287139   6.578007   4.270387   4.805168
    24  H    3.301342   5.628252   6.841642   4.395807   4.540578
    25  H    4.139940   6.252752   7.033511   4.563506   4.790166
    26  C    1.505116   3.733015   5.755830   3.953251   4.530433
    27  H    2.160485   4.496521   6.344825   4.303984   4.667249
    28  H    2.151645   4.280909   6.231224   4.422514   5.140659
    29  H    2.135408   3.822015   6.090096   4.625061   5.181165
                   11         12         13         14         15
    11  H    0.000000
    12  C    2.131505   0.000000
    13  C    2.639436   1.455213   0.000000
    14  C    4.601190   4.322335   5.774416   0.000000
    15  H    5.364791   4.722779   6.156987   1.090412   0.000000
    16  H    4.764462   4.863126   6.273679   1.091813   1.759455
    17  H    5.070515   4.884251   6.321338   1.092335   1.763546
    18  C    2.803976   4.500894   5.298717   4.515785   5.578463
    19  H    3.803876   5.369226   6.174937   4.965328   6.050193
    20  H    3.112337   5.026034   5.741681   5.002936   6.044768
    21  H    2.232455   3.996199   4.566130   5.006522   6.012654
    22  C    4.081872   2.618118   1.515150   6.760477   6.941811
    23  H    4.411209   2.871301   2.180135   6.615398   6.673628
    24  H    4.766412   3.047393   2.157022   7.005070   7.108280
    25  H    4.516349   3.460914   2.113570   7.702248   7.942698
    26  C    4.623600   2.580678   3.150128   4.789493   4.583944
    27  H    4.986107   2.862825   3.029016   5.630013   5.477544
    28  H    4.883255   3.027960   3.376849   5.300747   5.058114
    29  H    5.397173   3.421954   4.177836   4.584876   4.157767
                   16         17         18         19         20
    16  H    0.000000
    17  H    1.763772   0.000000
    18  C    4.399961   4.517885   0.000000
    19  H    4.868818   4.732827   1.090406   0.000000
    20  H    4.667939   5.141473   1.092302   1.770708   0.000000
    21  H    5.058175   5.059561   1.086870   1.774708   1.781815
    22  C    7.303095   7.385182   6.793867   7.683302   7.193706
    23  H    7.099726   7.360860   7.145334   8.094299   7.461168
    24  H    7.679148   7.538212   7.327889   8.134251   7.851624
    25  H    8.181742   8.324277   7.252621   8.147343   7.574339
    26  C    5.506237   5.471715   6.784326   7.598512   7.303097
    27  H    6.412984   6.195098   7.241670   8.015490   7.829684
    28  H    5.858615   6.118263   7.218833   8.119847   7.596929
    29  H    5.376698   5.221807   7.272993   8.016148   7.832459
                   21         22         23         24         25
    21  H    0.000000
    22  C    6.077425   0.000000
    23  H    6.552300   1.087411   0.000000
    24  H    6.599432   1.091287   1.765197   0.000000
    25  H    6.450447   1.087692   1.775315   1.765532   0.000000
    26  C    6.454460   2.990993   2.599058   2.906575   4.060530
    27  H    6.774705   2.579820   2.438213   2.134284   3.614158
    28  H    6.902123   2.950776   2.192987   3.105949   3.908462
    29  H    7.060229   4.053853   3.636391   3.843727   5.120824
                   26         27         28         29
    26  C    0.000000
    27  H    1.085210   0.000000
    28  H    1.090407   1.765275   0.000000
    29  H    1.089135   1.756490   1.759966   0.000000
 Symmetry turned off by external request.
 Stoichiometry    C11H15NO2
 Framework group  C1[X(C11H15NO2)]
 Deg. of freedom    81
 Full point group                 C1      NOp   1
 Rotational constants (GHZ):           1.0995202           0.4785161           0.3377954
 Leave Link  202 at Mon Mar  9 23:06:50 2026, MaxMem=  2147483648 cpu:               0.1 elap:               0.0
 (Enter /data/home/wyx/g16/l301.exe)
 Standard basis: TZVP (5D, 7F)
 Ernie: Thresh=  0.10000D-02 Tol=  0.10000D-05 Strict=F.
   356 basis functions,   610 primitive gaussians,   370 cartesian basis functions
    52 alpha electrons       52 beta electrons
       nuclear repulsion energy       896.2105215758 Hartrees.
 IExCor= 4336 DFT=T Ex+Corr=M062X ExCW=0 ScaHFX=  0.540000
 ScaDFX=  1.000000  1.000000  1.000000  1.000000 ScalE2=  1.000000  1.000000
 IRadAn=      5 IRanWt=     -1 IRanGd=            0 ICorTp=0 IEmpDi=131
 NAtoms=   29 NActive=   29 NUniq=   29 SFac= 1.00D+00 NAtFMM=   60 NAOKFM=F Big=F
 Integral buffers will be    131072 words long.
 Raffenetti 2 integral format.
 Two-electron integral symmetry is turned off.
 R6Disp:  Grimme-D3 Dispersion energy=       -0.0014406967 Hartrees.
 Nuclear repulsion after empirical dispersion term =      896.2090808791 Hartrees.
 ------------------------------------------------------------------------------
 Polarizable Continuum Model (PCM)
 =================================
 Model                : PCM.
 Atomic radii         : UFF (Universal Force Field).
 Polarization charges : Total charges.
 Charge compensation  : None.
 Solution method      : On-the-fly selection.
 Cavity type          : Scaled VdW (van der Waals Surface) (Alpha=1.100).
 Cavity algorithm     : GePol (No added spheres)
                        Default sphere list used, NSphG=   29.
                        Lebedev-Laikov grids with approx.  5.0 points / Ang**2.
                        Smoothing algorithm: York/Karplus (Gamma=1.0000).
                        Polarization charges: spherical gaussians, with
                                              point-specific exponents (IZeta= 3).
                        Self-potential: point-specific (ISelfS= 7).
                        Self-field    : sphere-specific E.n sum rule (ISelfD= 2).
 Solvent              : Water, Eps=  78.355300 Eps(inf)=   1.777849
 ------------------------------------------------------------------------------
 GePol: Number of generator spheres                  =      29
 GePol: Total number of spheres                      =      29
 GePol: Number of exposed spheres                    =      29 (100.00%)
 GePol: Number of points                             =    2092
 GePol: Average weight of points                     =       0.13
 GePol: Minimum weight of points                     =   0.25D-10
 GePol: Maximum weight of points                     =    0.20577
 GePol: Number of points with low weight             =     124
 GePol: Fraction of low-weight points (<1% of avg)   =       5.93%
 GePol: Cavity surface area                          =    268.855 Ang**2
 GePol: Cavity volume                                =    287.372 Ang**3
 Leave Link  301 at Mon Mar  9 23:06:50 2026, MaxMem=  2147483648 cpu:               1.2 elap:               0.0
 (Enter /data/home/wyx/g16/l302.exe)
 NPDir=0 NMtPBC=     1 NCelOv=     1 NCel=       1 NClECP=     1 NCelD=      1
         NCelK=      1 NCelE2=     1 NClLst=     1 CellRange=     0.0.
 One-electron integrals computed using PRISM.
 NBasis=   356 RedAO= T EigKep=  3.91D-05  NBF=   356
 NBsUse=   356 1.00D-06 EigRej= -1.00D+00 NBFU=   356
 Precomputing XC quadrature grid using
 IXCGrd= 4 IRadAn=           5 IRanWt=          -1 IRanGd=           0 AccXCQ= 0.00D+00.
 Generated NRdTot=       0 NPtTot=           0 NUsed=           0 NTot=          32
 NSgBfM=   366   366   366   366   366 MxSgAt=    29 MxSgA2=    29.
 Leave Link  302 at Mon Mar  9 23:06:50 2026, MaxMem=  2147483648 cpu:               6.3 elap:               0.2
 (Enter /data/home/wyx/g16/l303.exe)
 DipDrv:  MaxL=1.
 Leave Link  303 at Mon Mar  9 23:06:50 2026, MaxMem=  2147483648 cpu:               1.1 elap:               0.0
 (Enter /data/home/wyx/g16/l401.exe)
 Initial guess from the checkpoint file:  "DDL-S2min-S2-cLR-1.chk"
 B after Tr=     0.000000    0.000000    0.000000
         Rot=    1.000000    0.000000    0.000000    0.000000 Ang=   0.00 deg.
 Guess basis will be translated and rotated to current coordinates.
 JPrj=2 DoOrth=T DoCkMO=T.
 Leave Link  401 at Mon Mar  9 23:06:51 2026, MaxMem=  2147483648 cpu:               4.5 elap:               0.2
 (Enter /data/home/wyx/g16/l502.exe)
 Two-electron integral symmetry not used.
 Closed shell SCF:
 Using DIIS extrapolation, IDIIS=  1040.
 NGot=  2147483648 LenX=  2147195087 LenY=  2147057746
 Requested convergence on RMS density matrix=1.00D-08 within 128 cycles.
 Requested convergence on MAX density matrix=1.00D-06.
 Requested convergence on             energy=1.00D-06.
 No special actions if energy rises.
 Fock matrices will be formed incrementally for  20 cycles.

 Cycle   1  Pass 1  IDiag  1:
 FoFJK:  IHMeth= 1 ICntrl=       0 DoSepK=F KAlg= 0 I1Cent=           0 FoldK=F
 IRaf= 860000000 NMat=       1 IRICut=       1 DoRegI=T DoRafI=F ISym2E= 0 IDoP0=0 IntGTp=1.
 FoFCou: FMM=F IPFlag=           0 FMFlag=      100000 FMFlg1=           0
         NFxFlg=           0 DoJE=F BraDBF=F KetDBF=F FulRan=T
         wScrn=  0.000000 ICntrl=         0 IOpCl=  0 I1Cent=           0 NGrid=           0
         NMat0=    1 NMatS0=      1 NMatT0=    0 NMatD0=    1 NMtDS0=    0 NMtDT0=    0
 Symmetry not used in FoFCou.
 Inv3:  Mode=1 IEnd=    13129392.
 Iteration    1 A*A^-1 deviation from unit magnitude is 3.11D-15 for    237.
 Iteration    1 A*A^-1 deviation from orthogonality  is 1.64D-15 for   2054   1104.
 Iteration    1 A^-1*A deviation from unit magnitude is 3.00D-15 for    548.
 Iteration    1 A^-1*A deviation from orthogonality  is 1.46D-13 for   1768   1746.
 NEqPCM:  Using non-equilibrium solvation (IEInf=1, Eps=  78.3553, EpsInf=   1.7778)
 Inv3:  Mode=1 IEnd=    13129392.
 Iteration    1 A*A^-1 deviation from unit magnitude is 3.66D-15 for   1630.
 Iteration    1 A*A^-1 deviation from orthogonality  is 2.24D-15 for   1337      3.
 Iteration    1 A^-1*A deviation from unit magnitude is 3.66D-15 for   1630.
 Iteration    1 A^-1*A deviation from orthogonality  is 1.71D-15 for   1753    189.
 E= -633.338939444242    
 DIIS: error= 1.02D-03 at cycle   1 NSaved=   1.
 NSaved= 1 IEnMin= 1 EnMin= -633.338939444242     IErMin= 1 ErrMin= 1.02D-03
 ErrMax= 1.02D-03  0.00D+00 EMaxC= 1.00D-01 BMatC= 1.58D-04 BMatP= 1.58D-04
 IDIUse=3 WtCom= 9.90D-01 WtEn= 1.02D-02
 Coeff-Com:  0.100D+01
 Coeff-En:   0.100D+01
 Coeff:      0.100D+01
 Gap=     0.215 Goal=   None    Shift=    0.000
 GapD=    0.215 DampG=1.000 DampE=1.000 DampFc=1.0000 IDamp=-1.
 RMSDP=5.39D-04 MaxDP=4.72D-02              OVMax= 1.56D-02

 Cycle   2  Pass 1  IDiag  1:
 RMSU=  5.24D-04    CP:  1.01D+00
 E= -633.339185766208     Delta-E=       -0.000246321967 Rises=F Damp=F
 DIIS: error= 8.40D-04 at cycle   2 NSaved=   2.
 NSaved= 2 IEnMin= 2 EnMin= -633.339185766208     IErMin= 2 ErrMin= 8.40D-04
 ErrMax= 8.40D-04  0.00D+00 EMaxC= 1.00D-01 BMatC= 2.04D-04 BMatP= 1.58D-04
 IDIUse=3 WtCom= 2.56D-01 WtEn= 7.44D-01
 Coeff-Com:  0.544D+00 0.456D+00
 Coeff-En:   0.256D-01 0.974D+00
 Coeff:      0.159D+00 0.841D+00
 Gap=     0.214 Goal=   None    Shift=    0.000
 RMSDP=3.22D-04 MaxDP=2.08D-02 DE=-2.46D-04 OVMax= 6.73D-03

 Cycle   3  Pass 1  IDiag  1:
 RMSU=  2.71D-04    CP:  1.00D+00  7.74D-01
 E= -633.339133445567     Delta-E=        0.000052320641 Rises=F Damp=F
 DIIS: error= 1.09D-03 at cycle   3 NSaved=   3.
 NSaved= 3 IEnMin= 2 EnMin= -633.339185766208     IErMin= 2 ErrMin= 8.40D-04
 ErrMax= 1.09D-03  0.00D+00 EMaxC= 1.00D-01 BMatC= 3.04D-04 BMatP= 1.58D-04
 IDIUse=3 WtCom= 2.33D-01 WtEn= 7.67D-01
 Coeff-Com:  0.803D-01 0.520D+00 0.400D+00
 Coeff-En:   0.000D+00 0.555D+00 0.445D+00
 Coeff:      0.187D-01 0.547D+00 0.435D+00
 Gap=     0.214 Goal=   None    Shift=    0.000
 RMSDP=1.07D-04 MaxDP=8.07D-03 DE= 5.23D-05 OVMax= 4.38D-03

 Cycle   4  Pass 1  IDiag  1:
 RMSU=  3.29D-05    CP:  1.00D+00  8.68D-01  7.19D-01
 E= -633.339366265200     Delta-E=       -0.000232819633 Rises=F Damp=F
 DIIS: error= 1.13D-04 at cycle   4 NSaved=   4.
 NSaved= 4 IEnMin= 4 EnMin= -633.339366265200     IErMin= 4 ErrMin= 1.13D-04
 ErrMax= 1.13D-04  0.00D+00 EMaxC= 1.00D-01 BMatC= 1.60D-06 BMatP= 1.58D-04
 IDIUse=3 WtCom= 9.99D-01 WtEn= 1.13D-03
 Coeff-Com: -0.145D-01 0.134D+00 0.126D+00 0.755D+00
 Coeff-En:   0.000D+00 0.000D+00 0.000D+00 0.100D+01
 Coeff:     -0.145D-01 0.133D+00 0.126D+00 0.755D+00
 Gap=     0.214 Goal=   None    Shift=    0.000
 RMSDP=2.29D-05 MaxDP=1.33D-03 DE=-2.33D-04 OVMax= 1.25D-03

 Cycle   5  Pass 1  IDiag  1:
 RMSU=  1.39D-05    CP:  1.00D+00  8.70D-01  7.82D-01  9.45D-01
 E= -633.339368457787     Delta-E=       -0.000002192587 Rises=F Damp=F
 DIIS: error= 2.61D-05 at cycle   5 NSaved=   5.
 NSaved= 5 IEnMin= 5 EnMin= -633.339368457787     IErMin= 5 ErrMin= 2.61D-05
 ErrMax= 2.61D-05  0.00D+00 EMaxC= 1.00D-01 BMatC= 4.89D-07 BMatP= 1.60D-06
 IDIUse=1 WtCom= 1.00D+00 WtEn= 0.00D+00
 Coeff-Com: -0.157D-01-0.178D-01 0.237D-02 0.347D+00 0.684D+00
 Coeff:     -0.157D-01-0.178D-01 0.237D-02 0.347D+00 0.684D+00
 Gap=     0.214 Goal=   None    Shift=    0.000
 RMSDP=1.18D-05 MaxDP=6.56D-04 DE=-2.19D-06 OVMax= 4.25D-04

 Cycle   6  Pass 1  IDiag  1:
 RMSU=  4.27D-06    CP:  1.00D+00  8.65D-01  8.16D-01  1.07D+00  1.08D+00
 E= -633.339369165718     Delta-E=       -0.000000707931 Rises=F Damp=F
 DIIS: error= 2.41D-05 at cycle   6 NSaved=   6.
 NSaved= 6 IEnMin= 6 EnMin= -633.339369165718     IErMin= 6 ErrMin= 2.41D-05
 ErrMax= 2.41D-05  0.00D+00 EMaxC= 1.00D-01 BMatC= 6.00D-08 BMatP= 4.89D-07
 IDIUse=1 WtCom= 1.00D+00 WtEn= 0.00D+00
 Coeff-Com: -0.160D-02-0.259D-01-0.127D-01 0.890D-02 0.204D+00 0.828D+00
 Coeff:     -0.160D-02-0.259D-01-0.127D-01 0.890D-02 0.204D+00 0.828D+00
 Gap=     0.214 Goal=   None    Shift=    0.000
 RMSDP=5.40D-06 MaxDP=2.82D-04 DE=-7.08D-07 OVMax= 3.48D-04

 Cycle   7  Pass 1  IDiag  1:
 RMSU=  2.11D-06    CP:  1.00D+00  8.61D-01  8.30D-01  1.12D+00  1.18D+00
                    CP:  1.16D+00
 E= -633.339369288217     Delta-E=       -0.000000122499 Rises=F Damp=F
 DIIS: error= 1.02D-05 at cycle   7 NSaved=   7.
 NSaved= 7 IEnMin= 7 EnMin= -633.339369288217     IErMin= 7 ErrMin= 1.02D-05
 ErrMax= 1.02D-05  0.00D+00 EMaxC= 1.00D-01 BMatC= 2.52D-08 BMatP= 6.00D-08
 IDIUse=1 WtCom= 1.00D+00 WtEn= 0.00D+00
 Coeff-Com:  0.243D-02-0.104D-01-0.491D-02-0.641D-01-0.630D-01 0.431D+00
 Coeff-Com:  0.709D+00
 Coeff:      0.243D-02-0.104D-01-0.491D-02-0.641D-01-0.630D-01 0.431D+00
 Coeff:      0.709D+00
 Gap=     0.214 Goal=   None    Shift=    0.000
 RMSDP=2.31D-06 MaxDP=1.20D-04 DE=-1.22D-07 OVMax= 1.64D-04

 Cycle   8  Pass 1  IDiag  1:
 RMSU=  7.11D-07    CP:  1.00D+00  8.59D-01  8.36D-01  1.13D+00  1.23D+00
                    CP:  1.29D+00  9.73D-01
 E= -633.339369326727     Delta-E=       -0.000000038510 Rises=F Damp=F
 DIIS: error= 2.37D-06 at cycle   8 NSaved=   8.
 NSaved= 8 IEnMin= 8 EnMin= -633.339369326727     IErMin= 8 ErrMin= 2.37D-06
 ErrMax= 2.37D-06  0.00D+00 EMaxC= 1.00D-01 BMatC= 2.81D-09 BMatP= 2.52D-08
 IDIUse=1 WtCom= 1.00D+00 WtEn= 0.00D+00
 Coeff-Com:  0.130D-02-0.740D-03 0.463D-03-0.268D-01-0.722D-01 0.472D-01
 Coeff-Com:  0.285D+00 0.766D+00
 Coeff:      0.130D-02-0.740D-03 0.463D-03-0.268D-01-0.722D-01 0.472D-01
 Coeff:      0.285D+00 0.766D+00
 Gap=     0.214 Goal=   None    Shift=    0.000
 RMSDP=8.86D-07 MaxDP=3.89D-05 DE=-3.85D-08 OVMax= 5.79D-05

 Cycle   9  Pass 1  IDiag  1:
 RMSU=  2.52D-07    CP:  1.00D+00  8.59D-01  8.38D-01  1.14D+00  1.24D+00
                    CP:  1.38D+00  1.14D+00  1.09D+00
 E= -633.339369331103     Delta-E=       -0.000000004376 Rises=F Damp=F
 DIIS: error= 1.05D-06 at cycle   9 NSaved=   9.
 NSaved= 9 IEnMin= 9 EnMin= -633.339369331103     IErMin= 9 ErrMin= 1.05D-06
 ErrMax= 1.05D-06  0.00D+00 EMaxC= 1.00D-01 BMatC= 2.75D-10 BMatP= 2.81D-09
 IDIUse=1 WtCom= 1.00D+00 WtEn= 0.00D+00
 Coeff-Com:  0.223D-03 0.966D-03 0.875D-03-0.384D-03-0.212D-01-0.364D-01
 Coeff-Com:  0.226D-01 0.309D+00 0.724D+00
 Coeff:      0.223D-03 0.966D-03 0.875D-03-0.384D-03-0.212D-01-0.364D-01
 Coeff:      0.226D-01 0.309D+00 0.724D+00
 Gap=     0.214 Goal=   None    Shift=    0.000
 RMSDP=1.76D-07 MaxDP=7.37D-06 DE=-4.38D-09 OVMax= 1.89D-05

 Cycle  10  Pass 1  IDiag  1:
 RMSU=  1.02D-07    CP:  1.00D+00  8.59D-01  8.37D-01  1.14D+00  1.24D+00
                    CP:  1.39D+00  1.17D+00  1.18D+00  9.72D-01
 E= -633.339369331543     Delta-E=       -0.000000000440 Rises=F Damp=F
 DIIS: error= 3.76D-07 at cycle  10 NSaved=  10.
 NSaved=10 IEnMin=10 EnMin= -633.339369331543     IErMin=10 ErrMin= 3.76D-07
 ErrMax= 3.76D-07  0.00D+00 EMaxC= 1.00D-01 BMatC= 5.32D-11 BMatP= 2.75D-10
 IDIUse=1 WtCom= 1.00D+00 WtEn= 0.00D+00
 Coeff-Com: -0.441D-04 0.466D-03 0.203D-03 0.287D-02-0.166D-02-0.216D-01
 Coeff-Com: -0.212D-01 0.271D-01 0.320D+00 0.694D+00
 Coeff:     -0.441D-04 0.466D-03 0.203D-03 0.287D-02-0.166D-02-0.216D-01
 Coeff:     -0.212D-01 0.271D-01 0.320D+00 0.694D+00
 Gap=     0.214 Goal=   None    Shift=    0.000
 RMSDP=1.08D-07 MaxDP=7.87D-06 DE=-4.40D-10 OVMax= 5.24D-06

 Cycle  11  Pass 1  IDiag  1:
 RMSU=  3.78D-08    CP:  1.00D+00  8.59D-01  8.37D-01  1.14D+00  1.24D+00
                    CP:  1.40D+00  1.20D+00  1.21D+00  1.11D+00  9.54D-01
 E= -633.339369331608     Delta-E=       -0.000000000065 Rises=F Damp=F
 DIIS: error= 1.36D-07 at cycle  11 NSaved=  11.
 NSaved=11 IEnMin=11 EnMin= -633.339369331608     IErMin=11 ErrMin= 1.36D-07
 ErrMax= 1.36D-07  0.00D+00 EMaxC= 1.00D-01 BMatC= 8.32D-12 BMatP= 5.32D-11
 IDIUse=1 WtCom= 1.00D+00 WtEn= 0.00D+00
 Coeff-Com: -0.485D-04 0.801D-04-0.744D-04 0.149D-02 0.276D-02-0.310D-02
 Coeff-Com: -0.117D-01-0.425D-01 0.469D-01 0.302D+00 0.704D+00
 Coeff:     -0.485D-04 0.801D-04-0.744D-04 0.149D-02 0.276D-02-0.310D-02
 Coeff:     -0.117D-01-0.425D-01 0.469D-01 0.302D+00 0.704D+00
 Gap=     0.214 Goal=   None    Shift=    0.000
 RMSDP=4.30D-08 MaxDP=3.02D-06 DE=-6.48D-11 OVMax= 1.74D-06

 Cycle  12  Pass 1  IDiag  1:
 RMSU=  1.36D-08    CP:  1.00D+00  8.59D-01  8.37D-01  1.14D+00  1.24D+00
                    CP:  1.40D+00  1.20D+00  1.22D+00  1.13D+00  1.04D+00
                    CP:  9.80D-01
 E= -633.339369331607     Delta-E=        0.000000000000 Rises=F Damp=F
 DIIS: error= 7.06D-08 at cycle  12 NSaved=  12.
 NSaved=12 IEnMin=11 EnMin= -633.339369331608     IErMin=12 ErrMin= 7.06D-08
 ErrMax= 7.06D-08  0.00D+00 EMaxC= 1.00D-01 BMatC= 1.15D-12 BMatP= 8.32D-12
 IDIUse=1 WtCom= 1.00D+00 WtEn= 0.00D+00
 Coeff-Com: -0.167D-04-0.916D-05-0.558D-04 0.260D-03 0.117D-02 0.139D-02
 Coeff-Com: -0.127D-02-0.215D-01-0.173D-01 0.133D-01 0.287D+00 0.737D+00
 Coeff:     -0.167D-04-0.916D-05-0.558D-04 0.260D-03 0.117D-02 0.139D-02
 Coeff:     -0.127D-02-0.215D-01-0.173D-01 0.133D-01 0.287D+00 0.737D+00
 Gap=     0.214 Goal=   None    Shift=    0.000
 RMSDP=1.63D-08 MaxDP=1.26D-06 DE= 4.55D-13 OVMax= 7.70D-07

 Cycle  13  Pass 1  IDiag  1:
 RMSU=  5.03D-09    CP:  1.00D+00  8.59D-01  8.37D-01  1.14D+00  1.24D+00
                    CP:  1.40D+00  1.20D+00  1.22D+00  1.15D+00  1.04D+00
                    CP:  1.14D+00  9.69D-01
 E= -633.339369331610     Delta-E=       -0.000000000003 Rises=F Damp=F
 DIIS: error= 2.08D-08 at cycle  13 NSaved=  13.
 NSaved=13 IEnMin=13 EnMin= -633.339369331610     IErMin=13 ErrMin= 2.08D-08
 ErrMax= 2.08D-08  0.00D+00 EMaxC= 1.00D-01 BMatC= 2.02D-13 BMatP= 1.15D-12
 IDIUse=1 WtCom= 1.00D+00 WtEn= 0.00D+00
 Coeff-Com: -0.104D-05-0.139D-04-0.165D-04-0.130D-03 0.102D-03 0.105D-02
 Coeff-Com:  0.132D-02-0.453D-02-0.160D-01-0.516D-01 0.165D-01 0.351D+00
 Coeff-Com:  0.703D+00
 Coeff:     -0.104D-05-0.139D-04-0.165D-04-0.130D-03 0.102D-03 0.105D-02
 Coeff:      0.132D-02-0.453D-02-0.160D-01-0.516D-01 0.165D-01 0.351D+00
 Coeff:      0.703D+00
 Gap=     0.214 Goal=   None    Shift=    0.000
 RMSDP=5.62D-09 MaxDP=2.55D-07 DE=-2.84D-12 OVMax= 3.09D-07

 Error on total polarization charges =  0.00789
 SCF Done:  E(RM062X) =  -633.339369332     A.U. after   13 cycles
            NFock= 13  Conv=0.56D-08     -V/T= 2.0050
 KE= 6.301596538316D+02 PE=-3.267541567470D+03 EE= 1.107833463427D+03
 Leave Link  502 at Mon Mar  9 23:07:22 2026, MaxMem=  2147483648 cpu:             959.1 elap:              30.8
 (Enter /data/home/wyx/g16/l601.exe)
 Copying SCF densities to generalized density rwf, IOpCl= 0 IROHF=0.

 **********************************************************************

            Population analysis using the SCF density.

 **********************************************************************

 Alpha  occ. eigenvalues --  -19.61418 -19.59578 -14.81136 -10.63260 -10.62587
 Alpha  occ. eigenvalues --  -10.62401 -10.62150 -10.55601 -10.55141 -10.55036
 Alpha  occ. eigenvalues --  -10.54997 -10.54214 -10.53895 -10.52942  -1.16415
 Alpha  occ. eigenvalues --   -1.11983  -1.10709  -0.93379  -0.92487  -0.85384
 Alpha  occ. eigenvalues --   -0.83841  -0.83003  -0.79800  -0.75582  -0.72601
 Alpha  occ. eigenvalues --   -0.70149  -0.62512  -0.59131  -0.57565  -0.55523
 Alpha  occ. eigenvalues --   -0.55025  -0.54269  -0.52310  -0.51957  -0.50859
 Alpha  occ. eigenvalues --   -0.50463  -0.49379  -0.48992  -0.48600  -0.47932
 Alpha  occ. eigenvalues --   -0.46643  -0.45315  -0.44885  -0.44266  -0.43001
 Alpha  occ. eigenvalues --   -0.42944  -0.41466  -0.40409  -0.33581  -0.32990
 Alpha  occ. eigenvalues --   -0.31353  -0.26144
 Alpha virt. eigenvalues --   -0.04737   0.00843   0.05373   0.07483   0.07692
 Alpha virt. eigenvalues --    0.08817   0.10020   0.10212   0.11770   0.12159
 Alpha virt. eigenvalues --    0.13288   0.13835   0.14419   0.15758   0.16046
 Alpha virt. eigenvalues --    0.16319   0.16611   0.17253   0.17550   0.18497
 Alpha virt. eigenvalues --    0.18917   0.19674   0.20600   0.21933   0.22275
 Alpha virt. eigenvalues --    0.23495   0.23794   0.23951   0.24756   0.25363
 Alpha virt. eigenvalues --    0.25889   0.26669   0.27096   0.27963   0.28294
 Alpha virt. eigenvalues --    0.29444   0.29684   0.31323   0.31916   0.32379
 Alpha virt. eigenvalues --    0.33725   0.34644   0.35304   0.35768   0.35990
 Alpha virt. eigenvalues --    0.37022   0.39260   0.39676   0.40444   0.40501
 Alpha virt. eigenvalues --    0.42512   0.43215   0.44027   0.44556   0.44837
 Alpha virt. eigenvalues --    0.45317   0.46165   0.46351   0.46990   0.47492
 Alpha virt. eigenvalues --    0.47732   0.48704   0.49142   0.49634   0.50363
 Alpha virt. eigenvalues --    0.51171   0.51460   0.51815   0.52039   0.53236
 Alpha virt. eigenvalues --    0.53466   0.53939   0.54284   0.54651   0.56607
 Alpha virt. eigenvalues --    0.56838   0.58171   0.59063   0.59733   0.60720
 Alpha virt. eigenvalues --    0.61998   0.62622   0.64471   0.64991   0.66042
 Alpha virt. eigenvalues --    0.66742   0.67946   0.68602   0.69254   0.69875
 Alpha virt. eigenvalues --    0.71041   0.73395   0.73796   0.75318   0.76605
 Alpha virt. eigenvalues --    0.77752   0.79022   0.82253   0.84171   0.87658
 Alpha virt. eigenvalues --    0.89848   0.94324   1.00414   1.00925   1.20757
 Alpha virt. eigenvalues --    1.21663   1.23920   1.25791   1.28202   1.28712
 Alpha virt. eigenvalues --    1.29885   1.30966   1.32741   1.33752   1.35124
 Alpha virt. eigenvalues --    1.35630   1.35786   1.37964   1.38376   1.38717
 Alpha virt. eigenvalues --    1.38998   1.39476   1.39665   1.40072   1.40700
 Alpha virt. eigenvalues --    1.41381   1.41551   1.42603   1.43614   1.44005
 Alpha virt. eigenvalues --    1.46160   1.47932   1.48074   1.49290   1.49496
 Alpha virt. eigenvalues --    1.50231   1.51700   1.51940   1.55212   1.56987
 Alpha virt. eigenvalues --    1.57248   1.57676   1.59091   1.59150   1.60209
 Alpha virt. eigenvalues --    1.60609   1.60977   1.61062   1.61491   1.62517
 Alpha virt. eigenvalues --    1.63263   1.63591   1.64475   1.64840   1.65129
 Alpha virt. eigenvalues --    1.65961   1.66167   1.66919   1.67395   1.69553
 Alpha virt. eigenvalues --    1.70553   1.71102   1.71525   1.72740   1.76495
 Alpha virt. eigenvalues --    1.77676   1.79878   1.81127   1.82282   1.83888
 Alpha virt. eigenvalues --    1.84058   1.84237   1.86183   1.87003   1.87264
 Alpha virt. eigenvalues --    1.88234   1.89940   1.91293   1.95710   1.96362
 Alpha virt. eigenvalues --    1.98181   2.01107   2.02524   2.03822   2.06705
 Alpha virt. eigenvalues --    2.07232   2.10627   2.11656   2.14157   2.15307
 Alpha virt. eigenvalues --    2.16429   2.16926   2.18522   2.20361   2.22309
 Alpha virt. eigenvalues --    2.22509   2.24129   2.25537   2.26810   2.27719
 Alpha virt. eigenvalues --    2.29216   2.30983   2.32543   2.33437   2.33911
 Alpha virt. eigenvalues --    2.34589   2.37827   2.38709   2.39515   2.40008
 Alpha virt. eigenvalues --    2.42120   2.43022   2.44655   2.45340   2.46776
 Alpha virt. eigenvalues --    2.49042   2.49528   2.51033   2.51685   2.52866
 Alpha virt. eigenvalues --    2.53557   2.55118   2.57220   2.57699   2.58458
 Alpha virt. eigenvalues --    2.59502   2.61815   2.62968   2.63700   2.64596
 Alpha virt. eigenvalues --    2.64839   2.67002   2.68528   2.69377   2.70465
 Alpha virt. eigenvalues --    2.71852   2.72569   2.73907   2.74977   2.76239
 Alpha virt. eigenvalues --    2.77268   2.79220   2.80109   2.80417   2.82137
 Alpha virt. eigenvalues --    2.82289   2.83343   2.83854   2.86620   2.90318
 Alpha virt. eigenvalues --    2.93068   2.95706   2.96251   3.00994   3.04473
 Alpha virt. eigenvalues --    3.05533   3.07760   3.12699   3.13325   3.15212
 Alpha virt. eigenvalues --    3.16002   3.17632   3.19032   3.20043   3.23366
 Alpha virt. eigenvalues --    3.23457   3.23557   3.26060   3.30220   3.30617
 Alpha virt. eigenvalues --    3.32769   3.33075   3.33565   3.34192   3.34926
 Alpha virt. eigenvalues --    3.35655   3.36405   3.37811   3.39407   3.40520
 Alpha virt. eigenvalues --    3.43030   3.44136   3.46424   3.49136   3.54341
 Alpha virt. eigenvalues --    3.56431   3.83514   3.93344   4.24826   4.31267
 Alpha virt. eigenvalues --   21.71549  21.83436  22.11612  22.16669  22.17808
 Alpha virt. eigenvalues --   22.18986  22.22382  22.25258  22.26264  22.31377
 Alpha virt. eigenvalues --   22.35449  32.00984  43.76157  43.80997
          Condensed to atoms (all electrons):
               1          2          3          4          5          6
     1  O    8.053281   0.000000  -0.000210   0.000017   0.014627   0.014958
     2  O    0.000000   8.132182   0.000590  -0.000009  -0.123951   0.001473
     3  N   -0.000210   0.000590   6.448229   0.374145  -0.120019   0.345012
     4  H    0.000017  -0.000009   0.374145   0.381629   0.014426  -0.047494
     5  C    0.014627  -0.123951  -0.120019   0.014426   7.003599  -0.043545
     6  C    0.014958   0.001473   0.345012  -0.047494  -0.043545   5.620348
     7  C    0.000248  -0.053988   0.372481  -0.039261   0.307325  -0.159431
     8  C   -0.000368   0.544266   0.005909  -0.000830  -0.229924   0.032448
     9  C   -0.004405   0.022764   0.014838  -0.001329  -0.677797  -0.015894
    10  H    0.003310  -0.000053   0.002025   0.000027  -0.036278  -0.009787
    11  H    0.007125  -0.000077  -0.000327   0.000011  -0.113231   0.021016
    12  C   -0.224132  -0.003507  -0.102112   0.017487   0.229707  -0.206075
    13  C    0.647046   0.000009  -0.000072   0.000600   0.038858   0.136640
    14  C   -0.000005  -0.013918  -0.032229  -0.008067  -0.126793   0.006954
    15  H   -0.000000   0.004761   0.002542  -0.000390   0.034637   0.006010
    16  H   -0.000000   0.001274   0.000541   0.000783  -0.007698  -0.001038
    17  H   -0.000000  -0.001208  -0.000829   0.000601  -0.021518  -0.001189
    18  C   -0.000244  -0.094281  -0.000374   0.000013  -0.160051  -0.001916
    19  H    0.000001  -0.000583   0.000009  -0.000001   0.005590   0.000036
    20  H    0.000009  -0.000941   0.000010  -0.000001  -0.008498   0.000093
    21  H    0.000605   0.007671   0.000093   0.000002   0.064959  -0.001163
    22  C   -0.110325   0.000000   0.000168   0.000098  -0.000518   0.000377
    23  H    0.003845  -0.000000  -0.000019  -0.000058  -0.000246  -0.033050
    24  H    0.001767   0.000000   0.000053  -0.000014  -0.000047   0.009767
    25  H    0.007058   0.000000   0.000025  -0.000002  -0.000023  -0.000770
    26  C    0.000626   0.000011  -0.030528  -0.009779   0.004874   0.142995
    27  H   -0.000167  -0.000000   0.000996   0.000836   0.000150  -0.034232
    28  H   -0.000027  -0.000000  -0.002118   0.000428   0.000331  -0.040379
    29  H    0.000017   0.000000   0.002824   0.000717  -0.000139  -0.051822
               7          8          9         10         11         12
     1  O    0.000248  -0.000368  -0.004405   0.003310   0.007125  -0.224132
     2  O   -0.053988   0.544266   0.022764  -0.000053  -0.000077  -0.003507
     3  N    0.372481   0.005909   0.014838   0.002025  -0.000327  -0.102112
     4  H   -0.039261  -0.000830  -0.001329   0.000027   0.000011   0.017487
     5  C    0.307325  -0.229924  -0.677797  -0.036278  -0.113231   0.229707
     6  C   -0.159431   0.032448  -0.015894  -0.009787   0.021016  -0.206075
     7  C    5.555531  -0.254398  -0.235041   0.000059   0.004788   0.063872
     8  C   -0.254398   5.521002   0.203386  -0.005311  -0.004598  -0.073031
     9  C   -0.235041   0.203386   6.566163   0.423320   0.545872  -0.297092
    10  H    0.000059  -0.005311   0.423320   0.517737  -0.042893  -0.026284
    11  H    0.004788  -0.004598   0.545872  -0.042893   0.489807  -0.091625
    12  C    0.063872  -0.073031  -0.297092  -0.026284  -0.091625   7.542077
    13  C    0.027039  -0.007648  -0.175434  -0.008094  -0.002394  -0.422044
    14  C    0.315438  -0.026095   0.005623  -0.000268   0.000101   0.004485
    15  H   -0.088547   0.003895   0.000862   0.000000   0.000002  -0.001352
    16  H   -0.025619  -0.006812   0.001554  -0.000070   0.000088  -0.000041
    17  H   -0.012129  -0.000615  -0.001332   0.000140  -0.000035   0.000249
    18  C    0.005237   0.287463   0.014271  -0.008462  -0.009628   0.009930
    19  H   -0.001080  -0.025147  -0.001737   0.000415   0.000490  -0.000265
    20  H   -0.001296  -0.015315  -0.002705   0.000405  -0.000147  -0.000838
    21  H    0.010634  -0.132919  -0.017900  -0.004321  -0.006312   0.008210
    22  C    0.001126  -0.000001   0.013983   0.001238  -0.000661  -0.255614
    23  H   -0.000091   0.000005   0.002230  -0.000149   0.000089   0.052208
    24  H   -0.000011  -0.000000  -0.002149   0.000189  -0.000102  -0.008109
    25  H    0.000002  -0.000000  -0.000675  -0.000047  -0.000002   0.023842
    26  C   -0.000400   0.000919   0.026399  -0.000425   0.000129  -0.087742
    27  H   -0.000722   0.000001  -0.000672  -0.000043   0.000017  -0.003650
    28  H   -0.000943  -0.000022  -0.000699  -0.000005   0.000038  -0.022664
    29  H    0.003115   0.000014  -0.000809   0.000040  -0.000010   0.027437
              13         14         15         16         17         18
     1  O    0.647046  -0.000005  -0.000000  -0.000000  -0.000000  -0.000244
     2  O    0.000009  -0.013918   0.004761   0.001274  -0.001208  -0.094281
     3  N   -0.000072  -0.032229   0.002542   0.000541  -0.000829  -0.000374
     4  H    0.000600  -0.008067  -0.000390   0.000783   0.000601   0.000013
     5  C    0.038858  -0.126793   0.034637  -0.007698  -0.021518  -0.160051
     6  C    0.136640   0.006954   0.006010  -0.001038  -0.001189  -0.001916
     7  C    0.027039   0.315438  -0.088547  -0.025619  -0.012129   0.005237
     8  C   -0.007648  -0.026095   0.003895  -0.006812  -0.000615   0.287463
     9  C   -0.175434   0.005623   0.000862   0.001554  -0.001332   0.014271
    10  H   -0.008094  -0.000268   0.000000  -0.000070   0.000140  -0.008462
    11  H   -0.002394   0.000101   0.000002   0.000088  -0.000035  -0.009628
    12  C   -0.422044   0.004485  -0.001352  -0.000041   0.000249   0.009930
    13  C    5.481530   0.000245  -0.000031  -0.000005  -0.000003   0.000938
    14  C    0.000245   5.098207   0.385720   0.414858   0.414933   0.001048
    15  H   -0.000031   0.385720   0.566422  -0.028711  -0.026091   0.000139
    16  H   -0.000005   0.414858  -0.028711   0.486704  -0.023923  -0.000224
    17  H   -0.000003   0.414933  -0.026091  -0.023923   0.484286  -0.000153
    18  C    0.000938   0.001048   0.000139  -0.000224  -0.000153   5.236229
    19  H   -0.000020  -0.000059  -0.000002  -0.000019   0.000060   0.401543
    20  H   -0.000037  -0.000038  -0.000002   0.000031  -0.000007   0.400866
    21  H    0.001414   0.000149  -0.000020  -0.000010  -0.000007   0.408616
    22  C    0.290132   0.000027   0.000002  -0.000000  -0.000000   0.000028
    23  H   -0.081804  -0.000003   0.000000   0.000000  -0.000000   0.000001
    24  H   -0.034649  -0.000000  -0.000000   0.000000   0.000000  -0.000001
    25  H   -0.040363   0.000000   0.000000  -0.000000   0.000000  -0.000000
    26  C   -0.061918  -0.001072   0.000279   0.000007  -0.000004  -0.000018
    27  H   -0.008791   0.000035  -0.000001   0.000001  -0.000002  -0.000000
    28  H    0.008493  -0.000062  -0.000012  -0.000005   0.000004  -0.000000
    29  H   -0.000595   0.000062   0.000128  -0.000005  -0.000007   0.000001
              19         20         21         22         23         24
     1  O    0.000001   0.000009   0.000605  -0.110325   0.003845   0.001767
     2  O   -0.000583  -0.000941   0.007671   0.000000  -0.000000   0.000000
     3  N    0.000009   0.000010   0.000093   0.000168  -0.000019   0.000053
     4  H   -0.000001  -0.000001   0.000002   0.000098  -0.000058  -0.000014
     5  C    0.005590  -0.008498   0.064959  -0.000518  -0.000246  -0.000047
     6  C    0.000036   0.000093  -0.001163   0.000377  -0.033050   0.009767
     7  C   -0.001080  -0.001296   0.010634   0.001126  -0.000091  -0.000011
     8  C   -0.025147  -0.015315  -0.132919  -0.000001   0.000005  -0.000000
     9  C   -0.001737  -0.002705  -0.017900   0.013983   0.002230  -0.002149
    10  H    0.000415   0.000405  -0.004321   0.001238  -0.000149   0.000189
    11  H    0.000490  -0.000147  -0.006312  -0.000661   0.000089  -0.000102
    12  C   -0.000265  -0.000838   0.008210  -0.255614   0.052208  -0.008109
    13  C   -0.000020  -0.000037   0.001414   0.290132  -0.081804  -0.034649
    14  C   -0.000059  -0.000038   0.000149   0.000027  -0.000003  -0.000000
    15  H   -0.000002  -0.000002  -0.000020   0.000002   0.000000  -0.000000
    16  H   -0.000019   0.000031  -0.000010  -0.000000   0.000000   0.000000
    17  H    0.000060  -0.000007  -0.000007  -0.000000  -0.000000   0.000000
    18  C    0.401543   0.400866   0.408616   0.000028   0.000001  -0.000001
    19  H    0.482196  -0.013482  -0.026518  -0.000000   0.000000   0.000000
    20  H   -0.013482   0.471405  -0.018256  -0.000001  -0.000000   0.000000
    21  H   -0.026518  -0.018256   0.541692   0.000033  -0.000001  -0.000001
    22  C   -0.000000  -0.000001   0.000033   5.475302   0.392038   0.413611
    23  H    0.000000  -0.000000  -0.000001   0.392038   0.533953  -0.029168
    24  H    0.000000   0.000000  -0.000001   0.413611  -0.029168   0.470488
    25  H   -0.000000   0.000000  -0.000000   0.382579  -0.021859  -0.007141
    26  C    0.000000   0.000001  -0.000014  -0.037459   0.027906  -0.019608
    27  H   -0.000000   0.000000   0.000000   0.016227  -0.012005  -0.002519
    28  H    0.000000  -0.000000   0.000000  -0.016612  -0.004016   0.002001
    29  H    0.000000  -0.000000  -0.000000   0.001372   0.000920   0.000191
              25         26         27         28         29
     1  O    0.007058   0.000626  -0.000167  -0.000027   0.000017
     2  O    0.000000   0.000011  -0.000000  -0.000000   0.000000
     3  N    0.000025  -0.030528   0.000996  -0.002118   0.002824
     4  H   -0.000002  -0.009779   0.000836   0.000428   0.000717
     5  C   -0.000023   0.004874   0.000150   0.000331  -0.000139
     6  C   -0.000770   0.142995  -0.034232  -0.040379  -0.051822
     7  C    0.000002  -0.000400  -0.000722  -0.000943   0.003115
     8  C   -0.000000   0.000919   0.000001  -0.000022   0.000014
     9  C   -0.000675   0.026399  -0.000672  -0.000699  -0.000809
    10  H   -0.000047  -0.000425  -0.000043  -0.000005   0.000040
    11  H   -0.000002   0.000129   0.000017   0.000038  -0.000010
    12  C    0.023842  -0.087742  -0.003650  -0.022664   0.027437
    13  C   -0.040363  -0.061918  -0.008791   0.008493  -0.000595
    14  C    0.000000  -0.001072   0.000035  -0.000062   0.000062
    15  H    0.000000   0.000279  -0.000001  -0.000012   0.000128
    16  H   -0.000000   0.000007   0.000001  -0.000005  -0.000005
    17  H    0.000000  -0.000004  -0.000002   0.000004  -0.000007
    18  C   -0.000000  -0.000018  -0.000000  -0.000000   0.000001
    19  H   -0.000000   0.000000  -0.000000   0.000000   0.000000
    20  H    0.000000   0.000001   0.000000  -0.000000  -0.000000
    21  H   -0.000000  -0.000014   0.000000   0.000000  -0.000000
    22  C    0.382579  -0.037459   0.016227  -0.016612   0.001372
    23  H   -0.021859   0.027906  -0.012005  -0.004016   0.000920
    24  H   -0.007141  -0.019608  -0.002519   0.002001   0.000191
    25  H    0.483036   0.001223   0.000938   0.000143  -0.000039
    26  C    0.001223   5.379545   0.404377   0.440066   0.385884
    27  H    0.000938   0.404377   0.505412  -0.027663  -0.023490
    28  H    0.000143   0.440066  -0.027663   0.452949  -0.013816
    29  H   -0.000039   0.385884  -0.023490  -0.013816   0.503615
 Mulliken charges:
               1
     1  O   -0.414659
     2  O   -0.422486
     3  N   -0.281652
     4  H    0.315417
     5  C   -0.048805
     6  C    0.309659
     7  C    0.206066
     8  C    0.183726
     9  C   -0.405595
    10  H    0.193583
    11  H    0.202468
    12  C   -0.153327
    13  C    0.210959
    14  C   -0.439277
    15  H    0.139758
    16  H    0.188341
    17  H    0.188778
    18  C   -0.490968
    19  H    0.178573
    20  H    0.188745
    21  H    0.163366
    22  C   -0.567148
    23  H    0.169272
    24  H    0.205452
    25  H    0.172074
    26  C   -0.566275
    27  H    0.184967
    28  H    0.224592
    29  H    0.164396
 Sum of Mulliken charges =  -0.00000
 Mulliken charges with hydrogens summed into heavy atoms:
               1
     1  O   -0.414659
     2  O   -0.422486
     3  N    0.033765
     5  C   -0.048805
     6  C    0.309659
     7  C    0.206066
     8  C    0.183726
     9  C   -0.009544
    12  C   -0.153327
    13  C    0.210959
    14  C    0.077600
    18  C    0.039716
    22  C   -0.020350
    26  C    0.007680
 Electronic spatial extent (au):  <R**2>=          50731.1238
 Charge=             -0.0000 electrons
 Dipole moment (field-independent basis, Debye):
    X=              0.9030    Y=              8.3852    Z=              0.1198  Tot=              8.4345
 Quadrupole moment (field-independent basis, Debye-Ang):
   XX=           -104.3558   YY=            117.1536   ZZ=            -85.9226
   XY=              1.9179   XZ=             -5.4004   YZ=              5.4394
 Traceless Quadrupole moment (field-independent basis, Debye-Ang):
   XX=            -79.9808   YY=            141.5285   ZZ=            -61.5477
   XY=              1.9179   XZ=             -5.4004   YZ=              5.4394
 Octapole moment (field-independent basis, Debye-Ang**2):
  XXX=            521.5289  YYY=            812.9785  ZZZ=            -99.2711  XYY=             23.1892
  XXY=          -1089.0596  XXZ=            -12.5446  XZZ=            129.7419  YZZ=           -959.7117
  YYZ=             76.0763  XYZ=            -46.8986
 Hexadecapole moment (field-independent basis, Debye-Ang**3):
 XXXX=          -4550.0192 YYYY=          -5972.7045 ZZZZ=           -287.7399 XXXY=           5223.4792
 XXXZ=           -193.6579 YYYX=           1068.5770 YYYZ=            662.5665 ZZZX=            -74.0448
 ZZZY=          -1145.8882 XXYY=         -12137.6669 XXZZ=           -676.4431 YYZZ=         -11016.0227
 XXYZ=           -186.1838 YYXZ=           -422.1194 ZZXY=           1385.9886
 N-N= 8.962090808791D+02 E-N=-3.267541565625D+03  KE= 6.301596538316D+02
 No NMR shielding tensors so no spin-rotation constants.
 Leave Link  601 at Mon Mar  9 23:07:22 2026, MaxMem=  2147483648 cpu:               3.6 elap:               0.1
 (Enter /data/home/wyx/g16/l9999.exe)
 1\1\GINC-CN015\SP\RM062X\TZVP\C11H15N1O2\WYX\09-Mar-2026\0\\#p M062X/T
 ZVP em=gd3 SCRF=(Solvent=Water,NonEquilibrium=Read) Geom=Check Guess=R
 ead NoSymm\\Title Card Required\\0,1\O,0,1.3204133029,9.8455159569,1.0
 446426101\O,0,-4.8207559336,9.7622675218,-0.3855686362\N,0,-2.10176494
 41,12.9416221948,0.337310063\H,0,-2.4152014455,13.897181652,0.27153080
 17\C,0,-2.6778687415,10.6389838679,0.2061250798\C,0,-0.7801592342,12.7
 251757553,0.5666783554\C,0,-3.0525112023,11.9460513239,0.1057630323\C,
 0,-3.5980678295,9.5716519209,-0.0190347855\C,0,-1.267350596,10.2605613
 586,0.6004607107\H,0,-1.270998259,9.7467155076,1.5692121952\H,0,-0.866
 180229,9.5302259445,-0.1073203614\C,0,-0.3157054559,11.4408417034,0.66
 06892128\C,0,1.0675658354,11.0391132765,0.86761847\C,0,-4.42754602,12.
 4414296131,-0.2191791643\H,0,-4.4382425649,13.5274060277,-0.3168464629
 \H,0,-4.7864257046,12.0240684501,-1.1620840723\H,0,-5.144268673,12.169
 2097485,0.558896094\C,0,-3.2636241037,8.0888153662,0.0847173071\H,0,-4
 .0355972664,7.5690294224,0.6529291414\H,0,-3.2047696486,7.6395445959,-
 0.9091716325\H,0,-2.3097454442,7.9783365503,0.5938312535\C,0,2.2332888
 647,12.0068628033,0.8524915377\H,0,2.1771227702,12.7203893995,0.033842
 0626\H,0,2.2823626551,12.5648986928,1.7890246452\H,0,3.1437699592,11.4
 193313502,0.7581233718\C,0,0.0103264473,14.0007490737,0.682514535\H,0,
 0.7037763903,13.9752777891,1.5168761666\H,0,0.5749528669,14.1943724638
 ,-0.2300064603\H,0,-0.665966826,14.8402051194,0.8379349295\\Version=ES
 64L-G16RevA.03\HF=-633.3393693\RMSD=5.619e-09\Dipole=0.3552705,3.29899
 69,0.0471162\Quadrupole=-59.4637873,105.2229846,-45.7591973,1.4259,-4.
 0150985,4.0440838\PG=C01 [X(C11H15N1O2)]\\@


 IF THERE IS ONE WAY BETTER THAN ANOTHER IT IS THE WAY OF NATURE.

                          -- ARISTOTLE
 Job cpu time:       0 days  0 hours 16 minutes 24.7 seconds.
 Elapsed time:       0 days  0 hours  0 minutes 31.7 seconds.
 File lengths (MBytes):  RWF=    336 Int=      0 D2E=      0 Chk=     67 Scr=      1
 Normal termination of Gaussian 16 at Mon Mar  9 23:07:22 2026.
