 Entering Gaussian System, Link 0=g16
 Input=DDL-S1min-S1-cLR.gjf
 Output=DDL-S1min-S1-cLR.log
 Initial command:
 /data/home/wyx/g16/l1.exe "/scr/tmp/wyx/13952/Gau-2529762.inp" -scrdir="/scr/tmp/wyx/13952/"
 Entering Link 1 = /data/home/wyx/g16/l1.exe PID=   2529763.
  
 Copyright (c) 1988,1990,1992,1993,1995,1998,2003,2009,2016,
            Gaussian, Inc.  All Rights Reserved.
  
 This is part of the Gaussian(R) 16 program.  It is based on
 the Gaussian(R) 09 system (copyright 2009, Gaussian, Inc.),
 the Gaussian(R) 03 system (copyright 2003, Gaussian, Inc.),
 the Gaussian(R) 98 system (copyright 1998, Gaussian, Inc.),
 the Gaussian(R) 94 system (copyright 1995, Gaussian, Inc.),
 the Gaussian 92(TM) system (copyright 1992, Gaussian, Inc.),
 the Gaussian 90(TM) system (copyright 1990, Gaussian, Inc.),
 the Gaussian 88(TM) system (copyright 1988, Gaussian, Inc.),
 the Gaussian 86(TM) system (copyright 1986, Carnegie Mellon
 University), and the Gaussian 82(TM) system (copyright 1983,
 Carnegie Mellon University). Gaussian is a federally registered
 trademark of Gaussian, Inc.
  
 This software contains proprietary and confidential information,
 including trade secrets, belonging to Gaussian, Inc.
  
 This software is provided under written license and may be
 used, copied, transmitted, or stored only in accord with that
 written license.
  
 The following legend is applicable only to US Government
 contracts under FAR:
  
                    RESTRICTED RIGHTS LEGEND
  
 Use, reproduction and disclosure by the US Government is
 subject to restrictions as set forth in subparagraphs (a)
 and (c) of the Commercial Computer Software - Restricted
 Rights clause in FAR 52.227-19.
  
 Gaussian, Inc.
 340 Quinnipiac St., Bldg. 40, Wallingford CT 06492
  
  
 ---------------------------------------------------------------
 Warning -- This program may not be used in any manner that
 competes with the business of Gaussian, Inc. or will provide
 assistance to any competitor of Gaussian, Inc.  The licensee
 of this program is prohibited from giving any competitor of
 Gaussian, Inc. access to this program.  By using this program,
 the user acknowledges that Gaussian, Inc. is engaged in the
 business of creating and licensing software in the field of
 computational chemistry and represents and warrants to the
 licensee that it is not a competitor of Gaussian, Inc. and that
 it will not use this program in any manner prohibited above.
 ---------------------------------------------------------------
  

 Cite this work as:
 Gaussian 16, Revision A.03,
 M. J. Frisch, G. W. Trucks, H. B. Schlegel, G. E. Scuseria, 
 M. A. Robb, J. R. Cheeseman, G. Scalmani, V. Barone, 
 G. A. Petersson, H. Nakatsuji, X. Li, M. Caricato, A. V. Marenich, 
 J. Bloino, B. G. Janesko, R. Gomperts, B. Mennucci, H. P. Hratchian, 
 J. V. Ortiz, A. F. Izmaylov, J. L. Sonnenberg, D. Williams-Young, 
 F. Ding, F. Lipparini, F. Egidi, J. Goings, B. Peng, A. Petrone, 
 T. Henderson, D. Ranasinghe, V. G. Zakrzewski, J. Gao, N. Rega, 
 G. Zheng, W. Liang, M. Hada, M. Ehara, K. Toyota, R. Fukuda, 
 J. Hasegawa, M. Ishida, T. Nakajima, Y. Honda, O. Kitao, H. Nakai, 
 T. Vreven, K. Throssell, J. A. Montgomery, Jr., J. E. Peralta, 
 F. Ogliaro, M. J. Bearpark, J. J. Heyd, E. N. Brothers, K. N. Kudin, 
 V. N. Staroverov, T. A. Keith, R. Kobayashi, J. Normand, 
 K. Raghavachari, A. P. Rendell, J. C. Burant, S. S. Iyengar, 
 J. Tomasi, M. Cossi, J. M. Millam, M. Klene, C. Adamo, R. Cammi, 
 J. W. Ochterski, R. L. Martin, K. Morokuma, O. Farkas, 
 J. B. Foresman, and D. J. Fox, Gaussian, Inc., Wallingford CT, 2016.
 
 ******************************************
 Gaussian 16:  ES64L-G16RevA.03 25-Dec-2016
                 9-Mar-2026 
 ******************************************
 %nprocshared=32
 Will use up to   32 processors via shared memory.
 %mem=16GB
 %oldchk=DDL-S1-opt-freq.chk
 %chk=DDL-S1min-S1-cLR.chk
 Copying data from "DDL-S1-opt-freq.chk" to current chk file "DDL-S1min-S1-cLR.chk"
 IOpt=  2 FromEx=T IUOpen= 4 IOptOp= 5 NList=   0 IFRang= 0 IUIn= 4 IUOut= 2.
 ----------------------------------------------------------------------
 #p M062X/TZVP em=gd3 TD=(Read,NStates=6,Root=1) SCRF=(Solvent=Water,Co
 rrectedLR,NonEquilibrium=Save) Geom=Check Guess=Read NoSymm
 ----------------------------------------------------------------------
 1/29=2,30=1,38=1,172=1/1;
 2/12=2,15=1,40=1/2;
 3/5=19,7=101,11=9,14=-4,25=1,30=1,70=9002201,71=1,72=1,74=-55,116=-2,124=31/1,2,3,8;
 4/5=1/1;
 5/5=2,38=6,53=1/2;
 8/6=1,10=1,107=1,108=6/1;
 9/8=1,15=1,41=6,42=1,49=3,70=2,73=22/14;
 10/5=4,13=10,28=1,31=1,74=20/2;
 6/7=2,8=2,9=2,10=2,22=-1/1;
 99/5=1,9=1/99;
 Leave Link    1 at Mon Mar  9 18:52:35 2026, MaxMem=  2147483648 cpu:               1.8 elap:               2.4
 (Enter /data/home/wyx/g16/l101.exe)
 -------------------
 Title Card Required
 -------------------
 Structure from the checkpoint file:  "DDL-S1min-S1-cLR.chk"
 Charge =  0 Multiplicity = 1
 Redundant internal coordinates found in file.  (old form).
 O,0,1.2682267808,9.843376622,1.3133338202
 O,0,-4.778500079,9.7332697815,-0.4550475916
 N,0,-2.1179132315,12.9177164978,0.27283834
 H,0,-2.4245934795,13.8823125853,0.1975088184
 C,0,-2.7009255482,10.6315228047,0.2100416155
 C,0,-0.7989997832,12.7433533076,0.5683427647
 C,0,-3.0770921472,11.9857421502,0.073677624
 C,0,-3.6224808473,9.5427478339,-0.0520667359
 C,0,-1.3221036104,10.3191256089,0.6357389827
 H,0,-1.3516969048,9.8682549621,1.6506959964
 H,0,-0.9082760248,9.4880591737,0.0479393681
 C,0,-0.3380949615,11.420615377,0.6922600437
 C,0,1.0328419609,10.9987155761,0.9266666788
 C,0,-4.4425558924,12.504913031,-0.2445837959
 H,0,-4.4549811266,13.5940993907,-0.1932845138
 H,0,-4.7574649188,12.1954413863,-1.2405168973
 H,0,-5.177659798,12.1090314921,0.4548019701
 C,0,-3.1372903507,8.1190044198,0.136577108
 H,0,-4.0068113497,7.46899726,0.2036313064
 H,0,-2.543231669,7.8097258155,-0.7279218197
 H,0,-2.5208260835,7.9896955557,1.0251221314
 C,0,2.2039138849,11.9180814804,0.6571168271
 H,0,2.005732484,12.6441863097,-0.1273171047
 H,0,2.4840422829,12.4569844776,1.5656553521
 H,0,3.0488959845,11.2954951814,0.366953447
 C,0,-0.0210454295,14.0054018395,0.7758548664
 H,0,0.6854168684,13.8947920185,1.5958453952
 H,0,0.5384706558,14.2993917623,-0.1151534417
 H,0,-0.6941686967,14.8257807485,1.0272894444
 Recover connectivity data from disk.
 ITRead=  0  0  0  0  0  0  0  0  0  0  0  0  0  0  0  0  0  0  0  0
 ITRead=  0  0  0  0  0  0  0  0  0
 MicOpt= -1 -1 -1 -1 -1 -1 -1 -1 -1 -1 -1 -1 -1 -1 -1 -1 -1 -1 -1 -1
 MicOpt= -1 -1 -1 -1 -1 -1 -1 -1 -1
                           ----------------------------
                           !    Current Parameters    !
                           ! (Angstroms and Degrees)  !
 --------------------------                            --------------------------
 ! Name  Definition              Value                                          !
 --------------------------------------------------------------------------------
 ! R1    R(1,13)                 1.2409                                         !
 ! R2    R(2,8)                  1.239                                          !
 ! R3    R(3,4)                  1.015                                          !
 ! R4    R(3,6)                  1.3628                                         !
 ! R5    R(3,7)                  1.3521                                         !
 ! R6    R(5,7)                  1.4121                                         !
 ! R7    R(5,8)                  1.4503                                         !
 ! R8    R(5,9)                  1.4765                                         !
 ! R9    R(6,12)                 1.4062                                         !
 ! R10   R(6,26)                 1.497                                          !
 ! R11   R(7,14)                 1.4951                                         !
 ! R12   R(8,18)                 1.5159                                         !
 ! R13   R(9,10)                 1.111                                          !
 ! R14   R(9,11)                 1.0988                                         !
 ! R15   R(9,12)                 1.4781                                         !
 ! R16   R(12,13)                1.4534                                         !
 ! R17   R(13,22)                1.513                                          !
 ! R18   R(14,15)                1.0905                                         !
 ! R19   R(14,16)                1.0894                                         !
 ! R20   R(14,17)                1.0891                                         !
 ! R21   R(18,19)                1.0877                                         !
 ! R22   R(18,20)                1.0936                                         !
 ! R23   R(18,21)                1.0892                                         !
 ! R24   R(22,23)                1.0871                                         !
 ! R25   R(22,24)                1.0929                                         !
 ! R26   R(22,25)                1.0889                                         !
 ! R27   R(26,27)                1.088                                          !
 ! R28   R(26,28)                1.0924                                         !
 ! R29   R(26,29)                1.0906                                         !
 ! A1    A(4,3,6)              115.4745                                         !
 ! A2    A(4,3,7)              115.4533                                         !
 ! A3    A(6,3,7)              129.071                                          !
 ! A4    A(7,5,8)              122.224                                          !
 ! A5    A(7,5,9)              118.6545                                         !
 ! A6    A(8,5,9)              119.1215                                         !
 ! A7    A(3,6,12)             117.172                                          !
 ! A8    A(3,6,26)             115.1587                                         !
 ! A9    A(12,6,26)            127.6227                                         !
 ! A10   A(3,7,5)              117.2464                                         !
 ! A11   A(3,7,14)             116.0964                                         !
 ! A12   A(5,7,14)             126.6457                                         !
 ! A13   A(2,8,5)              122.4263                                         !
 ! A14   A(2,8,18)             118.916                                          !
 ! A15   A(5,8,18)             118.6334                                         !
 ! A16   A(5,9,10)             108.9287                                         !
 ! A17   A(5,9,11)             110.9463                                         !
 ! A18   A(5,9,12)             118.3627                                         !
 ! A19   A(10,9,11)            101.0572                                         !
 ! A20   A(10,9,12)            106.5724                                         !
 ! A21   A(11,9,12)            109.4725                                         !
 ! A22   A(6,12,9)             118.6465                                         !
 ! A23   A(6,12,13)            126.6145                                         !
 ! A24   A(9,12,13)            114.6956                                         !
 ! A25   A(1,13,12)            119.9645                                         !
 ! A26   A(1,13,22)            118.3231                                         !
 ! A27   A(12,13,22)           121.6647                                         !
 ! A28   A(7,14,15)            110.3182                                         !
 ! A29   A(7,14,16)            111.0977                                         !
 ! A30   A(7,14,17)            110.7018                                         !
 ! A31   A(15,14,16)           108.8718                                         !
 ! A32   A(15,14,17)           108.9749                                         !
 ! A33   A(16,14,17)           106.7794                                         !
 ! A34   A(8,18,19)            108.2443                                         !
 ! A35   A(8,18,20)            109.9443                                         !
 ! A36   A(8,18,21)            113.2148                                         !
 ! A37   A(19,18,20)           108.2997                                         !
 ! A38   A(19,18,21)           109.3434                                         !
 ! A39   A(20,18,21)           107.6904                                         !
 ! A40   A(13,22,23)           113.1596                                         !
 ! A41   A(13,22,24)           110.4823                                         !
 ! A42   A(13,22,25)           107.4969                                         !
 ! A43   A(23,22,24)           108.4962                                         !
 ! A44   A(23,22,25)           109.3328                                         !
 ! A45   A(24,22,25)           107.7312                                         !
 ! A46   A(6,26,27)            110.8673                                         !
 ! A47   A(6,26,28)            112.3327                                         !
 ! A48   A(6,26,29)            110.2054                                         !
 ! A49   A(27,26,28)           108.0295                                         !
 ! A50   A(27,26,29)           107.6677                                         !
 ! A51   A(28,26,29)           107.5616                                         !
 ! D1    D(4,3,6,12)           179.4808                                         !
 ! D2    D(4,3,6,26)             1.7742                                         !
 ! D3    D(7,3,6,12)            -0.0844                                         !
 ! D4    D(7,3,6,26)          -177.791                                          !
 ! D5    D(4,3,7,5)           -178.109                                          !
 ! D6    D(4,3,7,14)             0.7384                                         !
 ! D7    D(6,3,7,5)              1.4562                                         !
 ! D8    D(6,3,7,14)          -179.6963                                         !
 ! D9    D(8,5,7,3)           -176.4895                                         !
 ! D10   D(8,5,7,14)             4.8005                                         !
 ! D11   D(9,5,7,3)              3.5877                                         !
 ! D12   D(9,5,7,14)          -175.1222                                         !
 ! D13   D(7,5,8,2)              2.5571                                         !
 ! D14   D(7,5,8,18)          -179.2571                                         !
 ! D15   D(9,5,8,2)           -177.5205                                         !
 ! D16   D(9,5,8,18)             0.6653                                         !
 ! D17   D(7,5,9,10)           112.2844                                         !
 ! D18   D(7,5,9,11)          -137.3279                                         !
 ! D19   D(7,5,9,12)            -9.5728                                         !
 ! D20   D(8,5,9,10)           -67.6408                                         !
 ! D21   D(8,5,9,11)            42.747                                          !
 ! D22   D(8,5,9,12)           170.502                                          !
 ! D23   D(3,6,12,9)            -6.2118                                         !
 ! D24   D(3,6,12,13)          176.3208                                         !
 ! D25   D(26,6,12,9)          171.1671                                         !
 ! D26   D(26,6,12,13)          -6.3003                                         !
 ! D27   D(3,6,26,27)          140.5855                                         !
 ! D28   D(3,6,26,28)          -98.4377                                         !
 ! D29   D(3,6,26,29)           21.4814                                         !
 ! D30   D(12,6,26,27)         -36.8384                                         !
 ! D31   D(12,6,26,28)          84.1384                                         !
 ! D32   D(12,6,26,29)        -155.9425                                         !
 ! D33   D(3,7,14,15)           -4.0801                                         !
 ! D34   D(3,7,14,16)          116.754                                          !
 ! D35   D(3,7,14,17)         -124.783                                          !
 ! D36   D(5,7,14,15)          174.6429                                         !
 ! D37   D(5,7,14,16)          -64.5231                                         !
 ! D38   D(5,7,14,17)           53.9399                                         !
 ! D39   D(2,8,18,19)          -19.1504                                         !
 ! D40   D(2,8,18,20)           98.9695                                         !
 ! D41   D(2,8,18,21)         -140.5412                                         !
 ! D42   D(5,8,18,19)          162.599                                          !
 ! D43   D(5,8,18,20)          -79.2811                                         !
 ! D44   D(5,8,18,21)           41.2082                                         !
 ! D45   D(5,9,12,6)            10.9203                                         !
 ! D46   D(5,9,12,13)         -171.317                                          !
 ! D47   D(10,9,12,6)         -112.1233                                         !
 ! D48   D(10,9,12,13)          65.6394                                         !
 ! D49   D(11,9,12,6)          139.3672                                         !
 ! D50   D(11,9,12,13)         -42.8701                                         !
 ! D51   D(6,12,13,1)          163.7373                                         !
 ! D52   D(6,12,13,22)         -18.8164                                         !
 ! D53   D(9,12,13,1)          -13.8164                                         !
 ! D54   D(9,12,13,22)         163.6299                                         !
 ! D55   D(1,13,22,23)         149.1338                                         !
 ! D56   D(1,13,22,24)         -88.9878                                         !
 ! D57   D(1,13,22,25)          28.3109                                         !
 ! D58   D(12,13,22,23)        -28.3529                                         !
 ! D59   D(12,13,22,24)         93.5255                                         !
 ! D60   D(12,13,22,25)       -149.1759                                         !
 --------------------------------------------------------------------------------
 NAtoms=     29 NQM=       29 NQMF=       0 NMMI=      0 NMMIF=      0
                NMic=       0 NMicF=      0.
                    Isotopes and Nuclear Properties:
 (Nuclear quadrupole moments (NQMom) in fm**2, nuclear magnetic moments (NMagM)
  in nuclear magnetons)

  Atom         1           2           3           4           5           6           7           8           9          10
 IAtWgt=          16          16          14           1          12          12          12          12          12           1
 AtmWgt=  15.9949146  15.9949146  14.0030740   1.0078250  12.0000000  12.0000000  12.0000000  12.0000000  12.0000000   1.0078250
 NucSpn=           0           0           2           1           0           0           0           0           0           1
 AtZEff=   5.6000000   5.6000000   4.5500000   1.0000000   3.6000000   3.6000000   3.6000000   3.6000000   3.6000000   1.0000000
 NQMom=    0.0000000   0.0000000   2.0440000   0.0000000   0.0000000   0.0000000   0.0000000   0.0000000   0.0000000   0.0000000
 NMagM=    0.0000000   0.0000000   0.4037610   2.7928460   0.0000000   0.0000000   0.0000000   0.0000000   0.0000000   2.7928460
 AtZNuc=   8.0000000   8.0000000   7.0000000   1.0000000   6.0000000   6.0000000   6.0000000   6.0000000   6.0000000   1.0000000

  Atom        11          12          13          14          15          16          17          18          19          20
 IAtWgt=           1          12          12          12           1           1           1          12           1           1
 AtmWgt=   1.0078250  12.0000000  12.0000000  12.0000000   1.0078250   1.0078250   1.0078250  12.0000000   1.0078250   1.0078250
 NucSpn=           1           0           0           0           1           1           1           0           1           1
 AtZEff=   1.0000000   3.6000000   3.6000000   3.6000000   1.0000000   1.0000000   1.0000000   3.6000000   1.0000000   1.0000000
 NQMom=    0.0000000   0.0000000   0.0000000   0.0000000   0.0000000   0.0000000   0.0000000   0.0000000   0.0000000   0.0000000
 NMagM=    2.7928460   0.0000000   0.0000000   0.0000000   2.7928460   2.7928460   2.7928460   0.0000000   2.7928460   2.7928460
 AtZNuc=   1.0000000   6.0000000   6.0000000   6.0000000   1.0000000   1.0000000   1.0000000   6.0000000   1.0000000   1.0000000

  Atom        21          22          23          24          25          26          27          28          29
 IAtWgt=           1          12           1           1           1          12           1           1           1
 AtmWgt=   1.0078250  12.0000000   1.0078250   1.0078250   1.0078250  12.0000000   1.0078250   1.0078250   1.0078250
 NucSpn=           1           0           1           1           1           0           1           1           1
 AtZEff=   1.0000000   3.6000000   1.0000000   1.0000000   1.0000000   3.6000000   1.0000000   1.0000000   1.0000000
 NQMom=    0.0000000   0.0000000   0.0000000   0.0000000   0.0000000   0.0000000   0.0000000   0.0000000   0.0000000
 NMagM=    2.7928460   0.0000000   2.7928460   2.7928460   2.7928460   0.0000000   2.7928460   2.7928460   2.7928460
 AtZNuc=   1.0000000   6.0000000   1.0000000   1.0000000   1.0000000   6.0000000   1.0000000   1.0000000   1.0000000
 Leave Link  101 at Mon Mar  9 18:52:38 2026, MaxMem=  2147483648 cpu:               6.5 elap:               0.2
 (Enter /data/home/wyx/g16/l202.exe)
                          Input orientation:                          
 ---------------------------------------------------------------------
 Center     Atomic      Atomic             Coordinates (Angstroms)
 Number     Number       Type             X           Y           Z
 ---------------------------------------------------------------------
      1          8           0        1.268227    9.843377    1.313334
      2          8           0       -4.778500    9.733270   -0.455048
      3          7           0       -2.117913   12.917716    0.272838
      4          1           0       -2.424593   13.882313    0.197509
      5          6           0       -2.700926   10.631523    0.210042
      6          6           0       -0.799000   12.743353    0.568343
      7          6           0       -3.077092   11.985742    0.073678
      8          6           0       -3.622481    9.542748   -0.052067
      9          6           0       -1.322104   10.319126    0.635739
     10          1           0       -1.351697    9.868255    1.650696
     11          1           0       -0.908276    9.488059    0.047939
     12          6           0       -0.338095   11.420615    0.692260
     13          6           0        1.032842   10.998716    0.926667
     14          6           0       -4.442556   12.504913   -0.244584
     15          1           0       -4.454981   13.594099   -0.193285
     16          1           0       -4.757465   12.195441   -1.240517
     17          1           0       -5.177660   12.109031    0.454802
     18          6           0       -3.137290    8.119004    0.136577
     19          1           0       -4.006811    7.468997    0.203631
     20          1           0       -2.543232    7.809726   -0.727922
     21          1           0       -2.520826    7.989696    1.025122
     22          6           0        2.203914   11.918081    0.657117
     23          1           0        2.005732   12.644186   -0.127317
     24          1           0        2.484042   12.456984    1.565655
     25          1           0        3.048896   11.295495    0.366953
     26          6           0       -0.021045   14.005402    0.775855
     27          1           0        0.685417   13.894792    1.595845
     28          1           0        0.538471   14.299392   -0.115153
     29          1           0       -0.694169   14.825781    1.027289
 ---------------------------------------------------------------------
                    Distance matrix (angstroms):
                    1          2          3          4          5
     1  O    0.000000
     2  O    6.300968   0.000000
     3  N    4.690431   4.212985   0.000000
     4  H    5.585248   4.814692   1.014974   0.000000
     5  C    4.194353   2.359135   2.360197   3.262537   0.000000
     6  C    3.638448   5.093560   1.362813   2.019233   2.864530
     7  C    5.000827   2.871928   1.352134   2.009494   1.412093
     8  C    5.086621   1.238980   3.709407   4.508774   1.450309
     9  C    2.719427   3.671474   2.741840   3.755507   1.476469
    10  H    2.641672   4.024346   3.432899   4.401763   2.116242
    11  H    2.542565   3.910468   3.643673   4.650920   2.132458
    12  C    2.335312   4.886783   2.363256   3.264691   2.537355
    13  C    1.240857   6.105914   3.746640   4.560774   3.819608
    14  C    6.490294   2.799850   2.417043   2.482911   2.597990
    15  H    7.006635   3.883193   2.477226   2.087645   3.466445
    16  H    6.954374   2.584510   3.127165   3.218034   2.962991
    17  H    6.886198   2.575150   3.170036   3.284829   2.894331
    18  C    4.875120   2.376855   4.907681   5.807527   2.551188
    19  H    5.890258   2.481188   5.767258   6.605609   3.421542
    20  H    4.778041   2.961572   5.222450   6.143843   2.977781
    21  H    4.228016   3.213728   5.001366   5.951230   2.770567
    22  C    2.368656   7.400298   4.452542   5.049012   5.090438
    23  H    3.234799   7.389632   4.152035   4.611535   5.130035
    24  H    2.893582   8.015384   4.802254   5.291322   5.661616
    25  H    2.484968   8.023987   5.416307   6.056354   5.790158
    26  C    4.390166   6.511498   2.415148   2.475213   4.345683
    27  H    4.102858   7.167902   3.250182   3.409936   4.902723
    28  H    4.735947   7.016778   3.019261   3.008565   4.904355
    29  H    5.362571   6.694233   2.497389   2.138466   4.720886
                    6          7          8          9         10
     6  C    0.000000
     7  C    2.451198   0.000000
     8  C    4.312868   2.506288   0.000000
     9  C    2.480939   2.484655   2.523405   0.000000
    10  H    3.121402   3.154002   2.856889   1.110990   0.000000
    11  H    3.298439   3.307997   2.716597   1.098833   1.705872
    12  C    1.406209   2.864283   3.855853   1.478089   2.087058
    13  C    2.554956   4.312003   4.974916   2.468248   2.736455
    14  C    3.740749   1.495099   3.079612   3.910225   4.483019
    15  H    3.830149   2.134633   4.138411   4.607348   5.187731
    16  H    4.386528   2.143533   3.120478   4.340807   5.037277
    17  H    4.425824   2.138420   3.043240   4.254623   4.592302
    18  C    5.199868   3.867718   1.515929   2.895617   2.922461
    19  H    6.184004   4.613269   2.124508   3.939239   3.860060
    20  H    5.391041   4.285637   2.150564   3.106093   3.363795
    21  H    5.076475   4.145246   2.187682   2.648547   2.299389
    22  C    3.115517   5.313568   6.331827   3.871681   4.222719
    23  H    2.891418   5.129235   6.426614   4.130697   4.705258
    24  H    3.443110   5.777048   6.956970   4.463399   4.628353
    25  H    4.116206   6.171724   6.910497   4.486778   4.801065
    26  C    1.497011   3.729812   5.794055   3.911651   4.433054
    27  H    2.141277   4.485303   6.341442   4.211571   4.512853
    28  H    2.162695   4.296618   6.320060   4.457364   5.130880
    29  H    2.134977   3.827991   6.135997   4.567007   5.039647
                   11         12         13         14         15
    11  H    0.000000
    12  C    2.115426   0.000000
    13  C    2.611931   1.453415   0.000000
    14  C    4.655976   4.347410   5.798314   0.000000
    15  H    5.431102   4.738879   6.173047   1.090465   0.000000
    16  H    4.879169   4.885367   6.297340   1.089414   1.773256
    17  H    5.026198   4.894046   6.326594   1.089147   1.774178
    18  C    2.617379   4.364048   5.129033   4.591862   5.641080
    19  H    3.701590   5.414196   6.195143   5.074566   6.154289
    20  H    2.468166   4.462966   5.069085   5.087812   6.115521
    21  H    2.408381   4.079991   4.657516   5.068766   6.052670
    22  C    3.995226   2.590466   1.513043   6.732978   6.919039
    23  H    4.299221   2.768097   2.182882   6.450858   6.530506
    24  H    4.756659   3.130709   2.154260   7.159401   7.248237
    25  H    4.362087   3.404877   2.113251   7.613049   7.868012
    26  C    4.660839   2.605500   3.189606   4.779385   4.557213
    27  H    4.935095   2.825879   2.992618   5.622726   5.451155
    28  H    5.026788   3.115708   3.496320   5.295992   5.043620
    29  H    5.431044   3.440085   4.199895   4.588518   4.141322
                   16         17         18         19         20
    16  H    0.000000
    17  H    1.748753   0.000000
    18  C    4.597683   4.492738   0.000000
    19  H    4.998832   4.792065   1.087691   0.000000
    20  H    4.939644   5.179100   1.093580   1.768036   0.000000
    21  H    5.274843   4.934872   1.089156   1.775986   1.762400
    22  C    7.220716   7.386814   6.575136   7.653307   6.429021
    23  H    6.868874   7.226782   6.855479   7.939949   6.665269
    24  H    7.770613   7.749629   7.242908   8.298573   7.220180
    25  H    8.020794   8.267151   6.957878   8.028186   6.679913
    26  C    5.456682   5.503632   6.690989   7.677132   6.856323
    27  H    6.368493   6.234307   7.078296   8.077506   7.269945
    28  H    5.808613   6.147900   7.195261   8.210694   7.210280
    29  H    5.345279   5.273534   7.193265   8.110134   7.464906
                   21         22         23         24         25
    21  H    0.000000
    22  C    6.155551   0.000000
    23  H    6.594098   1.087125   0.000000
    24  H    6.730346   1.092854   1.769175   0.000000
    25  H    6.510246   1.088946   1.775236   1.762102   0.000000
    26  C    6.519184   3.053105   2.603163   3.049073   4.115256
    27  H    6.743581   2.663537   2.505302   2.302880   3.721902
    28  H    7.104350   3.006783   2.211947   3.163042   3.944370
    29  H    7.075927   4.121969   3.658133   4.000257   5.187436
                   26         27         28         29
    26  C    0.000000
    27  H    1.087983   0.000000
    28  H    1.092421   1.764316   0.000000
    29  H    1.090567   1.758764   1.761153   0.000000
 Symmetry turned off by external request.
 Stoichiometry    C11H15NO2
 Framework group  C1[X(C11H15NO2)]
 Deg. of freedom    81
 Full point group                 C1      NOp   1
 Rotational constants (GHZ):           1.0689315           0.4875898           0.3414096
 Leave Link  202 at Mon Mar  9 18:52:38 2026, MaxMem=  2147483648 cpu:               0.1 elap:               0.0
 (Enter /data/home/wyx/g16/l301.exe)
 Standard basis: TZVP (5D, 7F)
 Ernie: Thresh=  0.10000D-02 Tol=  0.10000D-05 Strict=F.
   356 basis functions,   610 primitive gaussians,   370 cartesian basis functions
    52 alpha electrons       52 beta electrons
       nuclear repulsion energy       897.0856539528 Hartrees.
 IExCor= 4336 DFT=T Ex+Corr=M062X ExCW=0 ScaHFX=  0.540000
 ScaDFX=  1.000000  1.000000  1.000000  1.000000 ScalE2=  1.000000  1.000000
 IRadAn=      5 IRanWt=     -1 IRanGd=            0 ICorTp=0 IEmpDi=131
 NAtoms=   29 NActive=   29 NUniq=   29 SFac= 1.00D+00 NAtFMM=   60 NAOKFM=F Big=F
 Integral buffers will be    131072 words long.
 Regular integral format.
 Two-electron integral symmetry is turned off.
 R6Disp:  Grimme-D3 Dispersion energy=       -0.0014541118 Hartrees.
 Nuclear repulsion after empirical dispersion term =      897.0841998410 Hartrees.
 ------------------------------------------------------------------------------
 Polarizable Continuum Model (PCM)
 =================================
 Model                : PCM.
 Atomic radii         : UFF (Universal Force Field).
 Polarization charges : Total charges.
 Charge compensation  : None.
 Solution method      : On-the-fly selection.
 Cavity type          : Scaled VdW (van der Waals Surface) (Alpha=1.100).
 Cavity algorithm     : GePol (No added spheres)
                        Default sphere list used, NSphG=   29.
                        Lebedev-Laikov grids with approx.  5.0 points / Ang**2.
                        Smoothing algorithm: York/Karplus (Gamma=1.0000).
                        Polarization charges: spherical gaussians, with
                                              point-specific exponents (IZeta= 3).
                        Self-potential: point-specific (ISelfS= 7).
                        Self-field    : sphere-specific E.n sum rule (ISelfD= 2).
 1st derivatives      : Analytical E(r).r(x)/FMM algorithm (CHGder, D1EAlg=3).
                        Cavity 1st derivative terms included.
 Solvent              : Water, Eps=  78.355300 Eps(inf)=   1.777849
 ------------------------------------------------------------------------------
 GePol: Number of generator spheres                  =      29
 GePol: Total number of spheres                      =      29
 GePol: Number of exposed spheres                    =      29 (100.00%)
 GePol: Number of points                             =    2101
 GePol: Average weight of points                     =       0.13
 GePol: Minimum weight of points                     =   0.63D-09
 GePol: Maximum weight of points                     =    0.20577
 GePol: Number of points with low weight             =     136
 GePol: Fraction of low-weight points (<1% of avg)   =       6.47%
 GePol: Cavity surface area                          =    270.074 Ang**2
 GePol: Cavity volume                                =    287.442 Ang**3
 Leave Link  301 at Mon Mar  9 18:52:38 2026, MaxMem=  2147483648 cpu:               1.1 elap:               0.0
 (Enter /data/home/wyx/g16/l302.exe)
 NPDir=0 NMtPBC=     1 NCelOv=     1 NCel=       1 NClECP=     1 NCelD=      1
         NCelK=      1 NCelE2=     1 NClLst=     1 CellRange=     0.0.
 One-electron integrals computed using PRISM.
 NBasis=   356 RedAO= T EigKep=  4.02D-05  NBF=   356
 NBsUse=   356 1.00D-06 EigRej= -1.00D+00 NBFU=   356
 Precomputing XC quadrature grid using
 IXCGrd= 4 IRadAn=           5 IRanWt=          -1 IRanGd=           0 AccXCQ= 0.00D+00.
 Generated NRdTot=       0 NPtTot=           0 NUsed=           0 NTot=          32
 NSgBfM=   366   366   366   366   366 MxSgAt=    29 MxSgA2=    29.
 Leave Link  302 at Mon Mar  9 18:52:38 2026, MaxMem=  2147483648 cpu:               6.2 elap:               0.2
 (Enter /data/home/wyx/g16/l303.exe)
 DipDrv:  MaxL=1.
 Leave Link  303 at Mon Mar  9 18:52:38 2026, MaxMem=  2147483648 cpu:               1.1 elap:               0.0
 (Enter /data/home/wyx/g16/l308.exe)
 Leave Link  308 at Mon Mar  9 18:52:38 2026, MaxMem=  2147483648 cpu:               1.3 elap:               0.1
 (Enter /data/home/wyx/g16/l401.exe)
 Initial guess from the checkpoint file:  "DDL-S1min-S1-cLR.chk"
 B after Tr=     0.000000    0.000000    0.000000
         Rot=    1.000000    0.000000    0.000000    0.000000 Ang=   0.00 deg.
 Guess basis will be translated and rotated to current coordinates.
 JPrj=2 DoOrth=T DoCkMO=T.
 Leave Link  401 at Mon Mar  9 18:52:39 2026, MaxMem=  2147483648 cpu:               4.4 elap:               0.2
 (Enter /data/home/wyx/g16/l502.exe)
 Two-electron integral symmetry not used.
 Closed shell SCF:
 Using DIIS extrapolation, IDIIS=  1040.
 NGot=  2147483648 LenX=  2147195087 LenY=  2147057746
 Requested convergence on RMS density matrix=1.00D-08 within 128 cycles.
 Requested convergence on MAX density matrix=1.00D-06.
 Requested convergence on             energy=1.00D-06.
 No special actions if energy rises.
 Fock matrices will be formed incrementally for  20 cycles.

 Cycle   1  Pass 1  IDiag  1:
 FoFJK:  IHMeth= 1 ICntrl=       0 DoSepK=F KAlg= 0 I1Cent=           0 FoldK=F
 IRaf= 870000000 NMat=       1 IRICut=       1 DoRegI=T DoRafI=F ISym2E= 0 IDoP0=0 IntGTp=1.
 FoFCou: FMM=F IPFlag=           0 FMFlag=      100000 FMFlg1=           0
         NFxFlg=           0 DoJE=F BraDBF=F KetDBF=F FulRan=T
         wScrn=  0.000000 ICntrl=         0 IOpCl=  0 I1Cent=           0 NGrid=           0
         NMat0=    1 NMatS0=      1 NMatT0=    0 NMatD0=    1 NMtDS0=    0 NMtDT0=    0
 Symmetry not used in FoFCou.
 Inv3:  Mode=1 IEnd=    13242603.
 Iteration    1 A*A^-1 deviation from unit magnitude is 4.00D-15 for    567.
 Iteration    1 A*A^-1 deviation from orthogonality  is 2.22D-15 for   1646   1345.
 Iteration    1 A^-1*A deviation from unit magnitude is 3.11D-15 for    567.
 Iteration    1 A^-1*A deviation from orthogonality  is 1.34D-14 for   1810   1763.
 E= -633.342171811367    
 DIIS: error= 2.36D-08 at cycle   1 NSaved=   1.
 NSaved= 1 IEnMin= 1 EnMin= -633.342171811367     IErMin= 1 ErrMin= 2.36D-08
 ErrMax= 2.36D-08  0.00D+00 EMaxC= 1.00D-01 BMatC= 1.50D-13 BMatP= 1.50D-13
 IDIUse=1 WtCom= 1.00D+00 WtEn= 0.00D+00
 Coeff-Com:  0.100D+01
 Coeff:      0.100D+01
 Gap=     0.198 Goal=   None    Shift=    0.000
 RMSDP=3.73D-09 MaxDP=1.60D-07              OVMax= 2.92D-07

 Error on total polarization charges =  0.01460
 SCF Done:  E(RM062X) =  -633.342171811     A.U. after    1 cycles
            NFock=  1  Conv=0.37D-08     -V/T= 2.0050
 KE= 6.302055089919D+02 PE=-3.269136867419D+03 EE= 1.108504986775D+03
 Leave Link  502 at Mon Mar  9 18:52:42 2026, MaxMem=  2147483648 cpu:             106.3 elap:               3.7
 (Enter /data/home/wyx/g16/l801.exe)
 DoSCS=F DFT=T ScalE2(SS,OS)=  1.000000  1.000000
 ExpMin= 9.52D-02 ExpMax= 2.70D+04 ExpMxC= 9.22D+02 IAcc=3 IRadAn=         5 AccDes= 0.00D+00
 HarFok:  IExCor=  205 AccDes= 0.00D+00 IRadAn=         5 IDoV=-2 UseB2=F ITyADJ=14
 ICtDFT= 12500011 ScaDFX=  1.000000  1.000000  1.000000  1.000000
 Largest valence mixing into a core orbital is  1.02D-04
 Largest core mixing into a valence orbital is  2.89D-05
 Range of M.O.s used for correlation:    15   356
 NBasis=   356 NAE=    52 NBE=    52 NFC=    14 NFV=     0
 NROrb=    342 NOA=    38 NOB=    38 NVA=   304 NVB=   304

 **** Warning!!: The largest alpha MO coefficient is  0.57389226D+02

 Leave Link  801 at Mon Mar  9 18:52:43 2026, MaxMem=  2147483648 cpu:               1.6 elap:               0.1
 (Enter /data/home/wyx/g16/l914.exe)
 RHF ground state
 Two-electron integral symmetry not used.
 MDV=  2147483648 DFT=T DoStab=F Mixed=T DoRPA=T DoScal=F NonHer=T
 NEqPCM:  Using equilibrium solvation (IEInf=0, Eps=  78.3553, EpsInf=   1.7778)
 Making orbital integer symmetry assigments:
 Generating guess from checkpoint file densities.
 PCM Corrected Linear-Response:
 Compute the excitation energies in the ground state reaction field.
 Convergence on wavefunction:    0.000001000000000
 Davidson Disk Diagonalization:  ConvIn= 1.00D-06 SkipCon=T Conv= 1.00D-06.
 Max sub-space:  2000 roots to seek:     6 dimension of matrix:        23104
 Iteration     1 Dimension    12 NMult     0 NNew     12
 CISAX will form    12 AO SS matrices at one time.
 NMat=    12 NSing=    12 JSym2X= 0.
 FoFJK:  IHMeth= 1 ICntrl=       0 DoSepK=F KAlg= 0 I1Cent=           0 FoldK=F
 IRaf= 870000000 NMat=      24 IRICut=      30 DoRegI=T DoRafI=T ISym2E= 0 IDoP0=3 IntGTp=3.
 FoFCou: FMM=F IPFlag=           0 FMFlag=      100000 FMFlg1=           0
         NFxFlg=           0 DoJE=F BraDBF=F KetDBF=F FulRan=T
         wScrn=  0.000000 ICntrl=         0 IOpCl=  0 I1Cent=           0 NGrid=           0
         NMat0=   24 NMatS0=     12 NMatT0=    0 NMatD0=   24 NMtDS0=    0 NMtDT0=    0
 Symmetry not used in FoFCou.
 Raff kept on since  85.50% of shell-pairs survive, threshold=   0.20 IRatSp=86.
 Excitation Energies [eV] at current iteration:
 Root      1 :     2.918590948713547
 Root      2 :     3.815981443037406
 Root      3 :     3.960734076188546
 Root      4 :     4.908937953267496
 Root      5 :     5.386236893856187
 Root      6 :     5.803689655575823
 Iteration     2 Dimension    24 NMult    12 NNew     12
 CISAX will form    12 AO SS matrices at one time.
 NMat=    12 NSing=    12 JSym2X= 0.
 Root      1 not converged, maximum delta is    0.010515006599635
 Root      2 not converged, maximum delta is    0.000687862992851
 Root      3 not converged, maximum delta is    0.001110639622716
 Root      4 not converged, maximum delta is    0.030331053930332
 Root      5 not converged, maximum delta is    0.042011485498200
 Root      6 not converged, maximum delta is    0.007865275061080
 Excitation Energies [eV] at current iteration:
 Root      1 :     2.894749518303331   Change is   -0.023841430410216
 Root      2 :     3.815592263018092   Change is   -0.000389180019314
 Root      3 :     3.960232992926078   Change is   -0.000501083262468
 Root      4 :     4.884989876234298   Change is   -0.023948077033197
 Root      5 :     5.341750101929543   Change is   -0.044486791926644
 Root      6 :     5.794761821536416   Change is   -0.008927834039407
 Iteration     3 Dimension    36 NMult    24 NNew     12
 CISAX will form    12 AO SS matrices at one time.
 NMat=    12 NSing=    12 JSym2X= 0.
 Root      1 not converged, maximum delta is    0.003826714681163
 Root      2 not converged, maximum delta is    0.000269420437794
 Root      3 not converged, maximum delta is    0.000349874228839
 Root      4 not converged, maximum delta is    0.002957813144960
 Root      5 not converged, maximum delta is    0.006772346576013
 Root      6 not converged, maximum delta is    0.009584550334300
 Excitation Energies [eV] at current iteration:
 Root      1 :     2.892449906272685   Change is   -0.002299612030646
 Root      2 :     3.815567955789428   Change is   -0.000024307228664
 Root      3 :     3.960192985654825   Change is   -0.000040007271253
 Root      4 :     4.882978051698519   Change is   -0.002011824535779
 Root      5 :     5.336373988898400   Change is   -0.005376113031144
 Root      6 :     5.793225232427272   Change is   -0.001536589109144
 Iteration     4 Dimension    48 NMult    36 NNew     12
 CISAX will form    12 AO SS matrices at one time.
 NMat=    12 NSing=    12 JSym2X= 0.
 Root      1 not converged, maximum delta is    0.000564484139409
 Root      2 not converged, maximum delta is    0.000040661065707
 Root      3 not converged, maximum delta is    0.000074514133611
 Root      4 not converged, maximum delta is    0.000699057496660
 Root      5 not converged, maximum delta is    0.000644979666668
 Root      6 not converged, maximum delta is    0.005677853748393
 Excitation Energies [eV] at current iteration:
 Root      1 :     2.892272017720286   Change is   -0.000177888552399
 Root      2 :     3.815566595423599   Change is   -0.000001360365829
 Root      3 :     3.960189952279096   Change is   -0.000003033375729
 Root      4 :     4.882705895468554   Change is   -0.000272156229965
 Root      5 :     5.335744379275148   Change is   -0.000629609623252
 Root      6 :     5.792957712538397   Change is   -0.000267519888874
 Iteration     5 Dimension    60 NMult    48 NNew     12
 CISAX will form    12 AO SS matrices at one time.
 NMat=    12 NSing=    12 JSym2X= 0.
 Root      1 not converged, maximum delta is    0.000125326831811
 Root      2 not converged, maximum delta is    0.000018014901810
 Root      3 not converged, maximum delta is    0.000021417215180
 Root      4 not converged, maximum delta is    0.000292812016197
 Root      5 not converged, maximum delta is    0.000336344941014
 Root      6 not converged, maximum delta is    0.003862368597619
 Excitation Energies [eV] at current iteration:
 Root      1 :     2.892262542204534   Change is   -0.000009475515752
 Root      2 :     3.815566480685647   Change is   -0.000000114737952
 Root      3 :     3.960189748425232   Change is   -0.000000203853864
 Root      4 :     4.882688823290236   Change is   -0.000017072178318
 Root      5 :     5.335698990065356   Change is   -0.000045389209792
 Root      6 :     5.792882537965108   Change is   -0.000075174573289
 Iteration     6 Dimension    72 NMult    60 NNew     12
 CISAX will form    12 AO SS matrices at one time.
 NMat=    12 NSing=    12 JSym2X= 0.
 Root      1 not converged, maximum delta is    0.000032076053187
 Root      2 not converged, maximum delta is    0.000003473086885
 Root      3 not converged, maximum delta is    0.000006909577767
 Root      4 not converged, maximum delta is    0.000088686751928
 Root      5 not converged, maximum delta is    0.000212342435501
 Root      6 not converged, maximum delta is    0.000475402235136
 Excitation Energies [eV] at current iteration:
 Root      1 :     2.892261924399837   Change is   -0.000000617804697
 Root      2 :     3.815566473183187   Change is   -0.000000007502460
 Root      3 :     3.960189733602267   Change is   -0.000000014822965
 Root      4 :     4.882687452932319   Change is   -0.000001370357917
 Root      5 :     5.335694591413615   Change is   -0.000004398651740
 Root      6 :     5.792875236379786   Change is   -0.000007301585321
 Iteration     7 Dimension    84 NMult    72 NNew     12
 CISAX will form    12 AO SS matrices at one time.
 NMat=    12 NSing=    12 JSym2X= 0.
 Root      1 not converged, maximum delta is    0.000008483478114
 Root      2 has converged.
 Root      3 not converged, maximum delta is    0.000002025739961
 Root      4 not converged, maximum delta is    0.000042726316146
 Root      5 not converged, maximum delta is    0.000107219460641
 Root      6 not converged, maximum delta is    0.000079444718155
 Excitation Energies [eV] at current iteration:
 Root      1 :     2.892261895503471   Change is   -0.000000028896366
 Root      2 :     3.815566472762105   Change is   -0.000000000421081
 Root      3 :     3.960189732907480   Change is   -0.000000000694787
 Root      4 :     4.882687327206671   Change is   -0.000000125725648
 Root      5 :     5.335694043085280   Change is   -0.000000548328335
 Root      6 :     5.792874452730788   Change is   -0.000000783648999
 Iteration     8 Dimension    94 NMult    84 NNew     10
 CISAX will form    10 AO SS matrices at one time.
 NMat=    10 NSing=    10 JSym2X= 0.
 Root      1 not converged, maximum delta is    0.000001404193357
 Root      2 has converged.
 Root      3 has converged.
 Root      4 not converged, maximum delta is    0.000017279061164
 Root      5 not converged, maximum delta is    0.000055396369285
 Root      6 not converged, maximum delta is    0.000027114497516
 Excitation Energies [eV] at current iteration:
 Root      1 :     2.892261894146743   Change is   -0.000000001356727
 Root      2 :     3.815566472746053   Change is   -0.000000000016052
 Root      3 :     3.960189732876696   Change is   -0.000000000030785
 Root      4 :     4.882687315634537   Change is   -0.000000011572135
 Root      5 :     5.335693969541201   Change is   -0.000000073544079
 Root      6 :     5.792874372133845   Change is   -0.000000080596943
 Iteration     9 Dimension   102 NMult    94 NNew      8
 CISAX will form     8 AO SS matrices at one time.
 NMat=     8 NSing=     8 JSym2X= 0.
 Root      1 has converged.
 Root      2 has converged.
 Root      3 has converged.
 Root      4 not converged, maximum delta is    0.000004983140362
 Root      5 not converged, maximum delta is    0.000018087765500
 Root      6 not converged, maximum delta is    0.000008157877841
 Excitation Energies [eV] at current iteration:
 Root      1 :     2.892261894089186   Change is   -0.000000000057557
 Root      2 :     3.815566472745257   Change is   -0.000000000000797
 Root      3 :     3.960189732875823   Change is   -0.000000000000872
 Root      4 :     4.882687314729000   Change is   -0.000000000905536
 Root      5 :     5.335693961894293   Change is   -0.000000007646908
 Root      6 :     5.792874364521999   Change is   -0.000000007611846
 Iteration    10 Dimension   108 NMult   102 NNew      6
 CISAX will form     6 AO SS matrices at one time.
 NMat=     6 NSing=     6 JSym2X= 0.
 Root      1 has converged.
 Root      2 has converged.
 Root      3 has converged.
 Root      4 has converged.
 Root      5 not converged, maximum delta is    0.000003375421599
 Root      6 not converged, maximum delta is    0.000002848258699
 Excitation Energies [eV] at current iteration:
 Root      1 :     2.892261894088675   Change is   -0.000000000000512
 Root      2 :     3.815566472744977   Change is   -0.000000000000280
 Root      3 :     3.960189732875803   Change is   -0.000000000000020
 Root      4 :     4.882687314676639   Change is   -0.000000000052361
 Root      5 :     5.335693961254406   Change is   -0.000000000639887
 Root      6 :     5.792874363787835   Change is   -0.000000000734164
 Iteration    11 Dimension   112 NMult   108 NNew      4
 CISAX will form     4 AO SS matrices at one time.
 NMat=     4 NSing=     4 JSym2X= 0.
 Root      1 has converged.
 Root      2 has converged.
 Root      3 has converged.
 Root      4 has converged.
 Root      5 has converged.
 Root      6 has converged.
 Excitation Energies [eV] at current iteration:
 Root      1 :     2.892261894088618   Change is   -0.000000000000057
 Root      2 :     3.815566472744869   Change is   -0.000000000000108
 Root      3 :     3.960189732875720   Change is   -0.000000000000083
 Root      4 :     4.882687314674702   Change is   -0.000000000001937
 Root      5 :     5.335693961205180   Change is   -0.000000000049226
 Root      6 :     5.792874363722669   Change is   -0.000000000065166
 Convergence achieved on expansion vectors.
 PCM Corrected Linear-Response:
 The state of interest is root number   1
 Excitation energy =    2.8923 eV, Total energy =  -633.235883142    
 Recompute the excitation energies using the linear response reaction field.
 Convergence on wavefunction:    0.000001000000000
 Davidson Disk Diagonalization:  ConvIn= 1.00D-06 SkipCon=T Conv= 1.00D-06.
 Max sub-space:  2000 roots to seek:     6 dimension of matrix:        23104
 Iteration     1 Dimension    12 NMult     0 NNew     12
 CISAX will form    12 AO SS matrices at one time.
 NMat=    12 NSing=    12 JSym2X= 0.
 Excitation Energies [eV] at current iteration:
 Root      1 :     2.764132035288967
 Root      2 :     3.810897175815995
 Root      3 :     3.954493038946787
 Root      4 :     4.728947720561948
 Root      5 :     5.203876492009983
 Root      6 :     5.728364672137040
 Iteration     2 Dimension    24 NMult    12 NNew     12
 CISAX will form    12 AO SS matrices at one time.
 NMat=    12 NSing=    12 JSym2X= 0.
 Root      1 not converged, maximum delta is    0.009752224104966
 Root      2 not converged, maximum delta is    0.000669448247934
 Root      3 not converged, maximum delta is    0.001071824085057
 Root      4 not converged, maximum delta is    0.024574150405144
 Root      5 not converged, maximum delta is    0.027485856874574
 Root      6 not converged, maximum delta is    0.011143263272318
 Excitation Energies [eV] at current iteration:
 Root      1 :     2.746089245813931   Change is   -0.018042789475035
 Root      2 :     3.810565924093825   Change is   -0.000331251722170
 Root      3 :     3.954080864050082   Change is   -0.000412174896704
 Root      4 :     4.695638198771980   Change is   -0.033309521789967
 Root      5 :     5.187067181423034   Change is   -0.016809310586950
 Root      6 :     5.722643037332881   Change is   -0.005721634804159
 Iteration     3 Dimension    36 NMult    24 NNew     12
 CISAX will form    12 AO SS matrices at one time.
 NMat=    12 NSing=    12 JSym2X= 0.
 Root      1 not converged, maximum delta is    0.003846927553632
 Root      2 not converged, maximum delta is    0.000245072673142
 Root      3 not converged, maximum delta is    0.000378253193113
 Root      4 not converged, maximum delta is    0.003395653677261
 Root      5 not converged, maximum delta is    0.006236923662408
 Root      6 not converged, maximum delta is    0.009356239857916
 Excitation Energies [eV] at current iteration:
 Root      1 :     2.743758077566606   Change is   -0.002331168247326
 Root      2 :     3.810544650065159   Change is   -0.000021274028666
 Root      3 :     3.954048133852419   Change is   -0.000032730197664
 Root      4 :     4.692602943122638   Change is   -0.003035255649342
 Root      5 :     5.184888314103489   Change is   -0.002178867319544
 Root      6 :     5.721574035328228   Change is   -0.001069002004653
 Iteration     4 Dimension    48 NMult    36 NNew     12
 CISAX will form    12 AO SS matrices at one time.
 NMat=    12 NSing=    12 JSym2X= 0.
 Root      1 not converged, maximum delta is    0.000967547335550
 Root      2 not converged, maximum delta is    0.000027579651918
 Root      3 not converged, maximum delta is    0.000091825957643
 Root      4 not converged, maximum delta is    0.001024852625128
 Root      5 not converged, maximum delta is    0.001039929494115
 Root      6 not converged, maximum delta is    0.004831389904426
 Excitation Energies [eV] at current iteration:
 Root      1 :     2.743578927290092   Change is   -0.000179150276514
 Root      2 :     3.810543462661771   Change is   -0.000001187403388
 Root      3 :     3.954045639658229   Change is   -0.000002494194190
 Root      4 :     4.692240791019655   Change is   -0.000362152102983
 Root      5 :     5.184621039076293   Change is   -0.000267275027196
 Root      6 :     5.721382473337830   Change is   -0.000191561990398
 Iteration     5 Dimension    60 NMult    48 NNew     12
 CISAX will form    12 AO SS matrices at one time.
 NMat=    12 NSing=    12 JSym2X= 0.
 Root      1 not converged, maximum delta is    0.000089757381375
 Root      2 not converged, maximum delta is    0.000015878481273
 Root      3 not converged, maximum delta is    0.000026064156806
 Root      4 not converged, maximum delta is    0.000394782353519
 Root      5 not converged, maximum delta is    0.000213904255657
 Root      6 not converged, maximum delta is    0.002180631469091
 Excitation Energies [eV] at current iteration:
 Root      1 :     2.743572548556749   Change is   -0.000006378733342
 Root      2 :     3.810543364125606   Change is   -0.000000098536165
 Root      3 :     3.954045458101924   Change is   -0.000000181556305
 Root      4 :     4.692219042111539   Change is   -0.000021748908117
 Root      5 :     5.184604067591337   Change is   -0.000016971484956
 Root      6 :     5.721345063868808   Change is   -0.000037409469022
 Iteration     6 Dimension    72 NMult    60 NNew     12
 CISAX will form    12 AO SS matrices at one time.
 NMat=    12 NSing=    12 JSym2X= 0.
 Root      1 not converged, maximum delta is    0.000027932315358
 Root      2 not converged, maximum delta is    0.000004530989001
 Root      3 not converged, maximum delta is    0.000005706732709
 Root      4 not converged, maximum delta is    0.000068363288317
 Root      5 not converged, maximum delta is    0.000073403863897
 Root      6 not converged, maximum delta is    0.000287715574445
 Excitation Energies [eV] at current iteration:
 Root      1 :     2.743572191561443   Change is   -0.000000356995306
 Root      2 :     3.810543358505398   Change is   -0.000000005620207
 Root      3 :     3.954045446302557   Change is   -0.000000011799367
 Root      4 :     4.692217302135708   Change is   -0.000001739975830
 Root      5 :     5.184602334628909   Change is   -0.000001732962428
 Root      6 :     5.721341248375240   Change is   -0.000003815493569
 Iteration     7 Dimension    84 NMult    72 NNew     12
 CISAX will form    12 AO SS matrices at one time.
 NMat=    12 NSing=    12 JSym2X= 0.
 Root      1 not converged, maximum delta is    0.000004497911383
 Root      2 has converged.
 Root      3 not converged, maximum delta is    0.000001320959475
 Root      4 not converged, maximum delta is    0.000028740801600
 Root      5 not converged, maximum delta is    0.000034341241412
 Root      6 not converged, maximum delta is    0.000067825444979
 Excitation Energies [eV] at current iteration:
 Root      1 :     2.743572173865284   Change is   -0.000000017696159
 Root      2 :     3.810543358263686   Change is   -0.000000000241712
 Root      3 :     3.954045445592013   Change is   -0.000000000710544
 Root      4 :     4.692217155772896   Change is   -0.000000146362812
 Root      5 :     5.184602176544952   Change is   -0.000000158083957
 Root      6 :     5.721340856708112   Change is   -0.000000391667128
 Iteration     8 Dimension    94 NMult    84 NNew     10
 CISAX will form    10 AO SS matrices at one time.
 NMat=    10 NSing=    10 JSym2X= 0.
 Root      1 not converged, maximum delta is    0.000001135222279
 Root      2 has converged.
 Root      3 has converged.
 Root      4 not converged, maximum delta is    0.000012492780082
 Root      5 not converged, maximum delta is    0.000018780015233
 Root      6 not converged, maximum delta is    0.000020659108154
 Excitation Energies [eV] at current iteration:
 Root      1 :     2.743572173120297   Change is   -0.000000000744987
 Root      2 :     3.810543358260472   Change is   -0.000000000003214
 Root      3 :     3.954045445549953   Change is   -0.000000000042060
 Root      4 :     4.692217146398152   Change is   -0.000000009374745
 Root      5 :     5.184602163260260   Change is   -0.000000013284691
 Root      6 :     5.721340814589881   Change is   -0.000000042118230
 Iteration     9 Dimension   102 NMult    94 NNew      8
 CISAX will form     8 AO SS matrices at one time.
 NMat=     8 NSing=     8 JSym2X= 0.
 Root      1 has converged.
 Root      2 has converged.
 Root      3 has converged.
 Root      4 not converged, maximum delta is    0.000003446138424
 Root      5 not converged, maximum delta is    0.000005970620668
 Root      6 not converged, maximum delta is    0.000006678834857
 Excitation Energies [eV] at current iteration:
 Root      1 :     2.743572173097225   Change is   -0.000000000023072
 Root      2 :     3.810543358260062   Change is   -0.000000000000410
 Root      3 :     3.954045445548955   Change is   -0.000000000000998
 Root      4 :     4.692217145791697   Change is   -0.000000000606454
 Root      5 :     5.184602162079663   Change is   -0.000000001180597
 Root      6 :     5.721340810464821   Change is   -0.000000004125060
 Iteration    10 Dimension   108 NMult   102 NNew      6
 CISAX will form     6 AO SS matrices at one time.
 NMat=     6 NSing=     6 JSym2X= 0.
 Root      1 has converged.
 Root      2 has converged.
 Root      3 has converged.
 Root      4 has converged.
 Root      5 not converged, maximum delta is    0.000001294578522
 Root      6 not converged, maximum delta is    0.000003088637809
 Excitation Energies [eV] at current iteration:
 Root      1 :     2.743572173097075   Change is   -0.000000000000150
 Root      2 :     3.810543358259738   Change is   -0.000000000000323
 Root      3 :     3.954045445548789   Change is   -0.000000000000166
 Root      4 :     4.692217145757411   Change is   -0.000000000034286
 Root      5 :     5.184602161988475   Change is   -0.000000000091189
 Root      6 :     5.721340809975055   Change is   -0.000000000489767
 Iteration    11 Dimension   112 NMult   108 NNew      4
 CISAX will form     4 AO SS matrices at one time.
 NMat=     4 NSing=     4 JSym2X= 0.
 Root      1 has converged.
 Root      2 has converged.
 Root      3 has converged.
 Root      4 has converged.
 Root      5 has converged.
 Root      6 not converged, maximum delta is    0.000001270887447
 Excitation Energies [eV] at current iteration:
 Root      1 :     2.743572173097105   Change is    0.000000000000030
 Root      2 :     3.810543358259652   Change is   -0.000000000000086
 Root      3 :     3.954045445548748   Change is   -0.000000000000042
 Root      4 :     4.692217145755939   Change is   -0.000000000001472
 Root      5 :     5.184602161979786   Change is   -0.000000000008689
 Root      6 :     5.721340809913672   Change is   -0.000000000061383
 Iteration    12 Dimension   114 NMult   112 NNew      2
 CISAX will form     2 AO SS matrices at one time.
 NMat=     2 NSing=     2 JSym2X= 0.
 Root      1 has converged.
 Root      2 has converged.
 Root      3 has converged.
 Root      4 has converged.
 Root      5 has converged.
 Root      6 has converged.
 Excitation Energies [eV] at current iteration:
 Root      1 :     2.743572173097045   Change is   -0.000000000000060
 Root      2 :     3.810543358259609   Change is   -0.000000000000044
 Root      3 :     3.954045445548768   Change is    0.000000000000020
 Root      4 :     4.692217145755939   Change is    0.000000000000000
 Root      5 :     5.184602161979786   Change is    0.000000000000000
 Root      6 :     5.721340809904491   Change is   -0.000000000009181
 Convergence achieved on expansion vectors.
 ***********************************************************************
 Excited states from <AA,BB:AA,BB> singles matrix:
 ***********************************************************************
 
 1PDM for each excited state written to RWF  633
 Ground to excited state transition densities written to RWF  633
 Ground to excited state transition electric dipole moments (Au):
       state          X           Y           Z        Dip. S.      Osc.
         1        -1.6547     -0.3864     -0.3837      3.0345      0.2040
         2        -0.0426      0.0516      0.0301      0.0054      0.0005
         3         0.1044     -0.0683      0.0015      0.0156      0.0015
         4        -0.4370      1.9283     -0.1081      3.9212      0.4508
         5        -0.3924      1.3688     -0.1355      2.0460      0.2599
         6         0.0687     -0.2299     -0.0208      0.0580      0.0081
 Ground to excited state transition velocity dipole moments (Au):
       state          X           Y           Z        Dip. S.      Osc.
         1         0.1651      0.0421      0.0387      0.0305      0.2019
         2         0.0056     -0.0072     -0.0008      0.0001      0.0004
         3        -0.0135      0.0078     -0.0030      0.0003      0.0012
         4         0.0675     -0.3323      0.0201      0.1154      0.4461
         5         0.0769     -0.2660      0.0255      0.0773      0.2706
         6        -0.0095      0.0480     -0.0152      0.0026      0.0083
 Ground to excited state transition magnetic dipole moments (Au):
       state          X           Y           Z
         1         1.1323      0.1286     -5.0927
         2         0.7615      0.2372      0.1010
         3         0.4823     -0.9102      0.6691
         4         0.7480      0.0347     -0.5654
         5         0.9112      0.0566     -1.0815
         6        -0.1935     -0.0300      0.0272
 Ground to excited state transition velocity quadrupole moments (Au):
       state          XX          YY          ZZ          XY          XZ          YZ
         1        -0.8193      1.5462      0.0701      2.9258      0.0351      0.7387
         2        -0.0462     -0.2981     -0.0022      0.1101     -0.0220      0.0555
         3         0.0413      0.3762     -0.0040     -0.2460      0.0523     -0.0085
         4         0.8616    -14.2720      0.0885      2.8445      0.3291      0.2797
         5        -0.1143    -11.6245      0.0490      2.4058      0.1078      0.3668
         6         0.2546      2.2066     -0.1662     -0.3931      0.0749     -0.1072
 <0|del|b> * <b|rxdel|0> + <0|del|b> * <b|delr+rdel|0>
 Rotatory Strengths (R) in cgs (10**-40 erg-esu-cm/Gauss)
       state          XX          YY          ZZ    R(velocity)    E-M Angle
         1      -280.3071     -5.0536    252.0507    -11.1033       90.30
         2        -5.1344     11.6289      6.1060      4.2001       70.27
         3       -21.3689    -22.2635    -32.3779    -25.3368      143.27
         4       294.3638      1.8988   -183.1467     37.7053       85.04
         5        88.0048     17.2177     -3.4641     33.9195       86.01
         6         0.8626     -5.9337      5.0017     -0.0231       90.00
 1/2[<0|r|b>*<b|rxdel|0> + (<0|rxdel|b>*<b|r|0>)*]
 Rotatory Strengths (R) in cgs (10**-40 erg-esu-cm/Gauss)
       state          XX          YY          ZZ     R(length)
         1      1324.9732     35.1301  -1381.9666     -7.2877
         2        22.9150     -8.6598     -2.1479      4.0358
         3       -35.6210    -43.9883     -0.6971    -26.7688
         4       231.1750    -47.3477    -43.2205     46.8689
         5       252.8228    -54.8005   -103.6531     31.4564
         6         9.3976     -4.8796      0.4001      1.6393
  1/2[<0|del|b>*<b|r|0> + (<0|r|b>*<b|del|0>)*] (Au)
       state          X           Y           Z        Dip. S.   Osc.(frdel)
         1        -0.2732     -0.0163     -0.0149      0.3043      0.2029
         2        -0.0002     -0.0004     -0.0000      0.0006      0.0004
         3        -0.0014     -0.0005     -0.0000      0.0019      0.0013
         4        -0.0295     -0.6408     -0.0022      0.6725      0.4483
         5        -0.0302     -0.3641     -0.0035      0.3978      0.2652
         6        -0.0007     -0.0110      0.0003      0.0114      0.0076

 Excitation energies and oscillator strengths:
 
 Excited state symmetry could not be determined.
 Excited State   1:      Singlet-?Sym    2.7436 eV  451.91 nm  f=0.2040  <S**2>=0.000
      52 -> 53         0.70277
 This state for optimization and/or second-order correction.
 Total Energy, E(TD-HF/TD-DFT) =  -633.241347389    
 Copying the excited state density for this state as the 1-particle RhoCI density.
 
 Excited state symmetry could not be determined.
 Excited State   2:      Singlet-?Sym    3.8105 eV  325.37 nm  f=0.0005  <S**2>=0.000
      49 -> 54        -0.19930
      50 -> 53         0.40425
      50 -> 54        -0.23995
      51 -> 53        -0.41124
      51 -> 54         0.18496
 
 Excited state symmetry could not be determined.
 Excited State   3:      Singlet-?Sym    3.9540 eV  313.56 nm  f=0.0015  <S**2>=0.000
      49 -> 53         0.56054
      49 -> 54         0.27850
      49 -> 58         0.15595
      50 -> 54        -0.13704
      51 -> 54         0.19465
 
 Excited state symmetry could not be determined.
 Excited State   4:      Singlet-?Sym    4.6922 eV  264.23 nm  f=0.4508  <S**2>=0.000
      51 -> 53        -0.11560
      52 -> 54         0.68522
 
 Excited state symmetry could not be determined.
 Excited State   5:      Singlet-?Sym    5.1846 eV  239.14 nm  f=0.2599  <S**2>=0.000
      49 -> 53         0.11013
      50 -> 53        -0.46192
      51 -> 53        -0.48938
      52 -> 54        -0.14991
 
 Excited state symmetry could not be determined.
 Excited State   6:      Singlet-?Sym    5.7213 eV  216.70 nm  f=0.0081  <S**2>=0.000
      52 -> 55         0.66038
      52 -> 56         0.15920
      52 -> 62        -0.11896
 SavETr:  write IOETrn=   770 NScale= 10 NData=  16 NLR=1 NState=    6 LETran=     118.
 The selected state is a singlet.
 CISGrd: IGrad=1 NXY=2 DFT=T
 CISAX will form     1 AO SS matrices at one time.
 NMat=     1 NSing=     1 JSym2X= 0.
 Leave Link  914 at Mon Mar  9 19:04:28 2026, MaxMem=  2147483648 cpu:           22493.8 elap:             705.2
 (Enter /data/home/wyx/g16/l1002.exe)
 Minotr:  Closed shell wavefunction.
          Computing CIS/TDA/TD derivatives.
          Using Z-Vector for PSCF gradient.
          Skipping F1 and S1 gradient terms here.
 NEqPCM:  Using equilibrium solvation (IEInf=0, Eps=  78.3553, EpsInf=   1.7778)
          Frozen-core window.
          Direct CPHF calculation.
          Differentiating once with respect to electric field.
                with respect to dipole field.
          Electric field/nuclear overlap derivatives assumed to be zero.
          Requested convergence is 1.0D-10 RMS, and 1.0D-09 maximum.
          NewPWx=F KeepS1=T KeepF1=T KeepIn=T MapXYZ=F SortEE=F KeepMc=T.
 Two-electron integral symmetry not used.
          MDV=    2147483648 using IRadAn=       5.
          Solving linear equations separately, MaxMat=     384.
          There are     1 degrees of freedom in the 1st order CPHF.  IDoFFX=0 NUNeed=     1.
 FoFJK:  IHMeth= 1 ICntrl=       0 DoSepK=F KAlg= 0 I1Cent=           0 FoldK=F
 IRaf= 880000000 NMat=       1 IRICut=       1 DoRegI=T DoRafI=F ISym2E= 0 IDoP0=0 IntGTp=1.
 FoFCou: FMM=F IPFlag=           0 FMFlag=      100000 FMFlg1=           0
         NFxFlg=           0 DoJE=F BraDBF=F KetDBF=F FulRan=T
         wScrn=  0.000000 ICntrl=         0 IOpCl=  0 I1Cent=           0 NGrid=           0
         NMat0=    1 NMatS0=      1 NMatT0=    0 NMatD0=    1 NMtDS0=    0 NMtDT0=    0
 Symmetry not used in FoFCou.
 LinEq1:  Iter=  0 NonCon=     1 RMS=3.66D-03 Max=1.61D-01 NDo=     1
 AX will form     1 AO Fock derivatives at one time.
 LinEq1:  Iter=  1 NonCon=     1 RMS=1.47D-03 Max=6.23D-02 NDo=     1
 LinEq1:  Iter=  2 NonCon=     1 RMS=6.92D-04 Max=2.38D-02 NDo=     1
 LinEq1:  Iter=  3 NonCon=     1 RMS=3.60D-04 Max=1.16D-02 NDo=     1
 LinEq1:  Iter=  4 NonCon=     1 RMS=1.57D-04 Max=6.54D-03 NDo=     1
 LinEq1:  Iter=  5 NonCon=     1 RMS=8.32D-05 Max=4.76D-03 NDo=     1
 LinEq1:  Iter=  6 NonCon=     1 RMS=4.84D-05 Max=2.46D-03 NDo=     1
 LinEq1:  Iter=  7 NonCon=     1 RMS=2.42D-05 Max=1.16D-03 NDo=     1
 LinEq1:  Iter=  8 NonCon=     1 RMS=1.09D-05 Max=2.72D-04 NDo=     1
 LinEq1:  Iter=  9 NonCon=     1 RMS=4.78D-06 Max=1.54D-04 NDo=     1
 LinEq1:  Iter= 10 NonCon=     1 RMS=1.93D-06 Max=5.51D-05 NDo=     1
 LinEq1:  Iter= 11 NonCon=     1 RMS=9.47D-07 Max=2.59D-05 NDo=     1
 LinEq1:  Iter= 12 NonCon=     1 RMS=5.14D-07 Max=1.50D-05 NDo=     1
 LinEq1:  Iter= 13 NonCon=     1 RMS=2.99D-07 Max=9.67D-06 NDo=     1
 LinEq1:  Iter= 14 NonCon=     1 RMS=9.40D-08 Max=3.01D-06 NDo=     1
 LinEq1:  Iter= 15 NonCon=     1 RMS=2.67D-08 Max=6.60D-07 NDo=     1
 LinEq1:  Iter= 16 NonCon=     1 RMS=1.66D-08 Max=4.73D-07 NDo=     1
 LinEq1:  Iter= 17 NonCon=     1 RMS=7.09D-09 Max=1.67D-07 NDo=     1
 LinEq1:  Iter= 18 NonCon=     1 RMS=3.98D-09 Max=1.36D-07 NDo=     1
 LinEq1:  Iter= 19 NonCon=     1 RMS=1.60D-09 Max=4.77D-08 NDo=     1
 LinEq1:  Iter= 20 NonCon=     1 RMS=4.97D-10 Max=1.62D-08 NDo=     1
 LinEq1:  Iter= 21 NonCon=     1 RMS=2.44D-10 Max=6.13D-09 NDo=     1
 LinEq1:  Iter= 22 NonCon=     1 RMS=8.98D-11 Max=2.57D-09 NDo=     1
 LinEq1:  Iter= 23 NonCon=     0 RMS=2.12D-11 Max=4.21D-10 NDo=     1
 Linear equations converged to 1.000D-10 1.000D-09 after    23 iterations.
 PCM Corrected Linear-Response - Equilibrium solvation:
 Corrected transition energy               =    2.8699          eV
 Total energy after correction             = -633.236703780     a.u.
 NEqPCM:  Using non-equilibrium solvation (IEInf=1, Eps=  78.3553, EpsInf=   1.7778)
 Inv3:  Mode=1 IEnd=    13242603.
 Iteration    1 A*A^-1 deviation from unit magnitude is 3.00D-15 for    734.
 Iteration    1 A*A^-1 deviation from orthogonality  is 2.11D-15 for   1932    361.
 Iteration    1 A^-1*A deviation from unit magnitude is 3.22D-15 for    734.
 Iteration    1 A^-1*A deviation from orthogonality  is 2.16D-15 for   2002    573.
 NEqSol: Computing the dynamic-inertial partition of the PCM polarization charges.
 End of Minotr F.D. properties file   721 does not exist.
 End of Minotr F.D. properties file   722 does not exist.
 End of Minotr F.D. properties file   788 does not exist.
 Leave Link 1002 at Mon Mar  9 19:06:14 2026, MaxMem=  2147483648 cpu:            3333.5 elap:             105.2
 (Enter /data/home/wyx/g16/l601.exe)
 Copying SCF densities to generalized density rwf, IOpCl= 0 IROHF=0.

 **********************************************************************

            Population analysis using the CI density.

 **********************************************************************

 Alpha  occ. eigenvalues --  -19.61219 -19.60349 -14.81066 -10.62995 -10.62549
 Alpha  occ. eigenvalues --  -10.62513 -10.62039 -10.55308 -10.55062 -10.54480
 Alpha  occ. eigenvalues --  -10.54460 -10.54103 -10.53459 -10.53207  -1.15583
 Alpha  occ. eigenvalues --   -1.14993  -1.11323  -0.93017  -0.92338  -0.85411
 Alpha  occ. eigenvalues --   -0.83931  -0.82998  -0.79572  -0.74589  -0.73056
 Alpha  occ. eigenvalues --   -0.69619  -0.62009  -0.58739  -0.57567  -0.55358
 Alpha  occ. eigenvalues --   -0.54546  -0.54400  -0.52688  -0.51755  -0.51000
 Alpha  occ. eigenvalues --   -0.50348  -0.49747  -0.49268  -0.48493  -0.47934
 Alpha  occ. eigenvalues --   -0.46989  -0.45194  -0.45047  -0.44051  -0.43137
 Alpha  occ. eigenvalues --   -0.42414  -0.41874  -0.41661  -0.33422  -0.32369
 Alpha  occ. eigenvalues --   -0.31925  -0.24566
 Alpha virt. eigenvalues --   -0.04769   0.01423   0.05666   0.07426   0.07935
 Alpha virt. eigenvalues --    0.08808   0.09952   0.10498   0.11784   0.12640
 Alpha virt. eigenvalues --    0.13008   0.14296   0.14672   0.15430   0.16025
 Alpha virt. eigenvalues --    0.16414   0.16978   0.17064   0.17539   0.18210
 Alpha virt. eigenvalues --    0.18921   0.20707   0.21617   0.22061   0.22676
 Alpha virt. eigenvalues --    0.23488   0.23506   0.24521   0.25212   0.25438
 Alpha virt. eigenvalues --    0.26146   0.26822   0.27391   0.28167   0.28814
 Alpha virt. eigenvalues --    0.30264   0.30460   0.30845   0.31774   0.32717
 Alpha virt. eigenvalues --    0.33541   0.34214   0.34972   0.35887   0.36769
 Alpha virt. eigenvalues --    0.38073   0.39092   0.39564   0.40137   0.40911
 Alpha virt. eigenvalues --    0.42293   0.43178   0.44168   0.44521   0.44919
 Alpha virt. eigenvalues --    0.45871   0.45971   0.46312   0.46967   0.47730
 Alpha virt. eigenvalues --    0.48194   0.49062   0.49537   0.49802   0.50120
 Alpha virt. eigenvalues --    0.50719   0.51248   0.51720   0.52008   0.52838
 Alpha virt. eigenvalues --    0.52992   0.53919   0.54432   0.55228   0.56628
 Alpha virt. eigenvalues --    0.57031   0.58456   0.59015   0.60042   0.61466
 Alpha virt. eigenvalues --    0.62426   0.63367   0.64504   0.65042   0.65390
 Alpha virt. eigenvalues --    0.66744   0.67398   0.68732   0.69286   0.70056
 Alpha virt. eigenvalues --    0.71313   0.72390   0.73408   0.73755   0.74804
 Alpha virt. eigenvalues --    0.76874   0.78126   0.80976   0.84351   0.85166
 Alpha virt. eigenvalues --    0.89423   0.93728   1.00231   1.02393   1.20766
 Alpha virt. eigenvalues --    1.23657   1.26046   1.26932   1.27391   1.28981
 Alpha virt. eigenvalues --    1.30419   1.31769   1.33371   1.34229   1.35297
 Alpha virt. eigenvalues --    1.35644   1.36627   1.36991   1.38017   1.38501
 Alpha virt. eigenvalues --    1.38569   1.39174   1.39515   1.40190   1.40756
 Alpha virt. eigenvalues --    1.41281   1.42345   1.42883   1.43738   1.45604
 Alpha virt. eigenvalues --    1.46621   1.47647   1.47895   1.48839   1.49458
 Alpha virt. eigenvalues --    1.49993   1.50925   1.51927   1.53488   1.56336
 Alpha virt. eigenvalues --    1.57592   1.57959   1.58577   1.59725   1.60024
 Alpha virt. eigenvalues --    1.60729   1.61090   1.61447   1.61997   1.63383
 Alpha virt. eigenvalues --    1.63739   1.64619   1.65124   1.65521   1.66194
 Alpha virt. eigenvalues --    1.66875   1.67474   1.67751   1.68433   1.69780
 Alpha virt. eigenvalues --    1.71667   1.72167   1.72950   1.73919   1.75647
 Alpha virt. eigenvalues --    1.78500   1.80713   1.81453   1.83080   1.83665
 Alpha virt. eigenvalues --    1.83707   1.84620   1.85790   1.86366   1.87207
 Alpha virt. eigenvalues --    1.88437   1.91144   1.91491   1.96124   1.97197
 Alpha virt. eigenvalues --    1.98687   2.00629   2.02612   2.03800   2.06404
 Alpha virt. eigenvalues --    2.07122   2.08422   2.12549   2.14232   2.16139
 Alpha virt. eigenvalues --    2.16574   2.17564   2.18188   2.18984   2.21981
 Alpha virt. eigenvalues --    2.22808   2.23653   2.24912   2.26856   2.27114
 Alpha virt. eigenvalues --    2.29778   2.30731   2.32384   2.32925   2.34125
 Alpha virt. eigenvalues --    2.34862   2.36052   2.37004   2.38096   2.40891
 Alpha virt. eigenvalues --    2.41306   2.42995   2.44247   2.45077   2.46878
 Alpha virt. eigenvalues --    2.48176   2.49516   2.50341   2.51399   2.53293
 Alpha virt. eigenvalues --    2.54416   2.55860   2.56839   2.57323   2.58343
 Alpha virt. eigenvalues --    2.60703   2.61420   2.62279   2.63602   2.64358
 Alpha virt. eigenvalues --    2.67097   2.67793   2.70233   2.70785   2.70946
 Alpha virt. eigenvalues --    2.72474   2.72868   2.73485   2.75267   2.76717
 Alpha virt. eigenvalues --    2.78001   2.79186   2.80473   2.81159   2.81474
 Alpha virt. eigenvalues --    2.81967   2.82889   2.84703   2.86435   2.89769
 Alpha virt. eigenvalues --    2.94607   2.95320   2.96697   3.02837   3.05446
 Alpha virt. eigenvalues --    3.07439   3.08360   3.11851   3.13188   3.15158
 Alpha virt. eigenvalues --    3.16348   3.16874   3.19633   3.22440   3.23093
 Alpha virt. eigenvalues --    3.23671   3.23911   3.25278   3.28280   3.30203
 Alpha virt. eigenvalues --    3.31814   3.32398   3.32768   3.33093   3.34426
 Alpha virt. eigenvalues --    3.35925   3.36739   3.37993   3.40601   3.41360
 Alpha virt. eigenvalues --    3.42584   3.43476   3.48201   3.52569   3.54168
 Alpha virt. eigenvalues --    3.55160   3.82799   3.93390   4.28290   4.31403
 Alpha virt. eigenvalues --   21.75789  21.87446  22.13739  22.16589  22.17784
 Alpha virt. eigenvalues --   22.20856  22.20945  22.23004  22.24587  22.30304
 Alpha virt. eigenvalues --   22.32218  32.00305  43.75966  43.78620
          Condensed to atoms (all electrons):
               1          2          3          4          5          6
     1  O    8.110605   0.000000  -0.000202   0.000019   0.022835   0.011993
     2  O    0.000000   8.130194   0.000319   0.000019  -0.190800   0.001265
     3  N   -0.000202   0.000319   6.228134   0.366177  -0.077238   0.333178
     4  H    0.000019   0.000019   0.366177   0.380094   0.016282  -0.045308
     5  C    0.022835  -0.190800  -0.077238   0.016282   7.326226  -0.040700
     6  C    0.011993   0.001265   0.333178  -0.045308  -0.040700   5.967645
     7  C   -0.000249  -0.030651   0.415289  -0.039166   0.232014  -0.216155
     8  C   -0.000817   0.604210   0.005263  -0.000465  -0.333542   0.035988
     9  C    0.005335   0.026671   0.003730  -0.001683  -0.730717  -0.050142
    10  H    0.006475  -0.000081   0.001149   0.000056  -0.043616  -0.015215
    11  H    0.003011  -0.000136  -0.001261   0.000014  -0.077690   0.020417
    12  C   -0.238929  -0.002718  -0.041863   0.014516   0.076674  -0.259686
    13  C    0.615039  -0.000004  -0.000037   0.000713   0.076039   0.073837
    14  C   -0.000006  -0.013191  -0.033565  -0.010710  -0.082536   0.011836
    15  H   -0.000000   0.003646   0.006013   0.001379   0.025125   0.005539
    16  H    0.000000  -0.000041  -0.002572   0.000786  -0.009371  -0.000674
    17  H   -0.000000  -0.002499  -0.000139   0.000717  -0.002000  -0.001056
    18  C    0.000619  -0.099665  -0.000553   0.000019  -0.246807  -0.000063
    19  H    0.000006   0.007437   0.000005  -0.000001   0.029923   0.000021
    20  H   -0.000110   0.002109   0.000013  -0.000001  -0.004519   0.000056
    21  H    0.000163   0.003921   0.000083   0.000001   0.030066  -0.001067
    22  C   -0.103494   0.000000   0.000470   0.000131   0.002790  -0.019886
    23  H    0.005325  -0.000000   0.000139  -0.000063  -0.000931  -0.024927
    24  H    0.001826   0.000000  -0.000043  -0.000008  -0.000017   0.013592
    25  H    0.005864  -0.000000   0.000026  -0.000003  -0.000018  -0.001398
    26  C    0.000313   0.000011  -0.026141  -0.007302   0.000533   0.112792
    27  H   -0.000457   0.000000   0.002535   0.000587   0.000005  -0.081139
    28  H   -0.000062   0.000000  -0.003791   0.000469   0.000168  -0.030802
    29  H    0.000014  -0.000000   0.002442   0.001177  -0.000174  -0.050202
               7          8          9         10         11         12
     1  O   -0.000249  -0.000817   0.005335   0.006475   0.003011  -0.238929
     2  O   -0.030651   0.604210   0.026671  -0.000081  -0.000136  -0.002718
     3  N    0.415289   0.005263   0.003730   0.001149  -0.001261  -0.041863
     4  H   -0.039166  -0.000465  -0.001683   0.000056   0.000014   0.014516
     5  C    0.232014  -0.333542  -0.730717  -0.043616  -0.077690   0.076674
     6  C   -0.216155   0.035988  -0.050142  -0.015215   0.020417  -0.259686
     7  C    5.721936  -0.227640  -0.194463  -0.005573   0.007139   0.057225
     8  C   -0.227640   5.444544   0.212206  -0.000239  -0.004091  -0.047892
     9  C   -0.194463   0.212206   6.844003   0.385567   0.479999  -0.381557
    10  H   -0.005573  -0.000239   0.385567   0.465707  -0.034697   0.005082
    11  H    0.007139  -0.004091   0.479999  -0.034697   0.459898  -0.082973
    12  C    0.057225  -0.047892  -0.381557   0.005082  -0.082973   7.694411
    13  C    0.020745  -0.008960  -0.206872  -0.002672   0.000603  -0.434195
    14  C    0.256773  -0.031203   0.005548  -0.000174   0.000027   0.003318
    15  H   -0.078987   0.004566   0.000378   0.000021   0.000002  -0.001391
    16  H   -0.028003  -0.000252   0.001193  -0.000065   0.000065  -0.000543
    17  H   -0.047305  -0.005252  -0.000906   0.000162  -0.000047   0.000857
    18  C    0.002870   0.323783   0.000984  -0.014220   0.005526  -0.011800
    19  H    0.000282  -0.057086  -0.005088  -0.000113   0.000699  -0.000794
    20  H   -0.000188  -0.036130  -0.013007   0.001596  -0.001808   0.000721
    21  H    0.003459  -0.063193   0.006274  -0.002221  -0.007895   0.008891
    22  C    0.000297  -0.000046   0.004734   0.003105  -0.001886  -0.227074
    23  H    0.000084   0.000013   0.003058  -0.000225   0.000149   0.067896
    24  H   -0.000002   0.000002  -0.004215   0.000107  -0.000053  -0.021259
    25  H   -0.000012   0.000000   0.001954  -0.000093  -0.000045   0.019265
    26  C    0.003452   0.000689   0.042011  -0.000758   0.000107  -0.082189
    27  H   -0.000359  -0.000007   0.003180  -0.000048  -0.000025  -0.003203
    28  H   -0.000359  -0.000011  -0.002996   0.000014   0.000033  -0.016069
    29  H    0.002953  -0.000001  -0.000856   0.000028   0.000000   0.025166
              13         14         15         16         17         18
     1  O    0.615039  -0.000006  -0.000000   0.000000  -0.000000   0.000619
     2  O   -0.000004  -0.013191   0.003646  -0.000041  -0.002499  -0.099665
     3  N   -0.000037  -0.033565   0.006013  -0.002572  -0.000139  -0.000553
     4  H    0.000713  -0.010710   0.001379   0.000786   0.000717   0.000019
     5  C    0.076039  -0.082536   0.025125  -0.009371  -0.002000  -0.246807
     6  C    0.073837   0.011836   0.005539  -0.000674  -0.001056  -0.000063
     7  C    0.020745   0.256773  -0.078987  -0.028003  -0.047305   0.002870
     8  C   -0.008960  -0.031203   0.004566  -0.000252  -0.005252   0.323783
     9  C   -0.206872   0.005548   0.000378   0.001193  -0.000906   0.000984
    10  H   -0.002672  -0.000174   0.000021  -0.000065   0.000162  -0.014220
    11  H    0.000603   0.000027   0.000002   0.000065  -0.000047   0.005526
    12  C   -0.434195   0.003318  -0.001391  -0.000543   0.000857  -0.011800
    13  C    5.628704   0.000122  -0.000029  -0.000020   0.000011   0.000857
    14  C    0.000122   5.103607   0.385468   0.413169   0.430246   0.000062
    15  H   -0.000029   0.385468   0.556067  -0.022709  -0.024725   0.000176
    16  H   -0.000020   0.413169  -0.022709   0.505469  -0.034409  -0.000103
    17  H    0.000011   0.430246  -0.024725  -0.034409   0.510135  -0.000034
    18  C    0.000857   0.000062   0.000176  -0.000103  -0.000034   5.387852
    19  H   -0.000036   0.000028  -0.000003   0.000008  -0.000036   0.389881
    20  H    0.000054  -0.000215  -0.000004  -0.000045   0.000040   0.409963
    21  H    0.000869   0.000159  -0.000013   0.000008  -0.000034   0.372197
    22  C    0.262299   0.000007   0.000001  -0.000000   0.000000  -0.000007
    23  H   -0.110704   0.000003   0.000000  -0.000000   0.000000   0.000000
    24  H   -0.023223   0.000000  -0.000000  -0.000000   0.000000  -0.000003
    25  H   -0.029783   0.000000   0.000000   0.000000  -0.000000   0.000005
    26  C   -0.061072  -0.000622   0.000507   0.000043  -0.000116   0.000055
    27  H    0.000355   0.000001  -0.000005   0.000003  -0.000006   0.000003
    28  H    0.007273  -0.000068  -0.000010  -0.000015   0.000009  -0.000002
    29  H   -0.000958   0.000017   0.000063   0.000002  -0.000007   0.000000
              19         20         21         22         23         24
     1  O    0.000006  -0.000110   0.000163  -0.103494   0.005325   0.001826
     2  O    0.007437   0.002109   0.003921   0.000000  -0.000000   0.000000
     3  N    0.000005   0.000013   0.000083   0.000470   0.000139  -0.000043
     4  H   -0.000001  -0.000001   0.000001   0.000131  -0.000063  -0.000008
     5  C    0.029923  -0.004519   0.030066   0.002790  -0.000931  -0.000017
     6  C    0.000021   0.000056  -0.001067  -0.019886  -0.024927   0.013592
     7  C    0.000282  -0.000188   0.003459   0.000297   0.000084  -0.000002
     8  C   -0.057086  -0.036130  -0.063193  -0.000046   0.000013   0.000002
     9  C   -0.005088  -0.013007   0.006274   0.004734   0.003058  -0.004215
    10  H   -0.000113   0.001596  -0.002221   0.003105  -0.000225   0.000107
    11  H    0.000699  -0.001808  -0.007895  -0.001886   0.000149  -0.000053
    12  C   -0.000794   0.000721   0.008891  -0.227074   0.067896  -0.021259
    13  C   -0.000036   0.000054   0.000869   0.262299  -0.110704  -0.023223
    14  C    0.000028  -0.000215   0.000159   0.000007   0.000003   0.000000
    15  H   -0.000003  -0.000004  -0.000013   0.000001   0.000000  -0.000000
    16  H    0.000008  -0.000045   0.000008  -0.000000  -0.000000  -0.000000
    17  H   -0.000036   0.000040  -0.000034   0.000000   0.000000   0.000000
    18  C    0.389881   0.409963   0.372197  -0.000007   0.000000  -0.000003
    19  H    0.509604  -0.015320  -0.022767  -0.000001   0.000000  -0.000000
    20  H   -0.015320   0.482794  -0.024842  -0.000000   0.000000   0.000000
    21  H   -0.022767  -0.024842   0.532472   0.000032  -0.000000  -0.000000
    22  C   -0.000001  -0.000000   0.000032   5.492293   0.402757   0.408759
    23  H    0.000000   0.000000  -0.000000   0.402757   0.535196  -0.025727
    24  H   -0.000000   0.000000  -0.000000   0.408759  -0.025727   0.478580
    25  H    0.000000  -0.000002  -0.000000   0.369838  -0.022150  -0.012941
    26  C    0.000001  -0.000004  -0.000017  -0.032201   0.016499  -0.012375
    27  H    0.000000  -0.000000   0.000000   0.004011  -0.009046  -0.004229
    28  H   -0.000000   0.000000   0.000000  -0.013085  -0.003645   0.002378
    29  H    0.000000  -0.000000  -0.000000   0.001638   0.000795   0.000009
              25         26         27         28         29
     1  O    0.005864   0.000313  -0.000457  -0.000062   0.000014
     2  O   -0.000000   0.000011   0.000000   0.000000  -0.000000
     3  N    0.000026  -0.026141   0.002535  -0.003791   0.002442
     4  H   -0.000003  -0.007302   0.000587   0.000469   0.001177
     5  C   -0.000018   0.000533   0.000005   0.000168  -0.000174
     6  C   -0.001398   0.112792  -0.081139  -0.030802  -0.050202
     7  C   -0.000012   0.003452  -0.000359  -0.000359   0.002953
     8  C    0.000000   0.000689  -0.000007  -0.000011  -0.000001
     9  C    0.001954   0.042011   0.003180  -0.002996  -0.000856
    10  H   -0.000093  -0.000758  -0.000048   0.000014   0.000028
    11  H   -0.000045   0.000107  -0.000025   0.000033   0.000000
    12  C    0.019265  -0.082189  -0.003203  -0.016069   0.025166
    13  C   -0.029783  -0.061072   0.000355   0.007273  -0.000958
    14  C    0.000000  -0.000622   0.000001  -0.000068   0.000017
    15  H    0.000000   0.000507  -0.000005  -0.000010   0.000063
    16  H    0.000000   0.000043   0.000003  -0.000015   0.000002
    17  H   -0.000000  -0.000116  -0.000006   0.000009  -0.000007
    18  C    0.000005   0.000055   0.000003  -0.000002   0.000000
    19  H    0.000000   0.000001   0.000000  -0.000000   0.000000
    20  H   -0.000002  -0.000004  -0.000000   0.000000  -0.000000
    21  H   -0.000000  -0.000017   0.000000   0.000000  -0.000000
    22  C    0.369838  -0.032201   0.004011  -0.013085   0.001638
    23  H   -0.022150   0.016499  -0.009046  -0.003645   0.000795
    24  H   -0.012941  -0.012375  -0.004229   0.002378   0.000009
    25  H    0.498426   0.002209   0.001233  -0.000343  -0.000016
    26  C    0.002209   5.350141   0.447843   0.417417   0.387755
    27  H    0.001233   0.447843   0.510647  -0.036298  -0.020834
    28  H   -0.000343   0.417417  -0.036298   0.486087  -0.016417
    29  H   -0.000016   0.387755  -0.020834  -0.016417   0.503361
 Mulliken charges:
               1
     1  O   -0.445116
     2  O   -0.440014
     3  N   -0.177561
     4  H    0.321549
     5  C    0.001996
     6  C    0.250261
     7  C    0.144593
     8  C    0.185563
     9  C   -0.434323
    10  H    0.250942
    11  H    0.234919
    12  C   -0.119888
    13  C    0.191045
    14  C   -0.438101
    15  H    0.138924
    16  H    0.178075
    17  H    0.176393
    18  C   -0.521593
    19  H    0.163352
    20  H    0.198848
    21  H    0.163455
    22  C   -0.555481
    23  H    0.165501
    24  H    0.198842
    25  H    0.167982
    26  C   -0.559581
    27  H    0.185251
    28  H    0.210123
    29  H    0.164043
 Sum of Mulliken charges =  -0.00000
 Mulliken charges with hydrogens summed into heavy atoms:
               1
     1  O   -0.445116
     2  O   -0.440014
     3  N    0.143988
     5  C    0.001996
     6  C    0.250261
     7  C    0.144593
     8  C    0.185563
     9  C    0.051538
    12  C   -0.119888
    13  C    0.191045
    14  C    0.055290
    18  C    0.004062
    22  C   -0.023156
    26  C   -0.000164
 Electronic spatial extent (au):  <R**2>=          50696.5799
 Charge=             -0.0000 electrons
 Dipole moment (field-independent basis, Debye):
    X=              0.7209    Y=              9.0342    Z=             -0.1654  Tot=              9.0645
 Quadrupole moment (field-independent basis, Debye-Ang):
   XX=           -109.8151   YY=            130.6836   ZZ=            -88.0177
   XY=             -4.5992   XZ=             -8.7216   YZ=              2.4652
 Traceless Quadrupole moment (field-independent basis, Debye-Ang):
   XX=            -87.4321   YY=            153.0667   ZZ=            -65.6346
   XY=             -4.5992   XZ=             -8.7216   YZ=              2.4652
 Octapole moment (field-independent basis, Debye-Ang**2):
  XXX=            548.5521  YYY=           1031.4652  ZZZ=           -103.6671  XYY=            -95.3518
  XXY=          -1134.3277  XXZ=             -9.5890  XZZ=            128.8952  YZZ=           -979.6988
  YYZ=             44.3359  XYZ=            -79.9469
 Hexadecapole moment (field-independent basis, Debye-Ang**3):
 XXXX=          -4651.2289 YYYY=          -2742.0638 ZZZZ=           -317.7948 XXXY=           5489.8526
 XXXZ=           -221.4933 YYYX=           -742.4100 YYYZ=            323.4402 ZZZX=            -86.6189
 ZZZY=          -1184.8875 XXYY=         -12495.9987 XXZZ=           -694.3156 YYZZ=         -11213.2071
 XXYZ=           -154.2631 YYXZ=           -755.5477 ZZXY=           1379.3315
 N-N= 8.970841998410D+02 E-N=-3.268684352076D+03  KE= 6.302429155352D+02
 No NMR shielding tensors so no spin-rotation constants.
 Leave Link  601 at Mon Mar  9 19:06:14 2026, MaxMem=  2147483648 cpu:               3.6 elap:               0.1
 (Enter /data/home/wyx/g16/l9999.exe)
 Electronic transition elements 
                 1             2             3             4             5 
      1  -0.633241D+03 -0.633202D+03 -0.633197D+03 -0.633170D+03 -0.633152D+03
      2  -0.165467D+01 -0.425528D-01  0.104441D+00 -0.437040D+00 -0.392363D+00
      3  -0.386428D+00  0.516157D-01 -0.683406D-01  0.192835D+01  0.136882D+01
      4  -0.383735D+00  0.300845D-01  0.147318D-02 -0.108103D+00 -0.135528D+00
      5   0.165097D+00  0.562861D-02 -0.134834D-01  0.674635D-01  0.769177D-01
      6   0.421054D-01 -0.722659D-02  0.779735D-02 -0.332324D+00 -0.266020D+00
      7   0.387042D-01 -0.757883D-03 -0.301645D-02  0.200602D-01  0.255284D-01
      8   0.113234D+01  0.761501D+00  0.482299D+00  0.747995D+00  0.911186D+00
      9   0.128555D+00  0.237249D+00 -0.910201D+00  0.347211D-01  0.566131D-01
     10  -0.509267D+01  0.100959D+00  0.669150D+00 -0.565366D+00 -0.108152D+01
     11  -0.819279D+00 -0.462005D-01  0.412844D-01  0.861617D+00 -0.114334D+00
     12   0.154616D+01 -0.298051D+00  0.376236D+00 -0.142720D+02 -0.116245D+02
     13   0.700525D-01 -0.221013D-02 -0.397307D-02  0.884632D-01  0.490413D-01
     14   0.292581D+01  0.110121D+00 -0.245976D+00  0.284453D+01  0.240578D+01
     15   0.350632D-01 -0.219999D-01  0.523426D-01  0.329118D+00  0.107797D+00
     16   0.738731D+00  0.555087D-01 -0.845448D-02  0.279661D+00  0.366842D+00
                 6 
      1  -0.633132D+03
      2   0.686703D-01
      3  -0.229938D+00
      4  -0.208225D-01
      5  -0.947264D-02
      6   0.480358D-01
      7  -0.151741D-01
      8  -0.193520D+00
      9  -0.300091D-01
     10   0.271696D-01
     11   0.254589D+00
     12   0.220661D+01
     13  -0.166217D+00
     14  -0.393068D+00
     15   0.748966D-01
     16  -0.107166D+00
 1\1\GINC-CN015\SP\RM062X TD-FC\TZVP\C11H15N1O2\WYX\09-Mar-2026\0\\#p M
 062X/TZVP em=gd3 TD=(Read,NStates=6,Root=1) SCRF=(Solvent=Water,Correc
 tedLR,NonEquilibrium=Save) Geom=Check Guess=Read NoSymm\\Title Card Re
 quired\\0,1\O,0,1.2682267808,9.843376622,1.3133338202\O,0,-4.778500079
 ,9.7332697815,-0.4550475916\N,0,-2.1179132315,12.9177164978,0.27283834
 \H,0,-2.4245934795,13.8823125853,0.1975088184\C,0,-2.7009255482,10.631
 5228047,0.2100416155\C,0,-0.7989997832,12.7433533076,0.5683427647\C,0,
 -3.0770921472,11.9857421502,0.073677624\C,0,-3.6224808473,9.5427478339
 ,-0.0520667359\C,0,-1.3221036104,10.3191256089,0.6357389827\H,0,-1.351
 6969048,9.8682549621,1.6506959964\H,0,-0.9082760248,9.4880591737,0.047
 9393681\C,0,-0.3380949615,11.420615377,0.6922600437\C,0,1.0328419609,1
 0.9987155761,0.9266666788\C,0,-4.4425558924,12.504913031,-0.2445837959
 \H,0,-4.4549811266,13.5940993907,-0.1932845138\H,0,-4.7574649188,12.19
 54413863,-1.2405168973\H,0,-5.177659798,12.1090314921,0.4548019701\C,0
 ,-3.1372903507,8.1190044198,0.136577108\H,0,-4.0068113497,7.46899726,0
 .2036313064\H,0,-2.543231669,7.8097258155,-0.7279218197\H,0,-2.5208260
 835,7.9896955557,1.0251221314\C,0,2.2039138849,11.9180814804,0.6571168
 271\H,0,2.005732484,12.6441863097,-0.1273171047\H,0,2.4840422829,12.45
 69844776,1.5656553521\H,0,3.0488959845,11.2954951814,0.366953447\C,0,-
 0.0210454295,14.0054018395,0.7758548664\H,0,0.6854168684,13.8947920185
 ,1.5958453952\H,0,0.5384706558,14.2993917623,-0.1151534417\H,0,-0.6941
 686967,14.8257807485,1.0272894444\\Version=ES64L-G16RevA.03\HF=-633.34
 21718\RMSD=3.731e-09\Dipole=0.2836163,3.5543384,-0.0650754\Quadrupole=
 -65.0035878,113.8013386,-48.7977508,-3.4193976,-6.4842993,1.8327933\PG
 =C01 [X(C11H15N1O2)]\\@


 THE WHOLE OF SCIENCE IS NOTHING MORE THAN A REFINEMENT OF EVERYDAY THINKING.
                                                              -- A. EINSTEIN
 Job cpu time:       0 days  7 hours 12 minutes 42.5 seconds.
 Elapsed time:       0 days  0 hours 13 minutes 37.6 seconds.
 File lengths (MBytes):  RWF=    644 Int=      0 D2E=      0 Chk=     67 Scr=      1
 Normal termination of Gaussian 16 at Mon Mar  9 19:06:15 2026.
