 Entering Gaussian System, Link 0=g16
 Input=DDL-S2-TD-Neq.gjf
 Output=DDL-S2-TD-Neq.log
 Initial command:
 /data/home/wyx/g16/l1.exe "/scr/tmp/wyx/13952/Gau-2544761.inp" -scrdir="/scr/tmp/wyx/13952/"
 Entering Link 1 = /data/home/wyx/g16/l1.exe PID=   2544762.
  
 Copyright (c) 1988,1990,1992,1993,1995,1998,2003,2009,2016,
            Gaussian, Inc.  All Rights Reserved.
  
 This is part of the Gaussian(R) 16 program.  It is based on
 the Gaussian(R) 09 system (copyright 2009, Gaussian, Inc.),
 the Gaussian(R) 03 system (copyright 2003, Gaussian, Inc.),
 the Gaussian(R) 98 system (copyright 1998, Gaussian, Inc.),
 the Gaussian(R) 94 system (copyright 1995, Gaussian, Inc.),
 the Gaussian 92(TM) system (copyright 1992, Gaussian, Inc.),
 the Gaussian 90(TM) system (copyright 1990, Gaussian, Inc.),
 the Gaussian 88(TM) system (copyright 1988, Gaussian, Inc.),
 the Gaussian 86(TM) system (copyright 1986, Carnegie Mellon
 University), and the Gaussian 82(TM) system (copyright 1983,
 Carnegie Mellon University). Gaussian is a federally registered
 trademark of Gaussian, Inc.
  
 This software contains proprietary and confidential information,
 including trade secrets, belonging to Gaussian, Inc.
  
 This software is provided under written license and may be
 used, copied, transmitted, or stored only in accord with that
 written license.
  
 The following legend is applicable only to US Government
 contracts under FAR:
  
                    RESTRICTED RIGHTS LEGEND
  
 Use, reproduction and disclosure by the US Government is
 subject to restrictions as set forth in subparagraphs (a)
 and (c) of the Commercial Computer Software - Restricted
 Rights clause in FAR 52.227-19.
  
 Gaussian, Inc.
 340 Quinnipiac St., Bldg. 40, Wallingford CT 06492
  
  
 ---------------------------------------------------------------
 Warning -- This program may not be used in any manner that
 competes with the business of Gaussian, Inc. or will provide
 assistance to any competitor of Gaussian, Inc.  The licensee
 of this program is prohibited from giving any competitor of
 Gaussian, Inc. access to this program.  By using this program,
 the user acknowledges that Gaussian, Inc. is engaged in the
 business of creating and licensing software in the field of
 computational chemistry and represents and warrants to the
 licensee that it is not a competitor of Gaussian, Inc. and that
 it will not use this program in any manner prohibited above.
 ---------------------------------------------------------------
  

 Cite this work as:
 Gaussian 16, Revision A.03,
 M. J. Frisch, G. W. Trucks, H. B. Schlegel, G. E. Scuseria, 
 M. A. Robb, J. R. Cheeseman, G. Scalmani, V. Barone, 
 G. A. Petersson, H. Nakatsuji, X. Li, M. Caricato, A. V. Marenich, 
 J. Bloino, B. G. Janesko, R. Gomperts, B. Mennucci, H. P. Hratchian, 
 J. V. Ortiz, A. F. Izmaylov, J. L. Sonnenberg, D. Williams-Young, 
 F. Ding, F. Lipparini, F. Egidi, J. Goings, B. Peng, A. Petrone, 
 T. Henderson, D. Ranasinghe, V. G. Zakrzewski, J. Gao, N. Rega, 
 G. Zheng, W. Liang, M. Hada, M. Ehara, K. Toyota, R. Fukuda, 
 J. Hasegawa, M. Ishida, T. Nakajima, Y. Honda, O. Kitao, H. Nakai, 
 T. Vreven, K. Throssell, J. A. Montgomery, Jr., J. E. Peralta, 
 F. Ogliaro, M. J. Bearpark, J. J. Heyd, E. N. Brothers, K. N. Kudin, 
 V. N. Staroverov, T. A. Keith, R. Kobayashi, J. Normand, 
 K. Raghavachari, A. P. Rendell, J. C. Burant, S. S. Iyengar, 
 J. Tomasi, M. Cossi, J. M. Millam, M. Klene, C. Adamo, R. Cammi, 
 J. W. Ochterski, R. L. Martin, K. Morokuma, O. Farkas, 
 J. B. Foresman, and D. J. Fox, Gaussian, Inc., Wallingford CT, 2016.
 
 ******************************************
 Gaussian 16:  ES64L-G16RevA.03 25-Dec-2016
                 9-Mar-2026 
 ******************************************
 %nprocshared=32
 Will use up to   32 processors via shared memory.
 %mem=16GB
 %oldchk=DDL-S2-opt-freq.chk
 %chk=DDL-S2-TD-Neq.chk
 Copying data from "DDL-S2-opt-freq.chk" to current chk file "DDL-S2-TD-Neq.chk"
 IOpt=  2 FromEx=T IUOpen= 4 IOptOp= 5 NList=   0 IFRang= 0 IUIn= 4 IUOut= 2.
 ----------------------------------------------------------------------
 #p M062X/TZVP em=gd3 TD=NStates=6 SCRF=(Solvent=Water) Geom=Check Gues
 s=Read NoSymm
 ----------------------------------------------------------------------
 1/29=2,38=1,172=1/1;
 2/12=2,15=1,40=1/2;
 3/5=19,7=101,11=9,14=-4,25=1,30=1,70=2201,72=1,74=-55,116=-2,124=31/1,2,3,8;
 4/5=1/1;
 5/5=2,38=6,53=1/2;
 8/6=1,10=1,108=6/1;
 9/41=6,42=1,70=2/14;
 6/7=2,8=2,9=2,10=2/1;
 99/5=1,9=1/99;
 Leave Link    1 at Mon Mar  9 22:33:33 2026, MaxMem=  2147483648 cpu:               1.7 elap:               0.1
 (Enter /data/home/wyx/g16/l101.exe)
 -------------------
 Title Card Required
 -------------------
 Structure from the checkpoint file:  "DDL-S2-TD-Neq.chk"
 Charge =  0 Multiplicity = 1
 Redundant internal coordinates found in file.  (old form).
 O,0,1.3204133029,9.8455159569,1.0446426101
 O,0,-4.8207559336,9.7622675218,-0.3855686362
 N,0,-2.1017649441,12.9416221948,0.337310063
 H,0,-2.4152014455,13.897181652,0.2715308017
 C,0,-2.6778687415,10.6389838679,0.2061250798
 C,0,-0.7801592342,12.7251757553,0.5666783554
 C,0,-3.0525112023,11.9460513239,0.1057630323
 C,0,-3.5980678295,9.5716519209,-0.0190347855
 C,0,-1.267350596,10.2605613586,0.6004607107
 H,0,-1.270998259,9.7467155076,1.5692121952
 H,0,-0.866180229,9.5302259445,-0.1073203614
 C,0,-0.3157054559,11.4408417034,0.6606892128
 C,0,1.0675658354,11.0391132765,0.86761847
 C,0,-4.42754602,12.4414296131,-0.2191791643
 H,0,-4.4382425649,13.5274060277,-0.3168464629
 H,0,-4.7864257046,12.0240684501,-1.1620840723
 H,0,-5.144268673,12.1692097485,0.558896094
 C,0,-3.2636241037,8.0888153662,0.0847173071
 H,0,-4.0355972664,7.5690294224,0.6529291414
 H,0,-3.2047696486,7.6395445959,-0.9091716325
 H,0,-2.3097454442,7.9783365503,0.5938312535
 C,0,2.2332888647,12.0068628033,0.8524915377
 H,0,2.1771227702,12.7203893995,0.0338420626
 H,0,2.2823626551,12.5648986928,1.7890246452
 H,0,3.1437699592,11.4193313502,0.7581233718
 C,0,0.0103264473,14.0007490737,0.682514535
 H,0,0.7037763903,13.9752777891,1.5168761666
 H,0,0.5749528669,14.1943724638,-0.2300064603
 H,0,-0.665966826,14.8402051194,0.8379349295
 Recover connectivity data from disk.
 ITRead=  0  0  0  0  0  0  0  0  0  0  0  0  0  0  0  0  0  0  0  0
 ITRead=  0  0  0  0  0  0  0  0  0
 MicOpt= -1 -1 -1 -1 -1 -1 -1 -1 -1 -1 -1 -1 -1 -1 -1 -1 -1 -1 -1 -1
 MicOpt= -1 -1 -1 -1 -1 -1 -1 -1 -1
                           ----------------------------
                           !    Current Parameters    !
                           ! (Angstroms and Degrees)  !
 --------------------------                            --------------------------
 ! Name  Definition              Value                                          !
 --------------------------------------------------------------------------------
 ! R1    R(1,13)                 1.2329                                         !
 ! R2    R(2,8)                  1.2906                                         !
 ! R3    R(3,4)                  1.0078                                         !
 ! R4    R(3,6)                  1.3587                                         !
 ! R5    R(3,7)                  1.396                                          !
 ! R6    R(5,7)                  1.3634                                         !
 ! R7    R(5,8)                  1.4271                                         !
 ! R8    R(5,9)                  1.5127                                         !
 ! R9    R(6,12)                 1.369                                          !
 ! R10   R(6,26)                 1.5051                                         !
 ! R11   R(7,14)                 1.4972                                         !
 ! R12   R(8,18)                 1.5236                                         !
 ! R13   R(9,10)                 1.0966                                         !
 ! R14   R(9,11)                 1.0933                                         !
 ! R15   R(9,12)                 1.5173                                         !
 ! R16   R(12,13)                1.4552                                         !
 ! R17   R(13,22)                1.5151                                         !
 ! R18   R(14,15)                1.0904                                         !
 ! R19   R(14,16)                1.0918                                         !
 ! R20   R(14,17)                1.0923                                         !
 ! R21   R(18,19)                1.0904                                         !
 ! R22   R(18,20)                1.0923                                         !
 ! R23   R(18,21)                1.0869                                         !
 ! R24   R(22,23)                1.0874                                         !
 ! R25   R(22,24)                1.0913                                         !
 ! R26   R(22,25)                1.0877                                         !
 ! R27   R(26,27)                1.0852                                         !
 ! R28   R(26,28)                1.0904                                         !
 ! R29   R(26,29)                1.0891                                         !
 ! A1    A(4,3,6)              117.683                                          !
 ! A2    A(4,3,7)              116.9727                                         !
 ! A3    A(6,3,7)              125.23                                           !
 ! A4    A(7,5,8)              121.8839                                         !
 ! A5    A(7,5,9)              121.0136                                         !
 ! A6    A(8,5,9)              117.0825                                         !
 ! A7    A(3,6,12)             119.4099                                         !
 ! A8    A(3,6,26)             112.8824                                         !
 ! A9    A(12,6,26)            127.7072                                         !
 ! A10   A(3,7,5)              118.9704                                         !
 ! A11   A(3,7,14)             115.1835                                         !
 ! A12   A(5,7,14)             125.8402                                         !
 ! A13   A(2,8,5)              123.0393                                         !
 ! A14   A(2,8,18)             111.7796                                         !
 ! A15   A(5,8,18)             125.1413                                         !
 ! A16   A(5,9,10)             110.1459                                         !
 ! A17   A(5,9,11)             109.9075                                         !
 ! A18   A(5,9,12)             113.6138                                         !
 ! A19   A(10,9,11)            105.0767                                         !
 ! A20   A(10,9,12)            109.3606                                         !
 ! A21   A(11,9,12)            108.372                                          !
 ! A22   A(6,12,9)             120.9481                                         !
 ! A23   A(6,12,13)            126.2465                                         !
 ! A24   A(9,12,13)            112.773                                          !
 ! A25   A(1,13,12)            118.8579                                         !
 ! A26   A(1,13,22)            117.5173                                         !
 ! A27   A(12,13,22)           123.6142                                         !
 ! A28   A(7,14,15)            110.9753                                         !
 ! A29   A(7,14,16)            111.2738                                         !
 ! A30   A(7,14,17)            111.441                                          !
 ! A31   A(15,14,16)           107.4655                                         !
 ! A32   A(15,14,17)           107.7918                                         !
 ! A33   A(16,14,17)           107.7112                                         !
 ! A34   A(8,18,19)            110.1215                                         !
 ! A35   A(8,18,20)            110.4973                                         !
 ! A36   A(8,18,21)            108.873                                          !
 ! A37   A(19,18,20)           108.4352                                         !
 ! A38   A(19,18,21)           109.1954                                         !
 ! A39   A(20,18,21)           109.7016                                         !
 ! A40   A(13,22,23)           112.7607                                         !
 ! A41   A(13,22,24)           110.6489                                         !
 ! A42   A(13,22,25)           107.4506                                         !
 ! A43   A(23,22,24)           108.2323                                         !
 ! A44   A(23,22,25)           109.412                                          !
 ! A45   A(24,22,25)           108.2419                                         !
 ! A46   A(6,26,27)            112.0171                                         !
 ! A47   A(6,26,28)            110.9797                                         !
 ! A48   A(6,26,29)            109.7594                                         !
 ! A49   A(27,26,28)           108.4638                                         !
 ! A50   A(27,26,29)           107.7678                                         !
 ! A51   A(28,26,29)           107.7035                                         !
 ! D1    D(4,3,6,12)          -179.9145                                         !
 ! D2    D(4,3,6,26)            -0.1494                                         !
 ! D3    D(7,3,6,12)            -3.9307                                         !
 ! D4    D(7,3,6,26)           175.8345                                         !
 ! D5    D(4,3,7,5)           -178.9201                                         !
 ! D6    D(4,3,7,14)             0.246                                          !
 ! D7    D(6,3,7,5)              5.0704                                         !
 ! D8    D(6,3,7,14)          -175.7636                                         !
 ! D9    D(8,5,7,3)           -179.9262                                         !
 ! D10   D(8,5,7,14)             1.0048                                         !
 ! D11   D(9,5,7,3)              1.7523                                         !
 ! D12   D(9,5,7,14)          -177.3167                                         !
 ! D13   D(7,5,8,2)              3.0492                                         !
 ! D14   D(7,5,8,18)          -179.4387                                         !
 ! D15   D(9,5,8,2)           -178.5664                                         !
 ! D16   D(9,5,8,18)            -1.0544                                         !
 ! D17   D(7,5,9,10)           114.6735                                         !
 ! D18   D(7,5,9,11)          -130.0159                                         !
 ! D19   D(7,5,9,12)            -8.4035                                         !
 ! D20   D(8,5,9,10)           -63.7258                                         !
 ! D21   D(8,5,9,11)            51.5848                                         !
 ! D22   D(8,5,9,12)           173.1972                                         !
 ! D23   D(3,6,12,9)            -3.913                                          !
 ! D24   D(3,6,12,13)          178.3117                                         !
 ! D25   D(26,6,12,9)          176.3605                                         !
 ! D26   D(26,6,12,13)          -1.4147                                         !
 ! D27   D(3,6,26,27)          135.5107                                         !
 ! D28   D(3,6,26,28)         -103.0944                                         !
 ! D29   D(3,6,26,29)           15.8397                                         !
 ! D30   D(12,6,26,27)         -44.748                                          !
 ! D31   D(12,6,26,28)          76.6469                                         !
 ! D32   D(12,6,26,29)        -164.4189                                         !
 ! D33   D(3,7,14,15)            5.5209                                         !
 ! D34   D(3,7,14,16)          125.1381                                         !
 ! D35   D(3,7,14,17)         -114.6203                                         !
 ! D36   D(5,7,14,15)         -175.3792                                         !
 ! D37   D(5,7,14,16)          -55.7619                                         !
 ! D38   D(5,7,14,17)           64.4797                                         !
 ! D39   D(2,8,18,19)          -48.3074                                         !
 ! D40   D(2,8,18,20)           71.4622                                         !
 ! D41   D(2,8,18,21)         -167.9971                                         !
 ! D42   D(5,8,18,19)          133.9385                                         !
 ! D43   D(5,8,18,20)         -106.292                                          !
 ! D44   D(5,8,18,21)           14.2488                                         !
 ! D45   D(5,9,12,6)             9.5404                                         !
 ! D46   D(5,9,12,13)         -172.4054                                         !
 ! D47   D(10,9,12,6)         -113.966                                          !
 ! D48   D(10,9,12,13)          64.0882                                         !
 ! D49   D(11,9,12,6)          132.0044                                         !
 ! D50   D(11,9,12,13)         -49.9414                                         !
 ! D51   D(6,12,13,1)          173.9341                                         !
 ! D52   D(6,12,13,22)          -7.2832                                         !
 ! D53   D(9,12,13,1)           -3.9966                                         !
 ! D54   D(9,12,13,22)         174.7861                                         !
 ! D55   D(1,13,22,23)         134.6977                                         !
 ! D56   D(1,13,22,24)        -103.9236                                         !
 ! D57   D(1,13,22,25)          14.0538                                         !
 ! D58   D(12,13,22,23)        -44.1002                                         !
 ! D59   D(12,13,22,24)         77.2785                                         !
 ! D60   D(12,13,22,25)       -164.7441                                         !
 --------------------------------------------------------------------------------
 NAtoms=     29 NQM=       29 NQMF=       0 NMMI=      0 NMMIF=      0
                NMic=       0 NMicF=      0.
                    Isotopes and Nuclear Properties:
 (Nuclear quadrupole moments (NQMom) in fm**2, nuclear magnetic moments (NMagM)
  in nuclear magnetons)

  Atom         1           2           3           4           5           6           7           8           9          10
 IAtWgt=          16          16          14           1          12          12          12          12          12           1
 AtmWgt=  15.9949146  15.9949146  14.0030740   1.0078250  12.0000000  12.0000000  12.0000000  12.0000000  12.0000000   1.0078250
 NucSpn=           0           0           2           1           0           0           0           0           0           1
 AtZEff=   5.6000000   5.6000000   4.5500000   1.0000000   3.6000000   3.6000000   3.6000000   3.6000000   3.6000000   1.0000000
 NQMom=    0.0000000   0.0000000   2.0440000   0.0000000   0.0000000   0.0000000   0.0000000   0.0000000   0.0000000   0.0000000
 NMagM=    0.0000000   0.0000000   0.4037610   2.7928460   0.0000000   0.0000000   0.0000000   0.0000000   0.0000000   2.7928460
 AtZNuc=   8.0000000   8.0000000   7.0000000   1.0000000   6.0000000   6.0000000   6.0000000   6.0000000   6.0000000   1.0000000

  Atom        11          12          13          14          15          16          17          18          19          20
 IAtWgt=           1          12          12          12           1           1           1          12           1           1
 AtmWgt=   1.0078250  12.0000000  12.0000000  12.0000000   1.0078250   1.0078250   1.0078250  12.0000000   1.0078250   1.0078250
 NucSpn=           1           0           0           0           1           1           1           0           1           1
 AtZEff=   1.0000000   3.6000000   3.6000000   3.6000000   1.0000000   1.0000000   1.0000000   3.6000000   1.0000000   1.0000000
 NQMom=    0.0000000   0.0000000   0.0000000   0.0000000   0.0000000   0.0000000   0.0000000   0.0000000   0.0000000   0.0000000
 NMagM=    2.7928460   0.0000000   0.0000000   0.0000000   2.7928460   2.7928460   2.7928460   0.0000000   2.7928460   2.7928460
 AtZNuc=   1.0000000   6.0000000   6.0000000   6.0000000   1.0000000   1.0000000   1.0000000   6.0000000   1.0000000   1.0000000

  Atom        21          22          23          24          25          26          27          28          29
 IAtWgt=           1          12           1           1           1          12           1           1           1
 AtmWgt=   1.0078250  12.0000000   1.0078250   1.0078250   1.0078250  12.0000000   1.0078250   1.0078250   1.0078250
 NucSpn=           1           0           1           1           1           0           1           1           1
 AtZEff=   1.0000000   3.6000000   1.0000000   1.0000000   1.0000000   3.6000000   1.0000000   1.0000000   1.0000000
 NQMom=    0.0000000   0.0000000   0.0000000   0.0000000   0.0000000   0.0000000   0.0000000   0.0000000   0.0000000
 NMagM=    2.7928460   0.0000000   2.7928460   2.7928460   2.7928460   0.0000000   2.7928460   2.7928460   2.7928460
 AtZNuc=   1.0000000   6.0000000   1.0000000   1.0000000   1.0000000   6.0000000   1.0000000   1.0000000   1.0000000
 Leave Link  101 at Mon Mar  9 22:33:35 2026, MaxMem=  2147483648 cpu:               6.6 elap:               0.2
 (Enter /data/home/wyx/g16/l202.exe)
                          Input orientation:                          
 ---------------------------------------------------------------------
 Center     Atomic      Atomic             Coordinates (Angstroms)
 Number     Number       Type             X           Y           Z
 ---------------------------------------------------------------------
      1          8           0        1.320413    9.845516    1.044643
      2          8           0       -4.820756    9.762268   -0.385569
      3          7           0       -2.101765   12.941622    0.337310
      4          1           0       -2.415201   13.897182    0.271531
      5          6           0       -2.677869   10.638984    0.206125
      6          6           0       -0.780159   12.725176    0.566678
      7          6           0       -3.052511   11.946051    0.105763
      8          6           0       -3.598068    9.571652   -0.019035
      9          6           0       -1.267351   10.260561    0.600461
     10          1           0       -1.270998    9.746716    1.569212
     11          1           0       -0.866180    9.530226   -0.107320
     12          6           0       -0.315705   11.440842    0.660689
     13          6           0        1.067566   11.039113    0.867618
     14          6           0       -4.427546   12.441430   -0.219179
     15          1           0       -4.438243   13.527406   -0.316846
     16          1           0       -4.786426   12.024068   -1.162084
     17          1           0       -5.144269   12.169210    0.558896
     18          6           0       -3.263624    8.088815    0.084717
     19          1           0       -4.035597    7.569029    0.652929
     20          1           0       -3.204770    7.639545   -0.909172
     21          1           0       -2.309745    7.978337    0.593831
     22          6           0        2.233289   12.006863    0.852492
     23          1           0        2.177123   12.720389    0.033842
     24          1           0        2.282363   12.564899    1.789025
     25          1           0        3.143770   11.419331    0.758123
     26          6           0        0.010326   14.000749    0.682515
     27          1           0        0.703776   13.975278    1.516876
     28          1           0        0.574953   14.194372   -0.230006
     29          1           0       -0.665967   14.840205    0.837935
 ---------------------------------------------------------------------
                    Distance matrix (angstroms):
                    1          2          3          4          5
     1  O    0.000000
     2  O    6.306060   0.000000
     3  N    4.668779   4.245440   0.000000
     4  H    5.564936   4.828663   1.007801   0.000000
     5  C    4.161606   2.389707   2.377235   3.269423   0.000000
     6  C    3.596289   5.100198   1.358713   2.033242   2.843149
     7  C    4.941276   2.852544   1.395956   2.059260   1.363398
     8  C    5.039630   1.290600   3.704403   4.493752   1.427116
     9  C    2.658210   3.721188   2.820210   3.827632   1.512701
    10  H    2.645817   4.052430   3.523519   4.496615   2.152541
    11  H    2.491509   3.971138   3.655406   4.649010   2.147046
    12  C    2.317190   4.920137   2.355191   3.254679   2.535630
    13  C    1.232860   6.154116   3.734357   4.544617   3.824390
    14  C    6.432344   2.712971   2.443180   2.531707   2.547757
    15  H    6.969368   3.785143   2.496035   2.139069   3.422776
    16  H    6.849030   2.391631   3.208970   3.344624   2.869925
    17  H    6.886771   2.605771   3.146832   3.242880   2.923896
    18  C    5.002085   2.333725   4.996344   5.872975   2.619391
    19  H    5.832896   2.550538   5.718748   6.543444   3.386396
    20  H    5.400091   2.718736   5.557190   6.416814   3.243169
    21  H    4.107024   3.232152   4.974260   5.928552   2.713830
    22  C    2.354078   7.505368   4.464513   5.051661   5.138906
    23  H    3.165528   7.608988   4.295337   4.746660   5.285156
    24  H    2.979009   7.939640   4.633570   5.113206   5.551452
    25  H    2.425617   8.215082   5.478147   6.105627   5.899587
    26  C    4.371891   6.514974   2.387854   2.462279   4.330682
    27  H    4.202164   7.203416   3.214169   3.359316   4.927925
    28  H    4.592711   6.984370   3.009327   3.046454   4.838579
    29  H    5.379159   6.674180   2.432439   2.066381   4.700765
                    6          7          8          9         10
     6  C    0.000000
     7  C    2.446030   0.000000
     8  C    4.269471   2.439463   0.000000
     9  C    2.512533   2.504476   2.508110   0.000000
    10  H    3.180758   3.186307   2.822841   1.096599   0.000000
    11  H    3.266401   3.265220   2.733628   1.093289   1.738248
    12  C    1.368967   2.837831   3.837942   1.517339   2.146640
    13  C    2.519417   4.286956   4.970688   2.475753   2.762500
    14  C    3.741860   1.497233   2.993947   3.926173   4.519250
    15  H    3.847826   2.144652   4.054945   4.644166   5.280367
    16  H    4.419315   2.149414   2.955182   4.312819   5.000455
    17  H    4.399387   2.151878   3.077669   4.321477   4.678829
    18  C    5.281640   3.863066   1.523621   2.994592   2.987125
    19  H    6.098456   4.519311   2.157189   3.861384   3.636605
    20  H    5.824132   4.427107   2.163346   3.591979   3.784445
    21  H    4.987269   4.066039   2.138699   2.509020   2.271019
    22  C    3.111034   5.338631   6.379227   3.920149   4.231073
    23  H    3.004905   5.287139   6.578007   4.270387   4.805168
    24  H    3.301342   5.628252   6.841642   4.395807   4.540578
    25  H    4.139940   6.252752   7.033511   4.563506   4.790166
    26  C    1.505116   3.733015   5.755830   3.953251   4.530433
    27  H    2.160485   4.496521   6.344825   4.303984   4.667249
    28  H    2.151645   4.280909   6.231224   4.422514   5.140659
    29  H    2.135408   3.822015   6.090096   4.625061   5.181165
                   11         12         13         14         15
    11  H    0.000000
    12  C    2.131505   0.000000
    13  C    2.639436   1.455213   0.000000
    14  C    4.601190   4.322335   5.774416   0.000000
    15  H    5.364791   4.722779   6.156987   1.090412   0.000000
    16  H    4.764462   4.863126   6.273679   1.091813   1.759455
    17  H    5.070515   4.884251   6.321338   1.092335   1.763546
    18  C    2.803976   4.500894   5.298717   4.515785   5.578463
    19  H    3.803876   5.369226   6.174937   4.965328   6.050193
    20  H    3.112337   5.026034   5.741681   5.002936   6.044768
    21  H    2.232455   3.996199   4.566130   5.006522   6.012654
    22  C    4.081872   2.618118   1.515150   6.760477   6.941811
    23  H    4.411209   2.871301   2.180135   6.615398   6.673628
    24  H    4.766412   3.047393   2.157022   7.005070   7.108280
    25  H    4.516349   3.460914   2.113570   7.702248   7.942698
    26  C    4.623600   2.580678   3.150128   4.789493   4.583944
    27  H    4.986107   2.862825   3.029016   5.630013   5.477544
    28  H    4.883255   3.027960   3.376849   5.300747   5.058114
    29  H    5.397173   3.421954   4.177836   4.584876   4.157767
                   16         17         18         19         20
    16  H    0.000000
    17  H    1.763772   0.000000
    18  C    4.399961   4.517885   0.000000
    19  H    4.868818   4.732827   1.090406   0.000000
    20  H    4.667939   5.141473   1.092302   1.770708   0.000000
    21  H    5.058175   5.059561   1.086870   1.774708   1.781815
    22  C    7.303095   7.385182   6.793867   7.683302   7.193706
    23  H    7.099726   7.360860   7.145334   8.094299   7.461168
    24  H    7.679148   7.538212   7.327889   8.134251   7.851624
    25  H    8.181742   8.324277   7.252621   8.147343   7.574339
    26  C    5.506237   5.471715   6.784326   7.598512   7.303097
    27  H    6.412984   6.195098   7.241670   8.015490   7.829684
    28  H    5.858615   6.118263   7.218833   8.119847   7.596929
    29  H    5.376698   5.221807   7.272993   8.016148   7.832459
                   21         22         23         24         25
    21  H    0.000000
    22  C    6.077425   0.000000
    23  H    6.552300   1.087411   0.000000
    24  H    6.599432   1.091287   1.765197   0.000000
    25  H    6.450447   1.087692   1.775315   1.765532   0.000000
    26  C    6.454460   2.990993   2.599058   2.906575   4.060530
    27  H    6.774705   2.579820   2.438213   2.134284   3.614158
    28  H    6.902123   2.950776   2.192987   3.105949   3.908462
    29  H    7.060229   4.053853   3.636391   3.843727   5.120824
                   26         27         28         29
    26  C    0.000000
    27  H    1.085210   0.000000
    28  H    1.090407   1.765275   0.000000
    29  H    1.089135   1.756490   1.759966   0.000000
 Symmetry turned off by external request.
 Stoichiometry    C11H15NO2
 Framework group  C1[X(C11H15NO2)]
 Deg. of freedom    81
 Full point group                 C1      NOp   1
 Rotational constants (GHZ):           1.0995202           0.4785161           0.3377954
 Leave Link  202 at Mon Mar  9 22:33:35 2026, MaxMem=  2147483648 cpu:               0.1 elap:               0.0
 (Enter /data/home/wyx/g16/l301.exe)
 Standard basis: TZVP (5D, 7F)
 Ernie: Thresh=  0.10000D-02 Tol=  0.10000D-05 Strict=F.
   356 basis functions,   610 primitive gaussians,   370 cartesian basis functions
    52 alpha electrons       52 beta electrons
       nuclear repulsion energy       896.2105215758 Hartrees.
 IExCor= 4336 DFT=T Ex+Corr=M062X ExCW=0 ScaHFX=  0.540000
 ScaDFX=  1.000000  1.000000  1.000000  1.000000 ScalE2=  1.000000  1.000000
 IRadAn=      5 IRanWt=     -1 IRanGd=            0 ICorTp=0 IEmpDi=131
 NAtoms=   29 NActive=   29 NUniq=   29 SFac= 1.00D+00 NAtFMM=   60 NAOKFM=F Big=F
 Integral buffers will be    131072 words long.
 Regular integral format.
 Two-electron integral symmetry is turned off.
 R6Disp:  Grimme-D3 Dispersion energy=       -0.0014406967 Hartrees.
 Nuclear repulsion after empirical dispersion term =      896.2090808791 Hartrees.
 ------------------------------------------------------------------------------
 Polarizable Continuum Model (PCM)
 =================================
 Model                : PCM.
 Atomic radii         : UFF (Universal Force Field).
 Polarization charges : Total charges.
 Charge compensation  : None.
 Solution method      : On-the-fly selection.
 Cavity type          : Scaled VdW (van der Waals Surface) (Alpha=1.100).
 Cavity algorithm     : GePol (No added spheres)
                        Default sphere list used, NSphG=   29.
                        Lebedev-Laikov grids with approx.  5.0 points / Ang**2.
                        Smoothing algorithm: York/Karplus (Gamma=1.0000).
                        Polarization charges: spherical gaussians, with
                                              point-specific exponents (IZeta= 3).
                        Self-potential: point-specific (ISelfS= 7).
                        Self-field    : sphere-specific E.n sum rule (ISelfD= 2).
 Solvent              : Water, Eps=  78.355300 Eps(inf)=   1.777849
 ------------------------------------------------------------------------------
 GePol: Number of generator spheres                  =      29
 GePol: Total number of spheres                      =      29
 GePol: Number of exposed spheres                    =      29 (100.00%)
 GePol: Number of points                             =    2092
 GePol: Average weight of points                     =       0.13
 GePol: Minimum weight of points                     =   0.25D-10
 GePol: Maximum weight of points                     =    0.20577
 GePol: Number of points with low weight             =     124
 GePol: Fraction of low-weight points (<1% of avg)   =       5.93%
 GePol: Cavity surface area                          =    268.855 Ang**2
 GePol: Cavity volume                                =    287.372 Ang**3
 Leave Link  301 at Mon Mar  9 22:33:35 2026, MaxMem=  2147483648 cpu:               1.1 elap:               0.0
 (Enter /data/home/wyx/g16/l302.exe)
 NPDir=0 NMtPBC=     1 NCelOv=     1 NCel=       1 NClECP=     1 NCelD=      1
         NCelK=      1 NCelE2=     1 NClLst=     1 CellRange=     0.0.
 One-electron integrals computed using PRISM.
 NBasis=   356 RedAO= T EigKep=  3.91D-05  NBF=   356
 NBsUse=   356 1.00D-06 EigRej= -1.00D+00 NBFU=   356
 Precomputing XC quadrature grid using
 IXCGrd= 4 IRadAn=           5 IRanWt=          -1 IRanGd=           0 AccXCQ= 0.00D+00.
 Generated NRdTot=       0 NPtTot=           0 NUsed=           0 NTot=          32
 NSgBfM=   366   366   366   366   366 MxSgAt=    29 MxSgA2=    29.
 Leave Link  302 at Mon Mar  9 22:33:36 2026, MaxMem=  2147483648 cpu:               6.2 elap:               0.2
 (Enter /data/home/wyx/g16/l303.exe)
 DipDrv:  MaxL=1.
 Leave Link  303 at Mon Mar  9 22:33:36 2026, MaxMem=  2147483648 cpu:               1.1 elap:               0.0
 (Enter /data/home/wyx/g16/l308.exe)
 Leave Link  308 at Mon Mar  9 22:33:36 2026, MaxMem=  2147483648 cpu:               1.4 elap:               0.1
 (Enter /data/home/wyx/g16/l401.exe)
 Initial guess from the checkpoint file:  "DDL-S2-TD-Neq.chk"
 B after Tr=     0.000000    0.000000    0.000000
         Rot=    1.000000    0.000000    0.000000    0.000000 Ang=   0.00 deg.
 Guess basis will be translated and rotated to current coordinates.
 JPrj=2 DoOrth=T DoCkMO=T.
 Leave Link  401 at Mon Mar  9 22:33:36 2026, MaxMem=  2147483648 cpu:               4.5 elap:               0.2
 (Enter /data/home/wyx/g16/l502.exe)
 Two-electron integral symmetry not used.
 Closed shell SCF:
 Using DIIS extrapolation, IDIIS=  1040.
 NGot=  2147483648 LenX=  2147195087 LenY=  2147057746
 Requested convergence on RMS density matrix=1.00D-08 within 128 cycles.
 Requested convergence on MAX density matrix=1.00D-06.
 Requested convergence on             energy=1.00D-06.
 No special actions if energy rises.
 Fock matrices will be formed incrementally for  20 cycles.

 Cycle   1  Pass 1  IDiag  1:
 FoFJK:  IHMeth= 1 ICntrl=       0 DoSepK=F KAlg= 0 I1Cent=           0 FoldK=F
 IRaf= 860000000 NMat=       1 IRICut=       1 DoRegI=T DoRafI=F ISym2E= 0 IDoP0=0 IntGTp=1.
 FoFCou: FMM=F IPFlag=           0 FMFlag=      100000 FMFlg1=           0
         NFxFlg=           0 DoJE=F BraDBF=F KetDBF=F FulRan=T
         wScrn=  0.000000 ICntrl=         0 IOpCl=  0 I1Cent=           0 NGrid=           0
         NMat0=    1 NMatS0=      1 NMatT0=    0 NMatD0=    1 NMtDS0=    0 NMtDT0=    0
 Symmetry not used in FoFCou.
 Inv3:  Mode=1 IEnd=    13129392.
 Iteration    1 A*A^-1 deviation from unit magnitude is 3.00D-15 for    986.
 Iteration    1 A*A^-1 deviation from orthogonality  is 1.54D-15 for   1332     70.
 Iteration    1 A^-1*A deviation from unit magnitude is 2.78D-15 for    548.
 Iteration    1 A^-1*A deviation from orthogonality  is 1.56D-13 for   1768   1746.
 E= -633.341841784740    
 DIIS: error= 1.24D-08 at cycle   1 NSaved=   1.
 NSaved= 1 IEnMin= 1 EnMin= -633.341841784740     IErMin= 1 ErrMin= 1.24D-08
 ErrMax= 1.24D-08  0.00D+00 EMaxC= 1.00D-01 BMatC= 6.19D-14 BMatP= 6.19D-14
 IDIUse=1 WtCom= 1.00D+00 WtEn= 0.00D+00
 Coeff-Com:  0.100D+01
 Coeff:      0.100D+01
 Gap=     0.212 Goal=   None    Shift=    0.000
 RMSDP=2.63D-09 MaxDP=1.59D-07              OVMax= 1.85D-07

 Error on total polarization charges =  0.01450
 SCF Done:  E(RM062X) =  -633.341841785     A.U. after    1 cycles
            NFock=  1  Conv=0.26D-08     -V/T= 2.0051
 KE= 6.301519543903D+02 PE=-3.267402261656D+03 EE= 1.107699384602D+03
 Leave Link  502 at Mon Mar  9 22:33:40 2026, MaxMem=  2147483648 cpu:             105.4 elap:               3.7
 (Enter /data/home/wyx/g16/l801.exe)
 DoSCS=F DFT=T ScalE2(SS,OS)=  1.000000  1.000000
 ExpMin= 9.52D-02 ExpMax= 2.70D+04 ExpMxC= 9.22D+02 IAcc=3 IRadAn=         5 AccDes= 0.00D+00
 HarFok:  IExCor=  205 AccDes= 0.00D+00 IRadAn=         5 IDoV=-2 UseB2=F ITyADJ=14
 ICtDFT= 12500011 ScaDFX=  1.000000  1.000000  1.000000  1.000000
 Largest valence mixing into a core orbital is  1.05D-04
 Largest core mixing into a valence orbital is  2.82D-05
 Range of M.O.s used for correlation:    15   356
 NBasis=   356 NAE=    52 NBE=    52 NFC=    14 NFV=     0
 NROrb=    342 NOA=    38 NOB=    38 NVA=   304 NVB=   304

 **** Warning!!: The largest alpha MO coefficient is  0.54523595D+02

 Leave Link  801 at Mon Mar  9 22:33:40 2026, MaxMem=  2147483648 cpu:               1.6 elap:               0.1
 (Enter /data/home/wyx/g16/l914.exe)
 RHF ground state
 Two-electron integral symmetry not used.
 MDV=  2147483648 DFT=T DoStab=F Mixed=T DoRPA=T DoScal=F NonHer=T
 NEqPCM:  Using non-equilibrium solvation (IEInf=1, Eps=  78.3553, EpsInf=   1.7778)
 Inv3:  Mode=1 IEnd=    13129392.
 Iteration    1 A*A^-1 deviation from unit magnitude is 3.66D-15 for   1630.
 Iteration    1 A*A^-1 deviation from orthogonality  is 2.37D-15 for   1337      3.
 Iteration    1 A^-1*A deviation from unit magnitude is 3.66D-15 for   1630.
 Iteration    1 A^-1*A deviation from orthogonality  is 1.68D-15 for   1753    189.
 Making orbital integer symmetry assigments:
    24 initial guesses have been made.
 Convergence on wavefunction:    0.001000000000000
 Davidson Disk Diagonalization:  ConvIn= 1.00D-03 SkipCon=T Conv= 1.00D-03.
 Max sub-space:  2000 roots to seek:    24 dimension of matrix:        23104
 Iteration     1 Dimension    24 NMult     0 NNew     24
 CISAX will form    24 AO SS matrices at one time.
 NMat=    24 NSing=    24 JSym2X= 0.
 FoFJK:  IHMeth= 1 ICntrl=       0 DoSepK=F KAlg= 0 I1Cent=           0 FoldK=F
 IRaf= 860000000 NMat=      48 IRICut=      60 DoRegI=T DoRafI=T ISym2E= 0 IDoP0=3 IntGTp=3.
 New state      2 was old state      3
 New state      3 was old state      5
 New state      4 was old state      2
 New state      5 was old state      6
 New state      6 was old state      4
 Excitation Energies [eV] at current iteration:
 Root      1 :     3.701719406705976
 Root      2 :     3.824403076642640
 Root      3 :     4.534817987950365
 Root      4 :     5.481276292497347
 Root      5 :     6.272137922954873
 Root      6 :     6.325726729051409
 Root      7 :     6.832395770282695
 Root      8 :     6.904877939811291
 Root      9 :     6.955475356636911
 Root     10 :     7.145430363554402
 Root     11 :     7.202752623504597
 Root     12 :     7.303284693180320
 Root     13 :     7.482938226120637
 Root     14 :     7.615370808262670
 Root     15 :     7.738751504653080
 Root     16 :     7.931703673270291
 Root     17 :     8.285735284527199
 Root     18 :     8.367821820836726
 Root     19 :     8.393072589955041
 Root     20 :     8.475434498621807
 Root     21 :     8.529624021916090
 Root     22 :     8.576438949050441
 Root     23 :     8.675288383448111
 Root     24 :     8.759714333574660
 Iteration     2 Dimension    36 NMult    24 NNew     12
 CISAX will form    12 AO SS matrices at one time.
 NMat=    12 NSing=    12 JSym2X= 0.
 Root      1 not converged, maximum delta is    0.045871330523473
 Root      2 not converged, maximum delta is    0.091592711186045
 Root      3 not converged, maximum delta is    0.114171561059963
 Root      4 not converged, maximum delta is    0.320065848965616
 New state      5 was old state      6
 Root      5 not converged, maximum delta is    0.405338719034034
 New state      6 was old state      5
 Root      6 not converged, maximum delta is    0.273980178069946
 Excitation Energies [eV] at current iteration:
 Root      1 :     3.258153473227180   Change is   -0.443565933478796
 Root      2 :     3.429820769170606   Change is   -0.394582307472034
 Root      3 :     4.091034038387694   Change is   -0.443783949562672
 Root      4 :     5.136633430832914   Change is   -0.344642861664433
 Root      5 :     5.510693578670580   Change is   -0.815033150380829
 Root      6 :     6.158560015217692   Change is   -0.113577907737181
 Iteration     3 Dimension    48 NMult    36 NNew     12
 CISAX will form    12 AO SS matrices at one time.
 NMat=    12 NSing=    12 JSym2X= 0.
 Root      1 not converged, maximum delta is    0.010064605678240
 Root      2 not converged, maximum delta is    0.009739326952130
 Root      3 not converged, maximum delta is    0.015892417444693
 Root      4 not converged, maximum delta is    0.032505417699116
 Root      5 not converged, maximum delta is    0.032525033474728
 Root      6 not converged, maximum delta is    0.010198394301206
 Excitation Energies [eV] at current iteration:
 Root      1 :     3.238799500038504   Change is   -0.019353973188676
 Root      2 :     3.413888043879683   Change is   -0.015932725290923
 Root      3 :     4.066742730725516   Change is   -0.024291307662177
 Root      4 :     5.108897058041365   Change is   -0.027736372791548
 Root      5 :     5.481889961598447   Change is   -0.028803617072133
 Root      6 :     6.153065912944735   Change is   -0.005494102272957
 Iteration     4 Dimension    60 NMult    48 NNew     12
 CISAX will form    12 AO SS matrices at one time.
 NMat=    12 NSing=    12 JSym2X= 0.
 Root      1 not converged, maximum delta is    0.002269085227263
 Root      2 not converged, maximum delta is    0.001553784634914
 Root      3 not converged, maximum delta is    0.001784644255243
 Root      4 not converged, maximum delta is    0.004327732691095
 Root      5 not converged, maximum delta is    0.006598145956885
 Root      6 not converged, maximum delta is    0.002386480218446
 Excitation Energies [eV] at current iteration:
 Root      1 :     3.236971367468676   Change is   -0.001828132569828
 Root      2 :     3.413243728031890   Change is   -0.000644315847793
 Root      3 :     4.065607362262857   Change is   -0.001135368462660
 Root      4 :     5.105552185994611   Change is   -0.003344872046754
 Root      5 :     5.477440509191856   Change is   -0.004449452406591
 Root      6 :     6.152722834720052   Change is   -0.000343078224682
 Iteration     5 Dimension    72 NMult    60 NNew     12
 CISAX will form    12 AO SS matrices at one time.
 NMat=    12 NSing=    12 JSym2X= 0.
 Root      1 has converged.
 Root      2 has converged.
 Root      3 has converged.
 Root      4 not converged, maximum delta is    0.001020561869358
 Root      5 not converged, maximum delta is    0.001559272874133
 Root      6 has converged.
 Excitation Energies [eV] at current iteration:
 Root      1 :     3.236865024835119   Change is   -0.000106342633557
 Root      2 :     3.413198121148654   Change is   -0.000045606883236
 Root      3 :     4.065518807819753   Change is   -0.000088554443103
 Root      4 :     5.105282040880517   Change is   -0.000270145114095
 Root      5 :     5.477047644440140   Change is   -0.000392864751715
 Root      6 :     6.152694673932429   Change is   -0.000028160787623
 Iteration     6 Dimension    76 NMult    72 NNew      4
 CISAX will form     4 AO SS matrices at one time.
 NMat=     4 NSing=     4 JSym2X= 0.
 Root      1 has converged.
 Root      2 has converged.
 Root      3 has converged.
 Root      4 has converged.
 Root      5 has converged.
 Root      6 has converged.
 Excitation Energies [eV] at current iteration:
 Root      1 :     3.236863650368242   Change is   -0.000001374466877
 Root      2 :     3.413198086603414   Change is   -0.000000034545239
 Root      3 :     4.065518385698557   Change is   -0.000000422121196
 Root      4 :     5.105257370748878   Change is   -0.000024670131639
 Root      5 :     5.477007267763785   Change is   -0.000040376676356
 Root      6 :     6.152694416383564   Change is   -0.000000257548865
 Convergence achieved on expansion vectors.
 ***********************************************************************
 Excited states from <AA,BB:AA,BB> singles matrix:
 ***********************************************************************
 
 1PDM for each excited state written to RWF  633
 Ground to excited state transition densities written to RWF  633
 Ground to excited state transition electric dipole moments (Au):
       state          X           Y           Z        Dip. S.      Osc.
         1         1.4798      0.4599      0.3015      2.4921      0.1976
         2         0.0537      0.0416      0.0359      0.0059      0.0005
         3        -0.0195      0.0457      0.0336      0.0036      0.0004
         4        -0.4902      1.2693     -0.0673      1.8560      0.2321
         5        -0.1721      1.2942     -0.0240      1.7053      0.2288
         6        -0.0063     -0.1066      0.0026      0.0114      0.0017
 Ground to excited state transition velocity dipole moments (Au):
       state          X           Y           Z        Dip. S.      Osc.
         1        -0.1742     -0.0568     -0.0358      0.0349      0.1954
         2        -0.0065     -0.0063     -0.0013      0.0001      0.0004
         3         0.0019     -0.0065     -0.0016      0.0000      0.0002
         4         0.0832     -0.2331      0.0124      0.0614      0.2182
         5         0.0369     -0.2638      0.0051      0.0710      0.2352
         6         0.0056      0.0238     -0.0206      0.0010      0.0030
 Ground to excited state transition magnetic dipole moments (Au):
       state          X           Y           Z
         1        -1.0702     -0.2119      5.3553
         2         0.8790     -0.0247      0.4334
         3        -0.3773      0.9506     -0.1493
         4         0.5296      0.0506     -1.4405
         5         0.4457     -0.0134     -0.2864
         6        -0.4140     -0.1123     -0.2403
 Ground to excited state transition velocity quadrupole moments (Au):
       state          XX          YY          ZZ          XY          XZ          YZ
         1         0.9430     -2.1570     -0.0595     -3.0250     -0.0160     -0.6923
         2         0.0225     -0.2394     -0.0006     -0.0984     -0.0070      0.0291
         3         0.0232     -0.2866     -0.0185      0.0470     -0.0615     -0.0590
         4         0.7593    -10.0925      0.0463      2.7420      0.3093      0.1568
         5         0.3630    -11.4048      0.0116      1.9094      0.1866      0.0148
         6         0.0253      1.0941     -0.0962     -0.0029      0.1034     -0.3317
 <0|del|b> * <b|rxdel|0> + <0|del|b> * <b|delr+rdel|0>
 Rotatory Strengths (R) in cgs (10**-40 erg-esu-cm/Gauss)
       state          XX          YY          ZZ    R(velocity)    E-M Angle
         1      -214.9552     20.4842    234.1533     13.2274       89.63
         2        -0.8984    -18.6511    -15.0830    -11.5442      132.95
         3       -15.1401     -1.2576    -15.0912    -10.4963      157.93
         4       144.1029      9.7262    -99.5778     18.0838       87.83
         5       107.1978     10.2771    -52.2980     21.7256       82.45
         6        -0.1849      1.1315     -1.0510     -0.0348       90.00
 1/2[<0|r|b>*<b|rxdel|0> + (<0|rxdel|b>*<b|r|0>)*]
 Rotatory Strengths (R) in cgs (10**-40 erg-esu-cm/Gauss)
       state          XX          YY          ZZ     R(length)
         1      1119.8833     68.9100  -1141.9821     15.6037
         2       -33.3539      0.7272    -11.0135    -14.5467
         3        -5.2163    -30.7046      3.5486    -10.7908
         4       183.6034    -45.4319    -68.5539     23.2059
         5        54.2500     12.2988     -4.8694     20.5598
         6        -1.8434     -8.4636      0.4472     -3.2866
  1/2[<0|del|b>*<b|r|0> + (<0|r|b>*<b|del|0>)*] (Au)
       state          X           Y           Z        Dip. S.   Osc.(frdel)
         1        -0.2578     -0.0261     -0.0108      0.2947      0.1965
         2        -0.0004     -0.0003     -0.0000      0.0007      0.0004
         3        -0.0000     -0.0003     -0.0001      0.0004      0.0003
         4        -0.0408     -0.2958     -0.0008      0.3375      0.2250
         5        -0.0064     -0.3415     -0.0001      0.3480      0.2320
         6        -0.0000     -0.0025     -0.0001      0.0026      0.0018

 Excitation energies and oscillator strengths:
 
 Excited state symmetry could not be determined.
 Excited State   1:      Singlet-?Sym    3.2369 eV  383.04 nm  f=0.1976  <S**2>=0.000
      52 -> 53         0.70133
 This state for optimization and/or second-order correction.
 Total Energy, E(TD-HF/TD-DFT) =  -633.222889234    
 Copying the excited state density for this state as the 1-particle RhoCI density.
 
 Excited state symmetry could not be determined.
 Excited State   2:      Singlet-?Sym    3.4132 eV  363.25 nm  f=0.0005  <S**2>=0.000
      49 -> 53        -0.10944
      50 -> 53        -0.10587
      51 -> 53         0.59019
      51 -> 54         0.29511
      51 -> 58        -0.10791
 
 Excited state symmetry could not be determined.
 Excited State   3:      Singlet-?Sym    4.0655 eV  304.97 nm  f=0.0004  <S**2>=0.000
      49 -> 53         0.48838
      49 -> 54        -0.41003
      49 -> 58        -0.14174
      50 -> 53         0.10704
      51 -> 53         0.11921
      51 -> 54        -0.14635
 
 Excited state symmetry could not be determined.
 Excited State   4:      Singlet-?Sym    5.1053 eV  242.86 nm  f=0.2321  <S**2>=0.000
      52 -> 54         0.69997
 
 Excited state symmetry could not be determined.
 Excited State   5:      Singlet-?Sym    5.4770 eV  226.37 nm  f=0.2288  <S**2>=0.000
      49 -> 53        -0.15430
      50 -> 53         0.66995
      51 -> 53         0.10665
 
 Excited state symmetry could not be determined.
 Excited State   6:      Singlet-?Sym    6.1527 eV  201.51 nm  f=0.0017  <S**2>=0.000
      52 -> 55         0.67420
      52 -> 62        -0.10520
 SavETr:  write IOETrn=   770 NScale= 10 NData=  16 NLR=1 NState=    6 LETran=     118.
 Leave Link  914 at Mon Mar  9 22:37:07 2026, MaxMem=  2147483648 cpu:            6583.2 elap:             206.9
 (Enter /data/home/wyx/g16/l601.exe)
 Copying SCF densities to generalized density rwf, IOpCl= 0 IROHF=0.

 **********************************************************************

            Population analysis using the SCF density.

 **********************************************************************

 Alpha  occ. eigenvalues --  -19.60980 -19.59997 -14.80845 -10.63001 -10.62822
 Alpha  occ. eigenvalues --  -10.62162 -10.61959 -10.55086 -10.54912 -10.54766
 Alpha  occ. eigenvalues --  -10.54723 -10.54300 -10.53426 -10.53412  -1.15967
 Alpha  occ. eigenvalues --   -1.12434  -1.10449  -0.93177  -0.92196  -0.85238
 Alpha  occ. eigenvalues --   -0.83672  -0.82794  -0.79836  -0.75289  -0.72421
 Alpha  occ. eigenvalues --   -0.69961  -0.62362  -0.58914  -0.57350  -0.55195
 Alpha  occ. eigenvalues --   -0.54772  -0.54266  -0.52247  -0.51796  -0.50566
 Alpha  occ. eigenvalues --   -0.50092  -0.49317  -0.48988  -0.48442  -0.48044
 Alpha  occ. eigenvalues --   -0.46598  -0.45670  -0.44611  -0.43974  -0.42662
 Alpha  occ. eigenvalues --   -0.42597  -0.41380  -0.40855  -0.33184  -0.32807
 Alpha  occ. eigenvalues --   -0.31833  -0.25892
 Alpha virt. eigenvalues --   -0.04653   0.01040   0.05759   0.07683   0.07963
 Alpha virt. eigenvalues --    0.09107   0.10075   0.10228   0.11899   0.12421
 Alpha virt. eigenvalues --    0.13555   0.14164   0.14659   0.15782   0.16211
 Alpha virt. eigenvalues --    0.16472   0.16805   0.17006   0.17142   0.18734
 Alpha virt. eigenvalues --    0.19005   0.19711   0.20715   0.22300   0.22576
 Alpha virt. eigenvalues --    0.23545   0.24068   0.24240   0.25039   0.25593
 Alpha virt. eigenvalues --    0.26118   0.26664   0.27250   0.28183   0.28485
 Alpha virt. eigenvalues --    0.29711   0.29882   0.31507   0.32084   0.32630
 Alpha virt. eigenvalues --    0.33839   0.34699   0.35429   0.35836   0.36134
 Alpha virt. eigenvalues --    0.37039   0.39642   0.40074   0.40689   0.40819
 Alpha virt. eigenvalues --    0.42595   0.43487   0.44027   0.44815   0.44916
 Alpha virt. eigenvalues --    0.45568   0.46097   0.46427   0.47248   0.47710
 Alpha virt. eigenvalues --    0.48038   0.48471   0.49326   0.49757   0.50473
 Alpha virt. eigenvalues --    0.51306   0.51534   0.51640   0.52027   0.53259
 Alpha virt. eigenvalues --    0.53588   0.54119   0.54568   0.54904   0.56936
 Alpha virt. eigenvalues --    0.57095   0.58186   0.59079   0.59954   0.60844
 Alpha virt. eigenvalues --    0.62191   0.62833   0.64309   0.65195   0.66231
 Alpha virt. eigenvalues --    0.66875   0.67842   0.68926   0.69372   0.70182
 Alpha virt. eigenvalues --    0.71300   0.73802   0.74042   0.75610   0.76916
 Alpha virt. eigenvalues --    0.77864   0.79053   0.82422   0.84573   0.87692
 Alpha virt. eigenvalues --    0.90096   0.94136   1.00262   1.00777   1.20883
 Alpha virt. eigenvalues --    1.21974   1.23889   1.26120   1.28453   1.28834
 Alpha virt. eigenvalues --    1.30137   1.31286   1.32839   1.33641   1.35352
 Alpha virt. eigenvalues --    1.35854   1.36084   1.37899   1.38614   1.39044
 Alpha virt. eigenvalues --    1.39291   1.39548   1.39748   1.40177   1.40878
 Alpha virt. eigenvalues --    1.41618   1.41639   1.42501   1.43843   1.44188
 Alpha virt. eigenvalues --    1.46255   1.48204   1.48407   1.49562   1.49776
 Alpha virt. eigenvalues --    1.50487   1.51997   1.52203   1.55272   1.56994
 Alpha virt. eigenvalues --    1.57580   1.57711   1.58914   1.59261   1.60118
 Alpha virt. eigenvalues --    1.60704   1.61203   1.61292   1.61551   1.62610
 Alpha virt. eigenvalues --    1.63323   1.63910   1.64563   1.64796   1.65417
 Alpha virt. eigenvalues --    1.66362   1.66542   1.67214   1.67716   1.69710
 Alpha virt. eigenvalues --    1.70785   1.71374   1.71640   1.73064   1.76563
 Alpha virt. eigenvalues --    1.77740   1.80258   1.81555   1.82732   1.83597
 Alpha virt. eigenvalues --    1.83814   1.84191   1.86214   1.87112   1.87546
 Alpha virt. eigenvalues --    1.88682   1.90096   1.91651   1.95921   1.96403
 Alpha virt. eigenvalues --    1.98417   2.01404   2.02709   2.03972   2.06939
 Alpha virt. eigenvalues --    2.07558   2.10774   2.11785   2.14308   2.15499
 Alpha virt. eigenvalues --    2.16789   2.16956   2.18944   2.20537   2.22218
 Alpha virt. eigenvalues --    2.22458   2.24282   2.25888   2.27002   2.27909
 Alpha virt. eigenvalues --    2.29447   2.31149   2.32657   2.33615   2.34256
 Alpha virt. eigenvalues --    2.34505   2.38056   2.38900   2.39718   2.40176
 Alpha virt. eigenvalues --    2.42248   2.43235   2.44619   2.45686   2.46780
 Alpha virt. eigenvalues --    2.49367   2.49694   2.51135   2.51962   2.53188
 Alpha virt. eigenvalues --    2.53739   2.55253   2.57401   2.57694   2.58671
 Alpha virt. eigenvalues --    2.59481   2.62173   2.63126   2.63538   2.64392
 Alpha virt. eigenvalues --    2.64815   2.67165   2.68749   2.69482   2.70696
 Alpha virt. eigenvalues --    2.71917   2.72864   2.74256   2.74996   2.76525
 Alpha virt. eigenvalues --    2.77609   2.79019   2.80190   2.80598   2.81876
 Alpha virt. eigenvalues --    2.82420   2.83105   2.84143   2.86589   2.90376
 Alpha virt. eigenvalues --    2.93045   2.95849   2.96409   3.01142   3.04706
 Alpha virt. eigenvalues --    3.05120   3.08209   3.12883   3.13493   3.15435
 Alpha virt. eigenvalues --    3.16043   3.17190   3.19258   3.20077   3.23480
 Alpha virt. eigenvalues --    3.23821   3.23903   3.26111   3.30388   3.30967
 Alpha virt. eigenvalues --    3.32646   3.33275   3.33557   3.33918   3.34971
 Alpha virt. eigenvalues --    3.35842   3.36742   3.38047   3.39443   3.40498
 Alpha virt. eigenvalues --    3.42860   3.44550   3.46779   3.48885   3.54675
 Alpha virt. eigenvalues --    3.56842   3.83797   3.93673   4.24332   4.31705
 Alpha virt. eigenvalues --   21.71708  21.83646  22.11362  22.16938  22.17831
 Alpha virt. eigenvalues --   22.18936  22.22750  22.25452  22.26628  22.31710
 Alpha virt. eigenvalues --   22.35536  32.01284  43.76565  43.80575
          Condensed to atoms (all electrons):
               1          2          3          4          5          6
     1  O    8.053116   0.000000  -0.000207   0.000017   0.015096   0.014913
     2  O    0.000000   8.175852   0.000477  -0.000014  -0.129944   0.001575
     3  N   -0.000207   0.000477   6.428084   0.373189  -0.112529   0.344055
     4  H    0.000017  -0.000014   0.373189   0.380921   0.015275  -0.046415
     5  C    0.015096  -0.129944  -0.112529   0.015275   6.963967  -0.041098
     6  C    0.014913   0.001575   0.344055  -0.046415  -0.041098   5.592605
     7  C    0.000212  -0.052369   0.379255  -0.039442   0.328237  -0.158977
     8  C   -0.000354   0.546661   0.005749  -0.000900  -0.266671   0.034973
     9  C   -0.004093   0.022603   0.013565  -0.001355  -0.642950  -0.019657
    10  H    0.003298  -0.000055   0.002064   0.000028  -0.039218  -0.009485
    11  H    0.007244  -0.000077  -0.000370   0.000009  -0.111949   0.019955
    12  C   -0.221869  -0.003605  -0.096610   0.017528   0.212032  -0.183252
    13  C    0.644343   0.000004  -0.000076   0.000596   0.039079   0.132713
    14  C   -0.000005  -0.026880  -0.032075  -0.008526  -0.124044   0.005263
    15  H   -0.000000   0.004789   0.003452  -0.000196   0.032596   0.005848
    16  H   -0.000000   0.002717   0.000282   0.000762  -0.004899  -0.000995
    17  H   -0.000000   0.000222  -0.001112   0.000572  -0.018646  -0.001142
    18  C   -0.000247  -0.092359  -0.000368   0.000012  -0.142173  -0.001846
    19  H    0.000001  -0.000669   0.000010  -0.000001   0.007707   0.000029
    20  H    0.000010  -0.001058   0.000009  -0.000001  -0.009234   0.000087
    21  H    0.000614   0.007828   0.000092   0.000001   0.063884  -0.001140
    22  C   -0.110068   0.000000   0.000220   0.000098  -0.000411  -0.000251
    23  H    0.003825  -0.000000  -0.000021  -0.000058  -0.000248  -0.032693
    24  H    0.001739   0.000000   0.000054  -0.000013  -0.000053   0.009941
    25  H    0.007047   0.000000   0.000023  -0.000002  -0.000025  -0.000792
    26  C    0.000624   0.000012  -0.030675  -0.009885   0.005262   0.146597
    27  H   -0.000159  -0.000000   0.000914   0.000822   0.000148  -0.035085
    28  H   -0.000027  -0.000000  -0.001952   0.000441   0.000302  -0.040505
    29  H    0.000017   0.000000   0.003227   0.000737  -0.000121  -0.051162
               7          8          9         10         11         12
     1  O    0.000212  -0.000354  -0.004093   0.003298   0.007244  -0.221869
     2  O   -0.052369   0.546661   0.022603  -0.000055  -0.000077  -0.003605
     3  N    0.379255   0.005749   0.013565   0.002064  -0.000370  -0.096610
     4  H   -0.039442  -0.000900  -0.001355   0.000028   0.000009   0.017528
     5  C    0.328237  -0.266671  -0.642950  -0.039218  -0.111949   0.212032
     6  C   -0.158977   0.034973  -0.019657  -0.009485   0.019955  -0.183252
     7  C    5.511812  -0.267047  -0.231061  -0.000463   0.005366   0.061527
     8  C   -0.267047   5.571089   0.205870  -0.005225  -0.006013  -0.072753
     9  C   -0.231061   0.205870   6.490411   0.425192   0.543616  -0.247501
    10  H   -0.000463  -0.005225   0.425192   0.517021  -0.044192  -0.024044
    11  H    0.005366  -0.006013   0.543616  -0.044192   0.491538  -0.090494
    12  C    0.061527  -0.072753  -0.247501  -0.024044  -0.090494   7.457748
    13  C    0.027685  -0.008114  -0.172080  -0.007871  -0.001652  -0.410709
    14  C    0.324215  -0.038944   0.001639  -0.000251   0.000148   0.006425
    15  H   -0.081884   0.004134   0.000795   0.000000   0.000003  -0.001360
    16  H   -0.030983  -0.006602   0.001804  -0.000071   0.000083  -0.000076
    17  H   -0.019464  -0.000165  -0.001061   0.000137  -0.000036   0.000197
    18  C    0.004338   0.286739   0.007708  -0.008574  -0.008354   0.009866
    19  H   -0.000857  -0.030966  -0.001644   0.000389   0.000509  -0.000228
    20  H   -0.001126  -0.017876  -0.002626   0.000408  -0.000229  -0.000764
    21  H    0.010537  -0.128974  -0.017709  -0.003947  -0.006459   0.007173
    22  C    0.001000   0.000005   0.014385   0.001250  -0.000643  -0.251162
    23  H   -0.000080   0.000005   0.002178  -0.000146   0.000084   0.051837
    24  H   -0.000010  -0.000000  -0.002191   0.000184  -0.000101  -0.008253
    25  H    0.000003  -0.000001  -0.000659  -0.000046  -0.000001   0.023572
    26  C   -0.000002   0.000934   0.025658  -0.000417   0.000123  -0.089276
    27  H   -0.000735   0.000002  -0.000608  -0.000030   0.000011  -0.002531
    28  H   -0.000960  -0.000024  -0.000678  -0.000011   0.000046  -0.022731
    29  H    0.003163   0.000015  -0.000859   0.000039  -0.000009   0.026857
              13         14         15         16         17         18
     1  O    0.644343  -0.000005  -0.000000  -0.000000  -0.000000  -0.000247
     2  O    0.000004  -0.026880   0.004789   0.002717   0.000222  -0.092359
     3  N   -0.000076  -0.032075   0.003452   0.000282  -0.001112  -0.000368
     4  H    0.000596  -0.008526  -0.000196   0.000762   0.000572   0.000012
     5  C    0.039079  -0.124044   0.032596  -0.004899  -0.018646  -0.142173
     6  C    0.132713   0.005263   0.005848  -0.000995  -0.001142  -0.001846
     7  C    0.027685   0.324215  -0.081884  -0.030983  -0.019464   0.004338
     8  C   -0.008114  -0.038944   0.004134  -0.006602  -0.000165   0.286739
     9  C   -0.172080   0.001639   0.000795   0.001804  -0.001061   0.007708
    10  H   -0.007871  -0.000251   0.000000  -0.000071   0.000137  -0.008574
    11  H   -0.001652   0.000148   0.000003   0.000083  -0.000036  -0.008354
    12  C   -0.410709   0.006425  -0.001360  -0.000076   0.000197   0.009866
    13  C    5.467965   0.000286  -0.000032  -0.000005  -0.000004   0.000855
    14  C    0.000286   5.123570   0.381918   0.414743   0.417655   0.000379
    15  H   -0.000032   0.381918   0.557935  -0.026947  -0.023943   0.000122
    16  H   -0.000005   0.414743  -0.026947   0.496731  -0.027812  -0.000135
    17  H   -0.000004   0.417655  -0.023943  -0.027812   0.488183  -0.000102
    18  C    0.000855   0.000379   0.000122  -0.000135  -0.000102   5.228588
    19  H   -0.000016  -0.000020  -0.000002  -0.000025   0.000063   0.404337
    20  H   -0.000034  -0.000023  -0.000002   0.000031  -0.000009   0.404675
    21  H    0.001400   0.000221  -0.000019  -0.000015  -0.000014   0.406876
    22  C    0.290144   0.000024   0.000001  -0.000000  -0.000000   0.000025
    23  H   -0.081423  -0.000003   0.000000   0.000000  -0.000000   0.000001
    24  H   -0.034745  -0.000000  -0.000000   0.000000   0.000000  -0.000001
    25  H   -0.040108   0.000000   0.000000  -0.000000   0.000000   0.000000
    26  C   -0.062002  -0.001212   0.000294   0.000008  -0.000002  -0.000018
    27  H   -0.009040   0.000036  -0.000001   0.000001  -0.000002  -0.000000
    28  H    0.008469  -0.000058  -0.000012  -0.000005   0.000004  -0.000000
    29  H   -0.000528   0.000058   0.000127  -0.000005  -0.000007   0.000001
              19         20         21         22         23         24
     1  O    0.000001   0.000010   0.000614  -0.110068   0.003825   0.001739
     2  O   -0.000669  -0.001058   0.007828   0.000000  -0.000000   0.000000
     3  N    0.000010   0.000009   0.000092   0.000220  -0.000021   0.000054
     4  H   -0.000001  -0.000001   0.000001   0.000098  -0.000058  -0.000013
     5  C    0.007707  -0.009234   0.063884  -0.000411  -0.000248  -0.000053
     6  C    0.000029   0.000087  -0.001140  -0.000251  -0.032693   0.009941
     7  C   -0.000857  -0.001126   0.010537   0.001000  -0.000080  -0.000010
     8  C   -0.030966  -0.017876  -0.128974   0.000005   0.000005  -0.000000
     9  C   -0.001644  -0.002626  -0.017709   0.014385   0.002178  -0.002191
    10  H    0.000389   0.000408  -0.003947   0.001250  -0.000146   0.000184
    11  H    0.000509  -0.000229  -0.006459  -0.000643   0.000084  -0.000101
    12  C   -0.000228  -0.000764   0.007173  -0.251162   0.051837  -0.008253
    13  C   -0.000016  -0.000034   0.001400   0.290144  -0.081423  -0.034745
    14  C   -0.000020  -0.000023   0.000221   0.000024  -0.000003  -0.000000
    15  H   -0.000002  -0.000002  -0.000019   0.000001   0.000000  -0.000000
    16  H   -0.000025   0.000031  -0.000015  -0.000000   0.000000   0.000000
    17  H    0.000063  -0.000009  -0.000014  -0.000000  -0.000000   0.000000
    18  C    0.404337   0.404675   0.406876   0.000025   0.000001  -0.000001
    19  H    0.490233  -0.017121  -0.025297  -0.000000   0.000000   0.000000
    20  H   -0.017121   0.471823  -0.016781  -0.000001  -0.000000   0.000000
    21  H   -0.025297  -0.016781   0.535931   0.000032  -0.000001  -0.000001
    22  C   -0.000000  -0.000001   0.000032   5.470253   0.392243   0.413893
    23  H    0.000000  -0.000000  -0.000001   0.392243   0.533021  -0.029097
    24  H    0.000000   0.000000  -0.000001   0.413893  -0.029097   0.470435
    25  H   -0.000000   0.000000  -0.000000   0.382233  -0.021865  -0.007300
    26  C    0.000000   0.000001  -0.000014  -0.036264   0.027584  -0.019580
    27  H   -0.000000   0.000000   0.000000   0.016347  -0.011979  -0.002538
    28  H    0.000000  -0.000000   0.000000  -0.016577  -0.004005   0.001974
    29  H    0.000000  -0.000000  -0.000000   0.001349   0.000924   0.000183
              25         26         27         28         29
     1  O    0.007047   0.000624  -0.000159  -0.000027   0.000017
     2  O    0.000000   0.000012  -0.000000  -0.000000   0.000000
     3  N    0.000023  -0.030675   0.000914  -0.001952   0.003227
     4  H   -0.000002  -0.009885   0.000822   0.000441   0.000737
     5  C   -0.000025   0.005262   0.000148   0.000302  -0.000121
     6  C   -0.000792   0.146597  -0.035085  -0.040505  -0.051162
     7  C    0.000003  -0.000002  -0.000735  -0.000960   0.003163
     8  C   -0.000001   0.000934   0.000002  -0.000024   0.000015
     9  C   -0.000659   0.025658  -0.000608  -0.000678  -0.000859
    10  H   -0.000046  -0.000417  -0.000030  -0.000011   0.000039
    11  H   -0.000001   0.000123   0.000011   0.000046  -0.000009
    12  C    0.023572  -0.089276  -0.002531  -0.022731   0.026857
    13  C   -0.040108  -0.062002  -0.009040   0.008469  -0.000528
    14  C    0.000000  -0.001212   0.000036  -0.000058   0.000058
    15  H    0.000000   0.000294  -0.000001  -0.000012   0.000127
    16  H   -0.000000   0.000008   0.000001  -0.000005  -0.000005
    17  H    0.000000  -0.000002  -0.000002   0.000004  -0.000007
    18  C    0.000000  -0.000018  -0.000000  -0.000000   0.000001
    19  H   -0.000000   0.000000  -0.000000   0.000000   0.000000
    20  H    0.000000   0.000001   0.000000  -0.000000  -0.000000
    21  H   -0.000000  -0.000014   0.000000   0.000000  -0.000000
    22  C    0.382233  -0.036264   0.016347  -0.016577   0.001349
    23  H   -0.021865   0.027584  -0.011979  -0.004005   0.000924
    24  H   -0.007300  -0.019580  -0.002538   0.001974   0.000183
    25  H    0.484569   0.001248   0.000930   0.000149  -0.000038
    26  C    0.001248   5.377990   0.404343   0.440279   0.384934
    27  H    0.000930   0.404343   0.504587  -0.027675  -0.023133
    28  H    0.000149   0.440279  -0.027675   0.452949  -0.013995
    29  H   -0.000038   0.384934  -0.023133  -0.013995   0.504549
 Mulliken charges:
               1
     1  O   -0.415088
     2  O   -0.455709
     3  N   -0.278727
     4  H    0.315801
     5  C   -0.039373
     6  C    0.315941
     7  C    0.228110
     8  C    0.194453
     9  C   -0.408693
    10  H    0.194037
    11  H    0.201844
    12  C   -0.147547
    13  C    0.214897
    14  C   -0.444538
    15  H    0.142381
    16  H    0.181415
    17  H    0.186493
    18  C   -0.500342
    19  H    0.173570
    20  H    0.189843
    21  H    0.165782
    22  C   -0.568124
    23  H    0.169917
    24  H    0.205479
    25  H    0.171063
    26  C   -0.566543
    27  H    0.185378
    28  H    0.224603
    29  H    0.163678
 Sum of Mulliken charges =  -0.00000
 Mulliken charges with hydrogens summed into heavy atoms:
               1
     1  O   -0.415088
     2  O   -0.455709
     3  N    0.037074
     5  C   -0.039373
     6  C    0.315941
     7  C    0.228110
     8  C    0.194453
     9  C   -0.012812
    12  C   -0.147547
    13  C    0.214897
    14  C    0.065750
    18  C    0.028852
    22  C   -0.021665
    26  C    0.007117
 Electronic spatial extent (au):  <R**2>=          50727.2392
 Charge=             -0.0000 electrons
 Dipole moment (field-independent basis, Debye):
    X=              1.5022    Y=              8.7954    Z=              0.2770  Tot=              8.9270
 Quadrupole moment (field-independent basis, Debye-Ang):
   XX=           -108.1373   YY=            126.0677   ZZ=            -85.8302
   XY=              6.9063   XZ=             -5.9106   YZ=              7.1188
 Traceless Quadrupole moment (field-independent basis, Debye-Ang):
   XX=            -85.5040   YY=            148.7010   ZZ=            -63.1969
   XY=              6.9063   XZ=             -5.9106   YZ=              7.1188
 Octapole moment (field-independent basis, Debye-Ang**2):
  XXX=            543.8645  YYY=            961.2178  ZZZ=            -98.8011  XYY=             62.6184
  XXY=          -1123.1104  XXZ=            -10.0671  XZZ=            130.1803  YZZ=           -958.3323
  YYZ=             94.4120  XYZ=            -52.1094
 Hexadecapole moment (field-independent basis, Debye-Ang**3):
 XXXX=          -4676.1553 YYYY=          -3740.5210 ZZZZ=           -287.2476 XXXY=           5432.5664
 XXXZ=           -205.6870 YYYX=           1344.9163 YYYZ=            867.1306 ZZZX=            -75.1777
 ZZZY=          -1140.7149 XXYY=         -12442.0184 XXZZ=           -679.3356 YYZZ=         -10996.6840
 XXYZ=           -160.9180 YYXZ=           -476.2633 ZZXY=           1389.6107
 N-N= 8.962090808791D+02 E-N=-3.267402260618D+03  KE= 6.301519543903D+02
 Leave Link  601 at Mon Mar  9 22:37:08 2026, MaxMem=  2147483648 cpu:               1.1 elap:               0.1
 (Enter /data/home/wyx/g16/l9999.exe)
 Electronic transition elements 
                 1             2             3             4             5 
      1  -0.633223D+03 -0.633216D+03 -0.633192D+03 -0.633154D+03 -0.633141D+03
      2   0.147976D+01  0.536584D-01 -0.195493D-01 -0.490202D+00 -0.172123D+00
      3   0.459872D+00  0.415960D-01  0.456777D-01  0.126931D+01  0.129424D+01
      4   0.301547D+00  0.359327D-01  0.336106D-01 -0.672990D-01 -0.240430D-01
      5  -0.174191D+00 -0.653222D-02  0.193063D-02  0.832488D-01  0.369319D-01
      6  -0.568431D-01 -0.634403D-02 -0.648131D-02 -0.233060D+00 -0.263840D+00
      7  -0.358126D-01 -0.128725D-02 -0.158456D-02  0.124286D-01  0.508018D-02
      8  -0.107019D+01  0.878998D+00 -0.377321D+00  0.529645D+00  0.445697D+00
      9  -0.211897D+00 -0.247207D-01  0.950559D+00  0.506143D-01 -0.134378D-01
     10   0.535530D+01  0.433426D+00 -0.149301D+00 -0.144046D+01 -0.286397D+00
     11   0.943039D+00  0.224867D-01  0.232418D-01  0.759298D+00  0.363040D+00
     12  -0.215699D+01 -0.239352D+00 -0.286625D+00 -0.100925D+02 -0.114048D+02
     13  -0.595204D-01 -0.596886D-03 -0.185450D-01  0.463026D-01  0.116160D-01
     14  -0.302502D+01 -0.984010D-01  0.469987D-01  0.274195D+01  0.190942D+01
     15  -0.159519D-01 -0.697941D-02 -0.615035D-01  0.309290D+00  0.186596D+00
     16  -0.692313D+00  0.290913D-01 -0.590370D-01  0.156760D+00  0.147546D-01
                 6 
      1  -0.633116D+03
      2  -0.629604D-02
      3  -0.106589D+00
      4   0.263219D-02
      5   0.558862D-02
      6   0.237887D-01
      7  -0.206088D-01
      8  -0.414032D+00
      9  -0.112285D+00
     10  -0.240267D+00
     11   0.252599D-01
     12   0.109412D+01
     13  -0.961546D-01
     14  -0.292528D-02
     15   0.103369D+00
     16  -0.331723D+00
 1\1\GINC-CN015\SP\RM062X TD-FC\TZVP\C11H15N1O2\WYX\09-Mar-2026\0\\#p M
 062X/TZVP em=gd3 TD=NStates=6 SCRF=(Solvent=Water) Geom=Check Guess=Re
 ad NoSymm\\Title Card Required\\0,1\O,0,1.3204133029,9.8455159569,1.04
 46426101\O,0,-4.8207559336,9.7622675218,-0.3855686362\N,0,-2.101764944
 1,12.9416221948,0.337310063\H,0,-2.4152014455,13.897181652,0.271530801
 7\C,0,-2.6778687415,10.6389838679,0.2061250798\C,0,-0.7801592342,12.72
 51757553,0.5666783554\C,0,-3.0525112023,11.9460513239,0.1057630323\C,0
 ,-3.5980678295,9.5716519209,-0.0190347855\C,0,-1.267350596,10.26056135
 86,0.6004607107\H,0,-1.270998259,9.7467155076,1.5692121952\H,0,-0.8661
 80229,9.5302259445,-0.1073203614\C,0,-0.3157054559,11.4408417034,0.660
 6892128\C,0,1.0675658354,11.0391132765,0.86761847\C,0,-4.42754602,12.4
 414296131,-0.2191791643\H,0,-4.4382425649,13.5274060277,-0.3168464629\
 H,0,-4.7864257046,12.0240684501,-1.1620840723\H,0,-5.144268673,12.1692
 097485,0.558896094\C,0,-3.2636241037,8.0888153662,0.0847173071\H,0,-4.
 0355972664,7.5690294224,0.6529291414\H,0,-3.2047696486,7.6395445959,-0
 .9091716325\H,0,-2.3097454442,7.9783365503,0.5938312535\C,0,2.23328886
 47,12.0068628033,0.8524915377\H,0,2.1771227702,12.7203893995,0.0338420
 626\H,0,2.2823626551,12.5648986928,1.7890246452\H,0,3.1437699592,11.41
 93313502,0.7581233718\C,0,0.0103264473,14.0007490737,0.682514535\H,0,0
 .7037763903,13.9752777891,1.5168761666\H,0,0.5749528669,14.1943724638,
 -0.2300064603\H,0,-0.665966826,14.8402051194,0.8379349295\\Version=ES6
 4L-G16RevA.03\HF=-633.3418418\RMSD=2.626e-09\PG=C01 [X(C11H15N1O2)]\\@


 HICKORY, DICKORY, DOCK
 TWO MICE RAN UP THE CLOCK
 THE CLOCK STRUCK ONE...
 THE OTHER ESCAPED WITH MINOR INJURIES.
 Job cpu time:       0 days  1 hours 51 minutes 55.0 seconds.
 Elapsed time:       0 days  0 hours  3 minutes 31.6 seconds.
 File lengths (MBytes):  RWF=    821 Int=      0 D2E=      0 Chk=     67 Scr=      1
 Normal termination of Gaussian 16 at Mon Mar  9 22:37:10 2026.
