 Entering Gaussian System, Link 0=g16
 Input=DDL-S0-TD.gjf
 Output=DDL-S0-TD.log
 Initial command:
 /data/home/wyx/g16/l1.exe "/scr/tmp/wyx/13952/Gau-2517284.inp" -scrdir="/scr/tmp/wyx/13952/"
 Entering Link 1 = /data/home/wyx/g16/l1.exe PID=   2517285.
  
 Copyright (c) 1988,1990,1992,1993,1995,1998,2003,2009,2016,
            Gaussian, Inc.  All Rights Reserved.
  
 This is part of the Gaussian(R) 16 program.  It is based on
 the Gaussian(R) 09 system (copyright 2009, Gaussian, Inc.),
 the Gaussian(R) 03 system (copyright 2003, Gaussian, Inc.),
 the Gaussian(R) 98 system (copyright 1998, Gaussian, Inc.),
 the Gaussian(R) 94 system (copyright 1995, Gaussian, Inc.),
 the Gaussian 92(TM) system (copyright 1992, Gaussian, Inc.),
 the Gaussian 90(TM) system (copyright 1990, Gaussian, Inc.),
 the Gaussian 88(TM) system (copyright 1988, Gaussian, Inc.),
 the Gaussian 86(TM) system (copyright 1986, Carnegie Mellon
 University), and the Gaussian 82(TM) system (copyright 1983,
 Carnegie Mellon University). Gaussian is a federally registered
 trademark of Gaussian, Inc.
  
 This software contains proprietary and confidential information,
 including trade secrets, belonging to Gaussian, Inc.
  
 This software is provided under written license and may be
 used, copied, transmitted, or stored only in accord with that
 written license.
  
 The following legend is applicable only to US Government
 contracts under FAR:
  
                    RESTRICTED RIGHTS LEGEND
  
 Use, reproduction and disclosure by the US Government is
 subject to restrictions as set forth in subparagraphs (a)
 and (c) of the Commercial Computer Software - Restricted
 Rights clause in FAR 52.227-19.
  
 Gaussian, Inc.
 340 Quinnipiac St., Bldg. 40, Wallingford CT 06492
  
  
 ---------------------------------------------------------------
 Warning -- This program may not be used in any manner that
 competes with the business of Gaussian, Inc. or will provide
 assistance to any competitor of Gaussian, Inc.  The licensee
 of this program is prohibited from giving any competitor of
 Gaussian, Inc. access to this program.  By using this program,
 the user acknowledges that Gaussian, Inc. is engaged in the
 business of creating and licensing software in the field of
 computational chemistry and represents and warrants to the
 licensee that it is not a competitor of Gaussian, Inc. and that
 it will not use this program in any manner prohibited above.
 ---------------------------------------------------------------
  

 Cite this work as:
 Gaussian 16, Revision A.03,
 M. J. Frisch, G. W. Trucks, H. B. Schlegel, G. E. Scuseria, 
 M. A. Robb, J. R. Cheeseman, G. Scalmani, V. Barone, 
 G. A. Petersson, H. Nakatsuji, X. Li, M. Caricato, A. V. Marenich, 
 J. Bloino, B. G. Janesko, R. Gomperts, B. Mennucci, H. P. Hratchian, 
 J. V. Ortiz, A. F. Izmaylov, J. L. Sonnenberg, D. Williams-Young, 
 F. Ding, F. Lipparini, F. Egidi, J. Goings, B. Peng, A. Petrone, 
 T. Henderson, D. Ranasinghe, V. G. Zakrzewski, J. Gao, N. Rega, 
 G. Zheng, W. Liang, M. Hada, M. Ehara, K. Toyota, R. Fukuda, 
 J. Hasegawa, M. Ishida, T. Nakajima, Y. Honda, O. Kitao, H. Nakai, 
 T. Vreven, K. Throssell, J. A. Montgomery, Jr., J. E. Peralta, 
 F. Ogliaro, M. J. Bearpark, J. J. Heyd, E. N. Brothers, K. N. Kudin, 
 V. N. Staroverov, T. A. Keith, R. Kobayashi, J. Normand, 
 K. Raghavachari, A. P. Rendell, J. C. Burant, S. S. Iyengar, 
 J. Tomasi, M. Cossi, J. M. Millam, M. Klene, C. Adamo, R. Cammi, 
 J. W. Ochterski, R. L. Martin, K. Morokuma, O. Farkas, 
 J. B. Foresman, and D. J. Fox, Gaussian, Inc., Wallingford CT, 2016.
 
 ******************************************
 Gaussian 16:  ES64L-G16RevA.03 25-Dec-2016
                 9-Mar-2026 
 ******************************************
 %nprocshared=32
 Will use up to   32 processors via shared memory.
 %mem=16GB
 %oldchk=DDL-S0-opt-freq.chk
 %chk=DDL-S0-TD.chk
 Copying data from "DDL-S0-opt-freq.chk" to current chk file "DDL-S0-TD.chk"
 IOpt=  2 FromEx=T IUOpen= 4 IOptOp= 5 NList=   0 IFRang= 0 IUIn= 4 IUOut= 2.
 ----------------------------------------------------------------------
 #p M062X/TZVP em=gd3 TD=NStates=6 SCRF=Solvent=Water Geom=Check Guess=
 Read
 ----------------------------------------------------------------------
 1/29=2,38=1,172=1/1;
 2/12=2,40=1/2;
 3/5=19,7=101,11=9,14=-4,25=1,30=1,70=2201,72=1,74=-55,116=-2,124=31/1,2,3,8;
 4/5=1/1;
 5/5=2,38=6,53=1/2;
 8/6=1,10=1,108=6/1;
 9/41=6,42=1,70=2/14;
 6/7=2,8=2,9=2,10=2/1;
 99/5=1,9=1/99;
 Leave Link    1 at Mon Mar  9 15:47:43 2026, MaxMem=  2147483648 cpu:               1.3 elap:               0.1
 (Enter /data/home/wyx/g16/l101.exe)
 -------------------
 Title Card Required
 -------------------
 Structure from the checkpoint file:  "DDL-S0-TD.chk"
 Charge =  0 Multiplicity = 1
 Redundant internal coordinates found in file.  (old form).
 O,0,1.3050219639,9.8473456318,1.1528070319
 O,0,-4.6923409795,9.7678976593,-0.7021515782
 N,0,-2.1563501074,12.9183177664,0.5139062475
 H,0,-2.4603325288,13.8779050154,0.4460675259
 C,0,-2.6944301893,10.6410373966,0.2371240778
 C,0,-0.802170023,12.6964836765,0.6749587575
 C,0,-3.0646207654,11.9429069037,0.1598246879
 C,0,-3.6134455236,9.5672381589,-0.1570432302
 C,0,-1.3468136189,10.2776737449,0.8243593131
 H,0,-1.4544799532,9.9462017652,1.86612169
 H,0,-0.9186428513,9.4255049293,0.2967116016
 C,0,-0.3542037499,11.4202398297,0.7519880052
 C,0,1.0520745188,11.0094247674,0.8560987761
 C,0,-4.3941197561,12.4757067887,-0.2822870593
 H,0,-4.4684934387,13.5398422843,-0.0602179452
 H,0,-4.5231292684,12.3292572185,-1.3546020827
 H,0,-5.2064709683,11.9444620438,0.2072894117
 C,0,-3.1779328826,8.1486330051,0.1328238056
 H,0,-4.0156902256,7.4776487625,-0.0388152123
 H,0,-2.35573869,7.870648952,-0.5310155217
 H,0,-2.8158543237,8.043673437,1.1564986443
 C,0,2.206818663,11.9418766241,0.5642756923
 H,0,1.9921811969,12.6443600061,-0.2372433399
 H,0,2.467111917,12.508237675,1.4607199634
 H,0,3.0641668957,11.3282895942,0.2958142543
 C,0,-0.0160804012,13.9751375625,0.7416928935
 H,0,0.836497633,13.9016414287,1.4065358025
 H,0,0.3355482593,14.2627217798,-0.2509147497
 H,0,-0.6572518325,14.7755200426,1.1106725371
 Recover connectivity data from disk.
 ITRead=  0  0  0  0  0  0  0  0  0  0  0  0  0  0  0  0  0  0  0  0
 ITRead=  0  0  0  0  0  0  0  0  0
 MicOpt= -1 -1 -1 -1 -1 -1 -1 -1 -1 -1 -1 -1 -1 -1 -1 -1 -1 -1 -1 -1
 MicOpt= -1 -1 -1 -1 -1 -1 -1 -1 -1
                           ----------------------------
                           !    Current Parameters    !
                           ! (Angstroms and Degrees)  !
 --------------------------                            --------------------------
 ! Name  Definition              Value                                          !
 --------------------------------------------------------------------------------
 ! R1    R(1,13)                 1.2257                                         !
 ! R2    R(2,8)                  1.2253                                         !
 ! R3    R(3,4)                  1.0089                                         !
 ! R4    R(3,6)                  1.3816                                         !
 ! R5    R(3,7)                  1.379                                          !
 ! R6    R(5,7)                  1.3557                                         !
 ! R7    R(5,8)                  1.4673                                         !
 ! R8    R(5,9)                  1.5142                                         !
 ! R9    R(6,12)                 1.3548                                         !
 ! R10   R(6,26)                 1.5024                                         !
 ! R11   R(7,14)                 1.499                                          !
 ! R12   R(8,18)                 1.512                                          !
 ! R13   R(9,10)                 1.0985                                         !
 ! R14   R(9,11)                 1.0899                                         !
 ! R15   R(9,12)                 1.5152                                         !
 ! R16   R(12,13)                1.4688                                         !
 ! R17   R(13,22)                1.5126                                         !
 ! R18   R(14,15)                1.0896                                         !
 ! R19   R(14,16)                1.0899                                         !
 ! R20   R(14,17)                1.0871                                         !
 ! R21   R(18,19)                1.087                                          !
 ! R22   R(18,20)                1.0927                                         !
 ! R23   R(18,21)                1.0909                                         !
 ! R24   R(22,23)                1.0872                                         !
 ! R25   R(22,24)                1.0918                                         !
 ! R26   R(22,25)                1.0879                                         !
 ! R27   R(26,27)                1.0837                                         !
 ! R28   R(26,28)                1.0916                                         !
 ! R29   R(26,29)                1.0899                                         !
 ! A1    A(4,3,6)              117.1211                                         !
 ! A2    A(4,3,7)              117.1966                                         !
 ! A3    A(6,3,7)              124.187                                          !
 ! A4    A(7,5,8)              121.0924                                         !
 ! A5    A(7,5,9)              119.7071                                         !
 ! A6    A(8,5,9)              119.0762                                         !
 ! A7    A(3,6,12)             118.8137                                         !
 ! A8    A(3,6,26)             112.4167                                         !
 ! A9    A(12,6,26)            128.7696                                         !
 ! A10   A(3,7,5)              118.9958                                         !
 ! A11   A(3,7,14)             114.1095                                         !
 ! A12   A(5,7,14)             126.8946                                         !
 ! A13   A(2,8,5)              123.4454                                         !
 ! A14   A(2,8,18)             119.5082                                         !
 ! A15   A(5,8,18)             117.0461                                         !
 ! A16   A(5,9,10)             110.6681                                         !
 ! A17   A(5,9,11)             110.4561                                         !
 ! A18   A(5,9,12)             112.5525                                         !
 ! A19   A(10,9,11)            105.17                                           !
 ! A20   A(10,9,12)            109.696                                          !
 ! A21   A(11,9,12)            108.0045                                         !
 ! A22   A(6,12,9)             119.7652                                         !
 ! A23   A(6,12,13)            125.7405                                         !
 ! A24   A(9,12,13)            114.3886                                         !
 ! A25   A(1,13,12)            118.6802                                         !
 ! A26   A(1,13,22)            118.2674                                         !
 ! A27   A(12,13,22)           123.0132                                         !
 ! A28   A(7,14,15)            110.3385                                         !
 ! A29   A(7,14,16)            110.3284                                         !
 ! A30   A(7,14,17)            110.87                                           !
 ! A31   A(15,14,16)           108.8844                                         !
 ! A32   A(15,14,17)           109.5399                                         !
 ! A33   A(16,14,17)           106.7955                                         !
 ! A34   A(8,18,19)            109.0805                                         !
 ! A35   A(8,18,20)            109.8132                                         !
 ! A36   A(8,18,21)            111.4553                                         !
 ! A37   A(19,18,20)           109.0842                                         !
 ! A38   A(19,18,21)           110.1572                                         !
 ! A39   A(20,18,21)           107.21                                           !
 ! A40   A(13,22,23)           112.9439                                         !
 ! A41   A(13,22,24)           110.0814                                         !
 ! A42   A(13,22,25)           107.5498                                         !
 ! A43   A(23,22,24)           108.4934                                         !
 ! A44   A(23,22,25)           109.7598                                         !
 ! A45   A(24,22,25)           107.8956                                         !
 ! A46   A(6,26,27)            112.4061                                         !
 ! A47   A(6,26,28)            110.6313                                         !
 ! A48   A(6,26,29)            109.4038                                         !
 ! A49   A(27,26,28)           108.8028                                         !
 ! A50   A(27,26,29)           107.7549                                         !
 ! A51   A(28,26,29)           107.6904                                         !
 ! D1    D(4,3,6,12)          -179.1304                                         !
 ! D2    D(4,3,6,26)             0.912                                          !
 ! D3    D(7,3,6,12)           -13.5066                                         !
 ! D4    D(7,3,6,26)           166.5359                                         !
 ! D5    D(4,3,7,5)            179.9971                                         !
 ! D6    D(4,3,7,14)             0.0419                                         !
 ! D7    D(6,3,7,5)             14.3832                                         !
 ! D8    D(6,3,7,14)          -165.5721                                         !
 ! D9    D(8,5,7,3)           -178.6022                                         !
 ! D10   D(8,5,7,14)             1.3467                                         !
 ! D11   D(9,5,7,3)              5.489                                          !
 ! D12   D(9,5,7,14)          -174.5621                                         !
 ! D13   D(7,5,8,2)              7.9441                                         !
 ! D14   D(7,5,8,18)          -172.2681                                         !
 ! D15   D(9,5,8,2)           -176.1217                                         !
 ! D16   D(9,5,8,18)             3.6661                                         !
 ! D17   D(7,5,9,10)           100.0749                                         !
 ! D18   D(7,5,9,11)          -143.871                                          !
 ! D19   D(7,5,9,12)           -23.0659                                         !
 ! D20   D(8,5,9,10)           -75.9166                                         !
 ! D21   D(8,5,9,11)            40.1375                                         !
 ! D22   D(8,5,9,12)           160.9425                                         !
 ! D23   D(3,6,12,9)            -7.1417                                         !
 ! D24   D(3,6,12,13)          176.8145                                         !
 ! D25   D(26,6,12,9)          172.808                                          !
 ! D26   D(26,6,12,13)          -3.2359                                         !
 ! D27   D(3,6,26,27)          145.9565                                         !
 ! D28   D(3,6,26,28)          -92.1897                                         !
 ! D29   D(3,6,26,29)           26.2911                                         !
 ! D30   D(12,6,26,27)         -33.9957                                         !
 ! D31   D(12,6,26,28)          87.858                                          !
 ! D32   D(12,6,26,29)        -153.6611                                         !
 ! D33   D(3,7,14,15)          -11.0029                                         !
 ! D34   D(3,7,14,16)          109.3572                                         !
 ! D35   D(3,7,14,17)         -132.5414                                         !
 ! D36   D(5,7,14,15)          169.0461                                         !
 ! D37   D(5,7,14,16)          -70.5939                                         !
 ! D38   D(5,7,14,17)           47.5075                                         !
 ! D39   D(2,8,18,19)          -10.4654                                         !
 ! D40   D(2,8,18,20)          109.0301                                         !
 ! D41   D(2,8,18,21)         -132.317                                          !
 ! D42   D(5,8,18,19)          169.738                                          !
 ! D43   D(5,8,18,20)          -70.7664                                         !
 ! D44   D(5,8,18,21)           47.8865                                         !
 ! D45   D(5,9,12,6)            23.9294                                         !
 ! D46   D(5,9,12,13)         -159.5958                                         !
 ! D47   D(10,9,12,6)          -99.7531                                         !
 ! D48   D(10,9,12,13)          76.7217                                         !
 ! D49   D(11,9,12,6)          146.1299                                         !
 ! D50   D(11,9,12,13)         -37.3952                                         !
 ! D51   D(6,12,13,1)          167.3406                                         !
 ! D52   D(6,12,13,22)         -14.977                                          !
 ! D53   D(9,12,13,1)           -8.889                                          !
 ! D54   D(9,12,13,22)         168.7935                                         !
 ! D55   D(1,13,22,23)         142.9318                                         !
 ! D56   D(1,13,22,24)         -95.6353                                         !
 ! D57   D(1,13,22,25)          21.672                                          !
 ! D58   D(12,13,22,23)        -34.7597                                         !
 ! D59   D(12,13,22,24)         86.6732                                         !
 ! D60   D(12,13,22,25)       -156.0195                                         !
 --------------------------------------------------------------------------------
 NAtoms=     29 NQM=       29 NQMF=       0 NMMI=      0 NMMIF=      0
                NMic=       0 NMicF=      0.
                    Isotopes and Nuclear Properties:
 (Nuclear quadrupole moments (NQMom) in fm**2, nuclear magnetic moments (NMagM)
  in nuclear magnetons)

  Atom         1           2           3           4           5           6           7           8           9          10
 IAtWgt=          16          16          14           1          12          12          12          12          12           1
 AtmWgt=  15.9949146  15.9949146  14.0030740   1.0078250  12.0000000  12.0000000  12.0000000  12.0000000  12.0000000   1.0078250
 NucSpn=           0           0           2           1           0           0           0           0           0           1
 AtZEff=   5.6000000   5.6000000   4.5500000   1.0000000   3.6000000   3.6000000   3.6000000   3.6000000   3.6000000   1.0000000
 NQMom=    0.0000000   0.0000000   2.0440000   0.0000000   0.0000000   0.0000000   0.0000000   0.0000000   0.0000000   0.0000000
 NMagM=    0.0000000   0.0000000   0.4037610   2.7928460   0.0000000   0.0000000   0.0000000   0.0000000   0.0000000   2.7928460
 AtZNuc=   8.0000000   8.0000000   7.0000000   1.0000000   6.0000000   6.0000000   6.0000000   6.0000000   6.0000000   1.0000000

  Atom        11          12          13          14          15          16          17          18          19          20
 IAtWgt=           1          12          12          12           1           1           1          12           1           1
 AtmWgt=   1.0078250  12.0000000  12.0000000  12.0000000   1.0078250   1.0078250   1.0078250  12.0000000   1.0078250   1.0078250
 NucSpn=           1           0           0           0           1           1           1           0           1           1
 AtZEff=   1.0000000   3.6000000   3.6000000   3.6000000   1.0000000   1.0000000   1.0000000   3.6000000   1.0000000   1.0000000
 NQMom=    0.0000000   0.0000000   0.0000000   0.0000000   0.0000000   0.0000000   0.0000000   0.0000000   0.0000000   0.0000000
 NMagM=    2.7928460   0.0000000   0.0000000   0.0000000   2.7928460   2.7928460   2.7928460   0.0000000   2.7928460   2.7928460
 AtZNuc=   1.0000000   6.0000000   6.0000000   6.0000000   1.0000000   1.0000000   1.0000000   6.0000000   1.0000000   1.0000000

  Atom        21          22          23          24          25          26          27          28          29
 IAtWgt=           1          12           1           1           1          12           1           1           1
 AtmWgt=   1.0078250  12.0000000   1.0078250   1.0078250   1.0078250  12.0000000   1.0078250   1.0078250   1.0078250
 NucSpn=           1           0           1           1           1           0           1           1           1
 AtZEff=   1.0000000   3.6000000   1.0000000   1.0000000   1.0000000   3.6000000   1.0000000   1.0000000   1.0000000
 NQMom=    0.0000000   0.0000000   0.0000000   0.0000000   0.0000000   0.0000000   0.0000000   0.0000000   0.0000000
 NMagM=    2.7928460   0.0000000   2.7928460   2.7928460   2.7928460   0.0000000   2.7928460   2.7928460   2.7928460
 AtZNuc=   1.0000000   6.0000000   1.0000000   1.0000000   1.0000000   6.0000000   1.0000000   1.0000000   1.0000000
 Leave Link  101 at Mon Mar  9 15:47:45 2026, MaxMem=  2147483648 cpu:               6.5 elap:               0.2
 (Enter /data/home/wyx/g16/l202.exe)
                          Input orientation:                          
 ---------------------------------------------------------------------
 Center     Atomic      Atomic             Coordinates (Angstroms)
 Number     Number       Type             X           Y           Z
 ---------------------------------------------------------------------
      1          8           0        1.305022    9.847346    1.152807
      2          8           0       -4.692341    9.767898   -0.702152
      3          7           0       -2.156350   12.918318    0.513906
      4          1           0       -2.460333   13.877905    0.446068
      5          6           0       -2.694430   10.641037    0.237124
      6          6           0       -0.802170   12.696484    0.674959
      7          6           0       -3.064621   11.942907    0.159825
      8          6           0       -3.613446    9.567238   -0.157043
      9          6           0       -1.346814   10.277674    0.824359
     10          1           0       -1.454480    9.946202    1.866122
     11          1           0       -0.918643    9.425505    0.296712
     12          6           0       -0.354204   11.420240    0.751988
     13          6           0        1.052075   11.009425    0.856099
     14          6           0       -4.394120   12.475707   -0.282287
     15          1           0       -4.468493   13.539842   -0.060218
     16          1           0       -4.523129   12.329257   -1.354602
     17          1           0       -5.206471   11.944462    0.207289
     18          6           0       -3.177933    8.148633    0.132824
     19          1           0       -4.015690    7.477649   -0.038815
     20          1           0       -2.355739    7.870649   -0.531016
     21          1           0       -2.815854    8.043673    1.156499
     22          6           0        2.206819   11.941877    0.564276
     23          1           0        1.992181   12.644360   -0.237243
     24          1           0        2.467112   12.508238    1.460720
     25          1           0        3.064167   11.328290    0.295814
     26          6           0       -0.016080   13.975138    0.741693
     27          1           0        0.836498   13.901641    1.406536
     28          1           0        0.335548   14.262722   -0.250915
     29          1           0       -0.657252   14.775520    1.110673
 ---------------------------------------------------------------------
                    Distance matrix (angstroms):
                    1          2          3          4          5
     1  O    0.000000
     2  O    6.278180   0.000000
     3  N    4.671205   4.223173   0.000000
     4  H    5.560826   4.815852   1.008868   0.000000
     5  C    4.179000   2.374081   2.356299   3.252041   0.000000
     6  C    3.575777   5.060284   1.381648   2.048817   2.827933
     7  C    4.946834   2.850113   1.379042   2.047271   1.355685
     8  C    5.097597   1.225326   3.715244   4.502806   1.467311
     9  C    2.706528   3.712501   2.779340   3.787439   1.514249
    10  H    2.851919   4.136613   3.339848   4.299603   2.161922
    11  H    2.419821   3.918642   3.711985   4.714126   2.152787
    12  C    2.321138   4.864585   2.355558   3.251074   2.519703
    13  C    1.225743   6.080119   3.748994   4.553384   3.815119
    14  C    6.438012   2.756348   2.416080   2.497237   2.554358
    15  H    6.959845   3.832721   2.462096   2.098409   3.411566
    16  H    6.812806   2.648563   3.072452   3.145767   2.954288
    17  H    6.905899   2.414300   3.216465   3.366971   2.830222
    18  C    4.901314   2.369100   4.892724   5.782528   2.541010
    19  H    5.945200   2.478530   5.776117   6.604357   3.439317
    20  H    4.488180   3.014722   5.158544   6.087098   2.894789
    21  H    4.498318   3.154161   4.960850   5.888070   2.757951
    22  C    2.355136   7.343598   4.471377   5.054155   5.081481
    23  H    3.198080   7.291983   4.224878   4.670485   5.118853
    24  H    2.919865   7.965252   4.737196   5.213944   5.623623
    25  H    2.454022   7.974595   5.461644   6.086313   5.799759
    26  C    4.353503   6.453911   2.397813   2.463984   4.306318
    27  H    4.089157   7.218203   3.274271   3.433970   4.946364
    28  H    4.733483   6.759196   2.932905   2.907029   4.747162
    29  H    5.304639   6.681658   2.460209   2.120970   4.691176
                    6          7          8          9         10
     6  C    0.000000
     7  C    2.439657   0.000000
     8  C    4.288085   2.458743   0.000000
     9  C    2.483868   2.483036   2.570115   0.000000
    10  H    3.067316   3.080720   2.982942   1.098515   0.000000
    11  H    3.294835   3.310781   2.736411   1.089924   1.738187
    12  C    1.354771   2.823154   3.857799   1.515246   2.150509
    13  C    2.513405   4.278243   4.987328   2.508213   2.904032
    14  C    3.723864   1.498968   3.014022   3.916898   4.433457
    15  H    3.833232   2.137634   4.064734   4.600990   5.070435
    16  H    4.254352   2.137756   3.144904   4.364155   5.046645
    17  H    4.492451   2.142377   2.884729   4.249225   4.563135
    18  C    5.159564   3.796062   1.511997   2.892064   3.034117
    19  H    6.170286   4.569740   2.131235   3.963346   4.035138
    20  H    5.211202   4.190830   2.144784   2.940874   3.296430
    21  H    5.092686   4.032278   2.163976   2.694282   2.444692
    22  C    3.104142   5.286933   6.327297   3.932622   4.368367
    23  H    2.939937   5.120639   6.395167   4.228131   4.856303
    24  H    3.367649   5.710691   6.945489   4.463899   4.701836
    25  H    4.118770   6.161030   6.920758   4.565074   4.979378
    26  C    1.502447   3.709735   5.760064   3.930512   4.423308
    27  H    2.161676   4.539786   6.405765   4.270705   4.594051
    28  H    2.145867   4.136592   6.136035   4.457260   5.130145
    29  H    2.129141   3.837087   6.121469   4.559396   4.952635
                   11         12         13         14         15
    11  H    0.000000
    12  C    2.122460   0.000000
    13  C    2.589487   1.468750   0.000000
    14  C    4.660248   4.301704   5.753863   0.000000
    15  H    5.445788   4.698912   6.141606   1.089601   0.000000
    16  H    4.914360   4.758569   6.141014   1.089931   1.773114
    17  H    4.973792   4.910805   6.361182   1.087116   1.778035
    18  C    2.600318   4.365801   5.157540   4.513867   5.546886
    19  H    3.674020   5.438371   6.241518   5.018274   6.079118
    20  H    2.273313   4.272217   4.836237   5.042164   6.068372
    21  H    2.499621   4.198161   4.883318   4.919751   5.866812
    22  C    4.021471   2.620339   1.512634   6.676379   6.892262
    23  H    4.372532   2.825344   2.179957   6.388686   6.524840
    24  H    4.724563   3.105779   2.148101   7.079239   7.174962
    25  H    4.413996   3.449900   2.112844   7.568144   7.858670
    26  C    4.659591   2.577195   3.154282   4.739626   4.544945
    27  H    4.934372   2.829056   2.952011   5.678448   5.515904
    28  H    5.027082   3.092131   3.510389   5.056102   4.861866
    29  H    5.417889   3.387978   4.143679   4.603657   4.174140
                   16         17         18         19         20
    16  H    0.000000
    17  H    1.747721   0.000000
    18  C    4.636767   4.304513   0.000000
    19  H    5.052415   4.629357   1.086976   0.000000
    20  H    5.025442   5.026701   1.092685   1.775429   0.000000
    21  H    5.252299   4.672494   1.090884   1.785711   1.757654
    22  C    7.008877   7.421880   6.600788   7.681970   6.212205
    23  H    6.617934   7.246245   6.861384   7.926462   6.463670
    24  H    7.538007   7.795691   7.255067   8.341592   6.980983
    25  H    7.828977   8.294031   7.007181   8.066213   6.481844
    26  C    5.236112   5.599052   6.657040   7.669644   6.660223
    27  H    6.230720   6.464226   7.129874   8.179269   7.093472
    28  H    5.344451   6.024803   7.062145   8.063218   6.941187
    29  H    5.196806   5.433819   7.157210   8.115378   7.297756
                   21         22         23         24         25
    21  H    0.000000
    22  C    6.385449   0.000000
    23  H    6.798973   1.087191   0.000000
    24  H    6.923483   1.091847   1.768380   0.000000
    25  H    6.790002   1.087937   1.779142   1.762316   0.000000
    26  C    6.572143   3.017765   2.600461   2.972379   4.085650
    27  H    6.907820   2.535322   2.370310   2.145557   3.580273
    28  H    7.112574   3.090714   2.315969   3.248303   4.044152
    29  H    7.069613   4.065831   3.657624   3.876177   5.137738
                   26         27         28         29
    26  C    0.000000
    27  H    1.083655   0.000000
    28  H    1.091612   1.768749   0.000000
    29  H    1.089889   1.755701   1.761401   0.000000
 Stoichiometry    C11H15NO2
 Framework group  C1[X(C11H15NO2)]
 Deg. of freedom    81
 Full point group                 C1      NOp   1
 RotChk:  IX=2 Diff= 1.13D-15
 Largest Abelian subgroup         C1      NOp   1
 Largest concise Abelian subgroup C1      NOp   1
                         Standard orientation:                         
 ---------------------------------------------------------------------
 Center     Atomic      Atomic             Coordinates (Angstroms)
 Number     Number       Type             X           Y           Z
 ---------------------------------------------------------------------
      1          8           0        2.302426   -2.274012    0.193482
      2          8           0       -3.601486   -0.238282   -0.450858
      3          7           0        0.026839    1.804997    0.253029
      4          1           0        0.057833    2.813380    0.248550
      5          6           0       -1.289792   -0.141555    0.081097
      6          6           0        1.231630    1.137328    0.145101
      7          6           0       -1.206060    1.211542    0.081202
      8          6           0       -2.573196   -0.821316   -0.128190
      9          6           0       -0.060642   -0.969487    0.392011
     10          1           0       -0.080790   -1.317300    1.433814
     11          1           0       -0.049999   -1.877004   -0.211506
     12          6           0        1.228303   -0.217351    0.129562
     13          6           0        2.406916   -1.076222   -0.044902
     14          6           0       -2.334628    2.183013   -0.090509
     15          1           0       -2.003149    3.193992    0.144593
     16          1           0       -2.699986    2.161350   -1.117152
     17          1           0       -3.174136    1.918063    0.547337
     18          6           0       -2.597037   -2.320465    0.067054
     19          1           0       -3.628544   -2.663208    0.061112
     20          1           0       -2.053719   -2.808502   -0.745710
     21          1           0       -2.110347   -2.609180    0.999687
     22          6           0        3.734305   -0.560427   -0.554858
     23          1           0        3.626300    0.226713   -1.296970
     24          1           0        4.330399   -0.174884    0.274696
     25          1           0        4.269299   -1.403080   -0.987666
     26          6           0        2.401410    2.076315    0.059873
     27          1           0        3.285689    1.679607    0.544621
     28          1           0        2.640979    2.298771   -0.981635
     29          1           0        2.147520    3.016407    0.549388
 ---------------------------------------------------------------------
 Rotational constants (GHZ):           1.0809802           0.4879101           0.3457976
 Leave Link  202 at Mon Mar  9 15:47:45 2026, MaxMem=  2147483648 cpu:               0.1 elap:               0.0
 (Enter /data/home/wyx/g16/l301.exe)
 Standard basis: TZVP (5D, 7F)
 Ernie: Thresh=  0.10000D-02 Tol=  0.10000D-05 Strict=F.
 There are   370 symmetry adapted cartesian basis functions of A   symmetry.
 There are   356 symmetry adapted basis functions of A   symmetry.
   356 basis functions,   610 primitive gaussians,   370 cartesian basis functions
    52 alpha electrons       52 beta electrons
       nuclear repulsion energy       899.5331745986 Hartrees.
 IExCor= 4336 DFT=T Ex+Corr=M062X ExCW=0 ScaHFX=  0.540000
 ScaDFX=  1.000000  1.000000  1.000000  1.000000 ScalE2=  1.000000  1.000000
 IRadAn=      5 IRanWt=     -1 IRanGd=            0 ICorTp=0 IEmpDi=131
 NAtoms=   29 NActive=   29 NUniq=   29 SFac= 1.00D+00 NAtFMM=   60 NAOKFM=F Big=F
 Integral buffers will be    131072 words long.
 Regular integral format.
 Two-electron integral symmetry is turned on.
 R6Disp:  Grimme-D3 Dispersion energy=       -0.0014613257 Hartrees.
 Nuclear repulsion after empirical dispersion term =      899.5317132730 Hartrees.
 ------------------------------------------------------------------------------
 Polarizable Continuum Model (PCM)
 =================================
 Model                : PCM.
 Atomic radii         : UFF (Universal Force Field).
 Polarization charges : Total charges.
 Charge compensation  : None.
 Solution method      : On-the-fly selection.
 Cavity type          : Scaled VdW (van der Waals Surface) (Alpha=1.100).
 Cavity algorithm     : GePol (No added spheres)
                        Default sphere list used, NSphG=   29.
                        Lebedev-Laikov grids with approx.  5.0 points / Ang**2.
                        Smoothing algorithm: York/Karplus (Gamma=1.0000).
                        Polarization charges: spherical gaussians, with
                                              point-specific exponents (IZeta= 3).
                        Self-potential: point-specific (ISelfS= 7).
                        Self-field    : sphere-specific E.n sum rule (ISelfD= 2).
 Solvent              : Water, Eps=  78.355300 Eps(inf)=   1.777849
 ------------------------------------------------------------------------------
 GePol: Number of generator spheres                  =      29
 GePol: Total number of spheres                      =      29
 GePol: Number of exposed spheres                    =      29 (100.00%)
 GePol: Number of points                             =    2099
 GePol: Average weight of points                     =       0.13
 GePol: Minimum weight of points                     =   0.42D-10
 GePol: Maximum weight of points                     =    0.20577
 GePol: Number of points with low weight             =     162
 GePol: Fraction of low-weight points (<1% of avg)   =       7.72%
 GePol: Cavity surface area                          =    268.888 Ang**2
 GePol: Cavity volume                                =    287.195 Ang**3
 Leave Link  301 at Mon Mar  9 15:47:45 2026, MaxMem=  2147483648 cpu:               1.1 elap:               0.0
 (Enter /data/home/wyx/g16/l302.exe)
 NPDir=0 NMtPBC=     1 NCelOv=     1 NCel=       1 NClECP=     1 NCelD=      1
         NCelK=      1 NCelE2=     1 NClLst=     1 CellRange=     0.0.
 One-electron integrals computed using PRISM.
 One-electron integral symmetry used in STVInt
 NBasis=   356 RedAO= T EigKep=  4.80D-05  NBF=   356
 NBsUse=   356 1.00D-06 EigRej= -1.00D+00 NBFU=   356
 Precomputing XC quadrature grid using
 IXCGrd= 4 IRadAn=           5 IRanWt=          -1 IRanGd=           0 AccXCQ= 0.00D+00.
 Generated NRdTot=       0 NPtTot=           0 NUsed=           0 NTot=          32
 NSgBfM=   366   366   366   366   366 MxSgAt=    29 MxSgA2=    29.
 Leave Link  302 at Mon Mar  9 15:47:46 2026, MaxMem=  2147483648 cpu:               6.4 elap:               0.2
 (Enter /data/home/wyx/g16/l303.exe)
 DipDrv:  MaxL=1.
 Leave Link  303 at Mon Mar  9 15:47:46 2026, MaxMem=  2147483648 cpu:               1.1 elap:               0.0
 (Enter /data/home/wyx/g16/l308.exe)
 Leave Link  308 at Mon Mar  9 15:47:46 2026, MaxMem=  2147483648 cpu:               1.4 elap:               0.1
 (Enter /data/home/wyx/g16/l401.exe)
 Initial guess from the checkpoint file:  "DDL-S0-TD.chk"
 B after Tr=     0.000000   -0.000000   -0.000000
         Rot=    1.000000   -0.000000    0.000000   -0.000000 Ang=   0.00 deg.
 Guess basis will be translated and rotated to current coordinates.
 JPrj=2 DoOrth=T DoCkMO=T.
 Leave Link  401 at Mon Mar  9 15:47:46 2026, MaxMem=  2147483648 cpu:               4.5 elap:               0.2
 (Enter /data/home/wyx/g16/l502.exe)
 Integral symmetry usage will be decided dynamically.
 Closed shell SCF:
 Using DIIS extrapolation, IDIIS=  1040.
 NGot=  2147483648 LenX=  2147194175 LenY=  2147056834
 Requested convergence on RMS density matrix=1.00D-08 within 128 cycles.
 Requested convergence on MAX density matrix=1.00D-06.
 Requested convergence on             energy=1.00D-06.
 No special actions if energy rises.
 Fock matrices will be formed incrementally for  20 cycles.

 Cycle   1  Pass 1  IDiag  1:
 FoFJK:  IHMeth= 1 ICntrl=       0 DoSepK=F KAlg= 0 I1Cent=           0 FoldK=F
 IRaf= 870000000 NMat=       1 IRICut=       1 DoRegI=T DoRafI=F ISym2E= 0 IDoP0=0 IntGTp=1.
 FoFCou: FMM=F IPFlag=           0 FMFlag=      100000 FMFlg1=           0
         NFxFlg=           0 DoJE=F BraDBF=F KetDBF=F FulRan=T
         wScrn=  0.000000 ICntrl=         0 IOpCl=  0 I1Cent=           0 NGrid=           0
         NMat0=    1 NMatS0=      1 NMatT0=    0 NMatD0=    1 NMtDS0=    0 NMtDT0=    0
 Symmetry not used in FoFCou.
 Inv3:  Mode=1 IEnd=    13217403.
 Iteration    1 A*A^-1 deviation from unit magnitude is 3.22D-15 for   1625.
 Iteration    1 A*A^-1 deviation from orthogonality  is 1.63D-15 for   1647   1309.
 Iteration    1 A^-1*A deviation from unit magnitude is 3.00D-15 for   1625.
 Iteration    1 A^-1*A deviation from orthogonality  is 2.47D-15 for   1682   1515.
 E= -633.354094503905    
 DIIS: error= 1.61D-08 at cycle   1 NSaved=   1.
 NSaved= 1 IEnMin= 1 EnMin= -633.354094503905     IErMin= 1 ErrMin= 1.61D-08
 ErrMax= 1.61D-08  0.00D+00 EMaxC= 1.00D-01 BMatC= 1.24D-13 BMatP= 1.24D-13
 IDIUse=1 WtCom= 1.00D+00 WtEn= 0.00D+00
 Coeff-Com:  0.100D+01
 Coeff:      0.100D+01
 Gap=     0.225 Goal=   None    Shift=    0.000
 RMSDP=3.19D-09 MaxDP=1.70D-07              OVMax= 2.16D-07

 Error on total polarization charges =  0.01447
 SCF Done:  E(RM062X) =  -633.354094504     A.U. after    1 cycles
            NFock=  1  Conv=0.32D-08     -V/T= 2.0047
 KE= 6.303608244303D+02 PE=-3.274293515654D+03 EE= 1.111046883447D+03
 Leave Link  502 at Mon Mar  9 15:47:50 2026, MaxMem=  2147483648 cpu:             106.1 elap:               3.7
 (Enter /data/home/wyx/g16/l801.exe)
 DoSCS=F DFT=T ScalE2(SS,OS)=  1.000000  1.000000
 ExpMin= 9.52D-02 ExpMax= 2.70D+04 ExpMxC= 9.22D+02 IAcc=3 IRadAn=         5 AccDes= 0.00D+00
 HarFok:  IExCor=  205 AccDes= 0.00D+00 IRadAn=         5 IDoV=-2 UseB2=F ITyADJ=14
 ICtDFT= 12500011 ScaDFX=  1.000000  1.000000  1.000000  1.000000
 Largest valence mixing into a core orbital is  1.03D-04
 Largest core mixing into a valence orbital is  2.96D-05
 Range of M.O.s used for correlation:    15   356
 NBasis=   356 NAE=    52 NBE=    52 NFC=    14 NFV=     0
 NROrb=    342 NOA=    38 NOB=    38 NVA=   304 NVB=   304

 **** Warning!!: The largest alpha MO coefficient is  0.50287849D+02

 Leave Link  801 at Mon Mar  9 15:47:51 2026, MaxMem=  2147483648 cpu:               2.3 elap:               0.1
 (Enter /data/home/wyx/g16/l914.exe)
 RHF ground state
 Two-electron integrals replicated using symmetry.
 MDV=  2147483648 DFT=T DoStab=F Mixed=T DoRPA=T DoScal=F NonHer=T
 NEqPCM:  Using non-equilibrium solvation (IEInf=1, Eps=  78.3553, EpsInf=   1.7778)
 Inv3:  Mode=1 IEnd=    13217403.
 Iteration    1 A*A^-1 deviation from unit magnitude is 4.00D-15 for    361.
 Iteration    1 A*A^-1 deviation from orthogonality  is 2.26D-15 for   1784    238.
 Iteration    1 A^-1*A deviation from unit magnitude is 3.55D-15 for   1274.
 Iteration    1 A^-1*A deviation from orthogonality  is 1.53D-15 for   1332    436.
 Making orbital integer symmetry assigments:
 Orbital symmetries:
       Occupied  (A) (A) (A) (A) (A) (A) (A) (A) (A) (A) (A) (A)
                 (A) (A) (A) (A) (A) (A) (A) (A) (A) (A) (A) (A)
                 (A) (A) (A) (A) (A) (A) (A) (A) (A) (A) (A) (A)
                 (A) (A) (A) (A) (A) (A) (A) (A) (A) (A) (A) (A)
                 (A) (A) (A) (A)
       Virtual   (A) (A) (A) (A) (A) (A) (A) (A) (A) (A) (A) (A)
                 (A) (A) (A) (A) (A) (A) (A) (A) (A) (A) (A) (A)
                 (A) (A) (A) (A) (A) (A) (A) (A) (A) (A) (A) (A)
                 (A) (A) (A) (A) (A) (A) (A) (A) (A) (A) (A) (A)
                 (A) (A) (A) (A) (A) (A) (A) (A) (A) (A) (A) (A)
                 (A) (A) (A) (A) (A) (A) (A) (A) (A) (A) (A) (A)
                 (A) (A) (A) (A) (A) (A) (A) (A) (A) (A) (A) (A)
                 (A) (A) (A) (A) (A) (A) (A) (A) (A) (A) (A) (A)
                 (A) (A) (A) (A) (A) (A) (A) (A) (A) (A) (A) (A)
                 (A) (A) (A) (A) (A) (A) (A) (A) (A) (A) (A) (A)
                 (A) (A) (A) (A) (A) (A) (A) (A) (A) (A) (A) (A)
                 (A) (A) (A) (A) (A) (A) (A) (A) (A) (A) (A) (A)
                 (A) (A) (A) (A) (A) (A) (A) (A) (A) (A) (A) (A)
                 (A) (A) (A) (A) (A) (A) (A) (A) (A) (A) (A) (A)
                 (A) (A) (A) (A) (A) (A) (A) (A) (A) (A) (A) (A)
                 (A) (A) (A) (A) (A) (A) (A) (A) (A) (A) (A) (A)
                 (A) (A) (A) (A) (A) (A) (A) (A) (A) (A) (A) (A)
                 (A) (A) (A) (A) (A) (A) (A) (A) (A) (A) (A) (A)
                 (A) (A) (A) (A) (A) (A) (A) (A) (A) (A) (A) (A)
                 (A) (A) (A) (A) (A) (A) (A) (A) (A) (A) (A) (A)
                 (A) (A) (A) (A) (A) (A) (A) (A) (A) (A) (A) (A)
                 (A) (A) (A) (A) (A) (A) (A) (A) (A) (A) (A) (A)
                 (A) (A) (A) (A) (A) (A) (A) (A) (A) (A) (A) (A)
                 (A) (A) (A) (A) (A) (A) (A) (A) (A) (A) (A) (A)
                 (A) (A) (A) (A) (A) (A) (A) (A) (A) (A) (A) (A)
                 (A) (A) (A) (A)
    24 initial guesses have been made.
 Convergence on wavefunction:    0.001000000000000
 Davidson Disk Diagonalization:  ConvIn= 1.00D-03 SkipCon=T Conv= 1.00D-03.
 Max sub-space:  2000 roots to seek:    24 dimension of matrix:        23104
 Iteration     1 Dimension    24 NMult     0 NNew     24
 CISAX will form    24 AO SS matrices at one time.
 NMat=    24 NSing=    24 JSym2X= 0.
 FoFJK:  IHMeth= 1 ICntrl=       0 DoSepK=F KAlg= 0 I1Cent=           0 FoldK=F
 IRaf= 870000000 NMat=      48 IRICut=      60 DoRegI=T DoRafI=T ISym2E= 0 IDoP0=3 IntGTp=3.
 New state      2 was old state      3
 New state      3 was old state      5
 New state      4 was old state      2
 New state      5 was old state      6
 New state      6 was old state      4
 Excitation Energies [eV] at current iteration:
 Root      1 :     3.981731869445663
 Root      2 :     4.435725443176454
 Root      3 :     4.624479076061918
 Root      4 :     5.589150150546991
 Root      5 :     6.248969560736954
 Root      6 :     6.471692317077750
 Root      7 :     6.915480900089430
 Root      8 :     7.006211623825839
 Root      9 :     7.202474640324797
 Root     10 :     7.224202744437306
 Root     11 :     7.358604256828701
 Root     12 :     7.510176006716164
 Root     13 :     7.626316415160955
 Root     14 :     7.689549893258194
 Root     15 :     8.080941823709978
 Root     16 :     8.139317697128476
 Root     17 :     8.330322086891629
 Root     18 :     8.379392698500636
 Root     19 :     8.460916489200580
 Root     20 :     8.527278803172889
 Root     21 :     8.662389873562294
 Root     22 :     8.757870569290150
 Root     23 :     9.040694809372649
 Root     24 :     9.093882931530647
 Iteration     2 Dimension    36 NMult    24 NNew     12
 CISAX will form    12 AO SS matrices at one time.
 NMat=    12 NSing=    12 JSym2X= 0.
 Root      1 not converged, maximum delta is    0.039907049524927
 Root      2 not converged, maximum delta is    0.076384620001098
 Root      3 not converged, maximum delta is    0.118610858079037
 Root      4 not converged, maximum delta is    0.246507657867895
 New state      5 was old state      6
 Root      5 not converged, maximum delta is    0.268327947094353
 New state      6 was old state      5
 Root      6 not converged, maximum delta is    0.129621966238650
 Excitation Energies [eV] at current iteration:
 Root      1 :     3.541943876084575   Change is   -0.439787993361089
 Root      2 :     4.008382273580118   Change is   -0.427343169596337
 Root      3 :     4.138603187009049   Change is   -0.485875889052869
 Root      4 :     5.218160009729455   Change is   -0.370990140817536
 Root      5 :     5.722513367551811   Change is   -0.749178949525938
 Root      6 :     6.133801727241075   Change is   -0.115167833495877
 Iteration     3 Dimension    48 NMult    36 NNew     12
 CISAX will form    12 AO SS matrices at one time.
 NMat=    12 NSing=    12 JSym2X= 0.
 Root      1 not converged, maximum delta is    0.008229932299828
 Root      2 not converged, maximum delta is    0.010459630099490
 Root      3 not converged, maximum delta is    0.015648943572004
 Root      4 not converged, maximum delta is    0.018303560508574
 Root      5 not converged, maximum delta is    0.021071835794992
 Root      6 not converged, maximum delta is    0.008131132320666
 Excitation Energies [eV] at current iteration:
 Root      1 :     3.522434279673109   Change is   -0.019509596411466
 Root      2 :     3.982946092396058   Change is   -0.025436181184059
 Root      3 :     4.112499926905242   Change is   -0.026103260103807
 Root      4 :     5.191935618476368   Change is   -0.026224391253087
 Root      5 :     5.695373616019052   Change is   -0.027139751532760
 Root      6 :     6.127629815474937   Change is   -0.006171911766139
 Iteration     4 Dimension    60 NMult    48 NNew     12
 CISAX will form    12 AO SS matrices at one time.
 NMat=    12 NSing=    12 JSym2X= 0.
 Root      1 not converged, maximum delta is    0.002278357039886
 Root      2 not converged, maximum delta is    0.003094196636830
 Root      3 not converged, maximum delta is    0.002557091131555
 Root      4 not converged, maximum delta is    0.002503979768812
 Root      5 not converged, maximum delta is    0.002894428032761
 Root      6 not converged, maximum delta is    0.002256580527264
 Excitation Energies [eV] at current iteration:
 Root      1 :     3.520557666357150   Change is   -0.001876613315960
 Root      2 :     3.980857092395274   Change is   -0.002089000000784
 Root      3 :     4.110903304929491   Change is   -0.001596621975751
 Root      4 :     5.189333904991804   Change is   -0.002601713484564
 Root      5 :     5.692152617782383   Change is   -0.003220998236670
 Root      6 :     6.127094278225458   Change is   -0.000535537249479
 Iteration     5 Dimension    72 NMult    60 NNew     12
 CISAX will form    12 AO SS matrices at one time.
 NMat=    12 NSing=    12 JSym2X= 0.
 Root      1 has converged.
 Root      2 has converged.
 Root      3 has converged.
 Root      4 has converged.
 Root      5 has converged.
 Root      6 has converged.
 Excitation Energies [eV] at current iteration:
 Root      1 :     3.520450252478224   Change is   -0.000107413878925
 Root      2 :     3.980693997872380   Change is   -0.000163094522895
 Root      3 :     4.110777650056429   Change is   -0.000125654873062
 Root      4 :     5.189111340734246   Change is   -0.000222564257558
 Root      5 :     5.691854134232528   Change is   -0.000298483549855
 Root      6 :     6.127042619259267   Change is   -0.000051658966191
 Convergence achieved on expansion vectors.
 ***********************************************************************
 Excited states from <AA,BB:AA,BB> singles matrix:
 ***********************************************************************
 
 1PDM for each excited state written to RWF  633
 Ground to excited state transition densities written to RWF  633
 Ground to excited state transition electric dipole moments (Au):
       state          X           Y           Z        Dip. S.      Osc.
         1        -1.4637      0.1498     -0.0407      2.1666      0.1869
         2         0.1749      0.0123      0.0469      0.0329      0.0032
         3         0.0263     -0.0982     -0.0325      0.0114      0.0011
         4         0.1532      1.3676      0.1225      1.9089      0.2427
         5         0.0743      1.3626      0.0415      1.8640      0.2599
         6        -0.0264     -0.2230      0.0244      0.0510      0.0077
 Ground to excited state transition velocity dipole moments (Au):
       state          X           Y           Z        Dip. S.      Osc.
         1         0.1870     -0.0149      0.0064      0.0352      0.1816
         2        -0.0251     -0.0021     -0.0038      0.0007      0.0030
         3        -0.0042      0.0140      0.0016      0.0002      0.0010
         4        -0.0325     -0.2570     -0.0183      0.0675      0.2358
         5        -0.0162     -0.2897     -0.0090      0.0843      0.2686
         6         0.0064      0.0479     -0.0256      0.0030      0.0088
 Ground to excited state transition magnetic dipole moments (Au):
       state          X           Y           Z
         1         0.1196     -0.0329     -1.4745
         2         0.8631     -0.1176      0.4000
         3         0.2128     -1.0940      0.2218
         4         0.0629     -0.0978     -0.0654
         5         0.2122     -0.1197     -0.2750
         6        -0.0250     -0.0119     -0.0177
 Ground to excited state transition velocity quadrupole moments (Au):
       state          XX          YY          ZZ          XY          XZ          YZ
         1        -0.1586      0.0934      0.0001     -0.5289     -0.0618     -0.0084
         2        -0.0025      0.0044      0.0000      0.0676      0.0201      0.0848
         3         0.0047      0.0050     -0.0291      0.0498      0.0675      0.0078
         4         1.1757     -0.2576      0.0063     -0.0730      0.0864     -0.0512
         5         0.6565     -0.2770     -0.0517     -0.1888      0.0812      0.0325
         6         0.1849      0.2326     -0.1947     -0.0120      0.0326      0.0462
 <0|del|b> * <b|rxdel|0> + <0|del|b> * <b|delr+rdel|0>
 Rotatory Strengths (R) in cgs (10**-40 erg-esu-cm/Gauss)
       state          XX          YY          ZZ    R(velocity)    E-M Angle
         1       -35.9703     40.3977     69.2802     24.5692       87.22
         2        -3.6277    -60.6810    -46.7883    -37.0323      159.96
         3       -37.0095     -1.5283    -35.6613    -24.7330      161.43
         4        92.5040     -0.9642     -1.4395     30.0334       45.51
         5       105.4952     -5.3663     13.9499     38.0263       71.56
         6        -2.1552      0.4433      0.8350     -0.2923       98.95
 1/2[<0|r|b>*<b|rxdel|0> + (<0|rxdel|b>*<b|r|0>)*]
 Rotatory Strengths (R) in cgs (10**-40 erg-esu-cm/Gauss)
       state          XX          YY          ZZ     R(length)
         1       123.7545      3.4911    -42.4212     28.2748
         2      -106.7505      1.0190    -13.2630    -39.6648
         3        -3.9615    -75.9391      5.0957    -24.9350
         4        -6.8208     94.6339      5.6703     31.1611
         5       -11.1463    115.3747      8.0685     37.4323
         6        -0.4652     -1.8824      0.3053     -0.6808
  1/2[<0|del|b>*<b|r|0> + (<0|r|b>*<b|del|0>)*] (Au)
       state          X           Y           Z        Dip. S.   Osc.(frdel)
         1        -0.2738     -0.0022     -0.0003      0.2763      0.1842
         2        -0.0044     -0.0000     -0.0002      0.0046      0.0031
         3        -0.0001     -0.0014     -0.0001      0.0015      0.0010
         4        -0.0050     -0.3515     -0.0022      0.3587      0.2392
         5        -0.0012     -0.3948     -0.0004      0.3963      0.2642
         6        -0.0002     -0.0107     -0.0006      0.0115      0.0076

 Excitation energies and oscillator strengths:
 
 Excited State   1:      Singlet-A      3.5205 eV  352.18 nm  f=0.1869  <S**2>=0.000
      52 -> 53         0.69781
 This state for optimization and/or second-order correction.
 Total Energy, E(TD-HF/TD-DFT) =  -633.224720338    
 Copying the excited state density for this state as the 1-particle RhoCI density.
 
 Excited State   2:      Singlet-A      3.9807 eV  311.46 nm  f=0.0032  <S**2>=0.000
      49 -> 54        -0.19054
      50 -> 53        -0.30059
      50 -> 54         0.22329
      51 -> 53         0.46158
      51 -> 54        -0.25703
 
 Excited State   3:      Singlet-A      4.1108 eV  301.61 nm  f=0.0011  <S**2>=0.000
      49 -> 53         0.52973
      49 -> 54         0.30908
      49 -> 58        -0.14673
      51 -> 53        -0.11461
      51 -> 54        -0.23051
 
 Excited State   4:      Singlet-A      5.1891 eV  238.93 nm  f=0.2427  <S**2>=0.000
      52 -> 54         0.69876
 
 Excited State   5:      Singlet-A      5.6919 eV  217.83 nm  f=0.2599  <S**2>=0.000
      49 -> 53         0.16323
      50 -> 53         0.53297
      51 -> 53         0.40317
 
 Excited State   6:      Singlet-A      6.1270 eV  202.36 nm  f=0.0077  <S**2>=0.000
      52 -> 55         0.67421
      52 -> 63         0.10244
 SavETr:  write IOETrn=   770 NScale= 10 NData=  16 NLR=1 NState=    6 LETran=     118.
 Leave Link  914 at Mon Mar  9 15:50:49 2026, MaxMem=  2147483648 cpu:            5654.0 elap:             177.6
 (Enter /data/home/wyx/g16/l601.exe)
 Copying SCF densities to generalized density rwf, IOpCl= 0 IROHF=0.

 **********************************************************************

            Population analysis using the SCF density.

 **********************************************************************

 Orbital symmetries:
       Occupied  (A) (A) (A) (A) (A) (A) (A) (A) (A) (A) (A) (A)
                 (A) (A) (A) (A) (A) (A) (A) (A) (A) (A) (A) (A)
                 (A) (A) (A) (A) (A) (A) (A) (A) (A) (A) (A) (A)
                 (A) (A) (A) (A) (A) (A) (A) (A) (A) (A) (A) (A)
                 (A) (A) (A) (A)
       Virtual   (A) (A) (A) (A) (A) (A) (A) (A) (A) (A) (A) (A)
                 (A) (A) (A) (A) (A) (A) (A) (A) (A) (A) (A) (A)
                 (A) (A) (A) (A) (A) (A) (A) (A) (A) (A) (A) (A)
                 (A) (A) (A) (A) (A) (A) (A) (A) (A) (A) (A) (A)
                 (A) (A) (A) (A) (A) (A) (A) (A) (A) (A) (A) (A)
                 (A) (A) (A) (A) (A) (A) (A) (A) (A) (A) (A) (A)
                 (A) (A) (A) (A) (A) (A) (A) (A) (A) (A) (A) (A)
                 (A) (A) (A) (A) (A) (A) (A) (A) (A) (A) (A) (A)
                 (A) (A) (A) (A) (A) (A) (A) (A) (A) (A) (A) (A)
                 (A) (A) (A) (A) (A) (A) (A) (A) (A) (A) (A) (A)
                 (A) (A) (A) (A) (A) (A) (A) (A) (A) (A) (A) (A)
                 (A) (A) (A) (A) (A) (A) (A) (A) (A) (A) (A) (A)
                 (A) (A) (A) (A) (A) (A) (A) (A) (A) (A) (A) (A)
                 (A) (A) (A) (A) (A) (A) (A) (A) (A) (A) (A) (A)
                 (A) (A) (A) (A) (A) (A) (A) (A) (A) (A) (A) (A)
                 (A) (A) (A) (A) (A) (A) (A) (A) (A) (A) (A) (A)
                 (A) (A) (A) (A) (A) (A) (A) (A) (A) (A) (A) (A)
                 (A) (A) (A) (A) (A) (A) (A) (A) (A) (A) (A) (A)
                 (A) (A) (A) (A) (A) (A) (A) (A) (A) (A) (A) (A)
                 (A) (A) (A) (A) (A) (A) (A) (A) (A) (A) (A) (A)
                 (A) (A) (A) (A) (A) (A) (A) (A) (A) (A) (A) (A)
                 (A) (A) (A) (A) (A) (A) (A) (A) (A) (A) (A) (A)
                 (A) (A) (A) (A) (A) (A) (A) (A) (A) (A) (A) (A)
                 (A) (A) (A) (A) (A) (A) (A) (A) (A) (A) (A) (A)
                 (A) (A) (A) (A) (A) (A) (A) (A) (A) (A) (A) (A)
                 (A) (A) (A) (A)
 The electronic state is 1-A.
 Alpha  occ. eigenvalues --  -19.61293 -19.60856 -14.80101 -10.63077 -10.62776
 Alpha  occ. eigenvalues --  -10.61399 -10.60938 -10.54903 -10.54611 -10.54501
 Alpha  occ. eigenvalues --  -10.54117 -10.54062 -10.53519 -10.53189  -1.16549
 Alpha  occ. eigenvalues --   -1.16111  -1.09910  -0.92782  -0.91924  -0.85216
 Alpha  occ. eigenvalues --   -0.83779  -0.82807  -0.79517  -0.74927  -0.71678
 Alpha  occ. eigenvalues --   -0.69351  -0.62040  -0.58727  -0.57269  -0.55376
 Alpha  occ. eigenvalues --   -0.54487  -0.54355  -0.52779  -0.51988  -0.50786
 Alpha  occ. eigenvalues --   -0.50708  -0.49811  -0.48999  -0.48427  -0.48168
 Alpha  occ. eigenvalues --   -0.46512  -0.45351  -0.44860  -0.43358  -0.42826
 Alpha  occ. eigenvalues --   -0.42621  -0.42497  -0.41662  -0.33431  -0.32696
 Alpha  occ. eigenvalues --   -0.31921  -0.25841
 Alpha virt. eigenvalues --   -0.03324   0.01514   0.05729   0.07536   0.08125
 Alpha virt. eigenvalues --    0.09213   0.10010   0.11190   0.11968   0.12836
 Alpha virt. eigenvalues --    0.13171   0.14269   0.14901   0.15164   0.16144
 Alpha virt. eigenvalues --    0.16600   0.16680   0.17091   0.17314   0.18270
 Alpha virt. eigenvalues --    0.18985   0.20795   0.21694   0.22109   0.22428
 Alpha virt. eigenvalues --    0.23161   0.23945   0.24472   0.24757   0.25146
 Alpha virt. eigenvalues --    0.25701   0.25894   0.27487   0.28049   0.28876
 Alpha virt. eigenvalues --    0.30269   0.30588   0.31234   0.32053   0.33113
 Alpha virt. eigenvalues --    0.34033   0.34464   0.35443   0.36602   0.37224
 Alpha virt. eigenvalues --    0.38447   0.39174   0.40103   0.40462   0.41085
 Alpha virt. eigenvalues --    0.42386   0.42653   0.43854   0.44536   0.44657
 Alpha virt. eigenvalues --    0.45808   0.46222   0.46521   0.46753   0.47664
 Alpha virt. eigenvalues --    0.47892   0.48934   0.49204   0.49977   0.50357
 Alpha virt. eigenvalues --    0.51126   0.51695   0.52031   0.52760   0.53111
 Alpha virt. eigenvalues --    0.53383   0.54445   0.54677   0.55063   0.56339
 Alpha virt. eigenvalues --    0.56866   0.58099   0.58662   0.59669   0.60788
 Alpha virt. eigenvalues --    0.61964   0.63823   0.64161   0.64736   0.66226
 Alpha virt. eigenvalues --    0.66820   0.68372   0.69018   0.70270   0.71126
 Alpha virt. eigenvalues --    0.71472   0.71778   0.73085   0.74228   0.75701
 Alpha virt. eigenvalues --    0.76197   0.78238   0.79868   0.82064   0.82310
 Alpha virt. eigenvalues --    0.87177   0.90980   0.97514   0.99402   1.23364
 Alpha virt. eigenvalues --    1.24715   1.25994   1.26460   1.28363   1.30309
 Alpha virt. eigenvalues --    1.30977   1.31748   1.32896   1.33702   1.35211
 Alpha virt. eigenvalues --    1.35372   1.36045   1.37010   1.38002   1.38383
 Alpha virt. eigenvalues --    1.38978   1.39316   1.40140   1.40514   1.40697
 Alpha virt. eigenvalues --    1.41728   1.42761   1.43246   1.44079   1.45723
 Alpha virt. eigenvalues --    1.46115   1.47494   1.48057   1.49160   1.49575
 Alpha virt. eigenvalues --    1.50467   1.51064   1.52504   1.53563   1.55458
 Alpha virt. eigenvalues --    1.56726   1.58139   1.58717   1.59275   1.60278
 Alpha virt. eigenvalues --    1.60772   1.61619   1.61897   1.62648   1.63695
 Alpha virt. eigenvalues --    1.64541   1.64995   1.65228   1.65569   1.65979
 Alpha virt. eigenvalues --    1.66362   1.67324   1.68091   1.69444   1.69824
 Alpha virt. eigenvalues --    1.70899   1.72386   1.73427   1.74409   1.75966
 Alpha virt. eigenvalues --    1.76795   1.80779   1.81840   1.83328   1.83852
 Alpha virt. eigenvalues --    1.84160   1.84372   1.85563   1.86499   1.88037
 Alpha virt. eigenvalues --    1.88481   1.91306   1.91985   1.95093   1.96838
 Alpha virt. eigenvalues --    1.97946   2.00768   2.01345   2.03678   2.06865
 Alpha virt. eigenvalues --    2.08536   2.09983   2.11231   2.13061   2.15841
 Alpha virt. eigenvalues --    2.16312   2.17320   2.18220   2.18756   2.21494
 Alpha virt. eigenvalues --    2.22905   2.23768   2.24774   2.26020   2.27229
 Alpha virt. eigenvalues --    2.28072   2.31128   2.31364   2.31436   2.33973
 Alpha virt. eigenvalues --    2.35469   2.36694   2.37259   2.39199   2.40480
 Alpha virt. eigenvalues --    2.41567   2.43801   2.45844   2.46174   2.47603
 Alpha virt. eigenvalues --    2.48276   2.49796   2.50622   2.52725   2.54305
 Alpha virt. eigenvalues --    2.54341   2.55414   2.56261   2.56986   2.57704
 Alpha virt. eigenvalues --    2.60162   2.61603   2.62981   2.63417   2.64831
 Alpha virt. eigenvalues --    2.65917   2.67661   2.68781   2.69705   2.71154
 Alpha virt. eigenvalues --    2.72255   2.72402   2.73914   2.75608   2.76457
 Alpha virt. eigenvalues --    2.77541   2.78918   2.80295   2.80620   2.81843
 Alpha virt. eigenvalues --    2.82292   2.82804   2.83875   2.87719   2.89348
 Alpha virt. eigenvalues --    2.95192   2.95800   2.97311   2.99784   3.05221
 Alpha virt. eigenvalues --    3.07618   3.10103   3.10565   3.11279   3.13979
 Alpha virt. eigenvalues --    3.15726   3.16954   3.19311   3.21027   3.23080
 Alpha virt. eigenvalues --    3.24397   3.25340   3.26669   3.28804   3.30032
 Alpha virt. eigenvalues --    3.30894   3.32904   3.33001   3.33965   3.34707
 Alpha virt. eigenvalues --    3.36117   3.37637   3.38824   3.39763   3.40725
 Alpha virt. eigenvalues --    3.41398   3.42571   3.47774   3.52098   3.54891
 Alpha virt. eigenvalues --    3.55204   3.82180   3.92387   4.30595   4.32168
 Alpha virt. eigenvalues --   21.70439  21.86074  22.14711  22.17542  22.18120
 Alpha virt. eigenvalues --   22.20673  22.21761  22.24347  22.27064  22.30637
 Alpha virt. eigenvalues --   22.36171  32.02431  43.74958  43.77328
          Condensed to atoms (all electrons):
               1          2          3          4          5          6
     1  O    8.047301   0.000000  -0.000229   0.000017   0.013491   0.015487
     2  O    0.000000   8.077332   0.000555   0.000032  -0.179641   0.000851
     3  N   -0.000229   0.000555   6.495554   0.377081  -0.109591   0.311502
     4  H    0.000017   0.000032   0.377081   0.385935   0.017520  -0.049830
     5  C    0.013491  -0.179641  -0.109591   0.017520   6.946967  -0.063061
     6  C    0.015487   0.000851   0.311502  -0.049830  -0.063061   5.678497
     7  C   -0.000436  -0.025281   0.357007  -0.042980   0.286499  -0.082628
     8  C   -0.000152   0.629679   0.005679  -0.000410  -0.160940   0.023054
     9  C   -0.020199   0.017190   0.012732  -0.000881  -0.460687  -0.099699
    10  H    0.001599   0.000085   0.003437   0.000006  -0.028220  -0.015305
    11  H    0.011948  -0.000031  -0.001193   0.000018  -0.113393   0.023445
    12  C   -0.194216  -0.002147  -0.090694   0.014550   0.176303  -0.228129
    13  C    0.622388  -0.000018   0.000770   0.000386   0.048681   0.182512
    14  C   -0.000004  -0.013496  -0.035238  -0.008949  -0.085469   0.008452
    15  H   -0.000000   0.003764   0.003906   0.000313   0.021727   0.005886
    16  H   -0.000000  -0.000398  -0.002385   0.000803  -0.003514  -0.002048
    17  H   -0.000000  -0.001781   0.001333   0.000628  -0.013467  -0.000683
    18  C   -0.000051  -0.103039  -0.000698   0.000018  -0.257766   0.001185
    19  H   -0.000002   0.007622   0.000004  -0.000001   0.024385   0.000034
    20  H    0.000036   0.000858   0.000008  -0.000000   0.000413   0.000245
    21  H    0.000064   0.003092   0.000138   0.000001   0.031830  -0.001084
    22  C   -0.100182   0.000000  -0.000081   0.000102   0.002842  -0.004626
    23  H    0.004483  -0.000000  -0.000107  -0.000053  -0.000475  -0.040302
    24  H    0.000841  -0.000000  -0.000063  -0.000016  -0.000060   0.012968
    25  H    0.005067   0.000000   0.000031  -0.000002  -0.000082  -0.000805
    26  C    0.000867   0.000003  -0.031844  -0.005362   0.002295   0.130711
    27  H   -0.000302   0.000000   0.003685   0.000840  -0.000064  -0.041183
    28  H   -0.000048  -0.000000  -0.002207   0.000256   0.000334  -0.037350
    29  H    0.000023  -0.000000  -0.000126  -0.000304  -0.000481  -0.047722
               7          8          9         10         11         12
     1  O   -0.000436  -0.000152  -0.020199   0.001599   0.011948  -0.194216
     2  O   -0.025281   0.629679   0.017190   0.000085  -0.000031  -0.002147
     3  N    0.357007   0.005679   0.012732   0.003437  -0.001193  -0.090694
     4  H   -0.042980  -0.000410  -0.000881   0.000006   0.000018   0.014550
     5  C    0.286499  -0.160940  -0.460687  -0.028220  -0.113393   0.176303
     6  C   -0.082628   0.023054  -0.099699  -0.015305   0.023445  -0.228129
     7  C    5.421329  -0.106531  -0.143625  -0.002290   0.015684  -0.010386
     8  C   -0.106531   5.252238   0.041445  -0.002913  -0.008353  -0.029815
     9  C   -0.143625   0.041445   6.353680   0.390100   0.541939  -0.085541
    10  H   -0.002290  -0.002913   0.390100   0.510664  -0.035357  -0.014936
    11  H    0.015684  -0.008353   0.541939  -0.035357   0.481513  -0.106130
    12  C   -0.010386  -0.029815  -0.085541  -0.014936  -0.106130   7.267140
    13  C    0.011639  -0.004070  -0.206766   0.000256  -0.006071  -0.307999
    14  C    0.243953  -0.038597   0.010739  -0.001094   0.000544  -0.003029
    15  H   -0.069466   0.003837  -0.000139   0.000049  -0.000002  -0.000958
    16  H   -0.033562  -0.003208   0.000806  -0.000071   0.000058   0.000865
    17  H   -0.030826  -0.005484  -0.001096   0.000198  -0.000055  -0.000033
    18  C    0.008203   0.306936   0.007230  -0.009877   0.008862  -0.007367
    19  H   -0.000347  -0.051114  -0.000086  -0.000022   0.000555  -0.000237
    20  H    0.001167  -0.028449  -0.012778   0.001454  -0.004040  -0.003842
    21  H   -0.000664  -0.058137  -0.004920   0.000228  -0.005609   0.008260
    22  C    0.000194  -0.000036   0.004430   0.001489  -0.000073  -0.212179
    23  H   -0.000020  -0.000009   0.003701  -0.000114   0.000007   0.064528
    24  H    0.000040   0.000002  -0.002149   0.000131  -0.000082  -0.018884
    25  H    0.000005   0.000003  -0.000324  -0.000016  -0.000090   0.021686
    26  C   -0.001597   0.000414   0.023969  -0.000705   0.000178  -0.077156
    27  H   -0.000520   0.000004  -0.000882  -0.000078  -0.000002  -0.010931
    28  H   -0.000747  -0.000009  -0.000374  -0.000018   0.000040  -0.023183
    29  H    0.003566  -0.000004  -0.000779   0.000084  -0.000009   0.027738
              13         14         15         16         17         18
     1  O    0.622388  -0.000004  -0.000000  -0.000000  -0.000000  -0.000051
     2  O   -0.000018  -0.013496   0.003764  -0.000398  -0.001781  -0.103039
     3  N    0.000770  -0.035238   0.003906  -0.002385   0.001333  -0.000698
     4  H    0.000386  -0.008949   0.000313   0.000803   0.000628   0.000018
     5  C    0.048681  -0.085469   0.021727  -0.003514  -0.013467  -0.257766
     6  C    0.182512   0.008452   0.005886  -0.002048  -0.000683   0.001185
     7  C    0.011639   0.243953  -0.069466  -0.033562  -0.030826   0.008203
     8  C   -0.004070  -0.038597   0.003837  -0.003208  -0.005484   0.306936
     9  C   -0.206766   0.010739  -0.000139   0.000806  -0.001096   0.007230
    10  H    0.000256  -0.001094   0.000049  -0.000071   0.000198  -0.009877
    11  H   -0.006071   0.000544  -0.000002   0.000058  -0.000055   0.008862
    12  C   -0.307999  -0.003029  -0.000958   0.000865  -0.000033  -0.007367
    13  C    5.386138   0.000048  -0.000011  -0.000019   0.000002   0.000163
    14  C    0.000048   5.146528   0.385347   0.417858   0.427487   0.001193
    15  H   -0.000011   0.385347   0.552533  -0.023045  -0.025610   0.000202
    16  H   -0.000019   0.417858  -0.023045   0.492255  -0.029928  -0.000294
    17  H    0.000002   0.427487  -0.025610  -0.029928   0.500843  -0.000232
    18  C    0.000163   0.001193   0.000202  -0.000294  -0.000232   5.391831
    19  H   -0.000012   0.000085  -0.000003  -0.000015   0.000026   0.390750
    20  H   -0.000037  -0.000281  -0.000005  -0.000001   0.000023   0.407570
    21  H    0.000379   0.000035  -0.000014   0.000011  -0.000020   0.383416
    22  C    0.256772  -0.000021   0.000002   0.000000  -0.000000   0.000016
    23  H   -0.095125  -0.000004   0.000000   0.000000   0.000000   0.000004
    24  H   -0.019568  -0.000000   0.000000   0.000000  -0.000000  -0.000002
    25  H   -0.037150   0.000000   0.000000  -0.000000   0.000000  -0.000001
    26  C   -0.065139   0.000771   0.000189  -0.000174   0.000067   0.000042
    27  H   -0.005710   0.000101  -0.000011   0.000001  -0.000001  -0.000000
    28  H    0.008000  -0.000096  -0.000004  -0.000013   0.000004  -0.000001
    29  H   -0.000785  -0.000179   0.000125   0.000002  -0.000005   0.000000
              19         20         21         22         23         24
     1  O   -0.000002   0.000036   0.000064  -0.100182   0.004483   0.000841
     2  O    0.007622   0.000858   0.003092   0.000000  -0.000000  -0.000000
     3  N    0.000004   0.000008   0.000138  -0.000081  -0.000107  -0.000063
     4  H   -0.000001  -0.000000   0.000001   0.000102  -0.000053  -0.000016
     5  C    0.024385   0.000413   0.031830   0.002842  -0.000475  -0.000060
     6  C    0.000034   0.000245  -0.001084  -0.004626  -0.040302   0.012968
     7  C   -0.000347   0.001167  -0.000664   0.000194  -0.000020   0.000040
     8  C   -0.051114  -0.028449  -0.058137  -0.000036  -0.000009   0.000002
     9  C   -0.000086  -0.012778  -0.004920   0.004430   0.003701  -0.002149
    10  H   -0.000022   0.001454   0.000228   0.001489  -0.000114   0.000131
    11  H    0.000555  -0.004040  -0.005609  -0.000073   0.000007  -0.000082
    12  C   -0.000237  -0.003842   0.008260  -0.212179   0.064528  -0.018884
    13  C   -0.000012  -0.000037   0.000379   0.256772  -0.095125  -0.019568
    14  C    0.000085  -0.000281   0.000035  -0.000021  -0.000004  -0.000000
    15  H   -0.000003  -0.000005  -0.000014   0.000002   0.000000   0.000000
    16  H   -0.000015  -0.000001   0.000011   0.000000   0.000000   0.000000
    17  H    0.000026   0.000023  -0.000020  -0.000000   0.000000  -0.000000
    18  C    0.390750   0.407570   0.383416   0.000016   0.000004  -0.000002
    19  H    0.492258  -0.008643  -0.020669  -0.000000   0.000000  -0.000000
    20  H   -0.008643   0.478103  -0.027500  -0.000011  -0.000000   0.000000
    21  H   -0.020669  -0.027500   0.519333   0.000016  -0.000000  -0.000000
    22  C   -0.000000  -0.000011   0.000016   5.450938   0.406570   0.406119
    23  H    0.000000  -0.000000  -0.000000   0.406570   0.520778  -0.025415
    24  H   -0.000000   0.000000  -0.000000   0.406119  -0.025415   0.466353
    25  H   -0.000000  -0.000000  -0.000000   0.384698  -0.022091  -0.007588
    26  C    0.000000   0.000005  -0.000017  -0.020764   0.020399  -0.018599
    27  H   -0.000000  -0.000000  -0.000000   0.012654  -0.013708  -0.002578
    28  H   -0.000000   0.000000  -0.000000  -0.013910  -0.002809   0.001434
    29  H    0.000000  -0.000000   0.000000   0.001668   0.000883   0.000227
              25         26         27         28         29
     1  O    0.005067   0.000867  -0.000302  -0.000048   0.000023
     2  O    0.000000   0.000003   0.000000  -0.000000  -0.000000
     3  N    0.000031  -0.031844   0.003685  -0.002207  -0.000126
     4  H   -0.000002  -0.005362   0.000840   0.000256  -0.000304
     5  C   -0.000082   0.002295  -0.000064   0.000334  -0.000481
     6  C   -0.000805   0.130711  -0.041183  -0.037350  -0.047722
     7  C    0.000005  -0.001597  -0.000520  -0.000747   0.003566
     8  C    0.000003   0.000414   0.000004  -0.000009  -0.000004
     9  C   -0.000324   0.023969  -0.000882  -0.000374  -0.000779
    10  H   -0.000016  -0.000705  -0.000078  -0.000018   0.000084
    11  H   -0.000090   0.000178  -0.000002   0.000040  -0.000009
    12  C    0.021686  -0.077156  -0.010931  -0.023183   0.027738
    13  C   -0.037150  -0.065139  -0.005710   0.008000  -0.000785
    14  C    0.000000   0.000771   0.000101  -0.000096  -0.000179
    15  H    0.000000   0.000189  -0.000011  -0.000004   0.000125
    16  H   -0.000000  -0.000174   0.000001  -0.000013   0.000002
    17  H    0.000000   0.000067  -0.000001   0.000004  -0.000005
    18  C   -0.000001   0.000042  -0.000000  -0.000001   0.000000
    19  H   -0.000000   0.000000  -0.000000  -0.000000   0.000000
    20  H   -0.000000   0.000005  -0.000000   0.000000  -0.000000
    21  H   -0.000000  -0.000017  -0.000000  -0.000000   0.000000
    22  C    0.384698  -0.020764   0.012654  -0.013910   0.001668
    23  H   -0.022091   0.020399  -0.013708  -0.002809   0.000883
    24  H   -0.007588  -0.018599  -0.002578   0.001434   0.000227
    25  H    0.481060   0.001544   0.001133   0.000103  -0.000036
    26  C    0.001544   5.371497   0.418084   0.433028   0.386123
    27  H    0.001133   0.418084   0.502944  -0.023315  -0.025287
    28  H    0.000103   0.433028  -0.023315   0.454216  -0.016892
    29  H   -0.000036   0.386123  -0.025287  -0.016892   0.504094
 Mulliken charges:
               1
     1  O   -0.407792
     2  O   -0.415233
     3  N   -0.298964
     4  H    0.310283
     5  C   -0.096376
     6  C    0.319627
     7  C    0.202621
     8  C    0.234940
     9  C   -0.367037
    10  H    0.201235
    11  H    0.195699
    12  C   -0.153278
    13  C    0.230346
    14  C   -0.456686
    15  H    0.141387
    16  H    0.186015
    17  H    0.178609
    18  C   -0.528293
    19  H    0.165432
    20  H    0.195705
    21  H    0.171831
    22  C   -0.576626
    23  H    0.178878
    24  H    0.206889
    25  H    0.172855
    26  C   -0.568830
    27  H    0.185127
    28  H    0.223560
    29  H    0.168077
 Sum of Mulliken charges =  -0.00000
 Mulliken charges with hydrogens summed into heavy atoms:
               1
     1  O   -0.407792
     2  O   -0.415233
     3  N    0.011319
     5  C   -0.096376
     6  C    0.319627
     7  C    0.202621
     8  C    0.234940
     9  C    0.029898
    12  C   -0.153278
    13  C    0.230346
    14  C    0.049325
    18  C    0.004675
    22  C   -0.018004
    26  C    0.007933
 Electronic spatial extent (au):  <R**2>=           3191.0030
 Charge=              0.0000 electrons
 Dipole moment (field-independent basis, Debye):
    X=              3.9789    Y=              7.2199    Z=              0.3216  Tot=              8.2499
 Quadrupole moment (field-independent basis, Debye-Ang):
   XX=            -96.4269   YY=            -77.6355   ZZ=            -85.0163
   XY=             12.7764   XZ=             -5.7116   YZ=              1.5287
 Traceless Quadrupole moment (field-independent basis, Debye-Ang):
   XX=            -10.0673   YY=              8.7240   ZZ=              1.3433
   XY=             12.7764   XZ=             -5.7116   YZ=              1.5287
 Octapole moment (field-independent basis, Debye-Ang**2):
  XXX=            109.0462  YYY=             64.1116  ZZZ=             -2.0180  XYY=            -34.1862
  XXY=             29.9206  XXZ=              9.5918  XZZ=              2.6219  YZZ=             -1.5854
  YYZ=             -3.1043  XYZ=              5.2963
 Hexadecapole moment (field-independent basis, Debye-Ang**3):
 XXXX=          -3001.0503 YYYY=          -1253.7732 ZZZZ=           -157.3260 XXXY=             40.6069
 XXXZ=            -66.4271 YYYX=             87.8040 YYYZ=             22.4077 ZZZX=              1.8097
 ZZZY=             -6.2922 XXYY=           -684.7051 XXZZ=           -485.4040 YYZZ=           -240.3457
 XXYZ=              7.3612 YYXZ=             -7.1618 ZZXY=             -1.0363
 N-N= 8.995317132730D+02 E-N=-3.274293517281D+03  KE= 6.303608244303D+02
 Leave Link  601 at Mon Mar  9 15:50:49 2026, MaxMem=  2147483648 cpu:               1.4 elap:               0.1
 (Enter /data/home/wyx/g16/l9999.exe)
 Electronic transition elements 
                 1             2             3             4             5 
      1  -0.633225D+03 -0.633208D+03 -0.633203D+03 -0.633163D+03 -0.633145D+03
      2  -0.139288D+01  0.148223D+00  0.631324D-01 -0.334803D+00 -0.390188D+00
      3  -0.353404D+00  0.707236D-01 -0.835873D-01  0.133934D+01  0.130777D+01
      4  -0.318806D+00  0.772347D-01 -0.202990D-01  0.545154D-01 -0.391077D-01
      5   0.176364D+00 -0.217447D-01 -0.885996D-02  0.585381D-01  0.826637D-01
      6   0.491309D-01 -0.105215D-01  0.117482D-01 -0.252954D+00 -0.278164D+00
      7   0.415817D-01 -0.823421D-02 -0.133265D-03 -0.625925D-02  0.803952D-02
      8   0.410125D+00  0.757328D+00  0.514759D+00  0.103283D+00  0.289384D+00
      9   0.553323D-02  0.181858D+00 -0.957243D+00 -0.710142D-01 -0.417402D-01
     10  -0.142174D+01  0.558740D+00  0.331535D+00 -0.459121D-01 -0.222520D+00
     11   0.219292D+00 -0.392086D-01 -0.503448D-01  0.980821D+00  0.617318D+00
     12  -0.271741D+00  0.469959D-01  0.367624D-01 -0.140641D+00 -0.290266D+00
     13  -0.126185D-01 -0.587501D-02 -0.584581D-02  0.842531D-01  0.737259D-03
     14  -0.473512D+00  0.320602D-01  0.318470D-01  0.395411D+00  0.136770D+00
     15  -0.103463D-01 -0.175508D-01  0.565620D-01  0.292269D+00  0.198781D+00
     16  -0.123239D+00  0.945655D-01  0.368922D-01  0.599727D-01  0.871500D-01
                 6 
      1  -0.633129D+03
      2   0.446215D-01
      3  -0.218722D+00
      4   0.344162D-01
      5  -0.488064D-02
      6   0.471462D-01
      7  -0.272159D-01
      8  -0.156325D-01
      9  -0.197109D-01
     10  -0.210824D-01
     11   0.177097D+00
     12   0.219844D+00
     13  -0.174037D+00
     14  -0.343582D-01
     15   0.894558D-01
     16   0.476417D-01
 1\1\GINC-CN015\SP\RM062X TD-FC\TZVP\C11H15N1O2\WYX\09-Mar-2026\0\\#p M
 062X/TZVP em=gd3 TD=NStates=6 SCRF=Solvent=Water Geom=Check Guess=Read
 \\Title Card Required\\0,1\O,0,1.3050219639,9.8473456318,1.1528070319\
 O,0,-4.6923409795,9.7678976593,-0.7021515782\N,0,-2.1563501074,12.9183
 177664,0.5139062475\H,0,-2.4603325288,13.8779050154,0.4460675259\C,0,-
 2.6944301893,10.6410373966,0.2371240778\C,0,-0.802170023,12.6964836765
 ,0.6749587575\C,0,-3.0646207654,11.9429069037,0.1598246879\C,0,-3.6134
 455236,9.5672381589,-0.1570432302\C,0,-1.3468136189,10.2776737449,0.82
 43593131\H,0,-1.4544799532,9.9462017652,1.86612169\H,0,-0.9186428513,9
 .4255049293,0.2967116016\C,0,-0.3542037499,11.4202398297,0.7519880052\
 C,0,1.0520745188,11.0094247674,0.8560987761\C,0,-4.3941197561,12.47570
 67887,-0.2822870593\H,0,-4.4684934387,13.5398422843,-0.0602179452\H,0,
 -4.5231292684,12.3292572185,-1.3546020827\H,0,-5.2064709683,11.9444620
 438,0.2072894117\C,0,-3.1779328826,8.1486330051,0.1328238056\H,0,-4.01
 56902256,7.4776487625,-0.0388152123\H,0,-2.35573869,7.870648952,-0.531
 0155217\H,0,-2.8158543237,8.043673437,1.1564986443\C,0,2.206818663,11.
 9418766241,0.5642756923\H,0,1.9921811969,12.6443600061,-0.2372433399\H
 ,0,2.467111917,12.508237675,1.4607199634\H,0,3.0641668957,11.328289594
 2,0.2958142543\C,0,-0.0160804012,13.9751375625,0.7416928935\H,0,0.8364
 97633,13.9016414287,1.4065358025\H,0,0.3355482593,14.2627217798,-0.250
 9147497\H,0,-0.6572518325,14.7755200426,1.1106725371\\Version=ES64L-G1
 6RevA.03\State=1-A\HF=-633.3540945\RMSD=3.190e-09\PG=C01 [X(C11H15N1O2
 )]\\@


 THE WORLD IS MADE UP OF THE WILLS, THE WON'TS, AND THE CANT'S:
 THE WILLS DO EVERYTHING,
 THE WON'TS DO NOTHING,
 THE CAN'TS CAN'T DO ANYTHING.

                               -- FROM WALT DISNEY'S "BLACK HOLE"
 Job cpu time:       0 days  1 hours 36 minutes 27.3 seconds.
 Elapsed time:       0 days  0 hours  3 minutes  2.4 seconds.
 File lengths (MBytes):  RWF=    823 Int=      0 D2E=      0 Chk=     67 Scr=      1
 Normal termination of Gaussian 16 at Mon Mar  9 15:50:51 2026.
