 Entering Gaussian System, Link 0=g16
 Input=DDL-S1-intmodes.gjf
 Output=DDL-S1-intmodes.log
 Initial command:
 /data/home/wyx/g16/l1.exe "/scr/tmp/wyx/15848/Gau-202907.inp" -scrdir="/scr/tmp/wyx/15848/"
 Entering Link 1 = /data/home/wyx/g16/l1.exe PID=    202908.
  
 Copyright (c) 1988,1990,1992,1993,1995,1998,2003,2009,2016,
            Gaussian, Inc.  All Rights Reserved.
  
 This is part of the Gaussian(R) 16 program.  It is based on
 the Gaussian(R) 09 system (copyright 2009, Gaussian, Inc.),
 the Gaussian(R) 03 system (copyright 2003, Gaussian, Inc.),
 the Gaussian(R) 98 system (copyright 1998, Gaussian, Inc.),
 the Gaussian(R) 94 system (copyright 1995, Gaussian, Inc.),
 the Gaussian 92(TM) system (copyright 1992, Gaussian, Inc.),
 the Gaussian 90(TM) system (copyright 1990, Gaussian, Inc.),
 the Gaussian 88(TM) system (copyright 1988, Gaussian, Inc.),
 the Gaussian 86(TM) system (copyright 1986, Carnegie Mellon
 University), and the Gaussian 82(TM) system (copyright 1983,
 Carnegie Mellon University). Gaussian is a federally registered
 trademark of Gaussian, Inc.
  
 This software contains proprietary and confidential information,
 including trade secrets, belonging to Gaussian, Inc.
  
 This software is provided under written license and may be
 used, copied, transmitted, or stored only in accord with that
 written license.
  
 The following legend is applicable only to US Government
 contracts under FAR:
  
                    RESTRICTED RIGHTS LEGEND
  
 Use, reproduction and disclosure by the US Government is
 subject to restrictions as set forth in subparagraphs (a)
 and (c) of the Commercial Computer Software - Restricted
 Rights clause in FAR 52.227-19.
  
 Gaussian, Inc.
 340 Quinnipiac St., Bldg. 40, Wallingford CT 06492
  
  
 ---------------------------------------------------------------
 Warning -- This program may not be used in any manner that
 competes with the business of Gaussian, Inc. or will provide
 assistance to any competitor of Gaussian, Inc.  The licensee
 of this program is prohibited from giving any competitor of
 Gaussian, Inc. access to this program.  By using this program,
 the user acknowledges that Gaussian, Inc. is engaged in the
 business of creating and licensing software in the field of
 computational chemistry and represents and warrants to the
 licensee that it is not a competitor of Gaussian, Inc. and that
 it will not use this program in any manner prohibited above.
 ---------------------------------------------------------------
  

 Cite this work as:
 Gaussian 16, Revision A.03,
 M. J. Frisch, G. W. Trucks, H. B. Schlegel, G. E. Scuseria, 
 M. A. Robb, J. R. Cheeseman, G. Scalmani, V. Barone, 
 G. A. Petersson, H. Nakatsuji, X. Li, M. Caricato, A. V. Marenich, 
 J. Bloino, B. G. Janesko, R. Gomperts, B. Mennucci, H. P. Hratchian, 
 J. V. Ortiz, A. F. Izmaylov, J. L. Sonnenberg, D. Williams-Young, 
 F. Ding, F. Lipparini, F. Egidi, J. Goings, B. Peng, A. Petrone, 
 T. Henderson, D. Ranasinghe, V. G. Zakrzewski, J. Gao, N. Rega, 
 G. Zheng, W. Liang, M. Hada, M. Ehara, K. Toyota, R. Fukuda, 
 J. Hasegawa, M. Ishida, T. Nakajima, Y. Honda, O. Kitao, H. Nakai, 
 T. Vreven, K. Throssell, J. A. Montgomery, Jr., J. E. Peralta, 
 F. Ogliaro, M. J. Bearpark, J. J. Heyd, E. N. Brothers, K. N. Kudin, 
 V. N. Staroverov, T. A. Keith, R. Kobayashi, J. Normand, 
 K. Raghavachari, A. P. Rendell, J. C. Burant, S. S. Iyengar, 
 J. Tomasi, M. Cossi, J. M. Millam, M. Klene, C. Adamo, R. Cammi, 
 J. W. Ochterski, R. L. Martin, K. Morokuma, O. Farkas, 
 J. B. Foresman, and D. J. Fox, Gaussian, Inc., Wallingford CT, 2016.
 
 ******************************************
 Gaussian 16:  ES64L-G16RevA.03 25-Dec-2016
                12-Jun-2026 
 ******************************************
 %nprocshared=32
 Will use up to   32 processors via shared memory.
 %mem=16GB
 %oldchk=DDL-S1-opt-freq.chk
 %chk=DDL-S1-intmodes.chk
 Copying data from "DDL-S1-opt-freq.chk" to current chk file "DDL-S1-intmodes.chk"
 IOpt=  2 FromEx=T IUOpen= 4 IOptOp= 5 NList=   0 IFRang= 0 IUIn= 4 IUOut= 2.
 ----------------------------------------------------------------------
 #p opt freq=intmodes IOp(7/75=-1) td=(nstates=1,root=1) CAM-B3LYP/TZVP
  em=gd3bj SCRF=Solvent=Water Geom=Check Guess=Read
 ----------------------------------------------------------------------
 1/18=20,19=15,26=3,29=2,38=1/1,3;
 2/9=110,12=2,40=1/2;
 3/5=19,7=101,11=9,14=-4,25=1,30=1,70=2201,71=1,72=1,74=-40,116=-2,124=41/1,2,3,8;
 4/5=1/1;
 5/5=2,38=6,53=1/2;
 8/6=1,10=1,107=1,108=1/1;
 9/8=1,15=2,41=1,42=1,70=2/14;
 10/5=4,28=1/2;
 6/7=2,8=2,9=2,10=2/1;
 7/12=6,13=5,14=1,75=-1/1,2,3,16;
 1/18=20,19=15,26=3/3(2);
 2/9=110/2;
 99//99;
 2/9=110/2;
 3/5=19,7=101,11=9,14=-2,25=1,30=1,70=2205,71=1,72=1,74=-40,124=41/1,2,3,8;
 4/5=5,16=3,69=1/1;
 5/5=2,38=5,53=1/2;
 8/6=1,10=1,107=1,108=1/1;
 9/8=1,15=2,41=1,42=1,49=4,70=2/14;
 10/5=4,28=1/2;
 7/12=6,13=5,14=1,75=-1/1,2,3,16;
 1/18=20,19=15,26=3/3(-8);
 2/9=110/2;
 6/7=2,8=2,9=2,10=2/1;
 99//99;
 Leave Link    1 at Fri Jun 12 19:59:19 2026, MaxMem=  2147483648 cpu:              25.9 elap:               0.9
 (Enter /data/home/wyx/g16/l101.exe)
 -------------------
 Title Card Required
 -------------------
 Structure from the checkpoint file:  "DDL-S1-intmodes.chk"
 Charge =  0 Multiplicity = 1
 Redundant internal coordinates found in file.  (old form).
 O,0,1.2615009389,9.837065498,1.2932516823
 O,0,-4.7745357232,9.727353672,-0.4491234194
 N,0,-2.1201500642,12.9137798229,0.2746956904
 H,0,-2.4285517001,13.8757693115,0.2031886512
 C,0,-2.6998196861,10.6310106954,0.2067580492
 C,0,-0.8009809025,12.7424314888,0.5652623084
 C,0,-3.0770795512,11.982171729,0.076464449
 C,0,-3.6153652651,9.5408258738,-0.0499093799
 C,0,-1.3180439892,10.323565953,0.6196091911
 H,0,-1.3373788496,9.8512898282,1.621554937
 H,0,-0.9044354886,9.5064552436,0.0154451732
 C,0,-0.3369155576,11.4238636036,0.6856649505
 C,0,1.0296928645,10.9991612128,0.9206762005
 C,0,-4.4394273977,12.5051329282,-0.2333447788
 H,0,-4.4483218668,13.594498771,-0.1839832936
 H,0,-4.7659083335,12.1993746905,-1.2260411257
 H,0,-5.1757940645,12.118255847,0.4690298646
 C,0,-3.1340528374,8.1191160074,0.1366047233
 H,0,-4.0041225695,7.4756168188,0.2449632492
 H,0,-2.5795467534,7.7923658319,-0.7471694862
 H,0,-2.4838983152,7.9886379762,0.9995908046
 C,0,2.2043848351,11.9155725205,0.6790246528
 H,0,2.0301642392,12.6409818659,-0.110936623
 H,0,2.4620676487,12.4591625955,1.5908539868
 H,0,3.0582282669,11.2954181281,0.412397229
 C,0,-0.0305856345,14.0067385111,0.7638430092
 H,0,0.6551961759,13.9234404613,1.6036750973
 H,0,0.5529327316,14.2831694407,-0.1168342513
 H,0,-0.708424181,14.8336081232,0.9767884578
 Recover connectivity data from disk.
 ITRead=  0  0  0  0  0  0  0  0  0  0  0  0  0  0  0  0  0  0  0  0
 ITRead=  0  0  0  0  0  0  0  0  0
 MicOpt= -1 -1 -1 -1 -1 -1 -1 -1 -1 -1 -1 -1 -1 -1 -1 -1 -1 -1 -1 -1
 MicOpt= -1 -1 -1 -1 -1 -1 -1 -1 -1
 NAtoms=     29 NQM=       29 NQMF=       0 NMMI=      0 NMMIF=      0
                NMic=       0 NMicF=      0.
                    Isotopes and Nuclear Properties:
 (Nuclear quadrupole moments (NQMom) in fm**2, nuclear magnetic moments (NMagM)
  in nuclear magnetons)

  Atom         1           2           3           4           5           6           7           8           9          10
 IAtWgt=          16          16          14           1          12          12          12          12          12           1
 AtmWgt=  15.9949146  15.9949146  14.0030740   1.0078250  12.0000000  12.0000000  12.0000000  12.0000000  12.0000000   1.0078250
 NucSpn=           0           0           2           1           0           0           0           0           0           1
 AtZEff=   5.6000000   5.6000000   4.5500000   1.0000000   3.6000000   3.6000000   3.6000000   3.6000000   3.6000000   1.0000000
 NQMom=    0.0000000   0.0000000   2.0440000   0.0000000   0.0000000   0.0000000   0.0000000   0.0000000   0.0000000   0.0000000
 NMagM=    0.0000000   0.0000000   0.4037610   2.7928460   0.0000000   0.0000000   0.0000000   0.0000000   0.0000000   2.7928460
 AtZNuc=   8.0000000   8.0000000   7.0000000   1.0000000   6.0000000   6.0000000   6.0000000   6.0000000   6.0000000   1.0000000

  Atom        11          12          13          14          15          16          17          18          19          20
 IAtWgt=           1          12          12          12           1           1           1          12           1           1
 AtmWgt=   1.0078250  12.0000000  12.0000000  12.0000000   1.0078250   1.0078250   1.0078250  12.0000000   1.0078250   1.0078250
 NucSpn=           1           0           0           0           1           1           1           0           1           1
 AtZEff=   1.0000000   3.6000000   3.6000000   3.6000000   1.0000000   1.0000000   1.0000000   3.6000000   1.0000000   1.0000000
 NQMom=    0.0000000   0.0000000   0.0000000   0.0000000   0.0000000   0.0000000   0.0000000   0.0000000   0.0000000   0.0000000
 NMagM=    2.7928460   0.0000000   0.0000000   0.0000000   2.7928460   2.7928460   2.7928460   0.0000000   2.7928460   2.7928460
 AtZNuc=   1.0000000   6.0000000   6.0000000   6.0000000   1.0000000   1.0000000   1.0000000   6.0000000   1.0000000   1.0000000

  Atom        21          22          23          24          25          26          27          28          29
 IAtWgt=           1          12           1           1           1          12           1           1           1
 AtmWgt=   1.0078250  12.0000000   1.0078250   1.0078250   1.0078250  12.0000000   1.0078250   1.0078250   1.0078250
 NucSpn=           1           0           1           1           1           0           1           1           1
 AtZEff=   1.0000000   3.6000000   1.0000000   1.0000000   1.0000000   3.6000000   1.0000000   1.0000000   1.0000000
 NQMom=    0.0000000   0.0000000   0.0000000   0.0000000   0.0000000   0.0000000   0.0000000   0.0000000   0.0000000
 NMagM=    2.7928460   0.0000000   2.7928460   2.7928460   2.7928460   0.0000000   2.7928460   2.7928460   2.7928460
 AtZNuc=   1.0000000   6.0000000   1.0000000   1.0000000   1.0000000   6.0000000   1.0000000   1.0000000   1.0000000
 Leave Link  101 at Fri Jun 12 19:59:24 2026, MaxMem=  2147483648 cpu:              10.6 elap:               0.4
 (Enter /data/home/wyx/g16/l103.exe)

 GradGradGradGradGradGradGradGradGradGradGradGradGradGradGradGradGradGrad
 Berny optimization.
 Initialization pass.
                           ----------------------------
                           !    Initial Parameters    !
                           ! (Angstroms and Degrees)  !
 --------------------------                            --------------------------
 ! Name  Definition              Value          Derivative Info.                !
 --------------------------------------------------------------------------------
 ! R1    R(1,13)                 1.2422         estimate D2E/DX2                !
 ! R2    R(2,8)                  1.2401         estimate D2E/DX2                !
 ! R3    R(3,4)                  1.0127         estimate D2E/DX2                !
 ! R4    R(3,6)                  1.3616         estimate D2E/DX2                !
 ! R5    R(3,7)                  1.3501         estimate D2E/DX2                !
 ! R6    R(5,7)                  1.4089         estimate D2E/DX2                !
 ! R7    R(5,8)                  1.4466         estimate D2E/DX2                !
 ! R8    R(5,9)                  1.4745         estimate D2E/DX2                !
 ! R9    R(6,12)                 1.403          estimate D2E/DX2                !
 ! R10   R(6,26)                 1.4938         estimate D2E/DX2                !
 ! R11   R(7,14)                 1.4918         estimate D2E/DX2                !
 ! R12   R(8,18)                 1.5125         estimate D2E/DX2                !
 ! R13   R(9,10)                 1.1078         estimate D2E/DX2                !
 ! R14   R(9,11)                 1.0972         estimate D2E/DX2                !
 ! R15   R(9,12)                 1.4757         estimate D2E/DX2                !
 ! R16   R(12,13)                1.4502         estimate D2E/DX2                !
 ! R17   R(13,22)                1.5093         estimate D2E/DX2                !
 ! R18   R(14,15)                1.0905         estimate D2E/DX2                !
 ! R19   R(14,16)                1.0888         estimate D2E/DX2                !
 ! R20   R(14,17)                1.0887         estimate D2E/DX2                !
 ! R21   R(18,19)                1.0876         estimate D2E/DX2                !
 ! R22   R(18,20)                1.0933         estimate D2E/DX2                !
 ! R23   R(18,21)                1.0883         estimate D2E/DX2                !
 ! R24   R(22,23)                1.0866         estimate D2E/DX2                !
 ! R25   R(22,24)                1.0924         estimate D2E/DX2                !
 ! R26   R(22,25)                1.0885         estimate D2E/DX2                !
 ! R27   R(26,27)                1.0875         estimate D2E/DX2                !
 ! R28   R(26,28)                1.092          estimate D2E/DX2                !
 ! R29   R(26,29)                1.0902         estimate D2E/DX2                !
 ! A1    A(4,3,6)              115.4441         estimate D2E/DX2                !
 ! A2    A(4,3,7)              115.4184         estimate D2E/DX2                !
 ! A3    A(6,3,7)              129.136          estimate D2E/DX2                !
 ! A4    A(7,5,8)              122.4709         estimate D2E/DX2                !
 ! A5    A(7,5,9)              118.4754         estimate D2E/DX2                !
 ! A6    A(8,5,9)              119.0538         estimate D2E/DX2                !
 ! A7    A(3,6,12)             117.1956         estimate D2E/DX2                !
 ! A8    A(3,6,26)             114.9302         estimate D2E/DX2                !
 ! A9    A(12,6,26)            127.8382         estimate D2E/DX2                !
 ! A10   A(3,7,5)              117.2821         estimate D2E/DX2                !
 ! A11   A(3,7,14)             115.8401         estimate D2E/DX2                !
 ! A12   A(5,7,14)             126.8656         estimate D2E/DX2                !
 ! A13   A(2,8,5)              122.3685         estimate D2E/DX2                !
 ! A14   A(2,8,18)             118.5897         estimate D2E/DX2                !
 ! A15   A(5,8,18)             119.019          estimate D2E/DX2                !
 ! A16   A(5,9,10)             109.0112         estimate D2E/DX2                !
 ! A17   A(5,9,11)             110.7548         estimate D2E/DX2                !
 ! A18   A(5,9,12)             118.6924         estimate D2E/DX2                !
 ! A19   A(10,9,11)            100.7845         estimate D2E/DX2                !
 ! A20   A(10,9,12)            106.7969         estimate D2E/DX2                !
 ! A21   A(11,9,12)            109.2269         estimate D2E/DX2                !
 ! A22   A(6,12,9)             118.4887         estimate D2E/DX2                !
 ! A23   A(6,12,13)            126.928          estimate D2E/DX2                !
 ! A24   A(9,12,13)            114.5458         estimate D2E/DX2                !
 ! A25   A(1,13,12)            119.8957         estimate D2E/DX2                !
 ! A26   A(1,13,22)            118.0862         estimate D2E/DX2                !
 ! A27   A(12,13,22)           121.9815         estimate D2E/DX2                !
 ! A28   A(7,14,15)            110.3794         estimate D2E/DX2                !
 ! A29   A(7,14,16)            111.3909         estimate D2E/DX2                !
 ! A30   A(7,14,17)            111.0468         estimate D2E/DX2                !
 ! A31   A(15,14,16)           108.6231         estimate D2E/DX2                !
 ! A32   A(15,14,17)           108.679          estimate D2E/DX2                !
 ! A33   A(16,14,17)           106.5947         estimate D2E/DX2                !
 ! A34   A(8,18,19)            108.2922         estimate D2E/DX2                !
 ! A35   A(8,18,20)            110.0377         estimate D2E/DX2                !
 ! A36   A(8,18,21)            113.6138         estimate D2E/DX2                !
 ! A37   A(19,18,20)           108.0264         estimate D2E/DX2                !
 ! A38   A(19,18,21)           109.1456         estimate D2E/DX2                !
 ! A39   A(20,18,21)           107.5876         estimate D2E/DX2                !
 ! A40   A(13,22,23)           113.3884         estimate D2E/DX2                !
 ! A41   A(13,22,24)           110.6145         estimate D2E/DX2                !
 ! A42   A(13,22,25)           107.6868         estimate D2E/DX2                !
 ! A43   A(23,22,24)           108.2077         estimate D2E/DX2                !
 ! A44   A(23,22,25)           109.1516         estimate D2E/DX2                !
 ! A45   A(24,22,25)           107.6346         estimate D2E/DX2                !
 ! A46   A(6,26,27)            111.2889         estimate D2E/DX2                !
 ! A47   A(6,26,28)            112.4961         estimate D2E/DX2                !
 ! A48   A(6,26,29)            110.319          estimate D2E/DX2                !
 ! A49   A(27,26,28)           107.7728         estimate D2E/DX2                !
 ! A50   A(27,26,29)           107.4184         estimate D2E/DX2                !
 ! A51   A(28,26,29)           107.3236         estimate D2E/DX2                !
 ! D1    D(4,3,6,12)           179.4034         estimate D2E/DX2                !
 ! D2    D(4,3,6,26)             1.4123         estimate D2E/DX2                !
 ! D3    D(7,3,6,12)            -0.145          estimate D2E/DX2                !
 ! D4    D(7,3,6,26)          -178.1362         estimate D2E/DX2                !
 ! D5    D(4,3,7,5)           -178.1304         estimate D2E/DX2                !
 ! D6    D(4,3,7,14)             0.6857         estimate D2E/DX2                !
 ! D7    D(6,3,7,5)              1.4181         estimate D2E/DX2                !
 ! D8    D(6,3,7,14)          -179.7657         estimate D2E/DX2                !
 ! D9    D(8,5,7,3)           -176.6626         estimate D2E/DX2                !
 ! D10   D(8,5,7,14)             4.6692         estimate D2E/DX2                !
 ! D11   D(9,5,7,3)              3.2896         estimate D2E/DX2                !
 ! D12   D(9,5,7,14)          -175.3786         estimate D2E/DX2                !
 ! D13   D(7,5,8,2)              2.7751         estimate D2E/DX2                !
 ! D14   D(7,5,8,18)          -178.9866         estimate D2E/DX2                !
 ! D15   D(9,5,8,2)           -177.1768         estimate D2E/DX2                !
 ! D16   D(9,5,8,18)             1.0615         estimate D2E/DX2                !
 ! D17   D(7,5,9,10)           113.5829         estimate D2E/DX2                !
 ! D18   D(7,5,9,11)          -136.4052         estimate D2E/DX2                !
 ! D19   D(7,5,9,12)            -8.8975         estimate D2E/DX2                !
 ! D20   D(8,5,9,10)           -66.4633         estimate D2E/DX2                !
 ! D21   D(8,5,9,11)            43.5486         estimate D2E/DX2                !
 ! D22   D(8,5,9,12)           171.0564         estimate D2E/DX2                !
 ! D23   D(3,6,12,9)            -5.7192         estimate D2E/DX2                !
 ! D24   D(3,6,12,13)          176.6389         estimate D2E/DX2                !
 ! D25   D(26,6,12,9)          171.974          estimate D2E/DX2                !
 ! D26   D(26,6,12,13)          -5.6679         estimate D2E/DX2                !
 ! D27   D(3,6,26,27)          138.4544         estimate D2E/DX2                !
 ! D28   D(3,6,26,28)         -100.4845         estimate D2E/DX2                !
 ! D29   D(3,6,26,29)           19.319          estimate D2E/DX2                !
 ! D30   D(12,6,26,27)         -39.283          estimate D2E/DX2                !
 ! D31   D(12,6,26,28)          81.7781         estimate D2E/DX2                !
 ! D32   D(12,6,26,29)        -158.4184         estimate D2E/DX2                !
 ! D33   D(3,7,14,15)           -3.7006         estimate D2E/DX2                !
 ! D34   D(3,7,14,16)          117.0555         estimate D2E/DX2                !
 ! D35   D(3,7,14,17)         -124.2992         estimate D2E/DX2                !
 ! D36   D(5,7,14,15)          174.9843         estimate D2E/DX2                !
 ! D37   D(5,7,14,16)          -64.2596         estimate D2E/DX2                !
 ! D38   D(5,7,14,17)           54.3856         estimate D2E/DX2                !
 ! D39   D(2,8,18,19)          -21.2687         estimate D2E/DX2                !
 ! D40   D(2,8,18,20)           96.6026         estimate D2E/DX2                !
 ! D41   D(2,8,18,21)         -142.7022         estimate D2E/DX2                !
 ! D42   D(5,8,18,19)          160.4259         estimate D2E/DX2                !
 ! D43   D(5,8,18,20)          -81.7028         estimate D2E/DX2                !
 ! D44   D(5,8,18,21)           38.9925         estimate D2E/DX2                !
 ! D45   D(5,9,12,6)            10.1453         estimate D2E/DX2                !
 ! D46   D(5,9,12,13)         -171.9269         estimate D2E/DX2                !
 ! D47   D(10,9,12,6)         -113.4355         estimate D2E/DX2                !
 ! D48   D(10,9,12,13)          64.4923         estimate D2E/DX2                !
 ! D49   D(11,9,12,6)          138.368          estimate D2E/DX2                !
 ! D50   D(11,9,12,13)         -43.7042         estimate D2E/DX2                !
 ! D51   D(6,12,13,1)          164.3171         estimate D2E/DX2                !
 ! D52   D(6,12,13,22)         -17.9256         estimate D2E/DX2                !
 ! D53   D(9,12,13,1)          -13.4044         estimate D2E/DX2                !
 ! D54   D(9,12,13,22)         164.3529         estimate D2E/DX2                !
 ! D55   D(1,13,22,23)         147.8622         estimate D2E/DX2                !
 ! D56   D(1,13,22,24)         -90.3743         estimate D2E/DX2                !
 ! D57   D(1,13,22,25)          26.9923         estimate D2E/DX2                !
 ! D58   D(12,13,22,23)        -29.9341         estimate D2E/DX2                !
 ! D59   D(12,13,22,24)         91.8295         estimate D2E/DX2                !
 ! D60   D(12,13,22,25)       -150.804          estimate D2E/DX2                !
 --------------------------------------------------------------------------------
 Trust Radius=3.00D-01 FncErr=1.00D-07 GrdErr=1.00D-06 EigMax=2.50D+02 EigMin=1.00D-04
 Number of steps in this run=    150 maximum allowed number of steps=    174.
 GradGradGradGradGradGradGradGradGradGradGradGradGradGradGradGradGradGrad

 Leave Link  103 at Fri Jun 12 19:59:25 2026, MaxMem=  2147483648 cpu:               1.3 elap:               0.1
 (Enter /data/home/wyx/g16/l202.exe)
                          Input orientation:                          
 ---------------------------------------------------------------------
 Center     Atomic      Atomic             Coordinates (Angstroms)
 Number     Number       Type             X           Y           Z
 ---------------------------------------------------------------------
      1          8           0        1.261501    9.837065    1.293252
      2          8           0       -4.774536    9.727354   -0.449123
      3          7           0       -2.120150   12.913780    0.274696
      4          1           0       -2.428552   13.875769    0.203189
      5          6           0       -2.699820   10.631011    0.206758
      6          6           0       -0.800981   12.742431    0.565262
      7          6           0       -3.077080   11.982172    0.076464
      8          6           0       -3.615365    9.540826   -0.049909
      9          6           0       -1.318044   10.323566    0.619609
     10          1           0       -1.337379    9.851290    1.621555
     11          1           0       -0.904435    9.506455    0.015445
     12          6           0       -0.336916   11.423864    0.685665
     13          6           0        1.029693   10.999161    0.920676
     14          6           0       -4.439427   12.505133   -0.233345
     15          1           0       -4.448322   13.594499   -0.183983
     16          1           0       -4.765908   12.199375   -1.226041
     17          1           0       -5.175794   12.118256    0.469030
     18          6           0       -3.134053    8.119116    0.136605
     19          1           0       -4.004123    7.475617    0.244963
     20          1           0       -2.579547    7.792366   -0.747169
     21          1           0       -2.483898    7.988638    0.999591
     22          6           0        2.204385   11.915573    0.679025
     23          1           0        2.030164   12.640982   -0.110937
     24          1           0        2.462068   12.459163    1.590854
     25          1           0        3.058228   11.295418    0.412397
     26          6           0       -0.030586   14.006739    0.763843
     27          1           0        0.655196   13.923440    1.603675
     28          1           0        0.552933   14.283169   -0.116834
     29          1           0       -0.708424   14.833608    0.976788
 ---------------------------------------------------------------------
                    Distance matrix (angstroms):
                    1          2          3          4          5
     1  O    0.000000
     2  O    6.283442   0.000000
     3  N    4.683929   4.209868   0.000000
     4  H    5.578159   4.810250   1.012743   0.000000
     5  C    4.183644   2.356103   2.356198   3.256080   0.000000
     6  C    3.636613   5.090070   1.361615   2.016070   2.862204
     7  C    4.990524   2.870854   1.350149   2.005582   1.408878
     8  C    5.067116   1.240097   3.703762   4.501591   1.446584
     9  C    2.710079   3.666742   2.733413   3.744968   1.474541
    10  H    2.619573   4.014613   3.435929   4.404413   2.113258
    11  H    2.536410   3.904138   3.626987   4.631316   2.127118
    12  C    2.332815   4.884502   2.359803   3.258768   2.537968
    13  C    1.242181   6.097780   3.742267   4.555120   3.815033
    14  C    6.476856   2.806228   2.409179   2.472413   2.594660
    15  H    6.993040   3.889926   2.468633   2.075689   3.462976
    16  H    6.946726   2.591247   3.124520   3.211889   2.963343
    17  H    6.879094   2.592379   3.163477   3.272135   2.900195
    18  C    4.859020   2.370799   4.902639   5.800105   2.550117
    19  H    5.865334   2.479034   5.755333   6.591367   3.414554
    20  H    4.806013   2.941256   5.242531   6.159040   2.997057
    21  H    4.186996   3.220082   4.991474   5.941013   2.767190
    22  C    2.363577   7.400429   4.456624   5.053008   5.091597
    23  H    3.228705   7.409962   4.177109   4.637189   5.149142
    24  H    2.899193   7.999545   4.789120   5.277362   5.648269
    25  H    2.476071   8.034503   5.427122   6.066855   5.799900
    26  C    4.397264   6.503037   2.408340   2.466116   4.339435
    27  H    4.142756   7.162619   3.238541   3.387202   4.903835
    28  H    4.717865   7.017677   3.028844   3.026159   4.901364
    29  H    5.380167   6.681341   2.484280   2.115361   4.713855
                    6          7          8          9         10
     6  C    0.000000
     7  C    2.448988   0.000000
     8  C    4.306910   2.503176   0.000000
     9  C    2.474110   2.477940   2.517662   0.000000
    10  H    3.124448   3.155079   2.842429   1.107842   0.000000
    11  H    3.283983   3.294431   2.711935   1.097158   1.698805
    12  C    1.403023   2.862050   3.851640   1.475680   2.085619
    13  C    2.552778   4.306342   4.964408   2.461491   2.722475
    14  C    3.732610   1.491798   3.082182   3.902538   4.483998
    15  H    3.819749   2.132542   4.140538   4.598196   5.191295
    16  H    4.384556   2.143791   3.126486   4.337378   5.037571
    17  H    4.420164   2.139446   3.057349   4.257443   4.604441
    18  C    5.196347   3.863944   1.512517   2.896684   2.904056
    19  H    6.172685   4.604002   2.122068   3.932708   3.827577
    20  H    5.421155   4.298882   2.148535   3.141090   3.375353
    21  H    5.061562   4.141538   2.188825   2.637326   2.273943
    22  C    3.119112   5.316143   6.327737   3.865944   4.206390
    23  H    2.912545   5.152969   6.441017   4.136981   4.703643
    24  H    3.432137   5.762209   6.938587   4.448970   4.608442
    25  H    4.124404   6.182757   6.915864   4.487671   4.782147
    26  C    1.493792   3.721893   5.784221   3.904371   4.439722
    27  H    2.143253   4.475576   6.338718   4.221511   4.533551
    28  H    2.161530   4.302202   6.314191   4.440874   5.122190
    29  H    2.133293   3.814682   6.125191   4.565051   5.063082
                   11         12         13         14         15
    11  H    0.000000
    12  C    2.108964   0.000000
    13  C    2.605469   1.450249   0.000000
    14  C    4.642212   4.341005   5.788868   0.000000
    15  H    5.413964   4.729863   6.161550   1.090520   0.000000
    16  H    4.868683   4.885900   6.295864   1.088818   1.770061
    17  H    5.027101   4.893246   6.321742   1.088687   1.770575
    18  C    2.628799   4.364264   5.123105   4.591079   5.640026
    19  H    3.712821   5.406596   6.181525   5.070927   6.149961
    20  H    2.515091   4.502242   5.108019   5.092479   6.121621
    21  H    2.401461   4.063110   4.627613   5.073751   6.056854
    22  C    3.988602   2.588442   1.509340   6.732031   6.915351
    23  H    4.295708   2.778312   2.181913   6.472175   6.548688
    24  H    4.746971   3.118576   2.152310   7.138659   7.224439
    25  H    4.365852   3.408544   2.112125   7.622023   7.873356
    26  C    4.645026   2.602152   3.192853   4.763097   4.537038
    27  H    4.946179   2.841639   3.026243   5.598342   5.417548
    28  H    4.995840   3.100236   3.476843   5.300816   5.048893
    29  H    5.416748   3.442256   4.210366   4.561426   4.107264
                   16         17         18         19         20
    16  H    0.000000
    17  H    1.745810   0.000000
    18  C    4.600898   4.502481   0.000000
    19  H    5.005803   4.793445   1.087591   0.000000
    20  H    4.942795   5.189698   1.093298   1.764674   0.000000
    21  H    5.281222   4.957978   1.088334   1.773058   1.760353
    22  C    7.231515   7.385947   6.573144   7.645076   6.474632
    23  H    6.901092   7.248133   6.868601   7.951118   6.720365
    24  H    7.761831   7.727331   7.229620   8.273981   7.256943
    25  H    8.044795   8.275228   6.964862   8.030922   6.737988
    26  C    5.445134   5.488757   6.684986   7.662492   6.884678
    27  H    6.353587   6.208587   7.085258   8.070302   7.319843
    28  H    5.819159   6.152105   7.187047   8.200026   7.234658
    29  H    5.315526   5.252461   7.188462   8.095507   7.486803
                   21         22         23         24         25
    21  H    0.000000
    22  C    6.124016   0.000000
    23  H    6.576803   1.086559   0.000000
    24  H    6.693113   1.092393   1.765132   0.000000
    25  H    6.480336   1.088453   1.772381   1.760247   0.000000
    26  C    6.503219   3.061905   2.622446   3.048321   4.124990
    27  H    6.740973   2.699351   2.544628   2.325738   3.755024
    28  H    7.077420   2.994361   2.208852   3.144518   3.934876
    29  H    7.071524   4.133770   3.672958   4.008377   5.198557
                   26         27         28         29
    26  C    0.000000
    27  H    1.087453   0.000000
    28  H    1.092017   1.760686   0.000000
    29  H    1.090195   1.755236   1.757844   0.000000
 Stoichiometry    C11H15NO2
 Framework group  C1[X(C11H15NO2)]
 Deg. of freedom    81
 Full point group                 C1      NOp   1
 RotChk:  IX=2 Diff= 3.61D-02
 Largest Abelian subgroup         C1      NOp   1
 Largest concise Abelian subgroup C1      NOp   1
                         Standard orientation:                         
 ---------------------------------------------------------------------
 Center     Atomic      Atomic             Coordinates (Angstroms)
 Number     Number       Type             X           Y           Z
 ---------------------------------------------------------------------
      1          8           0        2.288310   -2.287917    0.295345
      2          8           0       -3.638681   -0.265162   -0.215428
      3          7           0        0.019729    1.802060    0.040736
      4          1           0        0.046740    2.814351    0.054339
      5          6           0       -1.298848   -0.150631    0.036143
      6          6           0        1.232938    1.184183    0.059411
      7          6           0       -1.214605    1.255566    0.014889
      8          6           0       -2.558961   -0.854684   -0.058874
      9          6           0       -0.051814   -0.927855    0.159026
     10          1           0       -0.049489   -1.454707    1.133570
     11          1           0       -0.053842   -1.778326   -0.534120
     12          6           0        1.238138   -0.218822    0.054491
     13          6           0        2.399678   -1.085675    0.003409
     14          6           0       -2.352444    2.220114   -0.005873
     15          1           0       -1.983996    3.243725    0.069631
     16          1           0       -2.935355    2.126985   -0.920786
     17          1           0       -3.037563    2.034375    0.819567
     18          6           0       -2.560796   -2.366235   -0.004846
     19          1           0       -3.562618   -2.697155    0.259160
     20          1           0       -2.317198   -2.776536   -0.988519
     21          1           0       -1.849347   -2.777834    0.708524
     22          6           0        3.751230   -0.585643   -0.445348
     23          1           0        3.693529    0.223847   -1.167848
     24          1           0        4.336371   -0.239081    0.409536
     25          1           0        4.283018   -1.424483   -0.890635
     26          6           0        2.407303    2.104642    0.130402
     27          1           0        3.163451    1.727853    0.815108
     28          1           0        2.881923    2.252175   -0.841950
     29          1           0        2.098321    3.085262    0.492946
 ---------------------------------------------------------------------
 Rotational constants (GHZ):           1.0696409           0.4891732           0.3419374
 Leave Link  202 at Fri Jun 12 19:59:25 2026, MaxMem=  2147483648 cpu:               4.3 elap:               0.2
 (Enter /data/home/wyx/g16/l301.exe)
 Standard basis: TZVP (5D, 7F)
 Ernie: Thresh=  0.10000D-02 Tol=  0.10000D-05 Strict=F.
 There are   370 symmetry adapted cartesian basis functions of A   symmetry.
 There are   356 symmetry adapted basis functions of A   symmetry.
   356 basis functions,   610 primitive gaussians,   370 cartesian basis functions
    52 alpha electrons       52 beta electrons
       nuclear repulsion energy       898.0421854874 Hartrees.
 IExCor=20419 DFT=T Ex+Corr=CAM-B3LYP ExCW=0 ScaHFX=  1.000000
 ScaDFX=  1.000000  1.000000  1.000000  0.810000 ScalE2=  1.000000  1.000000
 IRadAn=      5 IRanWt=     -1 IRanGd=            0 ICorTp=0 IEmpDi=141
 HFx  wShort=  0.000000 wLong=  0.330000 cFull=  0.190000 cShort=  0.000000 cLong=  0.460000
 DFx  wShort=  0.000000 wLong=  0.330000 cFull=  0.190000 cShort=  0.000000 cLong=  0.460000
 NAtoms=   29 NActive=   29 NUniq=   29 SFac= 1.00D+00 NAtFMM=   60 NAOKFM=F Big=F
 Integral buffers will be    131072 words long.
 Raffenetti 1 integral format.
 Two-electron integral symmetry is turned on.
 R6Disp:  Grimme-D3(BJ) Dispersion energy=       -0.0260955562 Hartrees.
 Nuclear repulsion after empirical dispersion term =      898.0160899312 Hartrees.
 ------------------------------------------------------------------------------
 Polarizable Continuum Model (PCM)
 =================================
 Model                : PCM.
 Atomic radii         : UFF (Universal Force Field).
 Polarization charges : Total charges.
 Charge compensation  : None.
 Solution method      : On-the-fly selection.
 Cavity type          : Scaled VdW (van der Waals Surface) (Alpha=1.100).
 Cavity algorithm     : GePol (No added spheres)
                        Default sphere list used, NSphG=   29.
                        Lebedev-Laikov grids with approx.  5.0 points / Ang**2.
                        Smoothing algorithm: York/Karplus (Gamma=1.0000).
                        Polarization charges: spherical gaussians, with
                                              point-specific exponents (IZeta= 3).
                        Self-potential: point-specific (ISelfS= 7).
                        Self-field    : sphere-specific E.n sum rule (ISelfD= 2).
 1st derivatives      : Analytical E(r).r(x)/FMM algorithm (CHGder, D1EAlg=3).
                        Cavity 1st derivative terms included.
 Solvent              : Water, Eps=  78.355300 Eps(inf)=   1.777849
 ------------------------------------------------------------------------------
 GePol: Number of generator spheres                  =      29
 GePol: Total number of spheres                      =      29
 GePol: Number of exposed spheres                    =      29 (100.00%)
 GePol: Number of points                             =    2102
 GePol: Average weight of points                     =       0.13
 GePol: Minimum weight of points                     =   0.17D-10
 GePol: Maximum weight of points                     =    0.20577
 GePol: Number of points with low weight             =     131
 GePol: Fraction of low-weight points (<1% of avg)   =       6.23%
 GePol: Cavity surface area                          =    270.050 Ang**2
 GePol: Cavity volume                                =    288.005 Ang**3
 Leave Link  301 at Fri Jun 12 19:59:26 2026, MaxMem=  2147483648 cpu:               2.4 elap:               0.1
 (Enter /data/home/wyx/g16/l302.exe)
 NPDir=0 NMtPBC=     1 NCelOv=     1 NCel=       1 NClECP=     1 NCelD=      1
         NCelK=      1 NCelE2=     1 NClLst=     1 CellRange=     0.0.
 One-electron integrals computed using PRISM.
 One-electron integral symmetry used in STVInt
 NBasis=   356 RedAO= T EigKep=  3.90D-05  NBF=   356
 NBsUse=   356 1.00D-06 EigRej= -1.00D+00 NBFU=   356
 Precomputing XC quadrature grid using
 IXCGrd= 4 IRadAn=           5 IRanWt=          -1 IRanGd=           0 AccXCQ= 0.00D+00.
 Generated NRdTot=       0 NPtTot=           0 NUsed=           0 NTot=          32
 NSgBfM=   366   366   366   366   366 MxSgAt=    29 MxSgA2=    29.
 Leave Link  302 at Fri Jun 12 19:59:26 2026, MaxMem=  2147483648 cpu:               9.3 elap:               0.3
 (Enter /data/home/wyx/g16/l303.exe)
 DipDrv:  MaxL=1.
 Leave Link  303 at Fri Jun 12 19:59:26 2026, MaxMem=  2147483648 cpu:               2.4 elap:               0.1
 (Enter /data/home/wyx/g16/l308.exe)
 Leave Link  308 at Fri Jun 12 19:59:27 2026, MaxMem=  2147483648 cpu:               5.3 elap:               0.2
 (Enter /data/home/wyx/g16/l401.exe)
 Initial guess from the checkpoint file:  "DDL-S1-intmodes.chk"
 B after Tr=    -4.593272  -20.820684   -1.795855
         Rot=    0.980411   -0.028529   -0.096372    0.169390 Ang= -22.72 deg.
 Guess basis will be translated and rotated to current coordinates.
 GSVD:  received Info=                   1 from GESDD.
 JPrj=2 DoOrth=T DoCkMO=T.
 Leave Link  401 at Fri Jun 12 19:59:27 2026, MaxMem=  2147483648 cpu:              14.0 elap:               0.5
 (Enter /data/home/wyx/g16/l502.exe)
 Integral symmetry usage will be decided dynamically.
 Closed shell SCF:
 Using DIIS extrapolation, IDIIS=  1040.
 NGot=  2147483648 LenX=  2147194175 LenY=  2147056834
 Requested convergence on RMS density matrix=1.00D-08 within 128 cycles.
 Requested convergence on MAX density matrix=1.00D-06.
 Requested convergence on             energy=1.00D-06.
 No special actions if energy rises.
 Fock matrices will be formed incrementally for  20 cycles.

 Cycle   1  Pass 1  IDiag  1:
 FoFJK:  IHMeth= 1 ICntrl=       0 DoSepK=T KAlg= 0 I1Cent=           0 FoldK=F
 IRaf=         1 NMat=       1 IRICut=       1 DoRegI=T DoRafI=F ISym2E= 0 IDoP0=0 IntGTp=1.
 FoFCou: FMM=F IPFlag=           0 FMFlag=      100000 FMFlg1=           0
         NFxFlg=           0 DoJE=T BraDBF=F KetDBF=F FulRan=T
         wScrn=  0.000000 ICntrl=       500 IOpCl=  0 I1Cent=           0 NGrid=           0
         NMat0=    1 NMatS0=      1 NMatT0=    0 NMatD0=    1 NMtDS0=    0 NMtDT0=    0
 Symmetry not used in FoFCou.
 Inv3:  Mode=1 IEnd=    13255212.
 Iteration    1 A*A^-1 deviation from unit magnitude is 3.33D-15 for   1306.
 Iteration    1 A*A^-1 deviation from orthogonality  is 2.11D-15 for   1999   1875.
 Iteration    1 A^-1*A deviation from unit magnitude is 3.33D-15 for   1306.
 Iteration    1 A^-1*A deviation from orthogonality  is 1.62D-14 for   1372   1342.
 E= -633.320826049480    
 DIIS: error= 5.42D-06 at cycle   1 NSaved=   1.
 NSaved= 1 IEnMin= 1 EnMin= -633.320826049480     IErMin= 1 ErrMin= 5.42D-06
 ErrMax= 5.42D-06  0.00D+00 EMaxC= 1.00D-01 BMatC= 2.15D-08 BMatP= 2.15D-08
 IDIUse=1 WtCom= 1.00D+00 WtEn= 0.00D+00
 Coeff-Com:  0.100D+01
 Coeff:      0.100D+01
 Gap=     0.214 Goal=   None    Shift=    0.000
 RMSDP=7.10D-06 MaxDP=3.98D-04              OVMax= 6.15D-05

 Cycle   2  Pass 1  IDiag  1:
 RMSU=  7.05D-06    CP:  1.00D+00
 E= -633.320826094463     Delta-E=       -0.000000044983 Rises=F Damp=F
 DIIS: error= 1.77D-06 at cycle   2 NSaved=   2.
 NSaved= 2 IEnMin= 2 EnMin= -633.320826094463     IErMin= 2 ErrMin= 1.77D-06
 ErrMax= 1.77D-06  0.00D+00 EMaxC= 1.00D-01 BMatC= 2.90D-09 BMatP= 2.15D-08
 IDIUse=1 WtCom= 1.00D+00 WtEn= 0.00D+00
 Coeff-Com:  0.133D+00 0.867D+00
 Coeff:      0.133D+00 0.867D+00
 Gap=     0.214 Goal=   None    Shift=    0.000
 RMSDP=1.06D-06 MaxDP=4.38D-05 DE=-4.50D-08 OVMax= 1.63D-05

 Cycle   3  Pass 1  IDiag  1:
 RMSU=  9.47D-07    CP:  1.00D+00  1.07D+00
 E= -633.320826096689     Delta-E=       -0.000000002226 Rises=F Damp=F
 DIIS: error= 1.97D-06 at cycle   3 NSaved=   3.
 NSaved= 3 IEnMin= 3 EnMin= -633.320826096689     IErMin= 2 ErrMin= 1.77D-06
 ErrMax= 1.97D-06  0.00D+00 EMaxC= 1.00D-01 BMatC= 1.66D-09 BMatP= 2.90D-09
 IDIUse=1 WtCom= 1.00D+00 WtEn= 0.00D+00
 Coeff-Com: -0.154D-01 0.418D+00 0.597D+00
 Coeff:     -0.154D-01 0.418D+00 0.597D+00
 Gap=     0.214 Goal=   None    Shift=    0.000
 RMSDP=3.99D-07 MaxDP=2.07D-05 DE=-2.23D-09 OVMax= 1.51D-05

 Cycle   4  Pass 1  IDiag  1:
 RMSU=  2.56D-07    CP:  1.00D+00  1.10D+00  8.88D-01
 E= -633.320826097954     Delta-E=       -0.000000001265 Rises=F Damp=F
 DIIS: error= 8.51D-07 at cycle   4 NSaved=   4.
 NSaved= 4 IEnMin= 4 EnMin= -633.320826097954     IErMin= 4 ErrMin= 8.51D-07
 ErrMax= 8.51D-07  0.00D+00 EMaxC= 1.00D-01 BMatC= 2.67D-10 BMatP= 1.66D-09
 IDIUse=1 WtCom= 1.00D+00 WtEn= 0.00D+00
 Coeff-Com: -0.277D-01 0.692D-01 0.308D+00 0.650D+00
 Coeff:     -0.277D-01 0.692D-01 0.308D+00 0.650D+00
 Gap=     0.214 Goal=   None    Shift=    0.000
 RMSDP=1.64D-07 MaxDP=7.57D-06 DE=-1.27D-09 OVMax= 4.26D-06

 Cycle   5  Pass 1  IDiag  1:
 RMSU=  9.27D-08    CP:  1.00D+00  1.11D+00  1.01D+00  8.79D-01
 E= -633.320826098172     Delta-E=       -0.000000000218 Rises=F Damp=F
 DIIS: error= 1.81D-07 at cycle   5 NSaved=   5.
 NSaved= 5 IEnMin= 5 EnMin= -633.320826098172     IErMin= 5 ErrMin= 1.81D-07
 ErrMax= 1.81D-07  0.00D+00 EMaxC= 1.00D-01 BMatC= 1.73D-11 BMatP= 2.67D-10
 IDIUse=1 WtCom= 1.00D+00 WtEn= 0.00D+00
 Coeff-Com: -0.103D-01-0.576D-02 0.858D-01 0.260D+00 0.670D+00
 Coeff:     -0.103D-01-0.576D-02 0.858D-01 0.260D+00 0.670D+00
 Gap=     0.214 Goal=   None    Shift=    0.000
 RMSDP=5.11D-08 MaxDP=3.59D-06 DE=-2.18D-10 OVMax= 1.81D-06

 Cycle   6  Pass 1  IDiag  1:
 RMSU=  3.14D-08    CP:  1.00D+00  1.11D+00  1.04D+00  9.59D-01  1.01D+00
 E= -633.320826098197     Delta-E=       -0.000000000025 Rises=F Damp=F
 DIIS: error= 1.74D-07 at cycle   6 NSaved=   6.
 NSaved= 6 IEnMin= 6 EnMin= -633.320826098197     IErMin= 6 ErrMin= 1.74D-07
 ErrMax= 1.74D-07  0.00D+00 EMaxC= 1.00D-01 BMatC= 2.28D-12 BMatP= 1.73D-11
 IDIUse=1 WtCom= 1.00D+00 WtEn= 0.00D+00
 Coeff-Com:  0.118D-02-0.141D-01-0.167D-01-0.322D-01 0.223D+00 0.839D+00
 Coeff:      0.118D-02-0.141D-01-0.167D-01-0.322D-01 0.223D+00 0.839D+00
 Gap=     0.214 Goal=   None    Shift=    0.000
 RMSDP=2.67D-08 MaxDP=1.02D-06 DE=-2.51D-11 OVMax= 2.37D-06

 Cycle   7  Pass 1  IDiag  1:
 RMSU=  1.13D-08    CP:  1.00D+00  1.11D+00  1.06D+00  9.73D-01  1.16D+00
                    CP:  1.09D+00
 E= -633.320826098201     Delta-E=       -0.000000000004 Rises=F Damp=F
 DIIS: error= 6.68D-08 at cycle   7 NSaved=   7.
 NSaved= 7 IEnMin= 7 EnMin= -633.320826098201     IErMin= 7 ErrMin= 6.68D-08
 ErrMax= 6.68D-08  0.00D+00 EMaxC= 1.00D-01 BMatC= 7.00D-13 BMatP= 2.28D-12
 IDIUse=1 WtCom= 1.00D+00 WtEn= 0.00D+00
 Coeff-Com:  0.155D-02-0.527D-02-0.115D-01-0.440D-01-0.129D-01 0.376D+00
 Coeff-Com:  0.696D+00
 Coeff:      0.155D-02-0.527D-02-0.115D-01-0.440D-01-0.129D-01 0.376D+00
 Coeff:      0.696D+00
 Gap=     0.214 Goal=   None    Shift=    0.000
 RMSDP=1.06D-08 MaxDP=4.60D-07 DE=-3.75D-12 OVMax= 8.61D-07

 Cycle   8  Pass 1  IDiag  1:
 RMSU=  3.40D-09    CP:  1.00D+00  1.11D+00  1.07D+00  9.76D-01  1.18D+00
                    CP:  1.26D+00  1.27D+00
 E= -633.320826098202     Delta-E=       -0.000000000000 Rises=F Damp=F
 DIIS: error= 4.11D-08 at cycle   8 NSaved=   8.
 NSaved= 8 IEnMin= 8 EnMin= -633.320826098202     IErMin= 8 ErrMin= 4.11D-08
 ErrMax= 4.11D-08  0.00D+00 EMaxC= 1.00D-01 BMatC= 1.08D-13 BMatP= 7.00D-13
 IDIUse=1 WtCom= 1.00D+00 WtEn= 0.00D+00
 Coeff-Com:  0.760D-04 0.239D-02 0.456D-02-0.665D-02-0.917D-01-0.101D+00
 Coeff-Com:  0.856D-01 0.111D+01
 Coeff:      0.760D-04 0.239D-02 0.456D-02-0.665D-02-0.917D-01-0.101D+00
 Coeff:      0.856D-01 0.111D+01
 Gap=     0.214 Goal=   None    Shift=    0.000
 RMSDP=8.95D-09 MaxDP=3.34D-07 DE=-4.55D-13 OVMax= 8.87D-07

 Error on total polarization charges =  0.01559
 SCF Done:  E(RCAM-B3LYP) =  -633.320826098     A.U. after    8 cycles
            NFock=  8  Conv=0.90D-08     -V/T= 2.0044
 KE= 6.305450517581D+02 PE=-3.271869546823D+03 EE= 1.109987579036D+03
 Leave Link  502 at Fri Jun 12 19:59:56 2026, MaxMem=  2147483648 cpu:             828.2 elap:              26.5
 (Enter /data/home/wyx/g16/l801.exe)
 DoSCS=F DFT=T ScalE2(SS,OS)=  1.000000  1.000000
 ExpMin= 9.52D-02 ExpMax= 2.70D+04 ExpMxC= 9.22D+02 IAcc=3 IRadAn=         5 AccDes= 0.00D+00
 HarFok:  IExCor=  205 AccDes= 0.00D+00 IRadAn=         5 IDoV=-2 UseB2=F ITyADJ=14
 ICtDFT= 12500011 ScaDFX=  1.000000  1.000000  1.000000  1.000000
 Largest valence mixing into a core orbital is  5.58D-05
 Largest core mixing into a valence orbital is  1.14D-05
 Range of M.O.s used for correlation:    15   356
 NBasis=   356 NAE=    52 NBE=    52 NFC=    14 NFV=     0
 NROrb=    342 NOA=    38 NOB=    38 NVA=   304 NVB=   304

 **** Warning!!: The largest alpha MO coefficient is  0.61614673D+02

 Leave Link  801 at Fri Jun 12 19:59:58 2026, MaxMem=  2147483648 cpu:               4.2 elap:               0.2
 (Enter /data/home/wyx/g16/l914.exe)
 RHF ground state
 Two-electron integrals replicated using symmetry.
 MDV=  2147483648 DFT=T DoStab=F Mixed=T DoRPA=T DoScal=F NonHer=T
 NEqPCM:  Using equilibrium solvation (IEInf=0, Eps=  78.3553, EpsInf=   1.7778)
 Making orbital integer symmetry assigments:
 Orbital symmetries:
       Occupied  (A) (A) (A) (A) (A) (A) (A) (A) (A) (A) (A) (A)
                 (A) (A) (A) (A) (A) (A) (A) (A) (A) (A) (A) (A)
                 (A) (A) (A) (A) (A) (A) (A) (A) (A) (A) (A) (A)
                 (A) (A) (A) (A) (A) (A) (A) (A) (A) (A) (A) (A)
                 (A) (A) (A) (A)
       Virtual   (A) (A) (A) (A) (A) (A) (A) (A) (A) (A) (A) (A)
                 (A) (A) (A) (A) (A) (A) (A) (A) (A) (A) (A) (A)
                 (A) (A) (A) (A) (A) (A) (A) (A) (A) (A) (A) (A)
                 (A) (A) (A) (A) (A) (A) (A) (A) (A) (A) (A) (A)
                 (A) (A) (A) (A) (A) (A) (A) (A) (A) (A) (A) (A)
                 (A) (A) (A) (A) (A) (A) (A) (A) (A) (A) (A) (A)
                 (A) (A) (A) (A) (A) (A) (A) (A) (A) (A) (A) (A)
                 (A) (A) (A) (A) (A) (A) (A) (A) (A) (A) (A) (A)
                 (A) (A) (A) (A) (A) (A) (A) (A) (A) (A) (A) (A)
                 (A) (A) (A) (A) (A) (A) (A) (A) (A) (A) (A) (A)
                 (A) (A) (A) (A) (A) (A) (A) (A) (A) (A) (A) (A)
                 (A) (A) (A) (A) (A) (A) (A) (A) (A) (A) (A) (A)
                 (A) (A) (A) (A) (A) (A) (A) (A) (A) (A) (A) (A)
                 (A) (A) (A) (A) (A) (A) (A) (A) (A) (A) (A) (A)
                 (A) (A) (A) (A) (A) (A) (A) (A) (A) (A) (A) (A)
                 (A) (A) (A) (A) (A) (A) (A) (A) (A) (A) (A) (A)
                 (A) (A) (A) (A) (A) (A) (A) (A) (A) (A) (A) (A)
                 (A) (A) (A) (A) (A) (A) (A) (A) (A) (A) (A) (A)
                 (A) (A) (A) (A) (A) (A) (A) (A) (A) (A) (A) (A)
                 (A) (A) (A) (A) (A) (A) (A) (A) (A) (A) (A) (A)
                 (A) (A) (A) (A) (A) (A) (A) (A) (A) (A) (A) (A)
                 (A) (A) (A) (A) (A) (A) (A) (A) (A) (A) (A) (A)
                 (A) (A) (A) (A) (A) (A) (A) (A) (A) (A) (A) (A)
                 (A) (A) (A) (A) (A) (A) (A) (A) (A) (A) (A) (A)
                 (A) (A) (A) (A) (A) (A) (A) (A) (A) (A) (A) (A)
                 (A) (A) (A) (A)
     4 initial guesses have been made.
 Convergence on wavefunction:    0.000001000000000
 Davidson Disk Diagonalization:  ConvIn= 1.00D-06 SkipCon=T Conv= 1.00D-06.
 Max sub-space:  2000 roots to seek:     4 dimension of matrix:        23104
 Iteration     1 Dimension     4 NMult     0 NNew      4
 CISAX will form     4 AO SS matrices at one time.
 NMat=     4 NSing=     4 JSym2X= 0.
 FoFJK:  IHMeth= 1 ICntrl=       0 DoSepK=T KAlg= 0 I1Cent=           0 FoldK=F
 IRaf=         1 NMat=       8 IRICut=       1 DoRegI=T DoRafI=F ISym2E= 0 IDoP0=0 IntGTp=1.
 FoFCou: FMM=F IPFlag=           0 FMFlag=      100000 FMFlg1=           0
         NFxFlg=           0 DoJE=F BraDBF=F KetDBF=F FulRan=T
         wScrn=  0.000000 ICntrl=       500 IOpCl=  0 I1Cent=           0 NGrid=           0
         NMat0=    4 NMatS0=      4 NMatT0=    0 NMatD0=    4 NMtDS0=    0 NMtDT0=    0
 Symmetry not used in FoFCou.
 Excitation Energies [eV] at current iteration:
 Root      1 :     3.275546626351923
 Root      2 :     4.683620900935820
 Root      3 :     5.099334363530758
 Root      4 :     5.663057109512107
 Iteration     2 Dimension     6 NMult     4 NNew      2
 CISAX will form     2 AO SS matrices at one time.
 NMat=     2 NSing=     2 JSym2X= 0.
 Root      1 not converged, maximum delta is    0.035994381427007
 Excitation Energies [eV] at current iteration:
 Root      1 :     2.812693426086785   Change is   -0.462853200265137
 Iteration     3 Dimension     8 NMult     6 NNew      2
 CISAX will form     2 AO SS matrices at one time.
 NMat=     2 NSing=     2 JSym2X= 0.
 Root      1 not converged, maximum delta is    0.013112001663825
 Excitation Energies [eV] at current iteration:
 Root      1 :     2.794980436810303   Change is   -0.017712989276483
 Iteration     4 Dimension    10 NMult     8 NNew      2
 CISAX will form     2 AO SS matrices at one time.
 NMat=     2 NSing=     2 JSym2X= 0.
 Root      1 not converged, maximum delta is    0.008312150200729
 Excitation Energies [eV] at current iteration:
 Root      1 :     2.789666818126533   Change is   -0.005313618683770
 Iteration     5 Dimension    12 NMult    10 NNew      2
 CISAX will form     2 AO SS matrices at one time.
 NMat=     2 NSing=     2 JSym2X= 0.
 Root      1 not converged, maximum delta is    0.000853434953172
 Excitation Energies [eV] at current iteration:
 Root      1 :     2.789436195580259   Change is   -0.000230622546273
 Iteration     6 Dimension    14 NMult    12 NNew      2
 CISAX will form     2 AO SS matrices at one time.
 NMat=     2 NSing=     2 JSym2X= 0.
 Root      1 not converged, maximum delta is    0.000210376221240
 Excitation Energies [eV] at current iteration:
 Root      1 :     2.789416672914720   Change is   -0.000019522665540
 Iteration     7 Dimension    16 NMult    14 NNew      2
 CISAX will form     2 AO SS matrices at one time.
 NMat=     2 NSing=     2 JSym2X= 0.
 Root      1 not converged, maximum delta is    0.000125122435619
 Excitation Energies [eV] at current iteration:
 Root      1 :     2.789415707084516   Change is   -0.000000965830204
 Iteration     8 Dimension    18 NMult    16 NNew      2
 CISAX will form     2 AO SS matrices at one time.
 NMat=     2 NSing=     2 JSym2X= 0.
 Root      1 not converged, maximum delta is    0.000079366686515
 Excitation Energies [eV] at current iteration:
 Root      1 :     2.789415507206786   Change is   -0.000000199877730
 Iteration     9 Dimension    20 NMult    18 NNew      2
 CISAX will form     2 AO SS matrices at one time.
 NMat=     2 NSing=     2 JSym2X= 0.
 Root      1 not converged, maximum delta is    0.000022890561506
 Excitation Energies [eV] at current iteration:
 Root      1 :     2.789415486878914   Change is   -0.000000020327872
 Iteration    10 Dimension    22 NMult    20 NNew      2
 CISAX will form     2 AO SS matrices at one time.
 NMat=     2 NSing=     2 JSym2X= 0.
 Root      1 not converged, maximum delta is    0.000003492762343
 Excitation Energies [eV] at current iteration:
 Root      1 :     2.789415484660938   Change is   -0.000000002217976
 Iteration    11 Dimension    24 NMult    22 NNew      2
 CISAX will form     2 AO SS matrices at one time.
 NMat=     2 NSing=     2 JSym2X= 0.
 Root      1 not converged, maximum delta is    0.000002001210993
 Excitation Energies [eV] at current iteration:
 Root      1 :     2.789415484443293   Change is   -0.000000000217645
 Iteration    12 Dimension    26 NMult    24 NNew      2
 CISAX will form     2 AO SS matrices at one time.
 NMat=     2 NSing=     2 JSym2X= 0.
 Root      1 has converged.
 Excitation Energies [eV] at current iteration:
 Root      1 :     2.789415484413734   Change is   -0.000000000029560
 Convergence achieved on expansion vectors.
 ***********************************************************************
 Excited states from <AA,BB:AA,BB> singles matrix:
 ***********************************************************************
 
 1PDM for each excited state written to RWF  633
 Ground to excited state transition densities written to RWF  633
 Ground to excited state transition electric dipole moments (Au):
       state          X           Y           Z        Dip. S.      Osc.
         1        -1.7274      0.2020     -0.0526      3.0276      0.2069
 Ground to excited state transition velocity dipole moments (Au):
       state          X           Y           Z        Dip. S.      Osc.
         1         0.1710     -0.0170      0.0055      0.0296      0.1923
 Ground to excited state transition magnetic dipole moments (Au):
       state          X           Y           Z
         1         0.0122     -0.0618     -1.4651
 Ground to excited state transition velocity quadrupole moments (Au):
       state          XX          YY          ZZ          XY          XZ          YZ
         1        -0.1803      0.0945      0.0063     -0.4784     -0.0233     -0.0200
 <0|del|b> * <b|rxdel|0> + <0|del|b> * <b|delr+rdel|0>
 Rotatory Strengths (R) in cgs (10**-40 erg-esu-cm/Gauss)
       state          XX          YY          ZZ    R(velocity)    E-M Angle
         1       -34.6625    -23.3150     23.9617    -11.3386       91.12
 1/2[<0|r|b>*<b|rxdel|0> + (<0|rxdel|b>*<b|r|0>)*]
 Rotatory Strengths (R) in cgs (10**-40 erg-esu-cm/Gauss)
       state          XX          YY          ZZ     R(length)
         1        14.9100      8.8342    -54.5185    -10.2581
  1/2[<0|del|b>*<b|r|0> + (<0|r|b>*<b|del|0>)*] (Au)
       state          X           Y           Z        Dip. S.   Osc.(frdel)
         1        -0.2954     -0.0034     -0.0003      0.2991      0.1994

 Excitation energies and oscillator strengths:
 
 Excited State   1:      Singlet-A      2.7894 eV  444.48 nm  f=0.2069  <S**2>=0.000
      52 -> 53         0.70180
 This state for optimization and/or second-order correction.
 Total Energy, E(TD-HF/TD-DFT) =  -633.218316965    
 Copying the excited state density for this state as the 1-particle RhoCI density.
 SavETr:  write IOETrn=   770 NScale= 10 NData=  16 NLR=1 NState=    1 LETran=      28.
 The selected state is a singlet.
 CISGrd: IGrad=2 NXY=2 DFT=T
 CISAX will form     1 AO SS matrices at one time.
 NMat=     1 NSing=     1 JSym2X= 0.
 GePol: Maximum number of non-zero 1st derivatives   =     203
 Leave Link  914 at Fri Jun 12 20:02:03 2026, MaxMem=  2147483648 cpu:            3964.6 elap:             124.5
 (Enter /data/home/wyx/g16/l1002.exe)
 Minotr:  Closed shell wavefunction.
          Computing CIS/TDA/TD derivatives.
          Using Z-Vector for PSCF gradient.
          Skipping F1 and S1 gradient terms here.
          IDoAtm=11111111111111111111111111111
 NEqPCM:  Using equilibrium solvation (IEInf=0, Eps=  78.3553, EpsInf=   1.7778)
          Frozen-core window.
          Direct CPHF calculation.
          Differentiating once with respect to electric field.
                with respect to dipole field.
          Differentiating once with respect to nuclear coordinates.
          Requested convergence is 1.0D-10 RMS, and 1.0D-09 maximum.
          NewPWx=F KeepS1=T KeepF1=T KeepIn=T MapXYZ=F SortEE=F KeepMc=T.
 Two-electron integral symmetry used by symmetrizing perturbed Fock matrices.
          MDV=    2147483648 using IRadAn=       5.
          Solving linear equations separately, MaxMat=     384.
          There are     1 degrees of freedom in the 1st order CPHF.  IDoFFX=0 NUNeed=     1.
 FoFJK:  IHMeth= 1 ICntrl=       0 DoSepK=T KAlg= 0 I1Cent=           0 FoldK=F
 IRaf=         1 NMat=       1 IRICut=       1 DoRegI=T DoRafI=F ISym2E=-1 IDoP0=0 IntGTp=1.
 FoFCou: FMM=F IPFlag=           0 FMFlag=      100000 FMFlg1=           0
         NFxFlg=           0 DoJE=T BraDBF=F KetDBF=F FulRan=T
         wScrn=  0.000000 ICntrl=       500 IOpCl=  0 I1Cent=           0 NGrid=           0
         NMat0=    1 NMatS0=      1 NMatT0=    0 NMatD0=    1 NMtDS0=    0 NMtDT0=    0
 Petite list used in FoFCou.
 LinEq1:  Iter=  0 NonCon=     1 RMS=3.51D-03 Max=1.32D-01 NDo=     1
 AX will form     1 AO Fock derivatives at one time.
 LinEq1:  Iter=  1 NonCon=     1 RMS=1.39D-03 Max=5.76D-02 NDo=     1
 LinEq1:  Iter=  2 NonCon=     1 RMS=6.47D-04 Max=2.05D-02 NDo=     1
 LinEq1:  Iter=  3 NonCon=     1 RMS=3.98D-04 Max=1.64D-02 NDo=     1
 LinEq1:  Iter=  4 NonCon=     1 RMS=1.86D-04 Max=9.90D-03 NDo=     1
 LinEq1:  Iter=  5 NonCon=     1 RMS=9.27D-05 Max=4.51D-03 NDo=     1
 LinEq1:  Iter=  6 NonCon=     1 RMS=5.65D-05 Max=2.78D-03 NDo=     1
 LinEq1:  Iter=  7 NonCon=     1 RMS=2.77D-05 Max=1.46D-03 NDo=     1
 LinEq1:  Iter=  8 NonCon=     1 RMS=1.29D-05 Max=3.38D-04 NDo=     1
 LinEq1:  Iter=  9 NonCon=     1 RMS=6.03D-06 Max=1.72D-04 NDo=     1
 LinEq1:  Iter= 10 NonCon=     1 RMS=3.01D-06 Max=8.70D-05 NDo=     1
 LinEq1:  Iter= 11 NonCon=     1 RMS=1.85D-06 Max=5.78D-05 NDo=     1
 LinEq1:  Iter= 12 NonCon=     1 RMS=8.86D-07 Max=2.24D-05 NDo=     1
 LinEq1:  Iter= 13 NonCon=     1 RMS=3.77D-07 Max=1.44D-05 NDo=     1
 LinEq1:  Iter= 14 NonCon=     1 RMS=1.44D-07 Max=5.52D-06 NDo=     1
 LinEq1:  Iter= 15 NonCon=     1 RMS=7.43D-08 Max=2.11D-06 NDo=     1
 LinEq1:  Iter= 16 NonCon=     1 RMS=3.30D-08 Max=1.12D-06 NDo=     1
 LinEq1:  Iter= 17 NonCon=     1 RMS=1.05D-08 Max=2.19D-07 NDo=     1
 LinEq1:  Iter= 18 NonCon=     1 RMS=5.07D-09 Max=1.38D-07 NDo=     1
 LinEq1:  Iter= 19 NonCon=     1 RMS=1.56D-09 Max=3.94D-08 NDo=     1
 LinEq1:  Iter= 20 NonCon=     1 RMS=5.64D-10 Max=9.87D-09 NDo=     1
 LinEq1:  Iter= 21 NonCon=     1 RMS=2.25D-10 Max=5.16D-09 NDo=     1
 LinEq1:  Iter= 22 NonCon=     1 RMS=6.09D-11 Max=1.91D-09 NDo=     1
 LinEq1:  Iter= 23 NonCon=     0 RMS=1.55D-11 Max=5.07D-10 NDo=     1
 Linear equations converged to 1.000D-10 1.000D-09 after    23 iterations.
 End of Minotr F.D. properties file   721 does not exist.
 End of Minotr F.D. properties file   722 does not exist.
 End of Minotr F.D. properties file   788 does not exist.
 Leave Link 1002 at Fri Jun 12 20:03:40 2026, MaxMem=  2147483648 cpu:            2880.5 elap:              90.7
 (Enter /data/home/wyx/g16/l601.exe)
 Copying SCF densities to generalized density rwf, IOpCl= 0 IROHF=0.

 **********************************************************************

            Population analysis using the SCF density.

 **********************************************************************

 Orbital symmetries:
       Occupied  (A) (A) (A) (A) (A) (A) (A) (A) (A) (A) (A) (A)
                 (A) (A) (A) (A) (A) (A) (A) (A) (A) (A) (A) (A)
                 (A) (A) (A) (A) (A) (A) (A) (A) (A) (A) (A) (A)
                 (A) (A) (A) (A) (A) (A) (A) (A) (A) (A) (A) (A)
                 (A) (A) (A) (A)
       Virtual   (A) (A) (A) (A) (A) (A) (A) (A) (A) (A) (A) (A)
                 (A) (A) (A) (A) (A) (A) (A) (A) (A) (A) (A) (A)
                 (A) (A) (A) (A) (A) (A) (A) (A) (A) (A) (A) (A)
                 (A) (A) (A) (A) (A) (A) (A) (A) (A) (A) (A) (A)
                 (A) (A) (A) (A) (A) (A) (A) (A) (A) (A) (A) (A)
                 (A) (A) (A) (A) (A) (A) (A) (A) (A) (A) (A) (A)
                 (A) (A) (A) (A) (A) (A) (A) (A) (A) (A) (A) (A)
                 (A) (A) (A) (A) (A) (A) (A) (A) (A) (A) (A) (A)
                 (A) (A) (A) (A) (A) (A) (A) (A) (A) (A) (A) (A)
                 (A) (A) (A) (A) (A) (A) (A) (A) (A) (A) (A) (A)
                 (A) (A) (A) (A) (A) (A) (A) (A) (A) (A) (A) (A)
                 (A) (A) (A) (A) (A) (A) (A) (A) (A) (A) (A) (A)
                 (A) (A) (A) (A) (A) (A) (A) (A) (A) (A) (A) (A)
                 (A) (A) (A) (A) (A) (A) (A) (A) (A) (A) (A) (A)
                 (A) (A) (A) (A) (A) (A) (A) (A) (A) (A) (A) (A)
                 (A) (A) (A) (A) (A) (A) (A) (A) (A) (A) (A) (A)
                 (A) (A) (A) (A) (A) (A) (A) (A) (A) (A) (A) (A)
                 (A) (A) (A) (A) (A) (A) (A) (A) (A) (A) (A) (A)
                 (A) (A) (A) (A) (A) (A) (A) (A) (A) (A) (A) (A)
                 (A) (A) (A) (A) (A) (A) (A) (A) (A) (A) (A) (A)
                 (A) (A) (A) (A) (A) (A) (A) (A) (A) (A) (A) (A)
                 (A) (A) (A) (A) (A) (A) (A) (A) (A) (A) (A) (A)
                 (A) (A) (A) (A) (A) (A) (A) (A) (A) (A) (A) (A)
                 (A) (A) (A) (A) (A) (A) (A) (A) (A) (A) (A) (A)
                 (A) (A) (A) (A) (A) (A) (A) (A) (A) (A) (A) (A)
                 (A) (A) (A) (A)
 The electronic state is 1-A.
 Alpha  occ. eigenvalues --  -19.17917 -19.17070 -14.44913 -10.33457 -10.33043
 Alpha  occ. eigenvalues --  -10.33001 -10.32550 -10.25989 -10.25469 -10.25169
 Alpha  occ. eigenvalues --  -10.24868 -10.24530 -10.24135 -10.23884  -1.11266
 Alpha  occ. eigenvalues --   -1.10704  -1.08639  -0.91378  -0.90606  -0.83975
 Alpha  occ. eigenvalues --   -0.82605  -0.81630  -0.78511  -0.73749  -0.72324
 Alpha  occ. eigenvalues --   -0.68786  -0.61573  -0.58257  -0.57095  -0.55121
 Alpha  occ. eigenvalues --   -0.54548  -0.54032  -0.52471  -0.51699  -0.50863
 Alpha  occ. eigenvalues --   -0.49760  -0.49470  -0.49287  -0.48527  -0.48004
 Alpha  occ. eigenvalues --   -0.47258  -0.45238  -0.45206  -0.44044  -0.43337
 Alpha  occ. eigenvalues --   -0.42185  -0.42051  -0.41520  -0.32626  -0.32254
 Alpha  occ. eigenvalues --   -0.31356  -0.25005
 Alpha virt. eigenvalues --   -0.03637   0.02382   0.06460   0.08177   0.08629
 Alpha virt. eigenvalues --    0.09733   0.10732   0.11364   0.12568   0.13374
 Alpha virt. eigenvalues --    0.13885   0.15101   0.15614   0.16341   0.16919
 Alpha virt. eigenvalues --    0.17325   0.17850   0.18193   0.18488   0.19208
 Alpha virt. eigenvalues --    0.19969   0.21853   0.22779   0.23295   0.23855
 Alpha virt. eigenvalues --    0.24279   0.24640   0.25697   0.26382   0.26658
 Alpha virt. eigenvalues --    0.27509   0.28139   0.28541   0.29507   0.30172
 Alpha virt. eigenvalues --    0.31532   0.31916   0.32216   0.33407   0.34083
 Alpha virt. eigenvalues --    0.34779   0.35597   0.36618   0.37357   0.38441
 Alpha virt. eigenvalues --    0.39572   0.40834   0.41333   0.41802   0.42492
 Alpha virt. eigenvalues --    0.44006   0.44818   0.45424   0.46144   0.46452
 Alpha virt. eigenvalues --    0.47243   0.47551   0.47850   0.48454   0.49207
 Alpha virt. eigenvalues --    0.49730   0.50460   0.51095   0.51266   0.51470
 Alpha virt. eigenvalues --    0.52260   0.52537   0.53265   0.53474   0.54199
 Alpha virt. eigenvalues --    0.54240   0.55239   0.55767   0.56562   0.58241
 Alpha virt. eigenvalues --    0.58365   0.59912   0.60951   0.61858   0.63025
 Alpha virt. eigenvalues --    0.64191   0.64876   0.66116   0.66787   0.67277
 Alpha virt. eigenvalues --    0.68409   0.69035   0.70537   0.70808   0.71967
 Alpha virt. eigenvalues --    0.72923   0.74684   0.75169   0.75953   0.77193
 Alpha virt. eigenvalues --    0.78915   0.80717   0.83162   0.86719   0.87320
 Alpha virt. eigenvalues --    0.91531   0.95901   1.01993   1.03999   1.21821
 Alpha virt. eigenvalues --    1.24471   1.27323   1.28078   1.28827   1.30205
 Alpha virt. eigenvalues --    1.31874   1.33290   1.34511   1.35179   1.36462
 Alpha virt. eigenvalues --    1.36897   1.37727   1.38442   1.39052   1.39527
 Alpha virt. eigenvalues --    1.39947   1.40015   1.40739   1.41411   1.42105
 Alpha virt. eigenvalues --    1.43183   1.43440   1.44142   1.45498   1.47156
 Alpha virt. eigenvalues --    1.48125   1.49317   1.49554   1.50118   1.50810
 Alpha virt. eigenvalues --    1.51330   1.52103   1.52971   1.55463   1.58824
 Alpha virt. eigenvalues --    1.59499   1.59787   1.60951   1.61577   1.62135
 Alpha virt. eigenvalues --    1.62651   1.62746   1.63480   1.64534   1.65564
 Alpha virt. eigenvalues --    1.66323   1.66919   1.67557   1.68062   1.68649
 Alpha virt. eigenvalues --    1.69205   1.69909   1.70314   1.71029   1.72419
 Alpha virt. eigenvalues --    1.74139   1.74576   1.75417   1.76438   1.78355
 Alpha virt. eigenvalues --    1.81489   1.83112   1.83937   1.85788   1.86412
 Alpha virt. eigenvalues --    1.86575   1.87705   1.88575   1.89273   1.90180
 Alpha virt. eigenvalues --    1.91359   1.94436   1.95128   1.98760   1.99788
 Alpha virt. eigenvalues --    2.01686   2.03686   2.05841   2.06812   2.09290
 Alpha virt. eigenvalues --    2.09908   2.11343   2.15754   2.17532   2.19602
 Alpha virt. eigenvalues --    2.20626   2.21400   2.21977   2.22963   2.26204
 Alpha virt. eigenvalues --    2.26684   2.27400   2.29164   2.30760   2.32043
 Alpha virt. eigenvalues --    2.33220   2.34372   2.36896   2.37662   2.38930
 Alpha virt. eigenvalues --    2.39286   2.39914   2.41183   2.42578   2.45027
 Alpha virt. eigenvalues --    2.45434   2.47139   2.48570   2.49296   2.51136
 Alpha virt. eigenvalues --    2.52335   2.53811   2.54390   2.56220   2.57364
 Alpha virt. eigenvalues --    2.58735   2.60668   2.61654   2.62232   2.63348
 Alpha virt. eigenvalues --    2.64598   2.65444   2.66467   2.67432   2.68279
 Alpha virt. eigenvalues --    2.71564   2.71659   2.73884   2.74426   2.75288
 Alpha virt. eigenvalues --    2.76404   2.77224   2.77648   2.78084   2.78682
 Alpha virt. eigenvalues --    2.80496   2.81197   2.82980   2.83464   2.84904
 Alpha virt. eigenvalues --    2.85278   2.86448   2.88354   2.88847   2.91842
 Alpha virt. eigenvalues --    2.96901   2.98009   3.01207   3.07055   3.10577
 Alpha virt. eigenvalues --    3.12222   3.13489   3.18112   3.19289   3.21503
 Alpha virt. eigenvalues --    3.21959   3.22896   3.24552   3.25431   3.25924
 Alpha virt. eigenvalues --    3.29194   3.30067   3.31911   3.34435   3.36610
 Alpha virt. eigenvalues --    3.38119   3.38707   3.38945   3.39148   3.41370
 Alpha virt. eigenvalues --    3.41790   3.43687   3.44818   3.47354   3.47907
 Alpha virt. eigenvalues --    3.49636   3.50184   3.55770   3.58147   3.59340
 Alpha virt. eigenvalues --    3.61228   3.90809   4.00796   4.32087   4.35161
 Alpha virt. eigenvalues --   21.68617  21.80500  22.07510  22.09914  22.11136
 Alpha virt. eigenvalues --   22.14459  22.14636  22.17118  22.18601  22.24709
 Alpha virt. eigenvalues --   22.26636  31.91127  43.63947  43.66661
          Condensed to atoms (all electrons):
               1          2          3          4          5          6
     1  O    7.954717   0.000000  -0.000170   0.000018   0.019938   0.006497
     2  O    0.000000   8.000404   0.000284   0.000001  -0.197504   0.001443
     3  N   -0.000170   0.000284   6.341907   0.367082  -0.118133   0.334798
     4  H    0.000018   0.000001   0.367082   0.404170   0.015713  -0.043855
     5  C    0.019938  -0.197504  -0.118133   0.015713   7.223582  -0.079651
     6  C    0.006497   0.001443   0.334798  -0.043855  -0.079651   5.511571
     7  C    0.000001  -0.049654   0.399337  -0.034680   0.484604  -0.135959
     8  C   -0.000837   0.701477   0.003895  -0.000949  -0.408370   0.036529
     9  C   -0.002271   0.028485   0.015413   0.000205  -0.741962  -0.035201
    10  H    0.010027   0.000107   0.003185   0.000041  -0.081293  -0.019013
    11  H    0.008139   0.000044  -0.001103   0.000023  -0.100722   0.027685
    12  C   -0.233597  -0.003346  -0.087891   0.014226   0.191021  -0.004219
    13  C    0.710773  -0.000016   0.001402   0.000568   0.087216   0.097124
    14  C   -0.000007  -0.010226  -0.031886  -0.010568  -0.082918   0.009634
    15  H   -0.000000   0.003961   0.005429   0.002206   0.021055   0.006092
    16  H   -0.000000   0.004450  -0.001985   0.000897  -0.009886  -0.001047
    17  H    0.000000   0.002935  -0.000739   0.000790  -0.004210  -0.001486
    18  C    0.000332  -0.098402  -0.000481   0.000018  -0.242218  -0.000174
    19  H    0.000000   0.007121   0.000009  -0.000001   0.026117   0.000006
    20  H   -0.000012   0.000655   0.000010  -0.000001   0.001393   0.000167
    21  H    0.000191   0.004459   0.000106   0.000001   0.044032  -0.001234
    22  C   -0.104478   0.000000  -0.000154   0.000107   0.003233  -0.029335
    23  H    0.005365  -0.000000   0.000249  -0.000057  -0.000808  -0.021315
    24  H    0.001458   0.000000   0.000022  -0.000009  -0.000011   0.007318
    25  H    0.005769   0.000000   0.000020  -0.000002  -0.000117  -0.000861
    26  C    0.000670   0.000011  -0.025414  -0.006665   0.000619   0.205927
    27  H   -0.000217  -0.000000   0.000787   0.000693   0.000185  -0.051619
    28  H   -0.000058  -0.000000  -0.002234   0.000511   0.000329  -0.029354
    29  H    0.000022   0.000000   0.002092   0.002094  -0.000296  -0.045695
               7          8          9         10         11         12
     1  O    0.000001  -0.000837  -0.002271   0.010027   0.008139  -0.233597
     2  O   -0.049654   0.701477   0.028485   0.000107   0.000044  -0.003346
     3  N    0.399337   0.003895   0.015413   0.003185  -0.001103  -0.087891
     4  H   -0.034680  -0.000949   0.000205   0.000041   0.000023   0.014226
     5  C    0.484604  -0.408370  -0.741962  -0.081293  -0.100722   0.191021
     6  C   -0.135959   0.036529  -0.035201  -0.019013   0.027685  -0.004219
     7  C    5.413754  -0.251734  -0.237473  -0.005503   0.014230   0.033039
     8  C   -0.251734   5.468324   0.241898  -0.000214  -0.009763  -0.056497
     9  C   -0.237473   0.241898   6.443038   0.449313   0.515811  -0.153305
    10  H   -0.005503  -0.000214   0.449313   0.588611  -0.055781  -0.021732
    11  H    0.014230  -0.009763   0.515811  -0.055781   0.550736  -0.106861
    12  C    0.033039  -0.056497  -0.153305  -0.021732  -0.106861   7.330509
    13  C    0.022096  -0.010975  -0.236022  -0.008531   0.001675  -0.521209
    14  C    0.296671  -0.034849   0.002157  -0.000548   0.000337   0.002196
    15  H   -0.083603   0.005263   0.000933   0.000038  -0.000003  -0.001672
    16  H   -0.018944  -0.000628   0.001055  -0.000061   0.000065   0.000099
    17  H   -0.026766  -0.006517  -0.000156   0.000175  -0.000058   0.000335
    18  C   -0.002151   0.331589  -0.004189  -0.015702   0.007624   0.001301
    19  H    0.000250  -0.055627  -0.002633   0.000196   0.000538  -0.000146
    20  H   -0.000388  -0.025086  -0.009942   0.000676  -0.000168  -0.002193
    21  H    0.004332  -0.072313  -0.005300   0.003229  -0.008268   0.006719
    22  C    0.000273  -0.000061   0.011252   0.004074  -0.002056  -0.231857
    23  H    0.000003   0.000013   0.002487  -0.000264   0.000134   0.062662
    24  H   -0.000009   0.000001  -0.001919   0.000178  -0.000134  -0.012414
    25  H    0.000007   0.000002   0.000304  -0.000133   0.000013   0.019591
    26  C    0.002159   0.000908   0.021324  -0.000704   0.000152  -0.086496
    27  H   -0.000833   0.000001   0.000113  -0.000078   0.000008  -0.007097
    28  H   -0.000789  -0.000015  -0.000656  -0.000006   0.000040  -0.016853
    29  H    0.002852  -0.000002  -0.000434   0.000076  -0.000014   0.022298
              13         14         15         16         17         18
     1  O    0.710773  -0.000007  -0.000000  -0.000000   0.000000   0.000332
     2  O   -0.000016  -0.010226   0.003961   0.004450   0.002935  -0.098402
     3  N    0.001402  -0.031886   0.005429  -0.001985  -0.000739  -0.000481
     4  H    0.000568  -0.010568   0.002206   0.000897   0.000790   0.000018
     5  C    0.087216  -0.082918   0.021055  -0.009886  -0.004210  -0.242218
     6  C    0.097124   0.009634   0.006092  -0.001047  -0.001486  -0.000174
     7  C    0.022096   0.296671  -0.083603  -0.018944  -0.026766  -0.002151
     8  C   -0.010975  -0.034849   0.005263  -0.000628  -0.006517   0.331589
     9  C   -0.236022   0.002157   0.000933   0.001055  -0.000156  -0.004189
    10  H   -0.008531  -0.000548   0.000038  -0.000061   0.000175  -0.015702
    11  H    0.001675   0.000337  -0.000003   0.000065  -0.000058   0.007624
    12  C   -0.521209   0.002196  -0.001672   0.000099   0.000335   0.001301
    13  C    5.631575   0.000170  -0.000043  -0.000007  -0.000005   0.001533
    14  C    0.000170   5.026882   0.391505   0.405331   0.414591   0.000489
    15  H   -0.000043   0.391505   0.567162  -0.024023  -0.025946   0.000202
    16  H   -0.000007   0.405331  -0.024023   0.507686  -0.027428   0.000174
    17  H   -0.000005   0.414591  -0.025946  -0.027428   0.511691  -0.000131
    18  C    0.001533   0.000489   0.000202   0.000174  -0.000131   5.293041
    19  H   -0.000010   0.000049  -0.000004  -0.000041   0.000040   0.396604
    20  H   -0.000159  -0.000165  -0.000004  -0.000008   0.000007   0.403196
    21  H    0.001043   0.000136  -0.000014  -0.000004  -0.000028   0.378276
    22  C    0.269281  -0.000003   0.000001  -0.000000   0.000000   0.000028
    23  H   -0.100889   0.000004   0.000000   0.000000  -0.000000   0.000000
    24  H   -0.020662  -0.000001   0.000000   0.000000  -0.000000  -0.000001
    25  H   -0.032919   0.000000   0.000000  -0.000000   0.000000  -0.000000
    26  C   -0.055039   0.000364   0.000359  -0.000044  -0.000012   0.000001
    27  H   -0.001776   0.000033  -0.000006   0.000001  -0.000002   0.000000
    28  H    0.007013  -0.000079  -0.000007  -0.000004   0.000004  -0.000000
    29  H   -0.001365  -0.000077   0.000102  -0.000001   0.000000  -0.000000
              19         20         21         22         23         24
     1  O    0.000000  -0.000012   0.000191  -0.104478   0.005365   0.001458
     2  O    0.007121   0.000655   0.004459   0.000000  -0.000000   0.000000
     3  N    0.000009   0.000010   0.000106  -0.000154   0.000249   0.000022
     4  H   -0.000001  -0.000001   0.000001   0.000107  -0.000057  -0.000009
     5  C    0.026117   0.001393   0.044032   0.003233  -0.000808  -0.000011
     6  C    0.000006   0.000167  -0.001234  -0.029335  -0.021315   0.007318
     7  C    0.000250  -0.000388   0.004332   0.000273   0.000003  -0.000009
     8  C   -0.055627  -0.025086  -0.072313  -0.000061   0.000013   0.000001
     9  C   -0.002633  -0.009942  -0.005300   0.011252   0.002487  -0.001919
    10  H    0.000196   0.000676   0.003229   0.004074  -0.000264   0.000178
    11  H    0.000538  -0.000168  -0.008268  -0.002056   0.000134  -0.000134
    12  C   -0.000146  -0.002193   0.006719  -0.231857   0.062662  -0.012414
    13  C   -0.000010  -0.000159   0.001043   0.269281  -0.100889  -0.020662
    14  C    0.000049  -0.000165   0.000136  -0.000003   0.000004  -0.000001
    15  H   -0.000004  -0.000004  -0.000014   0.000001   0.000000   0.000000
    16  H   -0.000041  -0.000008  -0.000004  -0.000000   0.000000   0.000000
    17  H    0.000040   0.000007  -0.000028   0.000000  -0.000000  -0.000000
    18  C    0.396604   0.403196   0.378276   0.000028   0.000000  -0.000001
    19  H    0.512397  -0.010466  -0.024863  -0.000000   0.000000   0.000000
    20  H   -0.010466   0.486825  -0.022082  -0.000011   0.000000   0.000000
    21  H   -0.024863  -0.022082   0.539548   0.000039  -0.000001  -0.000000
    22  C   -0.000000  -0.000011   0.000039   5.425594   0.397743   0.400638
    23  H    0.000000   0.000000  -0.000001   0.397743   0.543209  -0.025995
    24  H    0.000000   0.000000  -0.000000   0.400638  -0.025995   0.490592
    25  H   -0.000000   0.000000  -0.000001   0.379722  -0.022516  -0.009171
    26  C    0.000000   0.000002  -0.000017  -0.035274   0.015311  -0.008291
    27  H   -0.000000   0.000000  -0.000000   0.002666  -0.006563   0.000116
    28  H    0.000000  -0.000000   0.000000  -0.010636  -0.001750   0.000667
    29  H    0.000000  -0.000000   0.000000   0.002056   0.000556   0.000130
              25         26         27         28         29
     1  O    0.005769   0.000670  -0.000217  -0.000058   0.000022
     2  O    0.000000   0.000011  -0.000000  -0.000000   0.000000
     3  N    0.000020  -0.025414   0.000787  -0.002234   0.002092
     4  H   -0.000002  -0.006665   0.000693   0.000511   0.002094
     5  C   -0.000117   0.000619   0.000185   0.000329  -0.000296
     6  C   -0.000861   0.205927  -0.051619  -0.029354  -0.045695
     7  C    0.000007   0.002159  -0.000833  -0.000789   0.002852
     8  C    0.000002   0.000908   0.000001  -0.000015  -0.000002
     9  C    0.000304   0.021324   0.000113  -0.000656  -0.000434
    10  H   -0.000133  -0.000704  -0.000078  -0.000006   0.000076
    11  H    0.000013   0.000152   0.000008   0.000040  -0.000014
    12  C    0.019591  -0.086496  -0.007097  -0.016853   0.022298
    13  C   -0.032919  -0.055039  -0.001776   0.007013  -0.001365
    14  C    0.000000   0.000364   0.000033  -0.000079  -0.000077
    15  H    0.000000   0.000359  -0.000006  -0.000007   0.000102
    16  H   -0.000000  -0.000044   0.000001  -0.000004  -0.000001
    17  H    0.000000  -0.000012  -0.000002   0.000004   0.000000
    18  C   -0.000000   0.000001   0.000000  -0.000000  -0.000000
    19  H   -0.000000   0.000000  -0.000000   0.000000   0.000000
    20  H    0.000000   0.000002   0.000000  -0.000000  -0.000000
    21  H   -0.000001  -0.000017  -0.000000   0.000000   0.000000
    22  C    0.379722  -0.035274   0.002666  -0.010636   0.002056
    23  H   -0.022516   0.015311  -0.006563  -0.001750   0.000556
    24  H   -0.009171  -0.008291   0.000116   0.000667   0.000130
    25  H    0.498534   0.002170   0.000502   0.000136  -0.000033
    26  C    0.002170   5.224868   0.436042   0.422361   0.385672
    27  H    0.000502   0.436042   0.501035  -0.028062  -0.023816
    28  H    0.000136   0.422361  -0.028062   0.477539  -0.015377
    29  H   -0.000033   0.385672  -0.023816  -0.015377   0.510615
 Mulliken charges:
               1
     1  O   -0.382272
     2  O   -0.396691
     3  N   -0.205839
     4  H    0.287420
     5  C   -0.050937
     6  C    0.255225
     7  C    0.174878
     8  C    0.144536
     9  C   -0.302327
    10  H    0.149636
    11  H    0.157675
    12  C   -0.136611
    13  C    0.158155
    14  C   -0.379221
    15  H    0.131016
    16  H    0.164356
    17  H    0.162917
    18  C   -0.450957
    19  H    0.150464
[...]
 00000579,0.00000606,0.00001955,-0.00001520,-0.00002681,-0.00000119,0.0
 0000163,0.00000905,-0.00000956,-0.00001751,-0.00000455,-0.00000604,0.0
 0000586,-0.00001417,-0.05812667,0.02987058,-0.03100146,0.05797043,-0.0
 0553084,-0.00394274,0.00097543,-0.00038164,0.00001708,-0.00019950,0.00
 033519,0.00007230,0.00013456,0.00001598,-0.00000154,0.00002507,-0.0001
 0301,-0.00044739,0.00010630,-0.00046781,0.00028688,0.00024322,-0.00016
 594,0.00016576,-0.00016131,0.00047289,0.00013742,0.00032467,0.00010173
 ,0.00010957,-0.00037177,0.00000037,-0.00004515,-0.00001371,-0.00003491
 ,0.00003590,0.00006524,-0.00027191,0.00011370,-0.00090056,0.00826201,-
 0.01197329,0.01167371,0.00002516,-0.00002630,-0.00001563,-0.00000453,0
 .00001541,0.00000156,-0.00003259,0.00002145,-0.00000598,-0.00002075,0.
 00000809,0.00000291,0.00002306,-0.00001828,-0.00003057,-0.00000653,-0.
 00001121,0.00000888,-0.00000013,-0.00003498,-0.00000323,0.00000557,-0.
 00000589,-0.00000420,0.02796808,-0.16618120,0.13821049,-0.03243089,0.1
 8223743,0.00060090,0.00012985,0.00056078,0.00007889,-0.00002172,0.0000
 5047,-0.00009246,-0.00017075,-0.00002215,0.00007392,0.00001316,-0.0000
 0314,-0.00008259,0.00026104,-0.00010869,0.00054063,0.00033154,-0.00027
 825,0.00001406,-0.00022140,0.00007535,-0.00010921,0.00001401,-0.000077
 99,0.00008003,-0.00012290,0.00027728,-0.00003754,0.00002112,-0.0000461
 5,0.00005048,-0.00004829,-0.00005085,0.00037182,0.00000141,0.00064053,
 -0.00274049,-0.00064135,-0.00207699,-0.00001147,-0.00000348,-0.0000041
 6,0.00000383,-0.00000233,0.00000132,0.00000182,-0.00000583,-0.00000093
 ,0.00000268,-0.00000232,-0.00000455,-0.00001568,0.00000095,0.00001423,
 0.00000125,-0.00000061,-0.00000502,0.00000306,0.00001075,0.00000169,-0
 .00000045,0.00000344,0.00000328,-0.02851997,0.13634133,-0.19628396,0.0
 3508694,-0.14873418,0.20833646,-0.00029300,0.00212120,0.00157974,-0.00
 092516,0.00002411,-0.00017885,0.00166770,0.00091735,0.00036988,-0.0000
 0984,-0.00004479,0.00005607,0.00016453,-0.00124646,0.00000586,-0.00109
 798,-0.00036491,-0.00078122,-0.00081744,0.00009614,-0.00011537,0.00131
 452,0.00027540,0.00004983,-0.00050706,0.00016443,0.00036789,0.00006454
 ,-0.00001207,0.00010844,-0.00030455,-0.00009109,-0.00005452,-0.0017310
 8,0.00008438,0.00245765,-0.00525842,-0.01415555,-0.02278742,0.00006434
 ,-0.00009810,0.00003893,-0.00002110,0.00004497,0.00000174,-0.00008956,
 0.00006135,-0.00004075,-0.00008420,0.00006351,-0.00000132,0.00006668,-
 0.00006994,-0.00005262,-0.00000844,-0.00003069,0.00003604,-0.00002886,
 -0.00008277,-0.00000658,0.00000621,-0.00004243,-0.00000382,-0.05471451
 ,-0.03040285,-0.04971089,-0.00149312,-0.00238950,-0.00397704,0.0583611
 4,-0.00181810,0.00076259,0.00311018,-0.00045550,-0.00000956,-0.0000916
 2,0.00072608,0.00028253,0.00028413,0.00002744,-0.00000557,0.00003750,0
 .00007453,-0.00069041,0.00002256,-0.00051379,0.00054710,-0.00038544,-0
 .00033034,0.00009933,0.00000711,0.00063679,0.00019249,0.00001354,-0.00
 038604,0.00011387,0.00002908,0.00003979,-0.00002827,0.00007215,-0.0001
 6667,-0.00000090,0.00000273,-0.00042475,-0.00040798,0.00107554,-0.0021
 5065,-0.01162072,-0.01594525,0.00002969,-0.00004342,-0.00000056,-0.000
 00920,0.00002224,0.00000033,-0.00004870,0.00002741,-0.00002062,-0.0000
 3373,0.00002528,-0.00000282,0.00002030,-0.00004107,-0.00001716,-0.0000
 0642,-0.00001690,0.00001469,-0.00001246,-0.00003183,0.00000152,0.00000
 701,-0.00001649,-0.00000113,-0.02846799,-0.11073692,-0.11572673,0.0049
 4714,0.01210302,0.01829813,0.03169029,0.11920426,0.00016966,0.00056246
 ,-0.00170695,0.00004698,-0.00000877,-0.00002209,-0.00024645,0.00006159
 ,0.00002932,-0.00003520,-0.00001094,-0.00004611,0.00005793,-0.00014006
 ,-0.00001814,0.00030221,-0.00013970,-0.00041629,0.00008642,0.00014819,
 0.00010221,-0.00006834,0.00000807,0.00004523,-0.00014270,0.00022098,0.
 00011417,-0.00016541,-0.00002844,-0.00007139,0.00007913,-0.00004876,-0
 .00001802,-0.00015837,-0.00107659,0.00001822,-0.00087981,0.00349761,0.
 00741890,0.00000815,0.00001268,-0.00000901,-0.00000060,-0.00000272,0.0
 0000213,0.00000244,-0.00000410,-0.00000060,0.00000921,-0.00000688,-0.0
 0000017,-0.00000433,-0.00001445,0.00000352,-0.00000097,-0.00000016,-0.
 00000044,-0.00000616,0.00000545,0.00000350,-0.00000235,0.00000588,-0.0
 0000390,-0.04517255,-0.11138754,-0.23230647,-0.00425911,-0.01253768,-0
 .01893577,0.05053371,0.12402529,0.25089735,0.00467010,0.00217815,-0.00
 236667,-0.00056527,-0.00008322,-0.00024592,0.00068798,0.00035781,0.000
 14442,0.00001180,-0.00000435,0.00003112,-0.00033672,-0.00075488,-0.000
 01208,0.00001872,-0.00010525,-0.00001700,-0.00021062,-0.00029097,-0.00
 006607,0.00052772,0.00040931,0.00028705,-0.00083249,0.00075331,-0.0006
 6405,0.00003601,0.00005476,0.00004502,-0.00001377,-0.00004044,-0.00002
 043,-0.00173542,-0.00454522,0.00080811,-0.02643910,0.01558490,0.006358
 93,0.00001149,-0.00003481,-0.00000252,-0.00001173,0.00003106,0.0000000
 4,-0.00004470,0.00003079,-0.00001164,-0.00003699,0.00002099,-0.0000029
 5,0.00000356,-0.00003794,-0.00002061,-0.00000955,-0.00002455,0.0000078
 3,0.00000684,-0.00003896,-0.00000494,0.00000715,-0.00000077,-0.0000078
 1,-0.21566705,0.12388099,0.05066340,-0.00236115,0.00105165,-0.00001204
 ,0.00666142,-0.00457438,-0.00094653,0.23537612,-0.00012507,0.00151190,
 -0.00088462,0.00010594,-0.00003928,0.00000703,-0.00010549,0.00007651,-
 0.00005400,-0.00006318,-0.00001660,-0.00002921,-0.00003527,-0.00004347
 ,-0.00003967,-0.00010585,-0.00031839,0.00014705,0.00010426,-0.00011904
 ,0.00004450,-0.00026324,0.00001932,-0.00000593,-0.00071357,0.00039437,
 -0.00042341,-0.00000715,0.00007638,-0.00003029,0.00007120,0.00001004,0
 .00000674,-0.00124579,-0.00279942,0.00002447,-0.01940725,0.01025133,0.
 00622712,-0.00000997,0.00002718,0.00000866,-0.00000371,-0.00000180,-0.
 00000046,0.00001335,-0.00000725,0.00000511,0.00000969,-0.00000574,-0.0
 0000008,-0.00001640,0.00000120,0.00000732,0.00000085,-0.00000007,-0.00
 000434,0.00000287,0.00001239,0.00000147,-0.00000104,0.00001053,-0.0000
 0529,0.12817328,-0.13797455,-0.03421186,0.01430960,-0.01018527,-0.0063
 0018,0.01216890,-0.00877795,-0.00247863,-0.13372752,0.14832904,-0.0002
 4220,0.00022801,0.00011786,0.00031666,-0.00002506,0.00020430,-0.000539
 12,-0.00024948,-0.00004432,-0.00000563,0.00000881,-0.00001645,0.000023
 21,0.00049296,-0.00004749,0.00022632,0.00023225,-0.00006606,0.00027369
 ,-0.00007962,0.00009452,-0.00038881,-0.00007412,-0.00035852,-0.0000510
 6,-0.00030618,0.00029682,0.00011558,0.00006790,-0.00001166,-0.00003170
 ,0.00000534,-0.00000786,0.00057219,0.00064017,0.00050254,0.00144318,-0
 .00359955,-0.00179168,-0.00002559,0.00003362,-0.00000427,0.00000643,-0
 .00001528,-0.00000212,0.00003227,-0.00002726,0.00001015,0.00002829,-0.
 00001440,-0.00000314,-0.00002847,0.00001648,0.00004596,0.00000347,0.00
 000985,-0.00001393,0.00000414,0.00003766,0.00000346,-0.00000300,0.0000
 1040,0.00000406,0.05007528,-0.03272150,-0.06113213,-0.01961421,0.01232
 954,0.00740712,0.02212877,-0.01504537,-0.00545338,-0.05399924,0.038113
 47,0.06010368,0.00012265,0.00004959,-0.00001399,0.00140250,-0.00021436
 ,0.00051240,-0.03547273,-0.03485679,-0.00835125,-0.00035312,-0.0030690
 9,0.00026494,-0.00096439,0.00122849,0.00005646,-0.12138144,-0.04259774
 ,-0.01117171,0.00008768,0.00202400,-0.00071129,-0.00155894,-0.00004273
 ,-0.00051168,-0.00132192,0.00304951,-0.00134989,0.00011370,0.00060227,
 -0.00001556,0.00022415,0.00045381,-0.00013693,0.01671877,0.00190463,0.
 00152949,-0.00169221,0.00059386,0.00049405,-0.00035976,-0.00066246,-0.
 00022019,0.00011554,0.00000500,0.00000601,-0.00008073,-0.00000181,0.00
 002795,-0.00002264,-0.00008837,-0.00006399,-0.00007157,-0.00005017,0.0
 0003663,0.00004749,0.00001766,-0.00001624,-0.00001613,0.00012296,-0.00
 000732,-0.00003117,0.00002974,0.00001043,-0.00139834,0.00131856,0.0007
 9559,-0.00141510,0.00152562,-0.00062076,-0.00017036,-0.00002433,0.0003
 6401,0.00019738,0.00043833,-0.00029371,0.57418764,0.00006935,-0.001276
 63,0.00027755,0.00263955,-0.00024292,0.00092553,-0.00725642,0.00123378
 ,-0.00291445,0.00237480,0.00251722,0.00162934,0.00093372,0.00255661,0.
 00009265,-0.06564808,-0.18721533,-0.01202389,0.00462321,-0.00221163,0.
 00020318,-0.00339844,-0.00063065,-0.00118251,0.00240880,-0.00033621,-0
 .00014065,-0.00037075,-0.00054220,0.00002061,-0.00048468,-0.00065064,0
 .00011842,-0.01243424,-0.02330302,-0.00272512,-0.00224135,0.00266458,-
 0.00006441,-0.00007378,0.00067019,0.00012456,-0.00002869,-0.00014669,-
 0.00001285,0.00027439,-0.00018541,0.00006830,0.00024362,-0.00012995,-0
 .00000800,-0.00021708,-0.00011236,0.00017434,-0.00000943,0.00005744,-0
 .00007198,-0.00005049,0.00023909,0.00005802,-0.00004918,0.00014084,-0.
 00008861,0.00370956,-0.00133018,-0.00125775,0.00108477,-0.00112106,0.0
 0118651,0.00010904,-0.00023792,-0.00067271,-0.00009838,-0.00081641,0.0
 0008435,-0.04026290,0.52004696,-0.00031861,0.00017646,-0.00026115,0.00
 036032,0.00003743,0.00016251,-0.01310923,-0.01061316,-0.00028174,0.002
 01898,-0.00008558,-0.00280529,0.00039287,-0.00024271,-0.00030932,-0.01
 359486,-0.01589588,-0.06620842,0.00013942,0.00219759,0.00436576,-0.000
 29835,-0.00034422,-0.00045025,-0.00097668,0.00106781,0.00322817,-0.000
 29670,-0.00053704,0.00009673,0.00033187,0.00060235,0.00011358,0.000783
 38,0.00312413,0.00281297,0.00120939,0.00032794,-0.00061682,-0.00060674
 ,-0.00005519,0.00134405,0.00003140,-0.00008321,-0.00004845,0.00040347,
 -0.00028850,0.00014584,-0.00041154,0.00023510,-0.00004508,-0.00004163,
 0.00004099,-0.00004594,-0.00001599,0.00000442,-0.00000485,-0.00003446,
 -0.00000868,0.00003410,0.00005722,0.00005200,0.00004594,0.00112016,-0.
 00032963,0.00055890,0.00078702,-0.00042331,0.00011734,-0.00029344,-0.0
 0025248,-0.00081658,0.00003646,-0.00044659,-0.00049628,0.01153017,-0.0
 0706245,0.55070633,-0.00005345,-0.00024527,0.00018093,-0.00071126,0.00
 003348,-0.00024006,-0.00178426,-0.00347139,-0.00175126,0.00075428,-0.0
 0022329,-0.00004251,-0.00014202,-0.00073269,0.00004600,-0.01242328,-0.
 00065904,-0.01081085,-0.00043175,0.00098930,-0.00004086,0.00089550,0.0
 0015454,0.00030022,-0.00015325,-0.00030395,0.00027857,0.00001298,-0.00
 000630,-0.00001962,0.00001340,0.00006695,-0.00000740,-0.00010854,0.002
 02887,0.00063962,0.00080511,-0.00003591,-0.00051712,-0.00009471,-0.000
 18605,0.00016980,0.00002700,0.00002543,-0.00000134,-0.00003496,0.00001
 517,-0.00000843,-0.00012783,0.00005613,-0.00002103,0.00002483,0.000001
 97,-0.00004218,-0.00000767,-0.00002335,0.00001048,0.00001560,-0.000060
 46,-0.00001218,0.00001450,-0.00002036,0.00000962,-0.00130258,0.0008084
 1,0.00020566,-0.00018405,0.00016448,0.00027248,-0.00108678,0.00133036,
 0.00033214,-0.00002989,0.00011748,0.00014862,-0.15160572,0.01372947,-0
 .13569956,0.16757964,0.00029473,-0.00007967,0.00011106,-0.00045999,-0.
 00006540,-0.00009142,-0.00071410,-0.00379108,-0.00127007,-0.00036263,-
 0.00052411,-0.00033687,-0.00051659,0.00031157,-0.00044733,-0.02030471,
 0.00409983,-0.02227600,-0.00127845,-0.00041865,0.00043558,0.00058168,0
 .00036376,0.00001002,-0.00008784,-0.00005271,0.00039761,0.00005837,0.0
 0007438,0.00001735,0.00006070,0.00015928,-0.00000938,0.00065865,0.0006
 4828,0.00083656,-0.00054559,-0.00059871,-0.00029418,-0.00015912,-0.000
 20004,0.00036435,0.00000212,0.00003012,-0.00000266,0.00002437,-0.00002
 328,0.00000151,-0.00016597,0.00007540,-0.00003767,-0.00001188,0.000003
 42,0.00001826,-0.00000228,-0.00002356,0.00000390,0.00001740,-0.0000170
 9,-0.00000198,0.00001946,-0.00001359,0.00002110,0.00092183,-0.00061318
 ,-0.00040374,0.00019678,-0.00018559,-0.00012628,0.00125577,-0.00068514
 ,-0.00004468,0.00009161,0.00002851,0.00006859,0.01463541,-0.05022622,0
 .01722064,-0.01283607,0.05347711,0.00023989,0.00004558,0.00016241,-0.0
 0049617,0.00005784,-0.00018550,0.00187954,0.00014844,-0.00058989,-0.00
 013142,-0.00003922,0.00003556,-0.00009804,-0.00041608,0.00006687,-0.00
 128101,-0.00128586,0.00099712,-0.00022328,0.00036763,-0.00047470,0.000
 58542,0.00005935,0.00026602,0.00003205,-0.00023416,0.00016019,-0.00001
 426,-0.00000029,-0.00003040,0.00001329,0.00004508,-0.00001670,0.000023
 98,0.00048288,0.00035049,-0.00045157,-0.00051881,-0.00070692,0.0000202
 2,-0.00005171,0.00013794,-0.00000246,0.00001540,-0.00000155,-0.0000115
 6,0.00001305,-0.00000124,-0.00006192,0.00002707,0.00000111,0.00003332,
 0.00002626,-0.00002622,-0.00000364,-0.00001035,0.00000833,0.00001424,-
 0.00004486,-0.00001287,0.00000648,-0.00001930,0.00000379,-0.00123903,0
 .00048088,0.00025270,0.00003853,-0.00008634,-0.00082099,0.00010283,0.0
 0031333,0.00090644,-0.00000594,0.00055380,0.00014114,-0.13527478,0.015
 45662,-0.21382887,0.14743102,-0.01866214,0.22727213,0.00013755,-0.0004
 9344,0.00006421,-0.00110565,0.00006589,-0.00039205,0.00116594,-0.00156
 706,0.00070306,-0.00003533,-0.00009228,0.00070164,-0.00017712,-0.00085
 186,-0.00021307,-0.01166294,-0.00822292,0.00951658,-0.00120103,0.00024
 443,-0.00075685,0.00134086,0.00023861,0.00045536,0.00001782,-0.0005564
 5,-0.00003201,0.00004383,0.00008212,-0.00006141,-0.00004472,-0.0000174
 3,-0.00002125,-0.00087083,0.00210098,0.00004868,0.00039314,0.00033145,
 0.00006766,0.00009567,-0.00016865,-0.00015474,0.00000070,0.00004908,0.
 00001656,-0.00016466,0.00007878,-0.00006103,-0.00004711,0.00002987,-0.
 00000553,0.00003056,0.00001085,-0.00001268,-0.00001055,-0.00003791,0.0
 0002003,0.00002441,-0.00007930,-0.00001774,0.00001614,-0.00004240,0.00
 000926,-0.00049568,0.00018631,0.00022489,-0.00078423,0.00167152,-0.000
 28371,0.00000697,0.00002828,-0.00017423,0.00005074,-0.00009111,-0.0000
 3092,-0.11898453,-0.02988368,0.11703706,0.01169543,0.00479442,-0.01652
 409,0.13124664,0.00028775,0.00070406,-0.00016184,-0.00188005,0.0000066
 7,-0.00065100,0.00439427,-0.00036105,0.00193935,-0.00019720,-0.0000613
 1,0.00013678,-0.00105185,-0.00097185,-0.00008543,-0.01934052,-0.008342
 33,0.02011543,-0.00194615,-0.00111445,-0.00092529,0.00232571,0.0008903
 8,0.00086602,0.00028405,-0.00057145,-0.00052997,0.00012693,0.00017207,
 -0.00005811,0.00000187,-0.00006166,-0.00005700,-0.00073277,-0.00019783
 ,-0.00076388,-0.00045234,-0.00081808,0.00064134,0.00021071,-0.00022419
 ,-0.00038237,-0.00002773,0.00011216,0.00001230,-0.00025928,0.00016933,
 -0.00007660,-0.00004047,0.00002341,0.00000731,0.00007378,-0.00001788,-
 0.00006615,-0.00001146,-0.00005752,0.00003069,0.00004550,-0.00012967,-
 0.00002597,0.00002062,-0.00007047,0.00002315,0.00029089,-0.00025264,0.
 00035066,0.00150458,-0.00109082,-0.00018790,-0.00001042,-0.00003713,0.
 00000789,-0.00005121,0.00027083,-0.00019106,-0.03185560,-0.05844352,0.
 04918596,-0.00112227,-0.00084205,0.00270238,0.03694289,0.06491842,-0.0
 0013243,-0.00006867,0.00013816,0.00027902,-0.00001369,0.00007162,-0.00
 071985,-0.00046546,-0.00064011,-0.00015962,0.00002717,0.00011802,-0.00
 000849,0.00024007,0.00033033,-0.00383151,0.00239444,0.01057355,0.00023
 091,-0.00012360,-0.00092148,-0.00038395,-0.00010196,-0.00001561,0.0000
 0021,0.00020153,-0.00016117,-0.00004899,0.00000298,-0.00002399,-0.0000
 1056,-0.00000041,-0.00002643,0.00111384,-0.00090119,-0.00031884,-0.000
 10405,0.00003313,-0.00036875,-0.00000832,-0.00001360,-0.00005335,0.000
 01435,-0.00000491,-0.00000385,-0.00000461,0.00000224,0.00001260,0.0000
 2904,-0.00003254,0.00000865,-0.00000157,-0.00000348,-0.00001612,0.0000
 0278,0.00001047,-0.00000426,-0.00000457,0.00001211,-0.00000147,-0.0000
 0731,0.00001531,-0.00001163,0.00068893,-0.00036661,-0.00082916,0.00011
 448,-0.00045804,0.00108626,-0.00000101,0.00016851,0.00003324,-0.000005
 97,-0.00029263,0.00027143,0.11388814,0.04618358,-0.22166574,0.01387749
 ,0.00478605,-0.02069491,-0.12669302,-0.05145356,0.23692076,0.00021840,
 0.00012298,-0.00004389,0.00020500,0.00000711,0.00007777,0.00074525,-0.
 00278081,-0.00020768,-0.00116296,-0.00008421,-0.00035506,0.00031163,0.
 00015437,-0.00024910,0.01027323,-0.01590813,-0.00400197,0.00043817,-0.
 00041790,0.00008916,-0.00026471,-0.00012142,-0.00016446,0.00011580,-0.
 00048115,0.00035450,-0.00005903,-0.00011916,-0.00000889,-0.00002474,-0
 .00007297,0.00001210,-0.00214209,-0.00172175,-0.00022778,-0.00054501,-
 0.00031796,-0.00002760,-0.00002916,0.00013573,0.00019300,-0.00002105,-
 0.00001322,0.00000223,0.00007446,-0.00004379,0.00000321,0.00000362,0.0
 0002205,-0.00000439,-0.00004588,0.00000104,0.00005823,-0.00000441,-0.0
 0000309,-0.00000798,-0.00000304,0.00002909,0.00000499,-0.00000311,0.00
 001118,-0.00000630,-0.00079707,0.00043356,0.00070807,0.00000960,0.0002
 1766,-0.00067940,0.00026344,-0.00013462,0.00027111,0.00002740,0.000405
 86,-0.00014443,-0.15631672,0.13030728,0.02945862,-0.01155628,0.0138319
 2,0.00539835,-0.01068203,0.01246977,0.00188664,0.17097129,0.00016640,0
 .00000060,0.00004719,-0.00091311,-0.00001334,-0.00031947,0.00548273,0.
 00256662,0.00223426,-0.00174942,-0.00034173,-0.00108374,-0.00023137,-0
 .00009065,0.00000630,0.01605257,-0.02404892,-0.00388722,-0.00130768,-0
 .00090880,-0.00011391,0.00103789,0.00047323,0.00037673,0.00081641,-0.0
 0067390,0.00026561,-0.00004348,-0.00020826,-0.00002148,-0.00008401,-0.
 00018647,0.00004169,-0.00444235,-0.00187457,-0.00179200,-0.00011062,0.
 00021790,0.00006072,0.00010066,-0.00005314,-0.00007345,-0.00005055,0.0
 0006993,-0.00000752,-0.00007834,0.00007638,-0.00002143,-0.00003903,0.0
 0003399,0.00000985,0.00002548,-0.00002077,-0.00003613,-0.00002320,-0.0
 0002397,0.00000874,0.00001379,-0.00006502,0.00000564,0.00002196,-0.000
 01306,0.00000217,-0.00013176,0.00013951,-0.00005213,0.00010388,-0.0000
 5331,-0.00002373,-0.00003527,0.00000807,0.00004673,-0.00003246,0.00008
 571,-0.00003051,0.12572692,-0.20096776,-0.03760417,0.00040437,-0.00091
 160,0.00057354,-0.00475100,0.00639857,0.00022277,-0.13592942,0.2203847
 4,-0.00003728,0.00022000,-0.00005796,-0.00031591,-0.00001045,-0.000093
 46,0.00140403,0.00009789,0.00054312,-0.00083548,-0.00050933,0.00006119
 ,-0.00022814,-0.00002436,-0.00009512,0.00146777,-0.00094553,-0.0019922
 1,-0.00031421,-0.00058945,-0.00013797,0.00038507,0.00021867,0.00009553
 ,0.00006342,-0.00004040,0.00020109,-0.00002163,-0.00004341,0.00004900,
 0.00000485,0.00006111,0.00004170,-0.00033550,-0.00050622,0.00035033,0.
 00001345,-0.00021536,-0.00004685,0.00003957,0.00001009,-0.00002058,-0.
 00002198,0.00002263,0.00000619,-0.00001585,0.00001797,-0.00000599,-0.0
 0000150,0.00001728,0.00000444,0.00001053,-0.00000127,-0.00000306,-0.00
 000287,-0.00001086,0.00000449,0.00000495,-0.00001900,0.00000026,0.0000
 0625,-0.00000972,0.00000634,-0.00008518,0.00024651,-0.00038414,-0.0001
 1691,-0.00015556,0.00014747,0.00016747,0.00001288,0.00025110,0.0000300
 4,0.00006045,0.00024625,0.02924300,-0.03837816,-0.05584744,-0.01468827
 ,0.01971181,0.00662852,0.01656934,-0.02040314,-0.00380774,-0.03238905,
 0.04116495,0.05385551\\-0.00000346,0.00000138,-0.00000449,0.00000947,-
 0.00000489,-0.00000386,0.00001227,0.00000561,0.00002109,0.00000581,0.0
 0001073,-0.00000116,0.00000188,0.00001209,0.00000317,-0.00001998,0.000
 01514,-0.00000840,0.00000146,-0.00001386,-0.00000477,-0.00001175,-0.00
 000282,-0.00000046,-0.00000098,0.00000096,0.00000546,0.00000516,0.0000
 0395,-0.00000643,-0.00000072,-0.00000750,-0.00001004,0.00000296,-0.000
 01416,-0.00000084,0.00000405,-0.00000473,0.00000246,0.00000185,0.00000
 161,-0.00001527,-0.00000517,-0.00000621,0.00001159,0.00000297,0.000005
 19,0.00000979,-0.00000768,0.,0.00000880,0.00000625,-0.00000020,-0.0000
 0900,0.00000069,-0.00000004,-0.00001089,0.00000087,-0.00000086,-0.0000
 0809,0.00000128,-0.00000031,-0.00000593,0.00000010,0.00000639,-0.00000
 069,-0.00000688,0.00000077,0.00000399,0.00000486,0.00000155,0.00000172
 ,0.00000295,0.00000139,0.00000093,-0.00000255,-0.00000183,-0.00000042,
 -0.00000159,-0.00000731,0.00000380,-0.00000147,0.00000452,0.00001370,-
 0.00000261,-0.00000657,0.00000425\\\@


 FRICTION IS A DRAG,
 AND ENTROPY AIN'T WHAT IT USED TO BE.
 Job cpu time:       0 days  6 hours 58 minutes 10.7 seconds.
 Elapsed time:       0 days  0 hours 13 minutes 10.2 seconds.
 File lengths (MBytes):  RWF=   1396 Int=      0 D2E=      0 Chk=     67 Scr=      1
 Normal termination of Gaussian 16 at Fri Jun 12 21:01:30 2026.
