 Entering Gaussian System, Link 0=g16
 Input=DDL-S1min-S1-cLR-1.gjf
 Output=DDL-S1min-S1-cLR-1.log
 Initial command:
 /data/home/wyx/g16/l1.exe "/scr/tmp/wyx/13031/Gau-1829886.inp" -scrdir="/scr/tmp/wyx/13031/"
 Entering Link 1 = /data/home/wyx/g16/l1.exe PID=   1829887.
  
 Copyright (c) 1988,1990,1992,1993,1995,1998,2003,2009,2016,
            Gaussian, Inc.  All Rights Reserved.
  
 This is part of the Gaussian(R) 16 program.  It is based on
 the Gaussian(R) 09 system (copyright 2009, Gaussian, Inc.),
 the Gaussian(R) 03 system (copyright 2003, Gaussian, Inc.),
 the Gaussian(R) 98 system (copyright 1998, Gaussian, Inc.),
 the Gaussian(R) 94 system (copyright 1995, Gaussian, Inc.),
 the Gaussian 92(TM) system (copyright 1992, Gaussian, Inc.),
 the Gaussian 90(TM) system (copyright 1990, Gaussian, Inc.),
 the Gaussian 88(TM) system (copyright 1988, Gaussian, Inc.),
 the Gaussian 86(TM) system (copyright 1986, Carnegie Mellon
 University), and the Gaussian 82(TM) system (copyright 1983,
 Carnegie Mellon University). Gaussian is a federally registered
 trademark of Gaussian, Inc.
  
 This software contains proprietary and confidential information,
 including trade secrets, belonging to Gaussian, Inc.
  
 This software is provided under written license and may be
 used, copied, transmitted, or stored only in accord with that
 written license.
  
 The following legend is applicable only to US Government
 contracts under FAR:
  
                    RESTRICTED RIGHTS LEGEND
  
 Use, reproduction and disclosure by the US Government is
 subject to restrictions as set forth in subparagraphs (a)
 and (c) of the Commercial Computer Software - Restricted
 Rights clause in FAR 52.227-19.
  
 Gaussian, Inc.
 340 Quinnipiac St., Bldg. 40, Wallingford CT 06492
  
  
 ---------------------------------------------------------------
 Warning -- This program may not be used in any manner that
 competes with the business of Gaussian, Inc. or will provide
 assistance to any competitor of Gaussian, Inc.  The licensee
 of this program is prohibited from giving any competitor of
 Gaussian, Inc. access to this program.  By using this program,
 the user acknowledges that Gaussian, Inc. is engaged in the
 business of creating and licensing software in the field of
 computational chemistry and represents and warrants to the
 licensee that it is not a competitor of Gaussian, Inc. and that
 it will not use this program in any manner prohibited above.
 ---------------------------------------------------------------
  

 Cite this work as:
 Gaussian 16, Revision A.03,
 M. J. Frisch, G. W. Trucks, H. B. Schlegel, G. E. Scuseria, 
 M. A. Robb, J. R. Cheeseman, G. Scalmani, V. Barone, 
 G. A. Petersson, H. Nakatsuji, X. Li, M. Caricato, A. V. Marenich, 
 J. Bloino, B. G. Janesko, R. Gomperts, B. Mennucci, H. P. Hratchian, 
 J. V. Ortiz, A. F. Izmaylov, J. L. Sonnenberg, D. Williams-Young, 
 F. Ding, F. Lipparini, F. Egidi, J. Goings, B. Peng, A. Petrone, 
 T. Henderson, D. Ranasinghe, V. G. Zakrzewski, J. Gao, N. Rega, 
 G. Zheng, W. Liang, M. Hada, M. Ehara, K. Toyota, R. Fukuda, 
 J. Hasegawa, M. Ishida, T. Nakajima, Y. Honda, O. Kitao, H. Nakai, 
 T. Vreven, K. Throssell, J. A. Montgomery, Jr., J. E. Peralta, 
 F. Ogliaro, M. J. Bearpark, J. J. Heyd, E. N. Brothers, K. N. Kudin, 
 V. N. Staroverov, T. A. Keith, R. Kobayashi, J. Normand, 
 K. Raghavachari, A. P. Rendell, J. C. Burant, S. S. Iyengar, 
 J. Tomasi, M. Cossi, J. M. Millam, M. Klene, C. Adamo, R. Cammi, 
 J. W. Ochterski, R. L. Martin, K. Morokuma, O. Farkas, 
 J. B. Foresman, and D. J. Fox, Gaussian, Inc., Wallingford CT, 2016.
 
 ******************************************
 Gaussian 16:  ES64L-G16RevA.03 25-Dec-2016
                20-Jan-2026 
 ******************************************
 %nprocshared=32
 Will use up to   32 processors via shared memory.
 %mem=16GB
 %oldchk=DDL-S1min-S1-cLR.chk
 %chk=DDL-S1min-S1-cLR-1.chk
 Copying data from "DDL-S1min-S1-cLR.chk" to current chk file "DDL-S1min-S1-cLR-1.chk"
 IOpt=  2 FromEx=T IUOpen= 4 IOptOp= 5 NList=   0 IFRang= 0 IUIn= 4 IUOut= 2.
 ----------------------------------------------------------------------
 #p CAM-B3LYP/TZVP em=gd3bj SCRF=(Solvent=Water,NonEquilibrium=Read) Ge
 om=Check Guess=Read NoSymm
 ----------------------------------------------------------------------
 1/29=2,38=1,172=1/1;
 2/12=2,15=1,40=1/2;
 3/5=19,7=101,11=2,14=-4,25=1,30=1,70=6002201,72=1,74=-40,116=-2,124=41/1,2,3;
 4/5=1/1;
 5/5=2,38=6,53=1/2;
 6/7=2,8=2,9=2,10=2,28=1/1;
 99/5=1,9=1/99;
 Leave Link    1 at Tue Jan 20 20:55:06 2026, MaxMem=  2147483648 cpu:               3.3 elap:               0.2
 (Enter /data/home/wyx/g16/l101.exe)
 -------------------
 Title Card Required
 -------------------
 Structure from the checkpoint file:  "DDL-S1min-S1-cLR-1.chk"
 Charge =  0 Multiplicity = 1
 Redundant internal coordinates found in file.  (old form).
 O,0,1.2615009389,9.837065498,1.2932516823
 O,0,-4.7745357232,9.727353672,-0.4491234194
 N,0,-2.1201500642,12.9137798229,0.2746956904
 H,0,-2.4285517001,13.8757693115,0.2031886512
 C,0,-2.6998196861,10.6310106954,0.2067580492
 C,0,-0.8009809025,12.7424314888,0.5652623084
 C,0,-3.0770795512,11.982171729,0.076464449
 C,0,-3.6153652651,9.5408258738,-0.0499093799
 C,0,-1.3180439892,10.323565953,0.6196091911
 H,0,-1.3373788496,9.8512898282,1.621554937
 H,0,-0.9044354886,9.5064552436,0.0154451732
 C,0,-0.3369155576,11.4238636036,0.6856649505
 C,0,1.0296928645,10.9991612128,0.9206762005
 C,0,-4.4394273977,12.5051329282,-0.2333447788
 H,0,-4.4483218668,13.594498771,-0.1839832936
 H,0,-4.7659083335,12.1993746905,-1.2260411257
 H,0,-5.1757940645,12.118255847,0.4690298646
 C,0,-3.1340528374,8.1191160074,0.1366047233
 H,0,-4.0041225695,7.4756168188,0.2449632492
 H,0,-2.5795467534,7.7923658319,-0.7471694862
 H,0,-2.4838983152,7.9886379762,0.9995908046
 C,0,2.2043848351,11.9155725205,0.6790246528
 H,0,2.0301642392,12.6409818659,-0.110936623
 H,0,2.4620676487,12.4591625955,1.5908539868
 H,0,3.0582282669,11.2954181281,0.412397229
 C,0,-0.0305856345,14.0067385111,0.7638430092
 H,0,0.6551961759,13.9234404613,1.6036750973
 H,0,0.5529327316,14.2831694407,-0.1168342513
 H,0,-0.708424181,14.8336081232,0.9767884578
 Recover connectivity data from disk.
 ITRead=  0  0  0  0  0  0  0  0  0  0  0  0  0  0  0  0  0  0  0  0
 ITRead=  0  0  0  0  0  0  0  0  0
 MicOpt= -1 -1 -1 -1 -1 -1 -1 -1 -1 -1 -1 -1 -1 -1 -1 -1 -1 -1 -1 -1
 MicOpt= -1 -1 -1 -1 -1 -1 -1 -1 -1
                           ----------------------------
                           !    Current Parameters    !
                           ! (Angstroms and Degrees)  !
 --------------------------                            --------------------------
 ! Name  Definition              Value                                          !
 --------------------------------------------------------------------------------
 ! R1    R(1,13)                 1.2422                                         !
 ! R2    R(2,8)                  1.2401                                         !
 ! R3    R(3,4)                  1.0127                                         !
 ! R4    R(3,6)                  1.3616                                         !
 ! R5    R(3,7)                  1.3501                                         !
 ! R6    R(5,7)                  1.4089                                         !
 ! R7    R(5,8)                  1.4466                                         !
 ! R8    R(5,9)                  1.4745                                         !
 ! R9    R(6,12)                 1.403                                          !
 ! R10   R(6,26)                 1.4938                                         !
 ! R11   R(7,14)                 1.4918                                         !
 ! R12   R(8,18)                 1.5125                                         !
 ! R13   R(9,10)                 1.1078                                         !
 ! R14   R(9,11)                 1.0972                                         !
 ! R15   R(9,12)                 1.4757                                         !
 ! R16   R(12,13)                1.4502                                         !
 ! R17   R(13,22)                1.5093                                         !
 ! R18   R(14,15)                1.0905                                         !
 ! R19   R(14,16)                1.0888                                         !
 ! R20   R(14,17)                1.0887                                         !
 ! R21   R(18,19)                1.0876                                         !
 ! R22   R(18,20)                1.0933                                         !
 ! R23   R(18,21)                1.0883                                         !
 ! R24   R(22,23)                1.0866                                         !
 ! R25   R(22,24)                1.0924                                         !
 ! R26   R(22,25)                1.0885                                         !
 ! R27   R(26,27)                1.0875                                         !
 ! R28   R(26,28)                1.092                                          !
 ! R29   R(26,29)                1.0902                                         !
 ! A1    A(4,3,6)              115.4441                                         !
 ! A2    A(4,3,7)              115.4184                                         !
 ! A3    A(6,3,7)              129.136                                          !
 ! A4    A(7,5,8)              122.4709                                         !
 ! A5    A(7,5,9)              118.4754                                         !
 ! A6    A(8,5,9)              119.0538                                         !
 ! A7    A(3,6,12)             117.1956                                         !
 ! A8    A(3,6,26)             114.9302                                         !
 ! A9    A(12,6,26)            127.8382                                         !
 ! A10   A(3,7,5)              117.2821                                         !
 ! A11   A(3,7,14)             115.8401                                         !
 ! A12   A(5,7,14)             126.8656                                         !
 ! A13   A(2,8,5)              122.3685                                         !
 ! A14   A(2,8,18)             118.5897                                         !
 ! A15   A(5,8,18)             119.019                                          !
 ! A16   A(5,9,10)             109.0112                                         !
 ! A17   A(5,9,11)             110.7548                                         !
 ! A18   A(5,9,12)             118.6924                                         !
 ! A19   A(10,9,11)            100.7845                                         !
 ! A20   A(10,9,12)            106.7969                                         !
 ! A21   A(11,9,12)            109.2269                                         !
 ! A22   A(6,12,9)             118.4887                                         !
 ! A23   A(6,12,13)            126.928                                          !
 ! A24   A(9,12,13)            114.5458                                         !
 ! A25   A(1,13,12)            119.8957                                         !
 ! A26   A(1,13,22)            118.0862                                         !
 ! A27   A(12,13,22)           121.9815                                         !
 ! A28   A(7,14,15)            110.3794                                         !
 ! A29   A(7,14,16)            111.3909                                         !
 ! A30   A(7,14,17)            111.0468                                         !
 ! A31   A(15,14,16)           108.6231                                         !
 ! A32   A(15,14,17)           108.679                                          !
 ! A33   A(16,14,17)           106.5947                                         !
 ! A34   A(8,18,19)            108.2922                                         !
 ! A35   A(8,18,20)            110.0377                                         !
 ! A36   A(8,18,21)            113.6138                                         !
 ! A37   A(19,18,20)           108.0264                                         !
 ! A38   A(19,18,21)           109.1456                                         !
 ! A39   A(20,18,21)           107.5876                                         !
 ! A40   A(13,22,23)           113.3884                                         !
 ! A41   A(13,22,24)           110.6145                                         !
 ! A42   A(13,22,25)           107.6868                                         !
 ! A43   A(23,22,24)           108.2077                                         !
 ! A44   A(23,22,25)           109.1516                                         !
 ! A45   A(24,22,25)           107.6346                                         !
 ! A46   A(6,26,27)            111.2889                                         !
 ! A47   A(6,26,28)            112.4961                                         !
 ! A48   A(6,26,29)            110.319                                          !
 ! A49   A(27,26,28)           107.7728                                         !
 ! A50   A(27,26,29)           107.4184                                         !
 ! A51   A(28,26,29)           107.3236                                         !
 ! D1    D(4,3,6,12)           179.4034                                         !
 ! D2    D(4,3,6,26)             1.4123                                         !
 ! D3    D(7,3,6,12)            -0.145                                          !
 ! D4    D(7,3,6,26)          -178.1362                                         !
 ! D5    D(4,3,7,5)           -178.1304                                         !
 ! D6    D(4,3,7,14)             0.6857                                         !
 ! D7    D(6,3,7,5)              1.4181                                         !
 ! D8    D(6,3,7,14)          -179.7657                                         !
 ! D9    D(8,5,7,3)           -176.6626                                         !
 ! D10   D(8,5,7,14)             4.6692                                         !
 ! D11   D(9,5,7,3)              3.2896                                         !
 ! D12   D(9,5,7,14)          -175.3786                                         !
 ! D13   D(7,5,8,2)              2.7751                                         !
 ! D14   D(7,5,8,18)          -178.9866                                         !
 ! D15   D(9,5,8,2)           -177.1768                                         !
 ! D16   D(9,5,8,18)             1.0615                                         !
 ! D17   D(7,5,9,10)           113.5829                                         !
 ! D18   D(7,5,9,11)          -136.4052                                         !
 ! D19   D(7,5,9,12)            -8.8975                                         !
 ! D20   D(8,5,9,10)           -66.4633                                         !
 ! D21   D(8,5,9,11)            43.5486                                         !
 ! D22   D(8,5,9,12)           171.0564                                         !
 ! D23   D(3,6,12,9)            -5.7192                                         !
 ! D24   D(3,6,12,13)          176.6389                                         !
 ! D25   D(26,6,12,9)          171.974                                          !
 ! D26   D(26,6,12,13)          -5.6679                                         !
 ! D27   D(3,6,26,27)          138.4544                                         !
 ! D28   D(3,6,26,28)         -100.4845                                         !
 ! D29   D(3,6,26,29)           19.319                                          !
 ! D30   D(12,6,26,27)         -39.283                                          !
 ! D31   D(12,6,26,28)          81.7781                                         !
 ! D32   D(12,6,26,29)        -158.4184                                         !
 ! D33   D(3,7,14,15)           -3.7006                                         !
 ! D34   D(3,7,14,16)          117.0555                                         !
 ! D35   D(3,7,14,17)         -124.2992                                         !
 ! D36   D(5,7,14,15)          174.9843                                         !
 ! D37   D(5,7,14,16)          -64.2596                                         !
 ! D38   D(5,7,14,17)           54.3856                                         !
 ! D39   D(2,8,18,19)          -21.2687                                         !
 ! D40   D(2,8,18,20)           96.6026                                         !
 ! D41   D(2,8,18,21)         -142.7022                                         !
 ! D42   D(5,8,18,19)          160.4259                                         !
 ! D43   D(5,8,18,20)          -81.7028                                         !
 ! D44   D(5,8,18,21)           38.9925                                         !
 ! D45   D(5,9,12,6)            10.1453                                         !
 ! D46   D(5,9,12,13)         -171.9269                                         !
 ! D47   D(10,9,12,6)         -113.4355                                         !
 ! D48   D(10,9,12,13)          64.4923                                         !
 ! D49   D(11,9,12,6)          138.368                                          !
 ! D50   D(11,9,12,13)         -43.7042                                         !
 ! D51   D(6,12,13,1)          164.3171                                         !
 ! D52   D(6,12,13,22)         -17.9256                                         !
 ! D53   D(9,12,13,1)          -13.4044                                         !
 ! D54   D(9,12,13,22)         164.3529                                         !
 ! D55   D(1,13,22,23)         147.8622                                         !
 ! D56   D(1,13,22,24)         -90.3743                                         !
 ! D57   D(1,13,22,25)          26.9923                                         !
 ! D58   D(12,13,22,23)        -29.9341                                         !
 ! D59   D(12,13,22,24)         91.8295                                         !
 ! D60   D(12,13,22,25)       -150.804                                          !
 --------------------------------------------------------------------------------
 NAtoms=     29 NQM=       29 NQMF=       0 NMMI=      0 NMMIF=      0
                NMic=       0 NMicF=      0.
                    Isotopes and Nuclear Properties:
 (Nuclear quadrupole moments (NQMom) in fm**2, nuclear magnetic moments (NMagM)
  in nuclear magnetons)

  Atom         1           2           3           4           5           6           7           8           9          10
 IAtWgt=          16          16          14           1          12          12          12          12          12           1
 AtmWgt=  15.9949146  15.9949146  14.0030740   1.0078250  12.0000000  12.0000000  12.0000000  12.0000000  12.0000000   1.0078250
 NucSpn=           0           0           2           1           0           0           0           0           0           1
 AtZEff=   5.6000000   5.6000000   4.5500000   1.0000000   3.6000000   3.6000000   3.6000000   3.6000000   3.6000000   1.0000000
 NQMom=    0.0000000   0.0000000   2.0440000   0.0000000   0.0000000   0.0000000   0.0000000   0.0000000   0.0000000   0.0000000
 NMagM=    0.0000000   0.0000000   0.4037610   2.7928460   0.0000000   0.0000000   0.0000000   0.0000000   0.0000000   2.7928460
 AtZNuc=   8.0000000   8.0000000   7.0000000   1.0000000   6.0000000   6.0000000   6.0000000   6.0000000   6.0000000   1.0000000

  Atom        11          12          13          14          15          16          17          18          19          20
 IAtWgt=           1          12          12          12           1           1           1          12           1           1
 AtmWgt=   1.0078250  12.0000000  12.0000000  12.0000000   1.0078250   1.0078250   1.0078250  12.0000000   1.0078250   1.0078250
 NucSpn=           1           0           0           0           1           1           1           0           1           1
 AtZEff=   1.0000000   3.6000000   3.6000000   3.6000000   1.0000000   1.0000000   1.0000000   3.6000000   1.0000000   1.0000000
 NQMom=    0.0000000   0.0000000   0.0000000   0.0000000   0.0000000   0.0000000   0.0000000   0.0000000   0.0000000   0.0000000
 NMagM=    2.7928460   0.0000000   0.0000000   0.0000000   2.7928460   2.7928460   2.7928460   0.0000000   2.7928460   2.7928460
 AtZNuc=   1.0000000   6.0000000   6.0000000   6.0000000   1.0000000   1.0000000   1.0000000   6.0000000   1.0000000   1.0000000

  Atom        21          22          23          24          25          26          27          28          29
 IAtWgt=           1          12           1           1           1          12           1           1           1
 AtmWgt=   1.0078250  12.0000000   1.0078250   1.0078250   1.0078250  12.0000000   1.0078250   1.0078250   1.0078250
 NucSpn=           1           0           1           1           1           0           1           1           1
 AtZEff=   1.0000000   3.6000000   1.0000000   1.0000000   1.0000000   3.6000000   1.0000000   1.0000000   1.0000000
 NQMom=    0.0000000   0.0000000   0.0000000   0.0000000   0.0000000   0.0000000   0.0000000   0.0000000   0.0000000
 NMagM=    2.7928460   0.0000000   2.7928460   2.7928460   2.7928460   0.0000000   2.7928460   2.7928460   2.7928460
 AtZNuc=   1.0000000   6.0000000   1.0000000   1.0000000   1.0000000   6.0000000   1.0000000   1.0000000   1.0000000
 Leave Link  101 at Tue Jan 20 20:55:09 2026, MaxMem=  2147483648 cpu:               6.6 elap:               0.2
 (Enter /data/home/wyx/g16/l202.exe)
                          Input orientation:                          
 ---------------------------------------------------------------------
 Center     Atomic      Atomic             Coordinates (Angstroms)
 Number     Number       Type             X           Y           Z
 ---------------------------------------------------------------------
      1          8           0        1.261501    9.837065    1.293252
      2          8           0       -4.774536    9.727354   -0.449123
      3          7           0       -2.120150   12.913780    0.274696
      4          1           0       -2.428552   13.875769    0.203189
      5          6           0       -2.699820   10.631011    0.206758
      6          6           0       -0.800981   12.742431    0.565262
      7          6           0       -3.077080   11.982172    0.076464
      8          6           0       -3.615365    9.540826   -0.049909
      9          6           0       -1.318044   10.323566    0.619609
     10          1           0       -1.337379    9.851290    1.621555
     11          1           0       -0.904435    9.506455    0.015445
     12          6           0       -0.336916   11.423864    0.685665
     13          6           0        1.029693   10.999161    0.920676
     14          6           0       -4.439427   12.505133   -0.233345
     15          1           0       -4.448322   13.594499   -0.183983
     16          1           0       -4.765908   12.199375   -1.226041
     17          1           0       -5.175794   12.118256    0.469030
     18          6           0       -3.134053    8.119116    0.136605
     19          1           0       -4.004123    7.475617    0.244963
     20          1           0       -2.579547    7.792366   -0.747169
     21          1           0       -2.483898    7.988638    0.999591
     22          6           0        2.204385   11.915573    0.679025
     23          1           0        2.030164   12.640982   -0.110937
     24          1           0        2.462068   12.459163    1.590854
     25          1           0        3.058228   11.295418    0.412397
     26          6           0       -0.030586   14.006739    0.763843
     27          1           0        0.655196   13.923440    1.603675
     28          1           0        0.552933   14.283169   -0.116834
     29          1           0       -0.708424   14.833608    0.976788
 ---------------------------------------------------------------------
                    Distance matrix (angstroms):
                    1          2          3          4          5
     1  O    0.000000
     2  O    6.283442   0.000000
     3  N    4.683929   4.209868   0.000000
     4  H    5.578159   4.810250   1.012743   0.000000
     5  C    4.183644   2.356103   2.356198   3.256080   0.000000
     6  C    3.636613   5.090070   1.361615   2.016070   2.862204
     7  C    4.990524   2.870854   1.350149   2.005582   1.408878
     8  C    5.067116   1.240097   3.703762   4.501591   1.446584
     9  C    2.710079   3.666742   2.733413   3.744968   1.474541
    10  H    2.619573   4.014613   3.435929   4.404413   2.113258
    11  H    2.536410   3.904138   3.626987   4.631316   2.127118
    12  C    2.332815   4.884502   2.359803   3.258768   2.537968
    13  C    1.242181   6.097780   3.742267   4.555120   3.815033
    14  C    6.476856   2.806228   2.409179   2.472413   2.594660
    15  H    6.993040   3.889926   2.468633   2.075689   3.462976
    16  H    6.946726   2.591247   3.124520   3.211889   2.963343
    17  H    6.879094   2.592379   3.163477   3.272135   2.900195
    18  C    4.859020   2.370799   4.902639   5.800105   2.550117
    19  H    5.865334   2.479034   5.755333   6.591367   3.414554
    20  H    4.806013   2.941256   5.242531   6.159040   2.997057
    21  H    4.186996   3.220082   4.991474   5.941013   2.767190
    22  C    2.363577   7.400429   4.456624   5.053008   5.091597
    23  H    3.228705   7.409962   4.177109   4.637189   5.149142
    24  H    2.899193   7.999545   4.789120   5.277362   5.648269
    25  H    2.476071   8.034503   5.427122   6.066855   5.799900
    26  C    4.397264   6.503037   2.408340   2.466116   4.339435
    27  H    4.142756   7.162619   3.238541   3.387202   4.903835
    28  H    4.717865   7.017677   3.028844   3.026159   4.901364
    29  H    5.380167   6.681341   2.484280   2.115361   4.713855
                    6          7          8          9         10
     6  C    0.000000
     7  C    2.448988   0.000000
     8  C    4.306910   2.503176   0.000000
     9  C    2.474110   2.477940   2.517662   0.000000
    10  H    3.124448   3.155079   2.842429   1.107842   0.000000
    11  H    3.283983   3.294431   2.711935   1.097158   1.698805
    12  C    1.403023   2.862050   3.851640   1.475680   2.085619
    13  C    2.552778   4.306342   4.964408   2.461491   2.722475
    14  C    3.732610   1.491798   3.082182   3.902538   4.483998
    15  H    3.819749   2.132542   4.140538   4.598196   5.191295
    16  H    4.384556   2.143791   3.126486   4.337378   5.037571
    17  H    4.420164   2.139446   3.057349   4.257443   4.604441
    18  C    5.196347   3.863944   1.512517   2.896684   2.904056
    19  H    6.172685   4.604002   2.122068   3.932708   3.827577
    20  H    5.421155   4.298882   2.148535   3.141090   3.375353
    21  H    5.061562   4.141538   2.188825   2.637326   2.273943
    22  C    3.119112   5.316143   6.327737   3.865944   4.206390
    23  H    2.912545   5.152969   6.441017   4.136981   4.703643
    24  H    3.432137   5.762209   6.938587   4.448970   4.608442
    25  H    4.124404   6.182757   6.915864   4.487671   4.782147
    26  C    1.493792   3.721893   5.784221   3.904371   4.439722
    27  H    2.143253   4.475576   6.338718   4.221511   4.533551
    28  H    2.161530   4.302202   6.314191   4.440874   5.122190
    29  H    2.133293   3.814682   6.125191   4.565051   5.063082
                   11         12         13         14         15
    11  H    0.000000
    12  C    2.108964   0.000000
    13  C    2.605469   1.450249   0.000000
    14  C    4.642212   4.341005   5.788868   0.000000
    15  H    5.413964   4.729863   6.161550   1.090520   0.000000
    16  H    4.868683   4.885900   6.295864   1.088818   1.770061
    17  H    5.027101   4.893246   6.321742   1.088687   1.770575
    18  C    2.628799   4.364264   5.123105   4.591079   5.640026
    19  H    3.712821   5.406596   6.181525   5.070927   6.149961
    20  H    2.515091   4.502242   5.108019   5.092479   6.121621
    21  H    2.401461   4.063110   4.627613   5.073751   6.056854
    22  C    3.988602   2.588442   1.509340   6.732031   6.915351
    23  H    4.295708   2.778312   2.181913   6.472175   6.548688
    24  H    4.746971   3.118576   2.152310   7.138659   7.224439
    25  H    4.365852   3.408544   2.112125   7.622023   7.873356
    26  C    4.645026   2.602152   3.192853   4.763097   4.537038
    27  H    4.946179   2.841639   3.026243   5.598342   5.417548
    28  H    4.995840   3.100236   3.476843   5.300816   5.048893
    29  H    5.416748   3.442256   4.210366   4.561426   4.107264
                   16         17         18         19         20
    16  H    0.000000
    17  H    1.745810   0.000000
    18  C    4.600898   4.502481   0.000000
    19  H    5.005803   4.793445   1.087591   0.000000
    20  H    4.942795   5.189698   1.093298   1.764674   0.000000
    21  H    5.281222   4.957978   1.088334   1.773058   1.760353
    22  C    7.231515   7.385947   6.573144   7.645076   6.474632
    23  H    6.901092   7.248133   6.868601   7.951118   6.720365
    24  H    7.761831   7.727331   7.229620   8.273981   7.256943
    25  H    8.044795   8.275228   6.964862   8.030922   6.737988
    26  C    5.445134   5.488757   6.684986   7.662492   6.884678
    27  H    6.353587   6.208587   7.085258   8.070302   7.319843
    28  H    5.819159   6.152105   7.187047   8.200026   7.234658
    29  H    5.315526   5.252461   7.188462   8.095507   7.486803
                   21         22         23         24         25
    21  H    0.000000
    22  C    6.124016   0.000000
    23  H    6.576803   1.086559   0.000000
    24  H    6.693113   1.092393   1.765132   0.000000
    25  H    6.480336   1.088453   1.772381   1.760247   0.000000
    26  C    6.503219   3.061905   2.622446   3.048321   4.124990
    27  H    6.740973   2.699351   2.544628   2.325738   3.755024
    28  H    7.077420   2.994361   2.208852   3.144518   3.934876
    29  H    7.071524   4.133770   3.672958   4.008377   5.198557
                   26         27         28         29
    26  C    0.000000
    27  H    1.087453   0.000000
    28  H    1.092017   1.760686   0.000000
    29  H    1.090195   1.755236   1.757844   0.000000
 Symmetry turned off by external request.
 Stoichiometry    C11H15NO2
 Framework group  C1[X(C11H15NO2)]
 Deg. of freedom    81
 Full point group                 C1      NOp   1
 Rotational constants (GHZ):           1.0696409           0.4891732           0.3419374
 Leave Link  202 at Tue Jan 20 20:55:09 2026, MaxMem=  2147483648 cpu:               0.1 elap:               0.0
 (Enter /data/home/wyx/g16/l301.exe)
 Standard basis: TZVP (5D, 7F)
 Ernie: Thresh=  0.10000D-02 Tol=  0.10000D-05 Strict=F.
   356 basis functions,   610 primitive gaussians,   370 cartesian basis functions
    52 alpha electrons       52 beta electrons
       nuclear repulsion energy       898.0421854874 Hartrees.
 IExCor=20419 DFT=T Ex+Corr=CAM-B3LYP ExCW=0 ScaHFX=  1.000000
 ScaDFX=  1.000000  1.000000  1.000000  0.810000 ScalE2=  1.000000  1.000000
 IRadAn=      5 IRanWt=     -1 IRanGd=            0 ICorTp=0 IEmpDi=141
 HFx  wShort=  0.000000 wLong=  0.330000 cFull=  0.190000 cShort=  0.000000 cLong=  0.460000
 DFx  wShort=  0.000000 wLong=  0.330000 cFull=  0.190000 cShort=  0.000000 cLong=  0.460000
 NAtoms=   29 NActive=   29 NUniq=   29 SFac= 1.00D+00 NAtFMM=   60 NAOKFM=F Big=F
 Integral buffers will be    131072 words long.
 Raffenetti 2 integral format.
 Two-electron integral symmetry is turned off.
 R6Disp:  Grimme-D3(BJ) Dispersion energy=       -0.0260955562 Hartrees.
 Nuclear repulsion after empirical dispersion term =      898.0160899312 Hartrees.
 ------------------------------------------------------------------------------
 Polarizable Continuum Model (PCM)
 =================================
 Model                : PCM.
 Atomic radii         : UFF (Universal Force Field).
 Polarization charges : Total charges.
 Charge compensation  : None.
 Solution method      : On-the-fly selection.
 Cavity type          : Scaled VdW (van der Waals Surface) (Alpha=1.100).
 Cavity algorithm     : GePol (No added spheres)
                        Default sphere list used, NSphG=   29.
                        Lebedev-Laikov grids with approx.  5.0 points / Ang**2.
                        Smoothing algorithm: York/Karplus (Gamma=1.0000).
                        Polarization charges: spherical gaussians, with
                                              point-specific exponents (IZeta= 3).
                        Self-potential: point-specific (ISelfS= 7).
                        Self-field    : sphere-specific E.n sum rule (ISelfD= 2).
 Solvent              : Water, Eps=  78.355300 Eps(inf)=   1.777849
 ------------------------------------------------------------------------------
 GePol: Number of generator spheres                  =      29
 GePol: Total number of spheres                      =      29
 GePol: Number of exposed spheres                    =      29 (100.00%)
 GePol: Number of points                             =    2100
 GePol: Average weight of points                     =       0.13
 GePol: Minimum weight of points                     =   0.46D-09
 GePol: Maximum weight of points                     =    0.20577
 GePol: Number of points with low weight             =     150
 GePol: Fraction of low-weight points (<1% of avg)   =       7.14%
 GePol: Cavity surface area                          =    269.813 Ang**2
 GePol: Cavity volume                                =    287.533 Ang**3
 Leave Link  301 at Tue Jan 20 20:55:09 2026, MaxMem=  2147483648 cpu:               1.2 elap:               0.1
 (Enter /data/home/wyx/g16/l302.exe)
 NPDir=0 NMtPBC=     1 NCelOv=     1 NCel=       1 NClECP=     1 NCelD=      1
         NCelK=      1 NCelE2=     1 NClLst=     1 CellRange=     0.0.
 One-electron integrals computed using PRISM.
 NBasis=   356 RedAO= T EigKep=  3.90D-05  NBF=   356
 NBsUse=   356 1.00D-06 EigRej= -1.00D+00 NBFU=   356
 Precomputing XC quadrature grid using
 IXCGrd= 4 IRadAn=           5 IRanWt=          -1 IRanGd=           0 AccXCQ= 0.00D+00.
 Generated NRdTot=       0 NPtTot=           0 NUsed=           0 NTot=          32
 NSgBfM=   366   366   366   366   366 MxSgAt=    29 MxSgA2=    29.
 Leave Link  302 at Tue Jan 20 20:55:09 2026, MaxMem=  2147483648 cpu:               6.3 elap:               0.2
 (Enter /data/home/wyx/g16/l303.exe)
 DipDrv:  MaxL=1.
 Leave Link  303 at Tue Jan 20 20:55:10 2026, MaxMem=  2147483648 cpu:               1.1 elap:               0.1
 (Enter /data/home/wyx/g16/l401.exe)
 Initial guess from the checkpoint file:  "DDL-S1min-S1-cLR-1.chk"
 B after Tr=     0.000000    0.000000    0.000000
         Rot=    1.000000    0.000000    0.000000    0.000000 Ang=   0.00 deg.
 Guess basis will be translated and rotated to current coordinates.
 JPrj=2 DoOrth=T DoCkMO=T.
 Leave Link  401 at Tue Jan 20 20:55:10 2026, MaxMem=  2147483648 cpu:               4.5 elap:               0.2
 (Enter /data/home/wyx/g16/l502.exe)
 Two-electron integral symmetry not used.
 Closed shell SCF:
 Using DIIS extrapolation, IDIIS=  1040.
 NGot=  2147483648 LenX=  2147195087 LenY=  2147057746
 Requested convergence on RMS density matrix=1.00D-08 within 128 cycles.
 Requested convergence on MAX density matrix=1.00D-06.
 Requested convergence on             energy=1.00D-06.
 No special actions if energy rises.
 Fock matrices will be formed incrementally for  20 cycles.

 Cycle   1  Pass 1  IDiag  1:
 FoFJK:  IHMeth= 1 ICntrl=       0 DoSepK=T KAlg= 0 I1Cent=           0 FoldK=F
 IRaf=         1 NMat=       1 IRICut=       1 DoRegI=T DoRafI=F ISym2E= 0 IDoP0=0 IntGTp=1.
 FoFCou: FMM=F IPFlag=           0 FMFlag=      100000 FMFlg1=           0
         NFxFlg=           0 DoJE=T BraDBF=F KetDBF=F FulRan=T
         wScrn=  0.000000 ICntrl=       500 IOpCl=  0 I1Cent=           0 NGrid=           0
         NMat0=    1 NMatS0=      1 NMatT0=    0 NMatD0=    1 NMtDS0=    0 NMtDT0=    0
 Symmetry not used in FoFCou.
 Inv3:  Mode=1 IEnd=    13230000.
 Iteration    1 A*A^-1 deviation from unit magnitude is 3.77D-15 for   1108.
 Iteration    1 A*A^-1 deviation from orthogonality  is 1.67D-15 for   1995    369.
 Iteration    1 A^-1*A deviation from unit magnitude is 3.77D-15 for   1108.
 Iteration    1 A^-1*A deviation from orthogonality  is 1.85D-14 for   1774   1754.
 NEqPCM:  Using non-equilibrium solvation (IEInf=1, Eps=  78.3553, EpsInf=   1.7778)
 Inv3:  Mode=1 IEnd=    13230000.
 Iteration    1 A*A^-1 deviation from unit magnitude is 3.77D-15 for   1120.
 Iteration    1 A*A^-1 deviation from orthogonality  is 2.09D-15 for   1389     63.
 Iteration    1 A^-1*A deviation from unit magnitude is 3.55D-15 for   1120.
 Iteration    1 A^-1*A deviation from orthogonality  is 1.80D-15 for   1359    906.
 E= -633.320303041007    
 DIIS: error= 2.74D-04 at cycle   1 NSaved=   1.
 NSaved= 1 IEnMin= 1 EnMin= -633.320303041007     IErMin= 1 ErrMin= 2.74D-04
 ErrMax= 2.74D-04  0.00D+00 EMaxC= 1.00D-01 BMatC= 2.45D-05 BMatP= 2.45D-05
 IDIUse=3 WtCom= 9.97D-01 WtEn= 2.74D-03
 Coeff-Com:  0.100D+01
 Coeff-En:   0.100D+01
 Coeff:      0.100D+01
 Gap=     0.212 Goal=   None    Shift=    0.000
 RMSDP=2.30D-04 MaxDP=1.30D-02              OVMax= 4.24D-03

 Cycle   2  Pass 1  IDiag  1:
 RMSU=  2.28D-04    CP:  9.98D-01
 E= -633.320348644998     Delta-E=       -0.000045603991 Rises=F Damp=F
 DIIS: error= 1.72D-04 at cycle   2 NSaved=   2.
 NSaved= 2 IEnMin= 2 EnMin= -633.320348644998     IErMin= 2 ErrMin= 1.72D-04
 ErrMax= 1.72D-04  0.00D+00 EMaxC= 1.00D-01 BMatC= 1.35D-05 BMatP= 2.45D-05
 IDIUse=3 WtCom= 9.98D-01 WtEn= 1.72D-03
 Coeff-Com:  0.399D+00 0.601D+00
 Coeff-En:   0.000D+00 0.100D+01
 Coeff:      0.399D+00 0.601D+00
 Gap=     0.213 Goal=   None    Shift=    0.000
 RMSDP=4.33D-05 MaxDP=3.42D-03 DE=-4.56D-05 OVMax= 1.16D-03

 Cycle   3  Pass 1  IDiag  1:
 RMSU=  3.18D-05    CP:  9.99D-01  8.90D-01
 E= -633.320359227996     Delta-E=       -0.000010582998 Rises=F Damp=F
 DIIS: error= 1.08D-04 at cycle   3 NSaved=   3.
 NSaved= 3 IEnMin= 3 EnMin= -633.320359227996     IErMin= 3 ErrMin= 1.08D-04
 ErrMax= 1.08D-04  0.00D+00 EMaxC= 1.00D-01 BMatC= 3.75D-06 BMatP= 1.35D-05
 IDIUse=3 WtCom= 9.99D-01 WtEn= 1.08D-03
 Coeff-Com:  0.827D-01 0.331D+00 0.586D+00
 Coeff-En:   0.000D+00 0.115D+00 0.885D+00
 Coeff:      0.826D-01 0.331D+00 0.587D+00
 Gap=     0.213 Goal=   None    Shift=    0.000
 RMSDP=1.56D-05 MaxDP=9.09D-04 DE=-1.06D-05 OVMax= 6.09D-04

 Cycle   4  Pass 1  IDiag  1:
 RMSU=  1.42D-05    CP:  9.99D-01  8.89D-01  8.80D-01
 E= -633.320362033832     Delta-E=       -0.000002805836 Rises=F Damp=F
 DIIS: error= 2.49D-05 at cycle   4 NSaved=   4.
 NSaved= 4 IEnMin= 4 EnMin= -633.320362033832     IErMin= 4 ErrMin= 2.49D-05
 ErrMax= 2.49D-05  0.00D+00 EMaxC= 1.00D-01 BMatC= 2.65D-07 BMatP= 3.75D-06
 IDIUse=1 WtCom= 1.00D+00 WtEn= 0.00D+00
 Coeff-Com: -0.806D-02 0.631D-01 0.230D+00 0.715D+00
 Coeff:     -0.806D-02 0.631D-01 0.230D+00 0.715D+00
 Gap=     0.213 Goal=   None    Shift=    0.000
 RMSDP=7.24D-06 MaxDP=5.51D-04 DE=-2.81D-06 OVMax= 2.62D-04

 Cycle   5  Pass 1  IDiag  1:
 RMSU=  4.28D-06    CP:  9.99D-01  8.90D-01  1.04D+00  1.03D+00
 E= -633.320362265358     Delta-E=       -0.000000231526 Rises=F Damp=F
 DIIS: error= 7.90D-06 at cycle   5 NSaved=   5.
 NSaved= 5 IEnMin= 5 EnMin= -633.320362265358     IErMin= 5 ErrMin= 7.90D-06
 ErrMax= 7.90D-06  0.00D+00 EMaxC= 1.00D-01 BMatC= 4.78D-08 BMatP= 2.65D-07
 IDIUse=1 WtCom= 1.00D+00 WtEn= 0.00D+00
 Coeff-Com: -0.121D-01-0.160D-01 0.222D-01 0.323D+00 0.683D+00
 Coeff:     -0.121D-01-0.160D-01 0.222D-01 0.323D+00 0.683D+00
 Gap=     0.213 Goal=   None    Shift=    0.000
 RMSDP=1.94D-06 MaxDP=1.52D-04 DE=-2.32D-07 OVMax= 1.09D-04

 Cycle   6  Pass 1  IDiag  1:
 RMSU=  1.43D-06    CP:  9.99D-01  8.89D-01  1.06D+00  1.11D+00  1.08D+00
 E= -633.320362320390     Delta-E=       -0.000000055031 Rises=F Damp=F
 DIIS: error= 4.50D-06 at cycle   6 NSaved=   6.
 NSaved= 6 IEnMin= 6 EnMin= -633.320362320390     IErMin= 6 ErrMin= 4.50D-06
 ErrMax= 4.50D-06  0.00D+00 EMaxC= 1.00D-01 BMatC= 2.37D-09 BMatP= 4.78D-08
 IDIUse=1 WtCom= 1.00D+00 WtEn= 0.00D+00
 Coeff-Com: -0.121D-02-0.946D-02-0.142D-01-0.100D-01 0.132D+00 0.903D+00
 Coeff:     -0.121D-02-0.946D-02-0.142D-01-0.100D-01 0.132D+00 0.903D+00
 Gap=     0.213 Goal=   None    Shift=    0.000
 RMSDP=1.22D-06 MaxDP=1.01D-04 DE=-5.50D-08 OVMax= 7.94D-05

 Cycle   7  Pass 1  IDiag  1:
 RMSU=  4.77D-07    CP:  9.99D-01  8.87D-01  1.07D+00  1.15D+00  1.22D+00
                    CP:  1.33D+00
 E= -633.320362327145     Delta-E=       -0.000000006756 Rises=F Damp=F
 DIIS: error= 2.82D-06 at cycle   7 NSaved=   7.
 NSaved= 7 IEnMin= 7 EnMin= -633.320362327145     IErMin= 7 ErrMin= 2.82D-06
 ErrMax= 2.82D-06  0.00D+00 EMaxC= 1.00D-01 BMatC= 8.20D-10 BMatP= 2.37D-09
 IDIUse=1 WtCom= 1.00D+00 WtEn= 0.00D+00
 Coeff-Com:  0.872D-03-0.259D-02-0.651D-02-0.389D-01-0.309D-01 0.388D+00
 Coeff-Com:  0.690D+00
 Coeff:      0.872D-03-0.259D-02-0.651D-02-0.389D-01-0.309D-01 0.388D+00
 Coeff:      0.690D+00
 Gap=     0.213 Goal=   None    Shift=    0.000
 RMSDP=3.30D-07 MaxDP=1.38D-05 DE=-6.76D-09 OVMax= 3.31D-05

 Cycle   8  Pass 1  IDiag  1:
 RMSU=  1.87D-07    CP:  9.99D-01  8.86D-01  1.07D+00  1.15D+00  1.26D+00
                    CP:  1.43D+00  1.09D+00
 E= -633.320362328650     Delta-E=       -0.000000001504 Rises=F Damp=F
 DIIS: error= 1.16D-06 at cycle   8 NSaved=   8.
 NSaved= 8 IEnMin= 8 EnMin= -633.320362328650     IErMin= 8 ErrMin= 1.16D-06
 ErrMax= 1.16D-06  0.00D+00 EMaxC= 1.00D-01 BMatC= 1.99D-10 BMatP= 8.20D-10
 IDIUse=1 WtCom= 1.00D+00 WtEn= 0.00D+00
 Coeff-Com:  0.714D-03 0.441D-03 0.508D-03-0.159D-01-0.523D-01-0.375D-01
 Coeff-Com:  0.329D+00 0.775D+00
 Coeff:      0.714D-03 0.441D-03 0.508D-03-0.159D-01-0.523D-01-0.375D-01
 Coeff:      0.329D+00 0.775D+00
 Gap=     0.213 Goal=   None    Shift=    0.000
 RMSDP=2.80D-07 MaxDP=1.76D-05 DE=-1.50D-09 OVMax= 2.21D-05

 Cycle   9  Pass 1  IDiag  1:
 RMSU=  1.07D-07    CP:  9.99D-01  8.86D-01  1.07D+00  1.15D+00  1.28D+00
                    CP:  1.55D+00  1.38D+00  1.16D+00
 E= -633.320362329119     Delta-E=       -0.000000000469 Rises=F Damp=F
 DIIS: error= 6.11D-07 at cycle   9 NSaved=   9.
 NSaved= 9 IEnMin= 9 EnMin= -633.320362329119     IErMin= 9 ErrMin= 6.11D-07
 ErrMax= 6.11D-07  0.00D+00 EMaxC= 1.00D-01 BMatC= 3.13D-11 BMatP= 1.99D-10
 IDIUse=1 WtCom= 1.00D+00 WtEn= 0.00D+00
 Coeff-Com:  0.160D-03 0.653D-03 0.170D-02 0.176D-02-0.176D-01-0.966D-01
 Coeff-Com:  0.121D-01 0.332D+00 0.766D+00
 Coeff:      0.160D-03 0.653D-03 0.170D-02 0.176D-02-0.176D-01-0.966D-01
 Coeff:      0.121D-01 0.332D+00 0.766D+00
 Gap=     0.213 Goal=   None    Shift=    0.000
 RMSDP=9.00D-08 MaxDP=3.38D-06 DE=-4.69D-10 OVMax= 9.94D-06

 Cycle  10  Pass 1  IDiag  1:
 RMSU=  4.01D-08    CP:  9.99D-01  8.86D-01  1.07D+00  1.15D+00  1.28D+00
                    CP:  1.59D+00  1.47D+00  1.31D+00  1.16D+00
 E= -633.320362329205     Delta-E=       -0.000000000086 Rises=F Damp=F
 DIIS: error= 2.33D-07 at cycle  10 NSaved=  10.
 NSaved=10 IEnMin=10 EnMin= -633.320362329205     IErMin=10 ErrMin= 2.33D-07
 ErrMax= 2.33D-07  0.00D+00 EMaxC= 1.00D-01 BMatC= 4.81D-12 BMatP= 3.13D-11
 IDIUse=1 WtCom= 1.00D+00 WtEn= 0.00D+00
 Coeff-Com: -0.588D-04 0.214D-03 0.406D-03 0.347D-02 0.205D-02-0.303D-01
 Coeff-Com: -0.458D-01-0.162D-01 0.264D+00 0.822D+00
 Coeff:     -0.588D-04 0.214D-03 0.406D-03 0.347D-02 0.205D-02-0.303D-01
 Coeff:     -0.458D-01-0.162D-01 0.264D+00 0.822D+00
 Gap=     0.213 Goal=   None    Shift=    0.000
 RMSDP=4.79D-08 MaxDP=2.44D-06 DE=-8.62D-11 OVMax= 4.26D-06

 Cycle  11  Pass 1  IDiag  1:
 RMSU=  1.31D-08    CP:  9.99D-01  8.86D-01  1.07D+00  1.15D+00  1.28D+00
                    CP:  1.60D+00  1.52D+00  1.36D+00  1.40D+00  1.19D+00
 E= -633.320362329226     Delta-E=       -0.000000000021 Rises=F Damp=F
 DIIS: error= 7.73D-08 at cycle  11 NSaved=  11.
 NSaved=11 IEnMin=11 EnMin= -633.320362329226     IErMin=11 ErrMin= 7.73D-08
 ErrMax= 7.73D-08  0.00D+00 EMaxC= 1.00D-01 BMatC= 1.57D-12 BMatP= 4.81D-12
 IDIUse=1 WtCom= 1.00D+00 WtEn= 0.00D+00
 Coeff-Com: -0.551D-04 0.329D-04-0.135D-03 0.147D-02 0.403D-02 0.185D-02
 Coeff-Com: -0.217D-01-0.641D-01-0.641D-02 0.426D+00 0.659D+00
 Coeff:     -0.551D-04 0.329D-04-0.135D-03 0.147D-02 0.403D-02 0.185D-02
 Coeff:     -0.217D-01-0.641D-01-0.641D-02 0.426D+00 0.659D+00
 Gap=     0.213 Goal=   None    Shift=    0.000
 RMSDP=1.53D-08 MaxDP=8.51D-07 DE=-2.08D-11 OVMax= 1.30D-06

 Cycle  12  Pass 1  IDiag  1:
 RMSU=  6.07D-09    CP:  9.99D-01  8.86D-01  1.07D+00  1.15D+00  1.28D+00
                    CP:  1.60D+00  1.53D+00  1.39D+00  1.44D+00  1.35D+00
                    CP:  1.06D+00
 E= -633.320362329219     Delta-E=        0.000000000007 Rises=F Damp=F
 DIIS: error= 3.14D-08 at cycle  12 NSaved=  12.
 NSaved=12 IEnMin=11 EnMin= -633.320362329226     IErMin=12 ErrMin= 3.14D-08
 ErrMax= 3.14D-08  0.00D+00 EMaxC= 1.00D-01 BMatC= 1.85D-13 BMatP= 1.57D-12
 IDIUse=1 WtCom= 1.00D+00 WtEn= 0.00D+00
 Coeff-Com: -0.163D-04-0.709D-05-0.152D-03 0.414D-04 0.140D-02 0.562D-02
 Coeff-Com: -0.899D-03-0.264D-01-0.555D-01 0.246D-01 0.259D+00 0.792D+00
 Coeff:     -0.163D-04-0.709D-05-0.152D-03 0.414D-04 0.140D-02 0.562D-02
 Coeff:     -0.899D-03-0.264D-01-0.555D-01 0.246D-01 0.259D+00 0.792D+00
 Gap=     0.213 Goal=   None    Shift=    0.000
 RMSDP=8.94D-09 MaxDP=3.29D-07 DE= 7.05D-12 OVMax= 7.20D-07

 Error on total polarization charges =  0.00924
 SCF Done:  E(RCAM-B3LYP) =  -633.320362329     A.U. after   12 cycles
            NFock= 12  Conv=0.89D-08     -V/T= 2.0044
 KE= 6.305429466625D+02 PE=-3.271798488885D+03 EE= 1.109919089962D+03
 Leave Link  502 at Tue Jan 20 20:56:50 2026, MaxMem=  2147483648 cpu:            3115.5 elap:             100.4
 (Enter /data/home/wyx/g16/l601.exe)
 Copying SCF densities to generalized density rwf, IOpCl= 0 IROHF=0.

 **********************************************************************

            Population analysis using the SCF density.

 **********************************************************************

 Alpha  occ. eigenvalues --  -19.17875 -19.16943 -14.44716 -10.33420 -10.32919
 Alpha  occ. eigenvalues --  -10.32850 -10.32342 -10.26019 -10.25327 -10.25061
 Alpha  occ. eigenvalues --  -10.24661 -10.24262 -10.24201 -10.23720  -1.11232
 Alpha  occ. eigenvalues --   -1.10581  -1.08439  -0.91252  -0.90370  -0.83905
 Alpha  occ. eigenvalues --   -0.82510  -0.81618  -0.78388  -0.73533  -0.72202
 Alpha  occ. eigenvalues --   -0.68651  -0.61440  -0.58139  -0.57006  -0.54967
 Alpha  occ. eigenvalues --   -0.54346  -0.53950  -0.52383  -0.51656  -0.50783
 Alpha  occ. eigenvalues --   -0.49746  -0.49399  -0.49200  -0.48496  -0.47847
 Alpha  occ. eigenvalues --   -0.47194  -0.45193  -0.45071  -0.43891  -0.43232
 Alpha  occ. eigenvalues --   -0.42098  -0.41862  -0.41451  -0.32548  -0.32144
 Alpha  occ. eigenvalues --   -0.31240  -0.24773
 Alpha virt. eigenvalues --   -0.03520   0.02492   0.06575   0.08387   0.08663
 Alpha virt. eigenvalues --    0.09776   0.10849   0.11507   0.12594   0.13451
 Alpha virt. eigenvalues --    0.14004   0.15092   0.15723   0.16431   0.16945
 Alpha virt. eigenvalues --    0.17468   0.17847   0.18146   0.18575   0.19308
 Alpha virt. eigenvalues --    0.19997   0.21984   0.22931   0.23435   0.23906
 Alpha virt. eigenvalues --    0.24181   0.24698   0.25758   0.26454   0.26751
 Alpha virt. eigenvalues --    0.27662   0.28258   0.28533   0.29661   0.30305
 Alpha virt. eigenvalues --    0.31630   0.32062   0.32326   0.33560   0.34180
 Alpha virt. eigenvalues --    0.34904   0.35693   0.36745   0.37506   0.38605
 Alpha virt. eigenvalues --    0.39684   0.41019   0.41494   0.42014   0.42563
 Alpha virt. eigenvalues --    0.44071   0.44953   0.45466   0.46180   0.46507
 Alpha virt. eigenvalues --    0.47282   0.47725   0.47994   0.48527   0.49168
 Alpha virt. eigenvalues --    0.49784   0.50582   0.51175   0.51368   0.51564
 Alpha virt. eigenvalues --    0.52325   0.52642   0.53332   0.53629   0.54298
 Alpha virt. eigenvalues --    0.54374   0.55254   0.55863   0.56630   0.58327
 Alpha virt. eigenvalues --    0.58421   0.59977   0.61111   0.61978   0.63157
 Alpha virt. eigenvalues --    0.64332   0.65059   0.66236   0.66885   0.67438
 Alpha virt. eigenvalues --    0.68525   0.69175   0.70601   0.70960   0.72179
 Alpha virt. eigenvalues --    0.73055   0.74834   0.75335   0.76070   0.77316
 Alpha virt. eigenvalues --    0.79085   0.80774   0.83347   0.86852   0.87451
 Alpha virt. eigenvalues --    0.91626   0.96078   1.02098   1.04078   1.21971
 Alpha virt. eigenvalues --    1.24515   1.27347   1.28217   1.28948   1.30314
 Alpha virt. eigenvalues --    1.31903   1.33404   1.34642   1.35297   1.36484
 Alpha virt. eigenvalues --    1.36998   1.37847   1.38582   1.39025   1.39574
 Alpha virt. eigenvalues --    1.40037   1.40120   1.40776   1.41467   1.42209
 Alpha virt. eigenvalues --    1.43357   1.43609   1.44293   1.45668   1.47274
 Alpha virt. eigenvalues --    1.48336   1.49436   1.49728   1.50232   1.50934
 Alpha virt. eigenvalues --    1.51420   1.52262   1.53100   1.55626   1.58980
 Alpha virt. eigenvalues --    1.59646   1.59876   1.61052   1.61669   1.62292
 Alpha virt. eigenvalues --    1.62652   1.62851   1.63519   1.64602   1.65706
 Alpha virt. eigenvalues --    1.66345   1.67047   1.67596   1.68120   1.68795
 Alpha virt. eigenvalues --    1.69213   1.69999   1.70429   1.71070   1.72536
 Alpha virt. eigenvalues --    1.74363   1.74730   1.75620   1.76587   1.78552
 Alpha virt. eigenvalues --    1.81723   1.83264   1.83960   1.85736   1.86497
 Alpha virt. eigenvalues --    1.86640   1.87933   1.88717   1.89248   1.90330
 Alpha virt. eigenvalues --    1.91414   1.94557   1.95289   1.98925   1.99837
 Alpha virt. eigenvalues --    2.01801   2.03791   2.05972   2.06943   2.09485
 Alpha virt. eigenvalues --    2.10109   2.11492   2.15899   2.17667   2.19733
 Alpha virt. eigenvalues --    2.20771   2.21411   2.22133   2.22995   2.26353
 Alpha virt. eigenvalues --    2.26850   2.27430   2.29224   2.30908   2.32072
 Alpha virt. eigenvalues --    2.33400   2.34511   2.36992   2.37732   2.39047
 Alpha virt. eigenvalues --    2.39457   2.40061   2.41308   2.42679   2.45199
 Alpha virt. eigenvalues --    2.45597   2.47207   2.48651   2.49421   2.51203
 Alpha virt. eigenvalues --    2.52403   2.53915   2.54478   2.56361   2.57435
 Alpha virt. eigenvalues --    2.58769   2.60816   2.61789   2.62329   2.63468
 Alpha virt. eigenvalues --    2.64768   2.65484   2.66619   2.67458   2.68359
 Alpha virt. eigenvalues --    2.71617   2.71800   2.74034   2.74464   2.75434
 Alpha virt. eigenvalues --    2.76514   2.77385   2.77791   2.78162   2.78757
 Alpha virt. eigenvalues --    2.80594   2.81309   2.83061   2.83513   2.85026
 Alpha virt. eigenvalues --    2.85429   2.86444   2.88446   2.88998   2.91921
 Alpha virt. eigenvalues --    2.96929   2.98151   3.01370   3.07239   3.10770
 Alpha virt. eigenvalues --    3.12186   3.13659   3.18100   3.19400   3.21569
 Alpha virt. eigenvalues --    3.22053   3.22962   3.24629   3.25550   3.26014
 Alpha virt. eigenvalues --    3.29301   3.30218   3.32074   3.34584   3.36574
 Alpha virt. eigenvalues --    3.38181   3.38747   3.39024   3.39275   3.41567
 Alpha virt. eigenvalues --    3.41876   3.43741   3.44859   3.47478   3.48112
 Alpha virt. eigenvalues --    3.49765   3.50207   3.55928   3.58293   3.59488
 Alpha virt. eigenvalues --    3.61421   3.90999   4.00995   4.32115   4.35286
 Alpha virt. eigenvalues --   21.68782  21.80662  22.07612  22.09997  22.11228
 Alpha virt. eigenvalues --   22.14536  22.14655  22.17240  22.18682  22.24918
 Alpha virt. eigenvalues --   22.26843  31.91327  43.64003  43.66767
          Condensed to atoms (all electrons):
               1          2          3          4          5          6
     1  O    7.956439   0.000000  -0.000172   0.000018   0.018676   0.006458
     2  O    0.000000   8.005149   0.000266  -0.000002  -0.197700   0.001434
     3  N   -0.000172   0.000266   6.332742   0.366586  -0.115297   0.336157
     4  H    0.000018  -0.000002   0.366586   0.403211   0.015605  -0.043717
     5  C    0.018676  -0.197700  -0.115297   0.015605   7.174199  -0.082916
     6  C    0.006458   0.001434   0.336157  -0.043717  -0.082916   5.505465
     7  C    0.000031  -0.050028   0.399271  -0.033785   0.489915  -0.132312
     8  C   -0.000837   0.701397   0.003859  -0.000985  -0.405458   0.036801
     9  C   -0.005383   0.028308   0.015903   0.000321  -0.712976  -0.034124
    10  H    0.009879   0.000101   0.003035   0.000039  -0.078886  -0.018457
    11  H    0.008108   0.000035  -0.001152   0.000022  -0.099905   0.028094
    12  C   -0.234207  -0.003335  -0.086112   0.014462   0.200185  -0.001446
    13  C    0.715947  -0.000016   0.001353   0.000560   0.083937   0.099165
    14  C   -0.000007  -0.010813  -0.031907  -0.010803  -0.083079   0.010018
    15  H   -0.000000   0.003991   0.005827   0.002093   0.019990   0.006082
    16  H   -0.000000   0.004625  -0.001993   0.000903  -0.009302  -0.001081
    17  H    0.000000   0.003104  -0.000790   0.000798  -0.003270  -0.001488
    18  C    0.000295  -0.098619  -0.000508   0.000018  -0.242079  -0.000108
    19  H    0.000000   0.007055   0.000009  -0.000001   0.026171   0.000007
    20  H   -0.000010   0.000678   0.000010  -0.000001   0.000721   0.000164
    21  H    0.000191   0.004442   0.000107   0.000001   0.044752  -0.001230
    22  C   -0.105235  -0.000000  -0.000176   0.000107   0.002980  -0.026657
    23  H    0.005370  -0.000000   0.000247  -0.000057  -0.000755  -0.021191
    24  H    0.001511   0.000000   0.000020  -0.000009  -0.000007   0.006921
    25  H    0.005962   0.000000   0.000021  -0.000002  -0.000117  -0.000991
    26  C    0.000614   0.000011  -0.025314  -0.006988   0.000878   0.201261
    27  H   -0.000212  -0.000000   0.000695   0.000702   0.000177  -0.052994
    28  H   -0.000059  -0.000000  -0.002185   0.000513   0.000336  -0.030379
    29  H    0.000022   0.000000   0.002400   0.002053  -0.000277  -0.044753
               7          8          9         10         11         12
     1  O    0.000031  -0.000837  -0.005383   0.009879   0.008108  -0.234207
     2  O   -0.050028   0.701397   0.028308   0.000101   0.000035  -0.003335
     3  N    0.399271   0.003859   0.015903   0.003035  -0.001152  -0.086112
     4  H   -0.033785  -0.000985   0.000321   0.000039   0.000022   0.014462
     5  C    0.489915  -0.405458  -0.712976  -0.078886  -0.099905   0.200185
     6  C   -0.132312   0.036801  -0.034124  -0.018457   0.028094  -0.001446
     7  C    5.405919  -0.254656  -0.232747  -0.005064   0.014463   0.027968
     8  C   -0.254656   5.476709   0.236905  -0.000464  -0.009970  -0.056294
     9  C   -0.232747   0.236905   6.407019   0.449120   0.512662  -0.146835
    10  H   -0.005064  -0.000464   0.449120   0.574855  -0.053413  -0.019427
    11  H    0.014463  -0.009970   0.512662  -0.053413   0.547082  -0.105847
    12  C    0.027968  -0.056294  -0.146835  -0.019427  -0.105847   7.336253
    13  C    0.022976  -0.011283  -0.241055  -0.008538   0.002101  -0.542205
    14  C    0.294966  -0.035503   0.002062  -0.000545   0.000335   0.002146
    15  H   -0.082795   0.005289   0.000914   0.000037  -0.000002  -0.001646
    16  H   -0.020020  -0.000703   0.001040  -0.000062   0.000067   0.000113
    17  H   -0.027649  -0.006535  -0.000108   0.000176  -0.000059   0.000325
    18  C   -0.002358   0.332305  -0.002136  -0.015415   0.007846   0.001164
    19  H    0.000254  -0.056233  -0.002475   0.000181   0.000558  -0.000137
    20  H   -0.000350  -0.024120  -0.009512   0.000670  -0.000402  -0.002154
    21  H    0.004424  -0.072291  -0.005988   0.003171  -0.008126   0.006369
    22  C    0.000315  -0.000071   0.010075   0.004004  -0.001942  -0.240336
    23  H   -0.000013   0.000014   0.002451  -0.000257   0.000127   0.063240
    24  H   -0.000012   0.000001  -0.001864   0.000175  -0.000137  -0.011409
    25  H    0.000007   0.000002   0.000445  -0.000133   0.000007   0.019959
    26  C    0.002379   0.000924   0.021566  -0.000728   0.000133  -0.083945
    27  H   -0.000830   0.000001   0.000134  -0.000076   0.000008  -0.006139
    28  H   -0.000791  -0.000015  -0.000652  -0.000006   0.000040  -0.016569
    29  H    0.002800  -0.000002  -0.000420   0.000073  -0.000013   0.021179
              13         14         15         16         17         18
     1  O    0.715947  -0.000007  -0.000000  -0.000000   0.000000   0.000295
     2  O   -0.000016  -0.010813   0.003991   0.004625   0.003104  -0.098619
     3  N    0.001353  -0.031907   0.005827  -0.001993  -0.000790  -0.000508
     4  H    0.000560  -0.010803   0.002093   0.000903   0.000798   0.000018
     5  C    0.083937  -0.083079   0.019990  -0.009302  -0.003270  -0.242079
     6  C    0.099165   0.010018   0.006082  -0.001081  -0.001488  -0.000108
     7  C    0.022976   0.294966  -0.082795  -0.020020  -0.027649  -0.002358
     8  C   -0.011283  -0.035503   0.005289  -0.000703  -0.006535   0.332305
     9  C   -0.241055   0.002062   0.000914   0.001040  -0.000108  -0.002136
    10  H   -0.008538  -0.000545   0.000037  -0.000062   0.000176  -0.015415
    11  H    0.002101   0.000335  -0.000002   0.000067  -0.000059   0.007846
    12  C   -0.542205   0.002146  -0.001646   0.000113   0.000325   0.001164
    13  C    5.662141   0.000178  -0.000043  -0.000006  -0.000006   0.001508
    14  C    0.000178   5.033390   0.391852   0.405432   0.414068   0.000484
    15  H   -0.000043   0.391852   0.565307  -0.024018  -0.025882   0.000204
    16  H   -0.000006   0.405432  -0.024018   0.510759  -0.028103   0.000190
    17  H   -0.000006   0.414068  -0.025882  -0.028103   0.514272  -0.000137
    18  C    0.001508   0.000484   0.000204   0.000190  -0.000137   5.290966
    19  H   -0.000010   0.000053  -0.000004  -0.000042   0.000040   0.396283
    20  H   -0.000153  -0.000163  -0.000004  -0.000009   0.000007   0.402175
    21  H    0.001030   0.000133  -0.000014  -0.000004  -0.000029   0.379742
    22  C    0.270349  -0.000004   0.000001  -0.000000   0.000000   0.000023
    23  H   -0.100340   0.000004   0.000000   0.000000  -0.000000   0.000000
    24  H   -0.022406  -0.000001   0.000000   0.000000  -0.000000  -0.000001
    25  H   -0.033537   0.000000   0.000000  -0.000000  -0.000000  -0.000000
    26  C   -0.056396   0.000343   0.000349  -0.000045  -0.000011   0.000001
    27  H   -0.001763   0.000035  -0.000006   0.000001  -0.000002   0.000000
    28  H    0.006984  -0.000080  -0.000007  -0.000004   0.000004  -0.000000
    29  H   -0.001342  -0.000087   0.000111  -0.000002   0.000000  -0.000000
              19         20         21         22         23         24
     1  O    0.000000  -0.000010   0.000191  -0.105235   0.005370   0.001511
     2  O    0.007055   0.000678   0.004442  -0.000000  -0.000000   0.000000
     3  N    0.000009   0.000010   0.000107  -0.000176   0.000247   0.000020
     4  H   -0.000001  -0.000001   0.000001   0.000107  -0.000057  -0.000009
     5  C    0.026171   0.000721   0.044752   0.002980  -0.000755  -0.000007
     6  C    0.000007   0.000164  -0.001230  -0.026657  -0.021191   0.006921
     7  C    0.000254  -0.000350   0.004424   0.000315  -0.000013  -0.000012
     8  C   -0.056233  -0.024120  -0.072291  -0.000071   0.000014   0.000001
     9  C   -0.002475  -0.009512  -0.005988   0.010075   0.002451  -0.001864
    10  H    0.000181   0.000670   0.003171   0.004004  -0.000257   0.000175
    11  H    0.000558  -0.000402  -0.008126  -0.001942   0.000127  -0.000137
    12  C   -0.000137  -0.002154   0.006369  -0.240336   0.063240  -0.011409
    13  C   -0.000010  -0.000153   0.001030   0.270349  -0.100340  -0.022406
    14  C    0.000053  -0.000163   0.000133  -0.000004   0.000004  -0.000001
    15  H   -0.000004  -0.000004  -0.000014   0.000001   0.000000   0.000000
    16  H   -0.000042  -0.000009  -0.000004  -0.000000   0.000000   0.000000
    17  H    0.000040   0.000007  -0.000029   0.000000  -0.000000  -0.000000
    18  C    0.396283   0.402175   0.379742   0.000023   0.000000  -0.000001
    19  H    0.515960  -0.011224  -0.024893  -0.000000   0.000000   0.000000
    20  H   -0.011224   0.488180  -0.021317  -0.000010   0.000000   0.000000
    21  H   -0.024893  -0.021317   0.533953   0.000040  -0.000001  -0.000000
    22  C   -0.000000  -0.000010   0.000040   5.435068   0.396251   0.401344
    23  H    0.000000   0.000000  -0.000001   0.396251   0.543598  -0.026121
    24  H    0.000000   0.000000  -0.000000   0.401344  -0.026121   0.492916
    25  H   -0.000000   0.000000  -0.000001   0.379587  -0.022377  -0.009473
    26  C    0.000000   0.000002  -0.000017  -0.036389   0.015395  -0.008332
    27  H   -0.000000   0.000000  -0.000000   0.002647  -0.006504   0.000065
    28  H    0.000000  -0.000000   0.000000  -0.010617  -0.001841   0.000680
    29  H    0.000000  -0.000000   0.000000   0.002040   0.000554   0.000131
              25         26         27         28         29
     1  O    0.005962   0.000614  -0.000212  -0.000059   0.000022
     2  O    0.000000   0.000011  -0.000000  -0.000000   0.000000
     3  N    0.000021  -0.025314   0.000695  -0.002185   0.002400
     4  H   -0.000002  -0.006988   0.000702   0.000513   0.002053
     5  C   -0.000117   0.000878   0.000177   0.000336  -0.000277
     6  C   -0.000991   0.201261  -0.052994  -0.030379  -0.044753
     7  C    0.000007   0.002379  -0.000830  -0.000791   0.002800
     8  C    0.000002   0.000924   0.000001  -0.000015  -0.000002
     9  C    0.000445   0.021566   0.000134  -0.000652  -0.000420
    10  H   -0.000133  -0.000728  -0.000076  -0.000006   0.000073
    11  H    0.000007   0.000133   0.000008   0.000040  -0.000013
    12  C    0.019959  -0.083945  -0.006139  -0.016569   0.021179
    13  C   -0.033537  -0.056396  -0.001763   0.006984  -0.001342
    14  C    0.000000   0.000343   0.000035  -0.000080  -0.000087
    15  H    0.000000   0.000349  -0.000006  -0.000007   0.000111
    16  H   -0.000000  -0.000045   0.000001  -0.000004  -0.000002
    17  H   -0.000000  -0.000011  -0.000002   0.000004   0.000000
    18  C   -0.000000   0.000001   0.000000  -0.000000  -0.000000
    19  H   -0.000000   0.000000  -0.000000   0.000000   0.000000
    20  H    0.000000   0.000002   0.000000  -0.000000  -0.000000
    21  H   -0.000001  -0.000017  -0.000000   0.000000   0.000000
    22  C    0.379587  -0.036389   0.002647  -0.010617   0.002040
    23  H   -0.022377   0.015395  -0.006504  -0.001841   0.000554
    24  H   -0.009473  -0.008332   0.000065   0.000680   0.000131
    25  H    0.500089   0.002221   0.000506   0.000140  -0.000034
    26  C    0.002221   5.230240   0.436167   0.422557   0.386434
    27  H    0.000506   0.436167   0.504853  -0.029054  -0.023874
    28  H    0.000140   0.422557  -0.029054   0.481762  -0.015296
    29  H   -0.000034   0.386434  -0.023874  -0.015296   0.508268
 Mulliken charges:
               1
     1  O   -0.383399
     2  O   -0.400083
     3  N   -0.202902
     4  H    0.288338
     5  C   -0.046497
     6  C    0.255818
     7  C    0.177725
     8  C    0.141211
     9  C   -0.292649
    10  H    0.155958
    11  H    0.159280
    12  C   -0.135319
    13  C    0.150873
    14  C   -0.382509
    15  H    0.132374
    16  H    0.162266
    17  H    0.161273
    18  C   -0.451843
    19  H    0.148449
    20  H    0.176821
    21  H    0.155555
    22  C   -0.483394
    23  H    0.152207
    24  H    0.176006
    25  H    0.157718
    26  C   -0.503312
    27  H    0.175462
    28  H    0.194540
    29  H    0.160034
 Sum of Mulliken charges =  -0.00000
 Mulliken charges with hydrogens summed into heavy atoms:
               1
     1  O   -0.383399
     2  O   -0.400083
     3  N    0.085436
     5  C   -0.046497
     6  C    0.255818
     7  C    0.177725
     8  C    0.141211
     9  C    0.022589
    12  C   -0.135319
    13  C    0.150873
    14  C    0.073403
    18  C    0.028982
    22  C    0.002537
    26  C    0.026724
 Electronic spatial extent (au):  <R**2>=          50677.2021
 Charge=             -0.0000 electrons
 Dipole moment (field-independent basis, Debye):
    X=              1.2802    Y=              9.2482    Z=             -0.2076  Tot=              9.3387
 Quadrupole moment (field-independent basis, Debye-Ang):
   XX=           -107.6297   YY=            135.2551   ZZ=            -87.7162
   XY=              2.3950   XZ=             -7.5617   YZ=              2.5905
 Traceless Quadrupole moment (field-independent basis, Debye-Ang):
   XX=            -87.5994   YY=            155.2854   ZZ=            -67.6860
   XY=              2.3950   XZ=             -7.5617   YZ=              2.5905
 Octapole moment (field-independent basis, Debye-Ang**2):
  XXX=            539.0132  YYY=           1104.6352  ZZZ=           -103.3488  XYY=             -5.6223
  XXY=          -1112.6252  XXZ=             -9.7549  XZZ=            130.0108  YZZ=           -975.2751
  YYZ=             52.4306  XYZ=            -68.0606
 Hexadecapole moment (field-independent basis, Debye-Ang**3):
 XXXX=          -4593.9667 YYYY=          -1707.5359 ZZZZ=           -314.7789 XXXY=           5387.4898
 XXXZ=           -218.7108 YYYX=            437.2611 YYYZ=            490.6353 ZZZX=            -81.1519
 ZZZY=          -1178.7106 XXYY=         -12287.4927 XXZZ=           -688.9826 YYZZ=         -11151.6061
 XXYZ=           -157.0236 YYXZ=           -631.8804 ZZXY=           1390.8233
 N-N= 8.980160899312D+02 E-N=-3.271798488005D+03  KE= 6.305429466625D+02
 No NMR shielding tensors so no spin-rotation constants.
 Leave Link  601 at Tue Jan 20 20:56:51 2026, MaxMem=  2147483648 cpu:               3.6 elap:               0.1
 (Enter /data/home/wyx/g16/l9999.exe)
 1\1\GINC-CN012\SP\RCAM-B3LYP\TZVP\C11H15N1O2\WYX\20-Jan-2026\0\\#p CAM
 -B3LYP/TZVP em=gd3bj SCRF=(Solvent=Water,NonEquilibrium=Read) Geom=Che
 ck Guess=Read NoSymm\\Title Card Required\\0,1\O,0,1.2615009389,9.8370
 65498,1.2932516823\O,0,-4.7745357232,9.727353672,-0.4491234194\N,0,-2.
 1201500642,12.9137798229,0.2746956904\H,0,-2.4285517001,13.8757693115,
 0.2031886512\C,0,-2.6998196861,10.6310106954,0.2067580492\C,0,-0.80098
 09025,12.7424314888,0.5652623084\C,0,-3.0770795512,11.982171729,0.0764
 64449\C,0,-3.6153652651,9.5408258738,-0.0499093799\C,0,-1.3180439892,1
 0.323565953,0.6196091911\H,0,-1.3373788496,9.8512898282,1.621554937\H,
 0,-0.9044354886,9.5064552436,0.0154451732\C,0,-0.3369155576,11.4238636
 036,0.6856649505\C,0,1.0296928645,10.9991612128,0.9206762005\C,0,-4.43
 94273977,12.5051329282,-0.2333447788\H,0,-4.4483218668,13.594498771,-0
 .1839832936\H,0,-4.7659083335,12.1993746905,-1.2260411257\H,0,-5.17579
 40645,12.118255847,0.4690298646\C,0,-3.1340528374,8.1191160074,0.13660
 47233\H,0,-4.0041225695,7.4756168188,0.2449632492\H,0,-2.5795467534,7.
 7923658319,-0.7471694862\H,0,-2.4838983152,7.9886379762,0.9995908046\C
 ,0,2.2043848351,11.9155725205,0.6790246528\H,0,2.0301642392,12.6409818
 659,-0.110936623\H,0,2.4620676487,12.4591625955,1.5908539868\H,0,3.058
 2282669,11.2954181281,0.412397229\C,0,-0.0305856345,14.0067385111,0.76
 38430092\H,0,0.6551961759,13.9234404613,1.6036750973\H,0,0.5529327316,
 14.2831694407,-0.1168342513\H,0,-0.708424181,14.8336081232,0.976788457
 8\\Version=ES64L-G16RevA.03\HF=-633.3203623\RMSD=8.937e-09\Dipole=0.50
 36875,3.6385377,-0.0816752\Quadrupole=-65.1280245,115.4508827,-50.3228
 582,1.7806523,-5.6219655,1.9259886\PG=C01 [X(C11H15N1O2)]\\@


 IF I HAVE SEEN FARTHER, IT IS BY STANDING ON THE
 SHOULDERS OF GIANTS. -- SIR ISAAC NEWTON
 Job cpu time:       0 days  0 hours 52 minutes 22.8 seconds.
 Elapsed time:       0 days  0 hours  1 minutes 41.5 seconds.
 File lengths (MBytes):  RWF=    338 Int=      0 D2E=      0 Chk=     67 Scr=      1
 Normal termination of Gaussian 16 at Tue Jan 20 20:56:59 2026.
