 Entering Gaussian System, Link 0=g16
 Input=DDL-S1min-S1-cLR.gjf
 Output=DDL-S1min-S1-cLR.log
 Initial command:
 /data/home/wyx/g16/l1.exe "/scr/tmp/wyx/13031/Gau-1828424.inp" -scrdir="/scr/tmp/wyx/13031/"
 Entering Link 1 = /data/home/wyx/g16/l1.exe PID=   1828425.
  
 Copyright (c) 1988,1990,1992,1993,1995,1998,2003,2009,2016,
            Gaussian, Inc.  All Rights Reserved.
  
 This is part of the Gaussian(R) 16 program.  It is based on
 the Gaussian(R) 09 system (copyright 2009, Gaussian, Inc.),
 the Gaussian(R) 03 system (copyright 2003, Gaussian, Inc.),
 the Gaussian(R) 98 system (copyright 1998, Gaussian, Inc.),
 the Gaussian(R) 94 system (copyright 1995, Gaussian, Inc.),
 the Gaussian 92(TM) system (copyright 1992, Gaussian, Inc.),
 the Gaussian 90(TM) system (copyright 1990, Gaussian, Inc.),
 the Gaussian 88(TM) system (copyright 1988, Gaussian, Inc.),
 the Gaussian 86(TM) system (copyright 1986, Carnegie Mellon
 University), and the Gaussian 82(TM) system (copyright 1983,
 Carnegie Mellon University). Gaussian is a federally registered
 trademark of Gaussian, Inc.
  
 This software contains proprietary and confidential information,
 including trade secrets, belonging to Gaussian, Inc.
  
 This software is provided under written license and may be
 used, copied, transmitted, or stored only in accord with that
 written license.
  
 The following legend is applicable only to US Government
 contracts under FAR:
  
                    RESTRICTED RIGHTS LEGEND
  
 Use, reproduction and disclosure by the US Government is
 subject to restrictions as set forth in subparagraphs (a)
 and (c) of the Commercial Computer Software - Restricted
 Rights clause in FAR 52.227-19.
  
 Gaussian, Inc.
 340 Quinnipiac St., Bldg. 40, Wallingford CT 06492
  
  
 ---------------------------------------------------------------
 Warning -- This program may not be used in any manner that
 competes with the business of Gaussian, Inc. or will provide
 assistance to any competitor of Gaussian, Inc.  The licensee
 of this program is prohibited from giving any competitor of
 Gaussian, Inc. access to this program.  By using this program,
 the user acknowledges that Gaussian, Inc. is engaged in the
 business of creating and licensing software in the field of
 computational chemistry and represents and warrants to the
 licensee that it is not a competitor of Gaussian, Inc. and that
 it will not use this program in any manner prohibited above.
 ---------------------------------------------------------------
  

 Cite this work as:
 Gaussian 16, Revision A.03,
 M. J. Frisch, G. W. Trucks, H. B. Schlegel, G. E. Scuseria, 
 M. A. Robb, J. R. Cheeseman, G. Scalmani, V. Barone, 
 G. A. Petersson, H. Nakatsuji, X. Li, M. Caricato, A. V. Marenich, 
 J. Bloino, B. G. Janesko, R. Gomperts, B. Mennucci, H. P. Hratchian, 
 J. V. Ortiz, A. F. Izmaylov, J. L. Sonnenberg, D. Williams-Young, 
 F. Ding, F. Lipparini, F. Egidi, J. Goings, B. Peng, A. Petrone, 
 T. Henderson, D. Ranasinghe, V. G. Zakrzewski, J. Gao, N. Rega, 
 G. Zheng, W. Liang, M. Hada, M. Ehara, K. Toyota, R. Fukuda, 
 J. Hasegawa, M. Ishida, T. Nakajima, Y. Honda, O. Kitao, H. Nakai, 
 T. Vreven, K. Throssell, J. A. Montgomery, Jr., J. E. Peralta, 
 F. Ogliaro, M. J. Bearpark, J. J. Heyd, E. N. Brothers, K. N. Kudin, 
 V. N. Staroverov, T. A. Keith, R. Kobayashi, J. Normand, 
 K. Raghavachari, A. P. Rendell, J. C. Burant, S. S. Iyengar, 
 J. Tomasi, M. Cossi, J. M. Millam, M. Klene, C. Adamo, R. Cammi, 
 J. W. Ochterski, R. L. Martin, K. Morokuma, O. Farkas, 
 J. B. Foresman, and D. J. Fox, Gaussian, Inc., Wallingford CT, 2016.
 
 ******************************************
 Gaussian 16:  ES64L-G16RevA.03 25-Dec-2016
                20-Jan-2026 
 ******************************************
 %nprocshared=32
 Will use up to   32 processors via shared memory.
 %mem=16GB
 %oldchk=DDL-S1-opt-freq.chk
 %chk=DDL-S1min-S1-cLR.chk
 Copying data from "DDL-S1-opt-freq.chk" to current chk file "DDL-S1min-S1-cLR.chk"
 IOpt=  2 FromEx=T IUOpen= 4 IOptOp= 5 NList=   0 IFRang= 0 IUIn= 4 IUOut= 2.
 ----------------------------------------------------------------------
 #p CAM-B3LYP/TZVP em=gd3bj TD=(Read,NStates=6,Root=1) SCRF=(Solvent=Wa
 ter,CorrectedLR,NonEquilibrium=Save) Geom=Check Guess=Read NoSymm
 ----------------------------------------------------------------------
 1/29=2,30=1,38=1,172=1/1;
 2/12=2,15=1,40=1/2;
 3/5=19,7=101,11=9,14=-4,25=1,30=1,70=9002201,71=1,72=1,74=-40,116=-2,124=41/1,2,3,8;
 4/5=1/1;
 5/5=2,38=6,53=1/2;
 8/6=1,10=1,107=1,108=6/1;
 9/8=1,15=1,41=6,42=1,49=3,70=2,73=22/14;
 10/5=4,13=10,28=1,31=1,74=20/2;
 6/7=2,8=2,9=2,10=2,22=-1/1;
 99/5=1,9=1/99;
 Leave Link    1 at Tue Jan 20 20:44:55 2026, MaxMem=  2147483648 cpu:               5.5 elap:               0.3
 (Enter /data/home/wyx/g16/l101.exe)
 -------------------
 Title Card Required
 -------------------
 Structure from the checkpoint file:  "DDL-S1min-S1-cLR.chk"
 Charge =  0 Multiplicity = 1
 Redundant internal coordinates found in file.  (old form).
 O,0,1.2615009389,9.837065498,1.2932516823
 O,0,-4.7745357232,9.727353672,-0.4491234194
 N,0,-2.1201500642,12.9137798229,0.2746956904
 H,0,-2.4285517001,13.8757693115,0.2031886512
 C,0,-2.6998196861,10.6310106954,0.2067580492
 C,0,-0.8009809025,12.7424314888,0.5652623084
 C,0,-3.0770795512,11.982171729,0.076464449
 C,0,-3.6153652651,9.5408258738,-0.0499093799
 C,0,-1.3180439892,10.323565953,0.6196091911
 H,0,-1.3373788496,9.8512898282,1.621554937
 H,0,-0.9044354886,9.5064552436,0.0154451732
 C,0,-0.3369155576,11.4238636036,0.6856649505
 C,0,1.0296928645,10.9991612128,0.9206762005
 C,0,-4.4394273977,12.5051329282,-0.2333447788
 H,0,-4.4483218668,13.594498771,-0.1839832936
 H,0,-4.7659083335,12.1993746905,-1.2260411257
 H,0,-5.1757940645,12.118255847,0.4690298646
 C,0,-3.1340528374,8.1191160074,0.1366047233
 H,0,-4.0041225695,7.4756168188,0.2449632492
 H,0,-2.5795467534,7.7923658319,-0.7471694862
 H,0,-2.4838983152,7.9886379762,0.9995908046
 C,0,2.2043848351,11.9155725205,0.6790246528
 H,0,2.0301642392,12.6409818659,-0.110936623
 H,0,2.4620676487,12.4591625955,1.5908539868
 H,0,3.0582282669,11.2954181281,0.412397229
 C,0,-0.0305856345,14.0067385111,0.7638430092
 H,0,0.6551961759,13.9234404613,1.6036750973
 H,0,0.5529327316,14.2831694407,-0.1168342513
 H,0,-0.708424181,14.8336081232,0.9767884578
 Recover connectivity data from disk.
 ITRead=  0  0  0  0  0  0  0  0  0  0  0  0  0  0  0  0  0  0  0  0
 ITRead=  0  0  0  0  0  0  0  0  0
 MicOpt= -1 -1 -1 -1 -1 -1 -1 -1 -1 -1 -1 -1 -1 -1 -1 -1 -1 -1 -1 -1
 MicOpt= -1 -1 -1 -1 -1 -1 -1 -1 -1
                           ----------------------------
                           !    Current Parameters    !
                           ! (Angstroms and Degrees)  !
 --------------------------                            --------------------------
 ! Name  Definition              Value                                          !
 --------------------------------------------------------------------------------
 ! R1    R(1,13)                 1.2422                                         !
 ! R2    R(2,8)                  1.2401                                         !
 ! R3    R(3,4)                  1.0127                                         !
 ! R4    R(3,6)                  1.3616                                         !
 ! R5    R(3,7)                  1.3501                                         !
 ! R6    R(5,7)                  1.4089                                         !
 ! R7    R(5,8)                  1.4466                                         !
 ! R8    R(5,9)                  1.4745                                         !
 ! R9    R(6,12)                 1.403                                          !
 ! R10   R(6,26)                 1.4938                                         !
 ! R11   R(7,14)                 1.4918                                         !
 ! R12   R(8,18)                 1.5125                                         !
 ! R13   R(9,10)                 1.1078                                         !
 ! R14   R(9,11)                 1.0972                                         !
 ! R15   R(9,12)                 1.4757                                         !
 ! R16   R(12,13)                1.4502                                         !
 ! R17   R(13,22)                1.5093                                         !
 ! R18   R(14,15)                1.0905                                         !
 ! R19   R(14,16)                1.0888                                         !
 ! R20   R(14,17)                1.0887                                         !
 ! R21   R(18,19)                1.0876                                         !
 ! R22   R(18,20)                1.0933                                         !
 ! R23   R(18,21)                1.0883                                         !
 ! R24   R(22,23)                1.0866                                         !
 ! R25   R(22,24)                1.0924                                         !
 ! R26   R(22,25)                1.0885                                         !
 ! R27   R(26,27)                1.0875                                         !
 ! R28   R(26,28)                1.092                                          !
 ! R29   R(26,29)                1.0902                                         !
 ! A1    A(4,3,6)              115.4441                                         !
 ! A2    A(4,3,7)              115.4184                                         !
 ! A3    A(6,3,7)              129.136                                          !
 ! A4    A(7,5,8)              122.4709                                         !
 ! A5    A(7,5,9)              118.4754                                         !
 ! A6    A(8,5,9)              119.0538                                         !
 ! A7    A(3,6,12)             117.1956                                         !
 ! A8    A(3,6,26)             114.9302                                         !
 ! A9    A(12,6,26)            127.8382                                         !
 ! A10   A(3,7,5)              117.2821                                         !
 ! A11   A(3,7,14)             115.8401                                         !
 ! A12   A(5,7,14)             126.8656                                         !
 ! A13   A(2,8,5)              122.3685                                         !
 ! A14   A(2,8,18)             118.5897                                         !
 ! A15   A(5,8,18)             119.019                                          !
 ! A16   A(5,9,10)             109.0112                                         !
 ! A17   A(5,9,11)             110.7548                                         !
 ! A18   A(5,9,12)             118.6924                                         !
 ! A19   A(10,9,11)            100.7845                                         !
 ! A20   A(10,9,12)            106.7969                                         !
 ! A21   A(11,9,12)            109.2269                                         !
 ! A22   A(6,12,9)             118.4887                                         !
 ! A23   A(6,12,13)            126.928                                          !
 ! A24   A(9,12,13)            114.5458                                         !
 ! A25   A(1,13,12)            119.8957                                         !
 ! A26   A(1,13,22)            118.0862                                         !
 ! A27   A(12,13,22)           121.9815                                         !
 ! A28   A(7,14,15)            110.3794                                         !
 ! A29   A(7,14,16)            111.3909                                         !
 ! A30   A(7,14,17)            111.0468                                         !
 ! A31   A(15,14,16)           108.6231                                         !
 ! A32   A(15,14,17)           108.679                                          !
 ! A33   A(16,14,17)           106.5947                                         !
 ! A34   A(8,18,19)            108.2922                                         !
 ! A35   A(8,18,20)            110.0377                                         !
 ! A36   A(8,18,21)            113.6138                                         !
 ! A37   A(19,18,20)           108.0264                                         !
 ! A38   A(19,18,21)           109.1456                                         !
 ! A39   A(20,18,21)           107.5876                                         !
 ! A40   A(13,22,23)           113.3884                                         !
 ! A41   A(13,22,24)           110.6145                                         !
 ! A42   A(13,22,25)           107.6868                                         !
 ! A43   A(23,22,24)           108.2077                                         !
 ! A44   A(23,22,25)           109.1516                                         !
 ! A45   A(24,22,25)           107.6346                                         !
 ! A46   A(6,26,27)            111.2889                                         !
 ! A47   A(6,26,28)            112.4961                                         !
 ! A48   A(6,26,29)            110.319                                          !
 ! A49   A(27,26,28)           107.7728                                         !
 ! A50   A(27,26,29)           107.4184                                         !
 ! A51   A(28,26,29)           107.3236                                         !
 ! D1    D(4,3,6,12)           179.4034                                         !
 ! D2    D(4,3,6,26)             1.4123                                         !
 ! D3    D(7,3,6,12)            -0.145                                          !
 ! D4    D(7,3,6,26)          -178.1362                                         !
 ! D5    D(4,3,7,5)           -178.1304                                         !
 ! D6    D(4,3,7,14)             0.6857                                         !
 ! D7    D(6,3,7,5)              1.4181                                         !
 ! D8    D(6,3,7,14)          -179.7657                                         !
 ! D9    D(8,5,7,3)           -176.6626                                         !
 ! D10   D(8,5,7,14)             4.6692                                         !
 ! D11   D(9,5,7,3)              3.2896                                         !
 ! D12   D(9,5,7,14)          -175.3786                                         !
 ! D13   D(7,5,8,2)              2.7751                                         !
 ! D14   D(7,5,8,18)          -178.9866                                         !
 ! D15   D(9,5,8,2)           -177.1768                                         !
 ! D16   D(9,5,8,18)             1.0615                                         !
 ! D17   D(7,5,9,10)           113.5829                                         !
 ! D18   D(7,5,9,11)          -136.4052                                         !
 ! D19   D(7,5,9,12)            -8.8975                                         !
 ! D20   D(8,5,9,10)           -66.4633                                         !
 ! D21   D(8,5,9,11)            43.5486                                         !
 ! D22   D(8,5,9,12)           171.0564                                         !
 ! D23   D(3,6,12,9)            -5.7192                                         !
 ! D24   D(3,6,12,13)          176.6389                                         !
 ! D25   D(26,6,12,9)          171.974                                          !
 ! D26   D(26,6,12,13)          -5.6679                                         !
 ! D27   D(3,6,26,27)          138.4544                                         !
 ! D28   D(3,6,26,28)         -100.4845                                         !
 ! D29   D(3,6,26,29)           19.319                                          !
 ! D30   D(12,6,26,27)         -39.283                                          !
 ! D31   D(12,6,26,28)          81.7781                                         !
 ! D32   D(12,6,26,29)        -158.4184                                         !
 ! D33   D(3,7,14,15)           -3.7006                                         !
 ! D34   D(3,7,14,16)          117.0555                                         !
 ! D35   D(3,7,14,17)         -124.2992                                         !
 ! D36   D(5,7,14,15)          174.9843                                         !
 ! D37   D(5,7,14,16)          -64.2596                                         !
 ! D38   D(5,7,14,17)           54.3856                                         !
 ! D39   D(2,8,18,19)          -21.2687                                         !
 ! D40   D(2,8,18,20)           96.6026                                         !
 ! D41   D(2,8,18,21)         -142.7022                                         !
 ! D42   D(5,8,18,19)          160.4259                                         !
 ! D43   D(5,8,18,20)          -81.7028                                         !
 ! D44   D(5,8,18,21)           38.9925                                         !
 ! D45   D(5,9,12,6)            10.1453                                         !
 ! D46   D(5,9,12,13)         -171.9269                                         !
 ! D47   D(10,9,12,6)         -113.4355                                         !
 ! D48   D(10,9,12,13)          64.4923                                         !
 ! D49   D(11,9,12,6)          138.368                                          !
 ! D50   D(11,9,12,13)         -43.7042                                         !
 ! D51   D(6,12,13,1)          164.3171                                         !
 ! D52   D(6,12,13,22)         -17.9256                                         !
 ! D53   D(9,12,13,1)          -13.4044                                         !
 ! D54   D(9,12,13,22)         164.3529                                         !
 ! D55   D(1,13,22,23)         147.8622                                         !
 ! D56   D(1,13,22,24)         -90.3743                                         !
 ! D57   D(1,13,22,25)          26.9923                                         !
 ! D58   D(12,13,22,23)        -29.9341                                         !
 ! D59   D(12,13,22,24)         91.8295                                         !
 ! D60   D(12,13,22,25)       -150.804                                          !
 --------------------------------------------------------------------------------
 NAtoms=     29 NQM=       29 NQMF=       0 NMMI=      0 NMMIF=      0
                NMic=       0 NMicF=      0.
                    Isotopes and Nuclear Properties:
 (Nuclear quadrupole moments (NQMom) in fm**2, nuclear magnetic moments (NMagM)
  in nuclear magnetons)

  Atom         1           2           3           4           5           6           7           8           9          10
 IAtWgt=          16          16          14           1          12          12          12          12          12           1
 AtmWgt=  15.9949146  15.9949146  14.0030740   1.0078250  12.0000000  12.0000000  12.0000000  12.0000000  12.0000000   1.0078250
 NucSpn=           0           0           2           1           0           0           0           0           0           1
 AtZEff=   5.6000000   5.6000000   4.5500000   1.0000000   3.6000000   3.6000000   3.6000000   3.6000000   3.6000000   1.0000000
 NQMom=    0.0000000   0.0000000   2.0440000   0.0000000   0.0000000   0.0000000   0.0000000   0.0000000   0.0000000   0.0000000
 NMagM=    0.0000000   0.0000000   0.4037610   2.7928460   0.0000000   0.0000000   0.0000000   0.0000000   0.0000000   2.7928460
 AtZNuc=   8.0000000   8.0000000   7.0000000   1.0000000   6.0000000   6.0000000   6.0000000   6.0000000   6.0000000   1.0000000

  Atom        11          12          13          14          15          16          17          18          19          20
 IAtWgt=           1          12          12          12           1           1           1          12           1           1
 AtmWgt=   1.0078250  12.0000000  12.0000000  12.0000000   1.0078250   1.0078250   1.0078250  12.0000000   1.0078250   1.0078250
 NucSpn=           1           0           0           0           1           1           1           0           1           1
 AtZEff=   1.0000000   3.6000000   3.6000000   3.6000000   1.0000000   1.0000000   1.0000000   3.6000000   1.0000000   1.0000000
 NQMom=    0.0000000   0.0000000   0.0000000   0.0000000   0.0000000   0.0000000   0.0000000   0.0000000   0.0000000   0.0000000
 NMagM=    2.7928460   0.0000000   0.0000000   0.0000000   2.7928460   2.7928460   2.7928460   0.0000000   2.7928460   2.7928460
 AtZNuc=   1.0000000   6.0000000   6.0000000   6.0000000   1.0000000   1.0000000   1.0000000   6.0000000   1.0000000   1.0000000

  Atom        21          22          23          24          25          26          27          28          29
 IAtWgt=           1          12           1           1           1          12           1           1           1
 AtmWgt=   1.0078250  12.0000000   1.0078250   1.0078250   1.0078250  12.0000000   1.0078250   1.0078250   1.0078250
 NucSpn=           1           0           1           1           1           0           1           1           1
 AtZEff=   1.0000000   3.6000000   1.0000000   1.0000000   1.0000000   3.6000000   1.0000000   1.0000000   1.0000000
 NQMom=    0.0000000   0.0000000   0.0000000   0.0000000   0.0000000   0.0000000   0.0000000   0.0000000   0.0000000
 NMagM=    2.7928460   0.0000000   2.7928460   2.7928460   2.7928460   0.0000000   2.7928460   2.7928460   2.7928460
 AtZNuc=   1.0000000   6.0000000   1.0000000   1.0000000   1.0000000   6.0000000   1.0000000   1.0000000   1.0000000
 Leave Link  101 at Tue Jan 20 20:44:58 2026, MaxMem=  2147483648 cpu:               6.6 elap:               0.2
 (Enter /data/home/wyx/g16/l202.exe)
                          Input orientation:                          
 ---------------------------------------------------------------------
 Center     Atomic      Atomic             Coordinates (Angstroms)
 Number     Number       Type             X           Y           Z
 ---------------------------------------------------------------------
      1          8           0        1.261501    9.837065    1.293252
      2          8           0       -4.774536    9.727354   -0.449123
      3          7           0       -2.120150   12.913780    0.274696
      4          1           0       -2.428552   13.875769    0.203189
      5          6           0       -2.699820   10.631011    0.206758
      6          6           0       -0.800981   12.742431    0.565262
      7          6           0       -3.077080   11.982172    0.076464
      8          6           0       -3.615365    9.540826   -0.049909
      9          6           0       -1.318044   10.323566    0.619609
     10          1           0       -1.337379    9.851290    1.621555
     11          1           0       -0.904435    9.506455    0.015445
     12          6           0       -0.336916   11.423864    0.685665
     13          6           0        1.029693   10.999161    0.920676
     14          6           0       -4.439427   12.505133   -0.233345
     15          1           0       -4.448322   13.594499   -0.183983
     16          1           0       -4.765908   12.199375   -1.226041
     17          1           0       -5.175794   12.118256    0.469030
     18          6           0       -3.134053    8.119116    0.136605
     19          1           0       -4.004123    7.475617    0.244963
     20          1           0       -2.579547    7.792366   -0.747169
     21          1           0       -2.483898    7.988638    0.999591
     22          6           0        2.204385   11.915573    0.679025
     23          1           0        2.030164   12.640982   -0.110937
     24          1           0        2.462068   12.459163    1.590854
     25          1           0        3.058228   11.295418    0.412397
     26          6           0       -0.030586   14.006739    0.763843
     27          1           0        0.655196   13.923440    1.603675
     28          1           0        0.552933   14.283169   -0.116834
     29          1           0       -0.708424   14.833608    0.976788
 ---------------------------------------------------------------------
                    Distance matrix (angstroms):
                    1          2          3          4          5
     1  O    0.000000
     2  O    6.283442   0.000000
     3  N    4.683929   4.209868   0.000000
     4  H    5.578159   4.810250   1.012743   0.000000
     5  C    4.183644   2.356103   2.356198   3.256080   0.000000
     6  C    3.636613   5.090070   1.361615   2.016070   2.862204
     7  C    4.990524   2.870854   1.350149   2.005582   1.408878
     8  C    5.067116   1.240097   3.703762   4.501591   1.446584
     9  C    2.710079   3.666742   2.733413   3.744968   1.474541
    10  H    2.619573   4.014613   3.435929   4.404413   2.113258
    11  H    2.536410   3.904138   3.626987   4.631316   2.127118
    12  C    2.332815   4.884502   2.359803   3.258768   2.537968
    13  C    1.242181   6.097780   3.742267   4.555120   3.815033
    14  C    6.476856   2.806228   2.409179   2.472413   2.594660
    15  H    6.993040   3.889926   2.468633   2.075689   3.462976
    16  H    6.946726   2.591247   3.124520   3.211889   2.963343
    17  H    6.879094   2.592379   3.163477   3.272135   2.900195
    18  C    4.859020   2.370799   4.902639   5.800105   2.550117
    19  H    5.865334   2.479034   5.755333   6.591367   3.414554
    20  H    4.806013   2.941256   5.242531   6.159040   2.997057
    21  H    4.186996   3.220082   4.991474   5.941013   2.767190
    22  C    2.363577   7.400429   4.456624   5.053008   5.091597
    23  H    3.228705   7.409962   4.177109   4.637189   5.149142
    24  H    2.899193   7.999545   4.789120   5.277362   5.648269
    25  H    2.476071   8.034503   5.427122   6.066855   5.799900
    26  C    4.397264   6.503037   2.408340   2.466116   4.339435
    27  H    4.142756   7.162619   3.238541   3.387202   4.903835
    28  H    4.717865   7.017677   3.028844   3.026159   4.901364
    29  H    5.380167   6.681341   2.484280   2.115361   4.713855
                    6          7          8          9         10
     6  C    0.000000
     7  C    2.448988   0.000000
     8  C    4.306910   2.503176   0.000000
     9  C    2.474110   2.477940   2.517662   0.000000
    10  H    3.124448   3.155079   2.842429   1.107842   0.000000
    11  H    3.283983   3.294431   2.711935   1.097158   1.698805
    12  C    1.403023   2.862050   3.851640   1.475680   2.085619
    13  C    2.552778   4.306342   4.964408   2.461491   2.722475
    14  C    3.732610   1.491798   3.082182   3.902538   4.483998
    15  H    3.819749   2.132542   4.140538   4.598196   5.191295
    16  H    4.384556   2.143791   3.126486   4.337378   5.037571
    17  H    4.420164   2.139446   3.057349   4.257443   4.604441
    18  C    5.196347   3.863944   1.512517   2.896684   2.904056
    19  H    6.172685   4.604002   2.122068   3.932708   3.827577
    20  H    5.421155   4.298882   2.148535   3.141090   3.375353
    21  H    5.061562   4.141538   2.188825   2.637326   2.273943
    22  C    3.119112   5.316143   6.327737   3.865944   4.206390
    23  H    2.912545   5.152969   6.441017   4.136981   4.703643
    24  H    3.432137   5.762209   6.938587   4.448970   4.608442
    25  H    4.124404   6.182757   6.915864   4.487671   4.782147
    26  C    1.493792   3.721893   5.784221   3.904371   4.439722
    27  H    2.143253   4.475576   6.338718   4.221511   4.533551
    28  H    2.161530   4.302202   6.314191   4.440874   5.122190
    29  H    2.133293   3.814682   6.125191   4.565051   5.063082
                   11         12         13         14         15
    11  H    0.000000
    12  C    2.108964   0.000000
    13  C    2.605469   1.450249   0.000000
    14  C    4.642212   4.341005   5.788868   0.000000
    15  H    5.413964   4.729863   6.161550   1.090520   0.000000
    16  H    4.868683   4.885900   6.295864   1.088818   1.770061
    17  H    5.027101   4.893246   6.321742   1.088687   1.770575
    18  C    2.628799   4.364264   5.123105   4.591079   5.640026
    19  H    3.712821   5.406596   6.181525   5.070927   6.149961
    20  H    2.515091   4.502242   5.108019   5.092479   6.121621
    21  H    2.401461   4.063110   4.627613   5.073751   6.056854
    22  C    3.988602   2.588442   1.509340   6.732031   6.915351
    23  H    4.295708   2.778312   2.181913   6.472175   6.548688
    24  H    4.746971   3.118576   2.152310   7.138659   7.224439
    25  H    4.365852   3.408544   2.112125   7.622023   7.873356
    26  C    4.645026   2.602152   3.192853   4.763097   4.537038
    27  H    4.946179   2.841639   3.026243   5.598342   5.417548
    28  H    4.995840   3.100236   3.476843   5.300816   5.048893
    29  H    5.416748   3.442256   4.210366   4.561426   4.107264
                   16         17         18         19         20
    16  H    0.000000
    17  H    1.745810   0.000000
    18  C    4.600898   4.502481   0.000000
    19  H    5.005803   4.793445   1.087591   0.000000
    20  H    4.942795   5.189698   1.093298   1.764674   0.000000
    21  H    5.281222   4.957978   1.088334   1.773058   1.760353
    22  C    7.231515   7.385947   6.573144   7.645076   6.474632
    23  H    6.901092   7.248133   6.868601   7.951118   6.720365
    24  H    7.761831   7.727331   7.229620   8.273981   7.256943
    25  H    8.044795   8.275228   6.964862   8.030922   6.737988
    26  C    5.445134   5.488757   6.684986   7.662492   6.884678
    27  H    6.353587   6.208587   7.085258   8.070302   7.319843
    28  H    5.819159   6.152105   7.187047   8.200026   7.234658
    29  H    5.315526   5.252461   7.188462   8.095507   7.486803
                   21         22         23         24         25
    21  H    0.000000
    22  C    6.124016   0.000000
    23  H    6.576803   1.086559   0.000000
    24  H    6.693113   1.092393   1.765132   0.000000
    25  H    6.480336   1.088453   1.772381   1.760247   0.000000
    26  C    6.503219   3.061905   2.622446   3.048321   4.124990
    27  H    6.740973   2.699351   2.544628   2.325738   3.755024
    28  H    7.077420   2.994361   2.208852   3.144518   3.934876
    29  H    7.071524   4.133770   3.672958   4.008377   5.198557
                   26         27         28         29
    26  C    0.000000
    27  H    1.087453   0.000000
    28  H    1.092017   1.760686   0.000000
    29  H    1.090195   1.755236   1.757844   0.000000
 Symmetry turned off by external request.
 Stoichiometry    C11H15NO2
 Framework group  C1[X(C11H15NO2)]
 Deg. of freedom    81
 Full point group                 C1      NOp   1
 Rotational constants (GHZ):           1.0696409           0.4891732           0.3419374
 Leave Link  202 at Tue Jan 20 20:44:58 2026, MaxMem=  2147483648 cpu:               0.1 elap:               0.0
 (Enter /data/home/wyx/g16/l301.exe)
 Standard basis: TZVP (5D, 7F)
 Ernie: Thresh=  0.10000D-02 Tol=  0.10000D-05 Strict=F.
   356 basis functions,   610 primitive gaussians,   370 cartesian basis functions
    52 alpha electrons       52 beta electrons
       nuclear repulsion energy       898.0421854874 Hartrees.
 IExCor=20419 DFT=T Ex+Corr=CAM-B3LYP ExCW=0 ScaHFX=  1.000000
 ScaDFX=  1.000000  1.000000  1.000000  0.810000 ScalE2=  1.000000  1.000000
 IRadAn=      5 IRanWt=     -1 IRanGd=            0 ICorTp=0 IEmpDi=141
 HFx  wShort=  0.000000 wLong=  0.330000 cFull=  0.190000 cShort=  0.000000 cLong=  0.460000
 DFx  wShort=  0.000000 wLong=  0.330000 cFull=  0.190000 cShort=  0.000000 cLong=  0.460000
 NAtoms=   29 NActive=   29 NUniq=   29 SFac= 1.00D+00 NAtFMM=   60 NAOKFM=F Big=F
 Integral buffers will be    131072 words long.
 Raffenetti 1 integral format.
 Two-electron integral symmetry is turned off.
 R6Disp:  Grimme-D3(BJ) Dispersion energy=       -0.0260955562 Hartrees.
 Nuclear repulsion after empirical dispersion term =      898.0160899312 Hartrees.
 ------------------------------------------------------------------------------
 Polarizable Continuum Model (PCM)
 =================================
 Model                : PCM.
 Atomic radii         : UFF (Universal Force Field).
 Polarization charges : Total charges.
 Charge compensation  : None.
 Solution method      : On-the-fly selection.
 Cavity type          : Scaled VdW (van der Waals Surface) (Alpha=1.100).
 Cavity algorithm     : GePol (No added spheres)
                        Default sphere list used, NSphG=   29.
                        Lebedev-Laikov grids with approx.  5.0 points / Ang**2.
                        Smoothing algorithm: York/Karplus (Gamma=1.0000).
                        Polarization charges: spherical gaussians, with
                                              point-specific exponents (IZeta= 3).
                        Self-potential: point-specific (ISelfS= 7).
                        Self-field    : sphere-specific E.n sum rule (ISelfD= 2).
 1st derivatives      : Analytical E(r).r(x)/FMM algorithm (CHGder, D1EAlg=3).
                        Cavity 1st derivative terms included.
 Solvent              : Water, Eps=  78.355300 Eps(inf)=   1.777849
 ------------------------------------------------------------------------------
 GePol: Number of generator spheres                  =      29
 GePol: Total number of spheres                      =      29
 GePol: Number of exposed spheres                    =      29 (100.00%)
 GePol: Number of points                             =    2100
 GePol: Average weight of points                     =       0.13
 GePol: Minimum weight of points                     =   0.46D-09
 GePol: Maximum weight of points                     =    0.20577
 GePol: Number of points with low weight             =     150
 GePol: Fraction of low-weight points (<1% of avg)   =       7.14%
 GePol: Cavity surface area                          =    269.813 Ang**2
 GePol: Cavity volume                                =    287.533 Ang**3
 Leave Link  301 at Tue Jan 20 20:44:58 2026, MaxMem=  2147483648 cpu:               1.2 elap:               0.1
 (Enter /data/home/wyx/g16/l302.exe)
 NPDir=0 NMtPBC=     1 NCelOv=     1 NCel=       1 NClECP=     1 NCelD=      1
         NCelK=      1 NCelE2=     1 NClLst=     1 CellRange=     0.0.
 One-electron integrals computed using PRISM.
 NBasis=   356 RedAO= T EigKep=  3.90D-05  NBF=   356
 NBsUse=   356 1.00D-06 EigRej= -1.00D+00 NBFU=   356
 Precomputing XC quadrature grid using
 IXCGrd= 4 IRadAn=           5 IRanWt=          -1 IRanGd=           0 AccXCQ= 0.00D+00.
 Generated NRdTot=       0 NPtTot=           0 NUsed=           0 NTot=          32
 NSgBfM=   366   366   366   366   366 MxSgAt=    29 MxSgA2=    29.
 Leave Link  302 at Tue Jan 20 20:44:59 2026, MaxMem=  2147483648 cpu:               6.2 elap:               0.2
 (Enter /data/home/wyx/g16/l303.exe)
 DipDrv:  MaxL=1.
 Leave Link  303 at Tue Jan 20 20:44:59 2026, MaxMem=  2147483648 cpu:               1.1 elap:               0.1
 (Enter /data/home/wyx/g16/l308.exe)
 Leave Link  308 at Tue Jan 20 20:45:00 2026, MaxMem=  2147483648 cpu:               1.4 elap:               0.1
 (Enter /data/home/wyx/g16/l401.exe)
 Initial guess from the checkpoint file:  "DDL-S1min-S1-cLR.chk"
 B after Tr=     0.000000    0.000000    0.000000
         Rot=    1.000000    0.000000    0.000000    0.000000 Ang=   0.00 deg.
 Guess basis will be translated and rotated to current coordinates.
 JPrj=2 DoOrth=T DoCkMO=T.
 Leave Link  401 at Tue Jan 20 20:45:01 2026, MaxMem=  2147483648 cpu:               4.5 elap:               0.2
 (Enter /data/home/wyx/g16/l502.exe)
 Two-electron integral symmetry not used.
 Closed shell SCF:
 Using DIIS extrapolation, IDIIS=  1040.
 NGot=  2147483648 LenX=  2147195087 LenY=  2147057746
 Requested convergence on RMS density matrix=1.00D-08 within 128 cycles.
 Requested convergence on MAX density matrix=1.00D-06.
 Requested convergence on             energy=1.00D-06.
 No special actions if energy rises.
 Fock matrices will be formed incrementally for  20 cycles.

 Cycle   1  Pass 1  IDiag  1:
 FoFJK:  IHMeth= 1 ICntrl=       0 DoSepK=T KAlg= 0 I1Cent=           0 FoldK=F
 IRaf=         1 NMat=       1 IRICut=       1 DoRegI=T DoRafI=F ISym2E= 0 IDoP0=0 IntGTp=1.
 FoFCou: FMM=F IPFlag=           0 FMFlag=      100000 FMFlg1=           0
         NFxFlg=           0 DoJE=T BraDBF=F KetDBF=F FulRan=T
         wScrn=  0.000000 ICntrl=       500 IOpCl=  0 I1Cent=           0 NGrid=           0
         NMat0=    1 NMatS0=      1 NMatT0=    0 NMatD0=    1 NMtDS0=    0 NMtDT0=    0
 Symmetry not used in FoFCou.
 Inv3:  Mode=1 IEnd=    13230000.
 Iteration    1 A*A^-1 deviation from unit magnitude is 3.33D-15 for   1108.
 Iteration    1 A*A^-1 deviation from orthogonality  is 1.78D-15 for   1995    369.
 Iteration    1 A^-1*A deviation from unit magnitude is 3.77D-15 for   1108.
 Iteration    1 A^-1*A deviation from orthogonality  is 1.63D-14 for   1774   1754.
 E= -633.320835756408    
 DIIS: error= 1.10D-08 at cycle   1 NSaved=   1.
 NSaved= 1 IEnMin= 1 EnMin= -633.320835756408     IErMin= 1 ErrMin= 1.10D-08
 ErrMax= 1.10D-08  0.00D+00 EMaxC= 1.00D-01 BMatC= 3.68D-14 BMatP= 3.68D-14
 IDIUse=1 WtCom= 1.00D+00 WtEn= 0.00D+00
 Coeff-Com:  0.100D+01
 Coeff:      0.100D+01
 Gap=     0.214 Goal=   None    Shift=    0.000
 RMSDP=2.04D-09 MaxDP=1.20D-07              OVMax= 1.98D-07

 Error on total polarization charges =  0.01560
 SCF Done:  E(RCAM-B3LYP) =  -633.320835756     A.U. after    1 cycles
            NFock=  1  Conv=0.20D-08     -V/T= 2.0044
 KE= 6.305450037649D+02 PE=-3.271868841685D+03 EE= 1.109986912232D+03
 Leave Link  502 at Tue Jan 20 20:45:05 2026, MaxMem=  2147483648 cpu:             120.7 elap:               4.1
 (Enter /data/home/wyx/g16/l801.exe)
 DoSCS=F DFT=T ScalE2(SS,OS)=  1.000000  1.000000
 ExpMin= 9.52D-02 ExpMax= 2.70D+04 ExpMxC= 9.22D+02 IAcc=3 IRadAn=         5 AccDes= 0.00D+00
 HarFok:  IExCor=  205 AccDes= 0.00D+00 IRadAn=         5 IDoV=-2 UseB2=F ITyADJ=14
 ICtDFT= 12500011 ScaDFX=  1.000000  1.000000  1.000000  1.000000
 Largest valence mixing into a core orbital is  5.58D-05
 Largest core mixing into a valence orbital is  1.14D-05
 Range of M.O.s used for correlation:    15   356
 NBasis=   356 NAE=    52 NBE=    52 NFC=    14 NFV=     0
 NROrb=    342 NOA=    38 NOB=    38 NVA=   304 NVB=   304

 **** Warning!!: The largest alpha MO coefficient is  0.61612297D+02

 Leave Link  801 at Tue Jan 20 20:45:06 2026, MaxMem=  2147483648 cpu:               1.6 elap:               0.1
 (Enter /data/home/wyx/g16/l914.exe)
 RHF ground state
 Two-electron integral symmetry not used.
 MDV=  2147483648 DFT=T DoStab=F Mixed=T DoRPA=T DoScal=F NonHer=T
 NEqPCM:  Using equilibrium solvation (IEInf=0, Eps=  78.3553, EpsInf=   1.7778)
 Making orbital integer symmetry assigments:
 Generating guess from checkpoint file densities.
 PCM Corrected Linear-Response:
 Compute the excitation energies in the ground state reaction field.
 Convergence on wavefunction:    0.000001000000000
 Davidson Disk Diagonalization:  ConvIn= 1.00D-06 SkipCon=T Conv= 1.00D-06.
 Max sub-space:  2000 roots to seek:     6 dimension of matrix:        23104
 Iteration     1 Dimension    12 NMult     0 NNew     12
 CISAX will form    12 AO SS matrices at one time.
 NMat=    12 NSing=    12 JSym2X= 0.
 FoFJK:  IHMeth= 1 ICntrl=       0 DoSepK=T KAlg= 0 I1Cent=           0 FoldK=F
 IRaf=         1 NMat=      24 IRICut=       1 DoRegI=T DoRafI=F ISym2E= 0 IDoP0=3 IntGTp=3.
 FoFCou: FMM=F IPFlag=           0 FMFlag=      100000 FMFlg1=           0
         NFxFlg=           0 DoJE=F BraDBF=F KetDBF=F FulRan=T
         wScrn=  0.000000 ICntrl=       500 IOpCl=  0 I1Cent=           0 NGrid=           0
         NMat0=   12 NMatS0=     12 NMatT0=    0 NMatD0=   12 NMtDS0=    0 NMtDT0=    0
 Symmetry not used in FoFCou.
 Excitation Energies [eV] at current iteration:
 Root      1 :     2.964034914033664
 Root      2 :     3.923844952273592
 Root      3 :     4.103178820597102
 Root      4 :     4.922128934397880
 Root      5 :     5.382796285761959
 Root      6 :     5.802907982900001
 Iteration     2 Dimension    24 NMult    12 NNew     12
 CISAX will form    12 AO SS matrices at one time.
 NMat=    12 NSing=    12 JSym2X= 0.
 Root      1 not converged, maximum delta is    0.010191518724255
 Root      2 not converged, maximum delta is    0.000637478434514
 Root      3 not converged, maximum delta is    0.001130363950961
 Root      4 not converged, maximum delta is    0.029057547264564
 Root      5 not converged, maximum delta is    0.041409549049538
 Root      6 not converged, maximum delta is    0.008028609316395
 Excitation Energies [eV] at current iteration:
 Root      1 :     2.940551339105278   Change is   -0.023483574928386
 Root      2 :     3.923457659389289   Change is   -0.000387292884302
 Root      3 :     4.102661467453130   Change is   -0.000517353143972
 Root      4 :     4.902039193439776   Change is   -0.020089740958104
 Root      5 :     5.333492346255794   Change is   -0.049303939506164
 Root      6 :     5.795344366603408   Change is   -0.007563616296593
 Iteration     3 Dimension    36 NMult    24 NNew     12
 CISAX will form    12 AO SS matrices at one time.
 NMat=    12 NSing=    12 JSym2X= 0.
 Root      1 not converged, maximum delta is    0.003173373534521
 Root      2 not converged, maximum delta is    0.000195982175245
 Root      3 not converged, maximum delta is    0.000379638399096
 Root      4 not converged, maximum delta is    0.002628227246007
 Root      5 not converged, maximum delta is    0.009195636561340
 Root      6 not converged, maximum delta is    0.008323613048305
 Excitation Energies [eV] at current iteration:
 Root      1 :     2.938372925798190   Change is   -0.002178413307088
 Root      2 :     3.923433999915785   Change is   -0.000023659473504
 Root      3 :     4.102621707175798   Change is   -0.000039760277332
 Root      4 :     4.900309095105847   Change is   -0.001730098333928
 Root      5 :     5.328130158419105   Change is   -0.005362187836690
 Root      6 :     5.794119542584403   Change is   -0.001224824019005
 Iteration     4 Dimension    48 NMult    36 NNew     12
 CISAX will form    12 AO SS matrices at one time.
 NMat=    12 NSing=    12 JSym2X= 0.
 Root      1 not converged, maximum delta is    0.000605647812782
 Root      2 not converged, maximum delta is    0.000036679047613
 Root      3 not converged, maximum delta is    0.000077077874042
 Root      4 not converged, maximum delta is    0.000803353677475
 Root      5 not converged, maximum delta is    0.002397515686760
 Root      6 not converged, maximum delta is    0.006014070020528
 Excitation Energies [eV] at current iteration:
 Root      1 :     2.938209194123612   Change is   -0.000163731674578
 Root      2 :     3.923432631192489   Change is   -0.000001368723296
 Root      3 :     4.102618463623386   Change is   -0.000003243552411
 Root      4 :     4.900099183831753   Change is   -0.000209911274094
 Root      5 :     5.327398809558042   Change is   -0.000731348861062
 Root      6 :     5.793867038357316   Change is   -0.000252504227087
 Iteration     5 Dimension    60 NMult    48 NNew     12
 CISAX will form    12 AO SS matrices at one time.
 NMat=    12 NSing=    12 JSym2X= 0.
 Root      1 not converged, maximum delta is    0.000124474836434
 Root      2 not converged, maximum delta is    0.000016277342249
 Root      3 not converged, maximum delta is    0.000027565765406
 Root      4 not converged, maximum delta is    0.000371793305616
 Root      5 not converged, maximum delta is    0.000559419935907
 Root      6 not converged, maximum delta is    0.003062027039443
 Excitation Energies [eV] at current iteration:
 Root      1 :     2.938202201938778   Change is   -0.000006992184835
 Root      2 :     3.923432520739414   Change is   -0.000000110453075
 Root      3 :     4.102618229740503   Change is   -0.000000233882883
 Root      4 :     4.900086314459184   Change is   -0.000012869372569
 Root      5 :     5.327349233721915   Change is   -0.000049575836128
 Root      6 :     5.793793039030237   Change is   -0.000073999327080
 Iteration     6 Dimension    72 NMult    60 NNew     12
 CISAX will form    12 AO SS matrices at one time.
 NMat=    12 NSing=    12 JSym2X= 0.
 Root      1 not converged, maximum delta is    0.000025438197450
 Root      2 not converged, maximum delta is    0.000005432045800
 Root      3 not converged, maximum delta is    0.000007166569986
 Root      4 not converged, maximum delta is    0.000065810248865
 Root      5 not converged, maximum delta is    0.000140210666010
 Root      6 not converged, maximum delta is    0.000997417092425
 Excitation Energies [eV] at current iteration:
 Root      1 :     2.938201787004415   Change is   -0.000000414934363
 Root      2 :     3.923432513255416   Change is   -0.000000007483999
 Root      3 :     4.102618214117959   Change is   -0.000000015622545
 Root      4 :     4.900085376463217   Change is   -0.000000937995968
 Root      5 :     5.327344902284846   Change is   -0.000004331437069
 Root      6 :     5.793781078211483   Change is   -0.000011960818754
 Iteration     7 Dimension    84 NMult    72 NNew     12
 CISAX will form    12 AO SS matrices at one time.
 NMat=    12 NSing=    12 JSym2X= 0.
 Root      1 not converged, maximum delta is    0.000006086028553
 Root      2 has converged.
 Root      3 not converged, maximum delta is    0.000001578518209
 Root      4 not converged, maximum delta is    0.000021062263183
 Root      5 not converged, maximum delta is    0.000063670140225
 Root      6 not converged, maximum delta is    0.000198286159402
 Excitation Energies [eV] at current iteration:
 Root      1 :     2.938201772048683   Change is   -0.000000014955732
 Root      2 :     3.923432512938251   Change is   -0.000000000317165
 Root      3 :     4.102618213396497   Change is   -0.000000000721462
 Root      4 :     4.900085289329732   Change is   -0.000000087133484
 Root      5 :     5.327344424352197   Change is   -0.000000477932648
 Root      6 :     5.793779551563945   Change is   -0.000001526647537
 Iteration     8 Dimension    94 NMult    84 NNew     10
 CISAX will form    10 AO SS matrices at one time.
 NMat=    10 NSing=    10 JSym2X= 0.
 Root      1 not converged, maximum delta is    0.000001564437722
 Root      2 has converged.
 Root      3 has converged.
 Root      4 not converged, maximum delta is    0.000011237301664
 Root      5 not converged, maximum delta is    0.000032968744052
 Root      6 not converged, maximum delta is    0.000058917344989
 Excitation Energies [eV] at current iteration:
 Root      1 :     2.938201771439499   Change is   -0.000000000609183
 Root      2 :     3.923432512935569   Change is   -0.000000000002682
 Root      3 :     4.102618213342715   Change is   -0.000000000053782
 Root      4 :     4.900085282116351   Change is   -0.000000007213382
 Root      5 :     5.327344377281585   Change is   -0.000000047070613
 Root      6 :     5.793779376379447   Change is   -0.000000175184499
 Iteration     9 Dimension   102 NMult    94 NNew      8
 CISAX will form     8 AO SS matrices at one time.
 NMat=     8 NSing=     8 JSym2X= 0.
 Root      1 has converged.
 Root      2 has converged.
 Root      3 has converged.
 Root      4 not converged, maximum delta is    0.000003454545008
 Root      5 not converged, maximum delta is    0.000012804920187
 Root      6 not converged, maximum delta is    0.000016601596837
 Excitation Energies [eV] at current iteration:
 Root      1 :     2.938201771418851   Change is   -0.000000000020648
 Root      2 :     3.923432512934709   Change is   -0.000000000000859
 Root      3 :     4.102618213341472   Change is   -0.000000000001242
 Root      4 :     4.900085281686430   Change is   -0.000000000429921
 Root      5 :     5.327344373215376   Change is   -0.000000004066208
 Root      6 :     5.793779357887655   Change is   -0.000000018491790
 Iteration    10 Dimension   108 NMult   102 NNew      6
 CISAX will form     6 AO SS matrices at one time.
 NMat=     6 NSing=     6 JSym2X= 0.
 Root      1 has converged.
 Root      2 has converged.
 Root      3 has converged.
 Root      4 has converged.
 Root      5 not converged, maximum delta is    0.000004078008457
 Root      6 not converged, maximum delta is    0.000004404646921
 Excitation Energies [eV] at current iteration:
 Root      1 :     2.938201771418822   Change is   -0.000000000000028
 Root      2 :     3.923432512934395   Change is   -0.000000000000314
 Root      3 :     4.102618213341312   Change is   -0.000000000000160
 Root      4 :     4.900085281658328   Change is   -0.000000000028101
 Root      5 :     5.327344372790307   Change is   -0.000000000425069
 Root      6 :     5.793779356073005   Change is   -0.000000001814651
 Iteration    11 Dimension   112 NMult   108 NNew      4
 CISAX will form     4 AO SS matrices at one time.
 NMat=     4 NSing=     4 JSym2X= 0.
 Root      1 has converged.
 Root      2 has converged.
 Root      3 has converged.
 Root      4 has converged.
 Root      5 has converged.
 Root      6 not converged, maximum delta is    0.000001061067681
 Excitation Energies [eV] at current iteration:
 Root      1 :     2.938201771418851   Change is    0.000000000000028
 Root      2 :     3.923432512934291   Change is   -0.000000000000104
 Root      3 :     4.102618213341293   Change is   -0.000000000000020
 Root      4 :     4.900085281657423   Change is   -0.000000000000906
 Root      5 :     5.327344372753426   Change is   -0.000000000036880
 Root      6 :     5.793779355952045   Change is   -0.000000000120961
 Iteration    12 Dimension   114 NMult   112 NNew      2
 CISAX will form     2 AO SS matrices at one time.
 NMat=     2 NSing=     2 JSym2X= 0.
 Root      1 has converged.
 Root      2 has converged.
 Root      3 has converged.
 Root      4 has converged.
 Root      5 has converged.
 Root      6 has converged.
 Excitation Energies [eV] at current iteration:
 Root      1 :     2.938201771418795   Change is   -0.000000000000056
 Root      2 :     3.923432512934311   Change is    0.000000000000020
 Root      3 :     4.102618213341293   Change is    0.000000000000000
 Root      4 :     4.900085281657423   Change is    0.000000000000000
 Root      5 :     5.327344372753273   Change is   -0.000000000000154
 Root      6 :     5.793779355943658   Change is   -0.000000000008386
 Convergence achieved on expansion vectors.
 PCM Corrected Linear-Response:
 The state of interest is root number   1
 Excitation energy =    2.9382 eV, Total energy =  -633.212858828    
 Recompute the excitation energies using the linear response reaction field.
 Convergence on wavefunction:    0.000001000000000
 Davidson Disk Diagonalization:  ConvIn= 1.00D-06 SkipCon=T Conv= 1.00D-06.
 Max sub-space:  2000 roots to seek:     6 dimension of matrix:        23104
 Iteration     1 Dimension    12 NMult     0 NNew     12
 CISAX will form    12 AO SS matrices at one time.
 NMat=    12 NSing=    12 JSym2X= 0.
 Excitation Energies [eV] at current iteration:
 Root      1 :     2.809566060801480
 Root      2 :     3.918483589126840
 Root      3 :     4.096503395731546
 Root      4 :     4.759322657913320
 Root      5 :     5.180727794268868
 Root      6 :     5.734884990814194
 Iteration     2 Dimension    24 NMult    12 NNew     12
 CISAX will form    12 AO SS matrices at one time.
 NMat=    12 NSing=    12 JSym2X= 0.
 Root      1 not converged, maximum delta is    0.009157567967231
 Root      2 not converged, maximum delta is    0.000619135702322
 Root      3 not converged, maximum delta is    0.001314223978872
 Root      4 not converged, maximum delta is    0.027603108921698
 Root      5 not converged, maximum delta is    0.032091171890035
 Root      6 not converged, maximum delta is    0.009166776769384
 Excitation Energies [eV] at current iteration:
 Root      1 :     2.791695477058873   Change is   -0.017870583742607
 Root      2 :     3.918159944838296   Change is   -0.000323644288544
 Root      3 :     4.096073168448974   Change is   -0.000430227282572
 Root      4 :     4.727175835151178   Change is   -0.032146822762142
 Root      5 :     5.162247640142487   Change is   -0.018480154126380
 Root      6 :     5.730178337151912   Change is   -0.004706653662282
 Iteration     3 Dimension    36 NMult    24 NNew     12
 CISAX will form    12 AO SS matrices at one time.
 NMat=    12 NSing=    12 JSym2X= 0.
 Root      1 not converged, maximum delta is    0.003735860447272
 Root      2 not converged, maximum delta is    0.000208953938712
 Root      3 not converged, maximum delta is    0.000414801523303
 Root      4 not converged, maximum delta is    0.003822122158845
 Root      5 not converged, maximum delta is    0.007013408158191
 Root      6 not converged, maximum delta is    0.008450310316530
 Excitation Energies [eV] at current iteration:
 Root      1 :     2.789585969946408   Change is   -0.002109507112465
 Root      2 :     3.918139807565204   Change is   -0.000020137273092
 Root      3 :     4.096041103867242   Change is   -0.000032064581731
 Root      4 :     4.724179220508421   Change is   -0.002996614642757
 Root      5 :     5.159862369989100   Change is   -0.002385270153387
 Root      6 :     5.729249697393925   Change is   -0.000928639757987
 Iteration     4 Dimension    48 NMult    36 NNew     12
 CISAX will form    12 AO SS matrices at one time.
 NMat=    12 NSing=    12 JSym2X= 0.
 Root      1 not converged, maximum delta is    0.001101663088186
 Root      2 not converged, maximum delta is    0.000032521254598
 Root      3 not converged, maximum delta is    0.000132624056692
 Root      4 not converged, maximum delta is    0.001105097699140
 Root      5 not converged, maximum delta is    0.001459846008677
 Root      6 not converged, maximum delta is    0.005207211133391
 Excitation Energies [eV] at current iteration:
 Root      1 :     2.789425711726511   Change is   -0.000160258219898
 Root      2 :     3.918138422334658   Change is   -0.000001385230546
 Root      3 :     4.096038807636114   Change is   -0.000002296231129
 Root      4 :     4.723828696680854   Change is   -0.000350523827567
 Root      5 :     5.159569733657594   Change is   -0.000292636331507
 Root      6 :     5.729057265426809   Change is   -0.000192431967117
 Iteration     5 Dimension    60 NMult    48 NNew     12
 CISAX will form    12 AO SS matrices at one time.
 NMat=    12 NSing=    12 JSym2X= 0.
 Root      1 not converged, maximum delta is    0.000090590593951
 Root      2 not converged, maximum delta is    0.000013177728598
 Root      3 not converged, maximum delta is    0.000023977811937
 Root      4 not converged, maximum delta is    0.000327832001506
 Root      5 not converged, maximum delta is    0.000220409091064
 Root      6 not converged, maximum delta is    0.002271109386940
 Excitation Energies [eV] at current iteration:
 Root      1 :     2.789421029696354   Change is   -0.000004682030157
 Root      2 :     3.918138336507546   Change is   -0.000000085827113
 Root      3 :     4.096038654504949   Change is   -0.000000153131164
 Root      4 :     4.723811989916377   Change is   -0.000016706764477
 Root      5 :     5.159554818021173   Change is   -0.000014915636421
 Root      6 :     5.729013074237705   Change is   -0.000044191189103
 Iteration     6 Dimension    72 NMult    60 NNew     12
 CISAX will form    12 AO SS matrices at one time.
 NMat=    12 NSing=    12 JSym2X= 0.
 Root      1 not converged, maximum delta is    0.000014742441688
 Root      2 not converged, maximum delta is    0.000004466903527
 Root      3 not converged, maximum delta is    0.000004623854512
 Root      4 not converged, maximum delta is    0.000070700215389
 Root      5 not converged, maximum delta is    0.000083864963643
 Root      6 not converged, maximum delta is    0.000548313919405
 Excitation Energies [eV] at current iteration:
 Root      1 :     2.789420811636585   Change is   -0.000000218059768
 Root      2 :     3.918138331264264   Change is   -0.000000005243282
 Root      3 :     4.096038646347937   Change is   -0.000000008157012
 Root      4 :     4.723810842600617   Change is   -0.000001147315759
 Root      5 :     5.159553598550344   Change is   -0.000001219470829
 Root      6 :     5.729007254725896   Change is   -0.000005819511810
 Iteration     7 Dimension    84 NMult    72 NNew     12
 CISAX will form    12 AO SS matrices at one time.
 NMat=    12 NSing=    12 JSym2X= 0.
 Root      1 not converged, maximum delta is    0.000004256080914
 Root      2 has converged.
 Root      3 has converged.
 Root      4 not converged, maximum delta is    0.000021063132543
 Root      5 not converged, maximum delta is    0.000025471996428
 Root      6 not converged, maximum delta is    0.000153313322855
 Excitation Energies [eV] at current iteration:
 Root      1 :     2.789420800691579   Change is   -0.000000010945006
 Root      2 :     3.918138330980283   Change is   -0.000000000283981
 Root      3 :     4.096038645893612   Change is   -0.000000000454324
 Root      4 :     4.723810740899181   Change is   -0.000000101701435
 Root      5 :     5.159553485996142   Change is   -0.000000112554202
 Root      6 :     5.729006545546833   Change is   -0.000000709179063
 Iteration     8 Dimension    92 NMult    84 NNew      8
 CISAX will form     8 AO SS matrices at one time.
 NMat=     8 NSing=     8 JSym2X= 0.
 Root      1 not converged, maximum delta is    0.000001153571026
 Root      2 has converged.
 Root      3 has converged.
 Root      4 not converged, maximum delta is    0.000006561478327
 Root      5 not converged, maximum delta is    0.000007679245261
 Root      6 not converged, maximum delta is    0.000055342693291
 Excitation Energies [eV] at current iteration:
 Root      1 :     2.789420800290801   Change is   -0.000000000400779
 Root      2 :     3.918138330976400   Change is   -0.000000000003882
 Root      3 :     4.096038645880346   Change is   -0.000000000013266
 Root      4 :     4.723810735127788   Change is   -0.000000005771394
 Root      5 :     5.159553478553759   Change is   -0.000000007442383
 Root      6 :     5.729006458493577   Change is   -0.000000087053256
 Iteration     9 Dimension   100 NMult    92 NNew      8
 CISAX will form     8 AO SS matrices at one time.
 NMat=     8 NSing=     8 JSym2X= 0.
 Root      1 has converged.
 Root      2 has converged.
 Root      3 has converged.
 Root      4 not converged, maximum delta is    0.000002244856746
 Root      5 not converged, maximum delta is    0.000003385403069
 Root      6 not converged, maximum delta is    0.000009841074423
 Excitation Energies [eV] at current iteration:
 Root      1 :     2.789420800279720   Change is   -0.000000000011081
 Root      2 :     3.918138330975898   Change is   -0.000000000000503
 Root      3 :     4.096038645879664   Change is   -0.000000000000683
 Root      4 :     4.723810734834064   Change is   -0.000000000293724
 Root      5 :     5.159553478013150   Change is   -0.000000000540609
 Root      6 :     5.729006449459543   Change is   -0.000000009034034
 Iteration    10 Dimension   106 NMult   100 NNew      6
 CISAX will form     6 AO SS matrices at one time.
 NMat=     6 NSing=     6 JSym2X= 0.
 Root      1 has converged.
 Root      2 has converged.
 Root      3 has converged.
 Root      4 has converged.
 Root      5 not converged, maximum delta is    0.000001193240642
 Root      6 not converged, maximum delta is    0.000002284700895
 Excitation Energies [eV] at current iteration:
 Root      1 :     2.789420800279602   Change is   -0.000000000000118
 Root      2 :     3.918138330975435   Change is   -0.000000000000462
 Root      3 :     4.096038645879463   Change is   -0.000000000000200
 Root      4 :     4.723810734815687   Change is   -0.000000000018377
 Root      5 :     5.159553477963757   Change is   -0.000000000049392
 Root      6 :     5.729006448772224   Change is   -0.000000000687319
 Iteration    11 Dimension   110 NMult   106 NNew      4
 CISAX will form     4 AO SS matrices at one time.
 NMat=     4 NSing=     4 JSym2X= 0.
 Root      1 has converged.
 Root      2 has converged.
 Root      3 has converged.
 Root      4 has converged.
 Root      5 has converged.
 Root      6 has converged.
 Excitation Energies [eV] at current iteration:
 Root      1 :     2.789420800279661   Change is    0.000000000000059
 Root      2 :     3.918138330975331   Change is   -0.000000000000104
 Root      3 :     4.096038645879463   Change is    0.000000000000000
 Root      4 :     4.723810734814834   Change is   -0.000000000000853
 Root      5 :     5.159553477958148   Change is   -0.000000000005609
 Root      6 :     5.729006448730481   Change is   -0.000000000041743
 Convergence achieved on expansion vectors.
 ***********************************************************************
 Excited states from <AA,BB:AA,BB> singles matrix:
 ***********************************************************************
 
 1PDM for each excited state written to RWF  633
 Ground to excited state transition densities written to RWF  633
 Ground to excited state transition electric dipole moments (Au):
       state          X           Y           Z        Dip. S.      Osc.
         1        -1.6518     -0.3945     -0.3796      3.0283      0.2069
         2        -0.0343      0.0463      0.0268      0.0040      0.0004
         3         0.1090     -0.0804      0.0010      0.0184      0.0018
         4        -0.4497      1.9058     -0.1011      3.8445      0.4449
         5        -0.4103      1.4345     -0.1292      2.2428      0.2835
         6         0.0506     -0.2191      0.0463      0.0527      0.0074
 Ground to excited state transition velocity dipole moments (Au):
       state          X           Y           Z        Dip. S.      Osc.
         1         0.1625      0.0419      0.0376      0.0296      0.1923
         2         0.0044     -0.0067     -0.0005      0.0001      0.0003
         3        -0.0140      0.0098     -0.0029      0.0003      0.0013
         4         0.0679     -0.3188      0.0176      0.1066      0.4093
         5         0.0766     -0.2672      0.0230      0.0778      0.2736
         6        -0.0047      0.0443     -0.0291      0.0028      0.0090
 Ground to excited state transition magnetic dipole moments (Au):
       state          X           Y           Z
         1         1.0883      0.1414     -4.9921
         2         0.7420      0.1566      0.1353
         3         0.3729     -0.8507      0.6104
         4         0.6702      0.0407     -0.6029
         5         0.8464      0.0510     -1.0663
         6        -0.4696     -0.0623     -0.0614
 Ground to excited state transition velocity quadrupole moments (Au):
       state          XX          YY          ZZ          XY          XZ          YZ
         1        -0.7960      1.5315      0.0669      2.8769      0.0350      0.7164
         2        -0.0412     -0.2724     -0.0025      0.0908     -0.0203      0.0577
         3         0.0483      0.4589     -0.0027     -0.2620      0.0496     -0.0116
         4         0.8178    -13.6737      0.0819      2.8147      0.3173      0.2349
         5        -0.1000    -11.6623      0.0442      2.4193      0.1143      0.3152
         6         0.1981      2.0246     -0.1758     -0.2871      0.1068     -0.3919
 <0|del|b> * <b|rxdel|0> + <0|del|b> * <b|delr+rdel|0>
 Rotatory Strengths (R) in cgs (10**-40 erg-esu-cm/Gauss)
       state          XX          YY          ZZ    R(velocity)    E-M Angle
         1      -259.0051     -9.2446    233.8956    -11.4514       90.32
         2        -3.1893      8.5706      5.1279      3.5031       69.80
         3       -23.0884    -17.9185    -31.0814    -24.0294      142.70
         4       258.9276      2.7133   -172.3059     29.7783       85.73
         5        89.6387     16.2911     -6.4409     33.1630       85.97
         6         4.4682     -4.2717      3.9240      1.3735       87.24
 1/2[<0|r|b>*<b|rxdel|0> + (<0|rxdel|b>*<b|r|0>)*]
 Rotatory Strengths (R) in cgs (10**-40 erg-esu-cm/Gauss)
       state          XX          YY          ZZ     R(length)
         1      1271.2142     39.4488  -1340.0338     -9.7903
         2        18.0032     -5.1250     -2.5627      3.4385
         3       -28.7575    -48.3621     -0.4481    -25.8559
         4       213.1194    -54.8642    -43.1021     38.3843
         5       245.6180    -51.7406    -97.4451     32.1441
         6        16.8170     -9.6564      2.0108      3.0571
  1/2[<0|del|b>*<b|r|0> + (<0|r|b>*<b|del|0>)*] (Au)
       state          X           Y           Z        Dip. S.   Osc.(frdel)
         1        -0.2684     -0.0165     -0.0143      0.2992      0.1995
         2        -0.0002     -0.0003     -0.0000      0.0005      0.0003
         3        -0.0015     -0.0008     -0.0000      0.0023      0.0015
         4        -0.0305     -0.6076     -0.0018      0.6400      0.4266
         5        -0.0314     -0.3833     -0.0030      0.4177      0.2785
         6        -0.0002     -0.0097     -0.0013      0.0113      0.0075

 Excitation energies and oscillator strengths:
 
 Excited state symmetry could not be determined.
 Excited State   1:      Singlet-?Sym    2.7894 eV  444.48 nm  f=0.2069  <S**2>=0.000
      52 -> 53         0.70180
 This state for optimization and/or second-order correction.
 Total Energy, E(TD-HF/TD-DFT) =  -633.218326428    
 Copying the excited state density for this state as the 1-particle RhoCI density.
 
 Excited state symmetry could not be determined.
 Excited State   2:      Singlet-?Sym    3.9181 eV  316.44 nm  f=0.0004  <S**2>=0.000
      50 -> 54        -0.15166
      51 -> 53         0.59205
      51 -> 54        -0.30320
 
 Excited state symmetry could not be determined.
 Excited State   3:      Singlet-?Sym    4.0960 eV  302.69 nm  f=0.0018  <S**2>=0.000
      49 -> 53         0.41297
      49 -> 54         0.21876
      50 -> 53         0.42818
      50 -> 54         0.18004
      51 -> 54        -0.19505
 
 Excited state symmetry could not be determined.
 Excited State   4:      Singlet-?Sym    4.7238 eV  262.47 nm  f=0.4449  <S**2>=0.000
      52 -> 54         0.68737
 
 Excited state symmetry could not be determined.
 Excited State   5:      Singlet-?Sym    5.1596 eV  240.30 nm  f=0.2835  <S**2>=0.000
      49 -> 53         0.48610
      50 -> 53        -0.47131
      51 -> 53         0.10073
      52 -> 54        -0.13705
 
 Excited state symmetry could not be determined.
 Excited State   6:      Singlet-?Sym    5.7290 eV  216.41 nm  f=0.0074  <S**2>=0.000
      52 -> 55         0.65197
      52 -> 56         0.18866
      52 -> 62        -0.11274
 SavETr:  write IOETrn=   770 NScale= 10 NData=  16 NLR=1 NState=    6 LETran=     118.
 The selected state is a singlet.
 CISGrd: IGrad=1 NXY=2 DFT=T
 CISAX will form     1 AO SS matrices at one time.
 NMat=     1 NSing=     1 JSym2X= 0.
 Leave Link  914 at Tue Jan 20 20:52:35 2026, MaxMem=  2147483648 cpu:           14307.0 elap:             449.0
 (Enter /data/home/wyx/g16/l1002.exe)
 Minotr:  Closed shell wavefunction.
          Computing CIS/TDA/TD derivatives.
          Using Z-Vector for PSCF gradient.
          Skipping F1 and S1 gradient terms here.
 NEqPCM:  Using equilibrium solvation (IEInf=0, Eps=  78.3553, EpsInf=   1.7778)
          Frozen-core window.
          Direct CPHF calculation.
          Differentiating once with respect to electric field.
                with respect to dipole field.
          Electric field/nuclear overlap derivatives assumed to be zero.
          Requested convergence is 1.0D-10 RMS, and 1.0D-09 maximum.
          NewPWx=F KeepS1=T KeepF1=T KeepIn=T MapXYZ=F SortEE=F KeepMc=T.
 Two-electron integral symmetry not used.
          MDV=    2147483648 using IRadAn=       5.
          Solving linear equations separately, MaxMat=     384.
          There are     1 degrees of freedom in the 1st order CPHF.  IDoFFX=0 NUNeed=     1.
 FoFJK:  IHMeth= 1 ICntrl=       0 DoSepK=T KAlg= 0 I1Cent=           0 FoldK=F
 IRaf=         1 NMat=       1 IRICut=       1 DoRegI=T DoRafI=F ISym2E= 0 IDoP0=0 IntGTp=1.
 FoFCou: FMM=F IPFlag=           0 FMFlag=      100000 FMFlg1=           0
         NFxFlg=           0 DoJE=T BraDBF=F KetDBF=F FulRan=T
         wScrn=  0.000000 ICntrl=       500 IOpCl=  0 I1Cent=           0 NGrid=           0
         NMat0=    1 NMatS0=      1 NMatT0=    0 NMatD0=    1 NMtDS0=    0 NMtDT0=    0
 Symmetry not used in FoFCou.
 LinEq1:  Iter=  0 NonCon=     1 RMS=3.51D-03 Max=1.32D-01 NDo=     1
 AX will form     1 AO Fock derivatives at one time.
 LinEq1:  Iter=  1 NonCon=     1 RMS=1.39D-03 Max=5.76D-02 NDo=     1
 LinEq1:  Iter=  2 NonCon=     1 RMS=6.47D-04 Max=2.05D-02 NDo=     1
 LinEq1:  Iter=  3 NonCon=     1 RMS=3.98D-04 Max=1.64D-02 NDo=     1
 LinEq1:  Iter=  4 NonCon=     1 RMS=1.87D-04 Max=9.91D-03 NDo=     1
 LinEq1:  Iter=  5 NonCon=     1 RMS=9.27D-05 Max=4.51D-03 NDo=     1
 LinEq1:  Iter=  6 NonCon=     1 RMS=5.65D-05 Max=2.78D-03 NDo=     1
 LinEq1:  Iter=  7 NonCon=     1 RMS=2.77D-05 Max=1.46D-03 NDo=     1
 LinEq1:  Iter=  8 NonCon=     1 RMS=1.29D-05 Max=3.38D-04 NDo=     1
 LinEq1:  Iter=  9 NonCon=     1 RMS=6.03D-06 Max=1.72D-04 NDo=     1
 LinEq1:  Iter= 10 NonCon=     1 RMS=3.01D-06 Max=8.69D-05 NDo=     1
 LinEq1:  Iter= 11 NonCon=     1 RMS=1.85D-06 Max=5.79D-05 NDo=     1
 LinEq1:  Iter= 12 NonCon=     1 RMS=8.87D-07 Max=2.24D-05 NDo=     1
 LinEq1:  Iter= 13 NonCon=     1 RMS=3.77D-07 Max=1.45D-05 NDo=     1
 LinEq1:  Iter= 14 NonCon=     1 RMS=1.44D-07 Max=5.52D-06 NDo=     1
 LinEq1:  Iter= 15 NonCon=     1 RMS=7.41D-08 Max=2.10D-06 NDo=     1
 LinEq1:  Iter= 16 NonCon=     1 RMS=3.30D-08 Max=1.12D-06 NDo=     1
 LinEq1:  Iter= 17 NonCon=     1 RMS=1.05D-08 Max=2.19D-07 NDo=     1
 LinEq1:  Iter= 18 NonCon=     1 RMS=5.07D-09 Max=1.38D-07 NDo=     1
 LinEq1:  Iter= 19 NonCon=     1 RMS=1.56D-09 Max=3.94D-08 NDo=     1
 LinEq1:  Iter= 20 NonCon=     1 RMS=5.64D-10 Max=9.86D-09 NDo=     1
 LinEq1:  Iter= 21 NonCon=     1 RMS=2.26D-10 Max=5.17D-09 NDo=     1
 LinEq1:  Iter= 22 NonCon=     1 RMS=6.10D-11 Max=1.91D-09 NDo=     1
 LinEq1:  Iter= 23 NonCon=     0 RMS=1.56D-11 Max=5.06D-10 NDo=     1
 Linear equations converged to 1.000D-10 1.000D-09 after    23 iterations.
 PCM Corrected Linear-Response - Equilibrium solvation:
 Corrected transition energy               =    2.9160          eV
 Total energy after correction             = -633.213673496     a.u.
 NEqPCM:  Using non-equilibrium solvation (IEInf=1, Eps=  78.3553, EpsInf=   1.7778)
 Inv3:  Mode=1 IEnd=    13230000.
 Iteration    1 A*A^-1 deviation from unit magnitude is 3.55D-15 for   1120.
 Iteration    1 A*A^-1 deviation from orthogonality  is 2.09D-15 for   1389     63.
 Iteration    1 A^-1*A deviation from unit magnitude is 3.55D-15 for   1459.
 Iteration    1 A^-1*A deviation from orthogonality  is 1.79D-15 for    880    453.
 NEqSol: Computing the dynamic-inertial partition of the PCM polarization charges.
 End of Minotr F.D. properties file   721 does not exist.
 End of Minotr F.D. properties file   722 does not exist.
 End of Minotr F.D. properties file   788 does not exist.
 Leave Link 1002 at Tue Jan 20 20:54:03 2026, MaxMem=  2147483648 cpu:            2748.2 elap:              86.8
 (Enter /data/home/wyx/g16/l601.exe)
 Copying SCF densities to generalized density rwf, IOpCl= 0 IROHF=0.

 **********************************************************************

            Population analysis using the CI density.

 **********************************************************************

 Alpha  occ. eigenvalues --  -19.17915 -19.17070 -14.44910 -10.33456 -10.33041
 Alpha  occ. eigenvalues --  -10.33001 -10.32548 -10.25990 -10.25468 -10.25167
 Alpha  occ. eigenvalues --  -10.24867 -10.24529 -10.24136 -10.23884  -1.11264
 Alpha  occ. eigenvalues --   -1.10704  -1.08637  -0.91377  -0.90604  -0.83974
 Alpha  occ. eigenvalues --   -0.82604  -0.81630  -0.78510  -0.73747  -0.72323
 Alpha  occ. eigenvalues --   -0.68784  -0.61571  -0.58256  -0.57094  -0.55120
 Alpha  occ. eigenvalues --   -0.54546  -0.54032  -0.52470  -0.51699  -0.50862
 Alpha  occ. eigenvalues --   -0.49759  -0.49470  -0.49287  -0.48527  -0.48003
 Alpha  occ. eigenvalues --   -0.47257  -0.45238  -0.45206  -0.44043  -0.43336
 Alpha  occ. eigenvalues --   -0.42185  -0.42050  -0.41519  -0.32625  -0.32253
 Alpha  occ. eigenvalues --   -0.31356  -0.25003
 Alpha virt. eigenvalues --   -0.03636   0.02384   0.06460   0.08177   0.08632
 Alpha virt. eigenvalues --    0.09733   0.10730   0.11364   0.12569   0.13375
 Alpha virt. eigenvalues --    0.13883   0.15102   0.15615   0.16341   0.16920
 Alpha virt. eigenvalues --    0.17325   0.17850   0.18193   0.18488   0.19209
 Alpha virt. eigenvalues --    0.19970   0.21854   0.22780   0.23294   0.23854
 Alpha virt. eigenvalues --    0.24278   0.24641   0.25698   0.26382   0.26659
 Alpha virt. eigenvalues --    0.27510   0.28140   0.28541   0.29508   0.30171
 Alpha virt. eigenvalues --    0.31533   0.31918   0.32217   0.33408   0.34085
 Alpha virt. eigenvalues --    0.34780   0.35598   0.36618   0.37357   0.38442
 Alpha virt. eigenvalues --    0.39572   0.40836   0.41334   0.41803   0.42492
 Alpha virt. eigenvalues --    0.44006   0.44820   0.45424   0.46145   0.46452
 Alpha virt. eigenvalues --    0.47243   0.47552   0.47850   0.48454   0.49207
 Alpha virt. eigenvalues --    0.49729   0.50460   0.51094   0.51267   0.51470
 Alpha virt. eigenvalues --    0.52260   0.52537   0.53266   0.53474   0.54199
 Alpha virt. eigenvalues --    0.54240   0.55239   0.55767   0.56562   0.58242
 Alpha virt. eigenvalues --    0.58365   0.59912   0.60951   0.61859   0.63026
 Alpha virt. eigenvalues --    0.64191   0.64877   0.66117   0.66788   0.67278
 Alpha virt. eigenvalues --    0.68410   0.69036   0.70537   0.70808   0.71967
 Alpha virt. eigenvalues --    0.72924   0.74685   0.75170   0.75954   0.77194
 Alpha virt. eigenvalues --    0.78916   0.80717   0.83163   0.86720   0.87320
 Alpha virt. eigenvalues --    0.91532   0.95901   1.01994   1.03997   1.21822
 Alpha virt. eigenvalues --    1.24471   1.27324   1.28078   1.28828   1.30206
 Alpha virt. eigenvalues --    1.31875   1.33291   1.34512   1.35181   1.36463
 Alpha virt. eigenvalues --    1.36897   1.37727   1.38443   1.39052   1.39528
 Alpha virt. eigenvalues --    1.39948   1.40016   1.40740   1.41411   1.42106
 Alpha virt. eigenvalues --    1.43184   1.43441   1.44142   1.45499   1.47158
 Alpha virt. eigenvalues --    1.48127   1.49318   1.49555   1.50119   1.50811
 Alpha virt. eigenvalues --    1.51331   1.52105   1.52972   1.55463   1.58824
 Alpha virt. eigenvalues --    1.59500   1.59788   1.60952   1.61578   1.62136
 Alpha virt. eigenvalues --    1.62651   1.62747   1.63480   1.64534   1.65564
 Alpha virt. eigenvalues --    1.66323   1.66919   1.67557   1.68062   1.68650
 Alpha virt. eigenvalues --    1.69205   1.69910   1.70315   1.71030   1.72421
 Alpha virt. eigenvalues --    1.74140   1.74577   1.75418   1.76439   1.78356
 Alpha virt. eigenvalues --    1.81490   1.83113   1.83937   1.85787   1.86412
 Alpha virt. eigenvalues --    1.86577   1.87705   1.88575   1.89273   1.90180
 Alpha virt. eigenvalues --    1.91359   1.94437   1.95131   1.98760   1.99789
 Alpha virt. eigenvalues --    2.01687   2.03687   2.05842   2.06813   2.09292
 Alpha virt. eigenvalues --    2.09910   2.11344   2.15756   2.17533   2.19604
 Alpha virt. eigenvalues --    2.20627   2.21401   2.21977   2.22963   2.26205
 Alpha virt. eigenvalues --    2.26684   2.27401   2.29164   2.30761   2.32043
 Alpha virt. eigenvalues --    2.33221   2.34373   2.36897   2.37662   2.38931
 Alpha virt. eigenvalues --    2.39287   2.39915   2.41184   2.42579   2.45029
 Alpha virt. eigenvalues --    2.45435   2.47140   2.48571   2.49296   2.51136
 Alpha virt. eigenvalues --    2.52335   2.53812   2.54391   2.56220   2.57365
 Alpha virt. eigenvalues --    2.58735   2.60668   2.61655   2.62233   2.63348
 Alpha virt. eigenvalues --    2.64598   2.65444   2.66467   2.67432   2.68279
 Alpha virt. eigenvalues --    2.71565   2.71660   2.73885   2.74427   2.75288
 Alpha virt. eigenvalues --    2.76405   2.77225   2.77649   2.78084   2.78682
 Alpha virt. eigenvalues --    2.80496   2.81198   2.82980   2.83464   2.84905
 Alpha virt. eigenvalues --    2.85280   2.86448   2.88355   2.88848   2.91842
 Alpha virt. eigenvalues --    2.96902   2.98009   3.01209   3.07058   3.10579
 Alpha virt. eigenvalues --    3.12222   3.13489   3.18112   3.19290   3.21504
 Alpha virt. eigenvalues --    3.21960   3.22897   3.24553   3.25431   3.25925
 Alpha virt. eigenvalues --    3.29195   3.30067   3.31912   3.34436   3.36610
 Alpha virt. eigenvalues --    3.38120   3.38707   3.38945   3.39148   3.41371
 Alpha virt. eigenvalues --    3.41790   3.43688   3.44818   3.47354   3.47907
 Alpha virt. eigenvalues --    3.49637   3.50184   3.55771   3.58149   3.59341
 Alpha virt. eigenvalues --    3.61231   3.90810   4.00799   4.32089   4.35161
 Alpha virt. eigenvalues --   21.68618  21.80502  22.07511  22.09914  22.11136
 Alpha virt. eigenvalues --   22.14460  22.14636  22.17119  22.18602  22.24710
 Alpha virt. eigenvalues --   22.26637  31.91130  43.63948  43.66661
          Condensed to atoms (all electrons):
               1          2          3          4          5          6
     1  O    8.008153   0.000000  -0.000227   0.000019   0.025718   0.012920
     2  O    0.000000   8.026138   0.000066   0.000004  -0.207189   0.001347
     3  N   -0.000227   0.000066   6.152334   0.362049  -0.083673   0.355806
     4  H    0.000019   0.000004   0.362049   0.396573   0.015664  -0.041253
     5  C    0.025718  -0.207189  -0.083673   0.015664   7.387189  -0.034985
     6  C    0.012920   0.001347   0.355806  -0.041253  -0.034985   5.914381
     7  C   -0.000265  -0.040754   0.436065  -0.034263   0.308446  -0.226662
     8  C   -0.000887   0.688849   0.003466  -0.000805  -0.459325   0.041217
     9  C   -0.001125   0.028938   0.005283  -0.000684  -0.743196  -0.084251
    10  H    0.010078  -0.000131   0.000733   0.000053  -0.044094  -0.012545
    11  H    0.006102  -0.000137  -0.001242   0.000020  -0.077214   0.020237
    12  C   -0.262551  -0.003009  -0.050793   0.014561   0.041948  -0.190929
    13  C    0.701689  -0.000014  -0.000127   0.000726   0.101032   0.063485
    14  C   -0.000008  -0.013967  -0.035780  -0.010946  -0.072587   0.012418
    15  H   -0.000000   0.004124   0.005516   0.002242   0.022315   0.006153
    16  H    0.000000   0.003205  -0.002691   0.000907  -0.006700  -0.000763
    17  H    0.000000   0.000092  -0.000595   0.000811   0.000383  -0.001046
    18  C    0.000577  -0.101286  -0.000469   0.000019  -0.256524  -0.000614
    19  H    0.000006   0.008839   0.000008  -0.000001   0.030728   0.000005
    20  H   -0.000116   0.002191   0.000008  -0.000001  -0.002762   0.000070
    21  H    0.000233   0.004493   0.000085   0.000001   0.046121  -0.001185
    22  C   -0.109295   0.000000   0.000181   0.000114   0.004006  -0.030354
    23  H    0.005576  -0.000000   0.000154  -0.000060  -0.000955  -0.020097
    24  H    0.002121   0.000000  -0.000013  -0.000009  -0.000057   0.011978
    25  H    0.008016  -0.000000   0.000027  -0.000003  -0.000097  -0.001408
    26  C    0.000447   0.000011  -0.029078  -0.007818   0.000107   0.175370
    27  H   -0.000399   0.000000   0.002034   0.000683   0.000088  -0.075987
    28  H   -0.000059   0.000000  -0.003763   0.000582   0.000168  -0.033127
    29  H    0.000016   0.000000   0.002900   0.002268  -0.000294  -0.052165
               7          8          9         10         11         12
     1  O   -0.000265  -0.000887  -0.001125   0.010078   0.006102  -0.262551
     2  O   -0.040754   0.688849   0.028938  -0.000131  -0.000137  -0.003009
     3  N    0.436065   0.003466   0.005283   0.000733  -0.001242  -0.050793
     4  H   -0.034263  -0.000805  -0.000684   0.000053   0.000020   0.014561
     5  C    0.308446  -0.459325  -0.743196  -0.044094  -0.077214   0.041948
     6  C   -0.226662   0.041217  -0.084251  -0.012545   0.020237  -0.190929
     7  C    5.770258  -0.298972  -0.272517  -0.004668   0.008466   0.081706
     8  C   -0.298972   5.568065   0.281182   0.000323  -0.004145  -0.058389
     9  C   -0.272517   0.281182   6.707176   0.377237   0.477478  -0.203276
    10  H   -0.004668   0.000323   0.377237   0.497909  -0.033442   0.002744
    11  H    0.008466  -0.004145   0.477478  -0.033442   0.483259  -0.085512
    12  C    0.081706  -0.058389  -0.203276   0.002744  -0.085512   7.579343
    13  C    0.022483  -0.011617  -0.265312   0.001573   0.003362  -0.508662
    14  C    0.284501  -0.035973   0.002260  -0.000122   0.000019   0.003106
    15  H   -0.083366   0.006200   0.000796   0.000024   0.000002  -0.001752
    16  H   -0.027992   0.000217   0.001355  -0.000061   0.000058  -0.000399
    17  H   -0.041422  -0.004923  -0.000406   0.000152  -0.000044   0.000693
    18  C   -0.000598   0.330893  -0.005056  -0.013196   0.003800  -0.004869
    19  H    0.000891  -0.059142  -0.005391  -0.000188   0.000670  -0.000686
    20  H    0.000061  -0.032584  -0.009251   0.001316  -0.000728   0.000478
    21  H    0.004864  -0.074248  -0.002200  -0.000547  -0.006726   0.007038
    22  C    0.000344  -0.000067   0.008494   0.003524  -0.001185  -0.265741
    23  H    0.000027   0.000015   0.002203  -0.000239   0.000052   0.070022
    24  H   -0.000003   0.000003  -0.003639   0.000091  -0.000082  -0.015001
    25  H   -0.000007   0.000001   0.002126  -0.000149  -0.000057   0.022066
    26  C    0.004893   0.000793   0.032195  -0.000805   0.000017  -0.076087
    27  H   -0.000558  -0.000006   0.002651  -0.000060  -0.000010  -0.000983
    28  H   -0.000337  -0.000013  -0.002368   0.000016   0.000033  -0.012438
    29  H    0.003339   0.000003  -0.000592   0.000031  -0.000000   0.022208
              13         14         15         16         17         18
     1  O    0.701689  -0.000008  -0.000000   0.000000   0.000000   0.000577
     2  O   -0.000014  -0.013967   0.004124   0.003205   0.000092  -0.101286
     3  N   -0.000127  -0.035780   0.005516  -0.002691  -0.000595  -0.000469
     4  H    0.000726  -0.010946   0.002242   0.000907   0.000811   0.000019
     5  C    0.101032  -0.072587   0.022315  -0.006700   0.000383  -0.256524
     6  C    0.063485   0.012418   0.006153  -0.000763  -0.001046  -0.000614
     7  C    0.022483   0.284501  -0.083366  -0.027992  -0.041422  -0.000598
     8  C   -0.011617  -0.035973   0.006200   0.000217  -0.004923   0.330893
     9  C   -0.265312   0.002260   0.000796   0.001355  -0.000406  -0.005056
    10  H    0.001573  -0.000122   0.000024  -0.000061   0.000152  -0.013196
    11  H    0.003362   0.000019   0.000002   0.000058  -0.000044   0.003800
    12  C   -0.508662   0.003106  -0.001752  -0.000399   0.000693  -0.004869
    13  C    5.680173   0.000090  -0.000041  -0.000022   0.000007   0.001175
    14  C    0.000090   5.022741   0.386102   0.409458   0.421307   0.000247
    15  H   -0.000041   0.386102   0.574210  -0.024009  -0.026076   0.000239
    16  H   -0.000022   0.409458  -0.024009   0.522925  -0.032529   0.000136
    17  H    0.000007   0.421307  -0.026076  -0.032529   0.528362   0.000011
    18  C    0.001175   0.000247   0.000239   0.000136   0.000011   5.334805
    19  H   -0.000035   0.000031  -0.000006  -0.000006  -0.000042   0.388307
    20  H    0.000055  -0.000202  -0.000005  -0.000055   0.000040   0.400680
    21  H    0.001120   0.000172  -0.000016  -0.000001  -0.000045   0.373267
    22  C    0.294776   0.000006   0.000001  -0.000000   0.000000   0.000017
    23  H   -0.106407   0.000003   0.000000   0.000000   0.000000  -0.000001
    24  H   -0.022904   0.000000  -0.000000  -0.000000   0.000000  -0.000003
    25  H   -0.035524   0.000000   0.000000   0.000000  -0.000000   0.000004
    26  C   -0.054690  -0.000353   0.000452   0.000034  -0.000108   0.000031
    27  H   -0.000025  -0.000005  -0.000005   0.000004  -0.000006   0.000002
    28  H    0.006006  -0.000072  -0.000008  -0.000014   0.000009  -0.000002
    29  H   -0.000627   0.000022   0.000073   0.000002  -0.000008   0.000000
              19         20         21         22         23         24
     1  O    0.000006  -0.000116   0.000233  -0.109295   0.005576   0.002121
     2  O    0.008839   0.002191   0.004493   0.000000  -0.000000   0.000000
     3  N    0.000008   0.000008   0.000085   0.000181   0.000154  -0.000013
     4  H   -0.000001  -0.000001   0.000001   0.000114  -0.000060  -0.000009
     5  C    0.030728  -0.002762   0.046121   0.004006  -0.000955  -0.000057
     6  C    0.000005   0.000070  -0.001185  -0.030354  -0.020097   0.011978
     7  C    0.000891   0.000061   0.004864   0.000344   0.000027  -0.000003
     8  C   -0.059142  -0.032584  -0.074248  -0.000067   0.000015   0.000003
     9  C   -0.005391  -0.009251  -0.002200   0.008494   0.002203  -0.003639
    10  H   -0.000188   0.001316  -0.000547   0.003524  -0.000239   0.000091
    11  H    0.000670  -0.000728  -0.006726  -0.001185   0.000052  -0.000082
    12  C   -0.000686   0.000478   0.007038  -0.265741   0.070022  -0.015001
    13  C   -0.000035   0.000055   0.001120   0.294776  -0.106407  -0.022904
    14  C    0.000031  -0.000202   0.000172   0.000006   0.000003   0.000000
    15  H   -0.000006  -0.000005  -0.000016   0.000001   0.000000  -0.000000
    16  H   -0.000006  -0.000055  -0.000001  -0.000000   0.000000  -0.000000
    17  H   -0.000042   0.000040  -0.000045   0.000000   0.000000   0.000000
    18  C    0.388307   0.400680   0.373267   0.000017  -0.000001  -0.000003
    19  H    0.528194  -0.017162  -0.022804  -0.000001  -0.000000  -0.000000
    20  H   -0.017162   0.507638  -0.023516  -0.000002   0.000000   0.000000
    21  H   -0.022804  -0.023516   0.545957   0.000033  -0.000001  -0.000000
    22  C   -0.000001  -0.000002   0.000033   5.451454   0.394418   0.400496
    23  H   -0.000000   0.000000  -0.000001   0.394418   0.548916  -0.025646
    24  H   -0.000000   0.000000  -0.000000   0.400496  -0.025646   0.504722
    25  H    0.000000  -0.000001  -0.000000   0.369592  -0.022097  -0.013655
    26  C    0.000001  -0.000003  -0.000016  -0.037111   0.014017  -0.009055
    27  H    0.000000  -0.000000   0.000000   0.001751  -0.006471  -0.002833
    28  H   -0.000000   0.000000   0.000000  -0.010376  -0.002328   0.002022
    29  H    0.000000  -0.000000  -0.000000   0.001915   0.000642  -0.000004
              25         26         27         28         29
     1  O    0.008016   0.000447  -0.000399  -0.000059   0.000016
     2  O   -0.000000   0.000011   0.000000   0.000000   0.000000
     3  N    0.000027  -0.029078   0.002034  -0.003763   0.002900
     4  H   -0.000003  -0.007818   0.000683   0.000582   0.002268
     5  C   -0.000097   0.000107   0.000088   0.000168  -0.000294
     6  C   -0.001408   0.175370  -0.075987  -0.033127  -0.052165
     7  C   -0.000007   0.004893  -0.000558  -0.000337   0.003339
     8  C    0.000001   0.000793  -0.000006  -0.000013   0.000003
     9  C    0.002126   0.032195   0.002651  -0.002368  -0.000592
    10  H   -0.000149  -0.000805  -0.000060   0.000016   0.000031
    11  H   -0.000057   0.000017  -0.000010   0.000033  -0.000000
    12  C    0.022066  -0.076087  -0.000983  -0.012438   0.022208
    13  C   -0.035524  -0.054690  -0.000025   0.006006  -0.000627
    14  C    0.000000  -0.000353  -0.000005  -0.000072   0.000022
    15  H    0.000000   0.000452  -0.000005  -0.000008   0.000073
    16  H    0.000000   0.000034   0.000004  -0.000014   0.000002
    17  H   -0.000000  -0.000108  -0.000006   0.000009  -0.000008
    18  C    0.000004   0.000031   0.000002  -0.000002   0.000000
    19  H    0.000000   0.000001   0.000000  -0.000000   0.000000
    20  H   -0.000001  -0.000003  -0.000000   0.000000  -0.000000
    21  H   -0.000000  -0.000016   0.000000   0.000000  -0.000000
    22  C    0.369592  -0.037111   0.001751  -0.010376   0.001915
    23  H   -0.022097   0.014017  -0.006471  -0.002328   0.000642
    24  H   -0.013655  -0.009055  -0.002833   0.002022  -0.000004
    25  H    0.515604   0.002434   0.001049  -0.000356  -0.000024
    26  C    0.002434   5.225536   0.446930   0.416577   0.390449
    27  H    0.001049   0.446930   0.522344  -0.037787  -0.021641
    28  H   -0.000356   0.416577  -0.037787   0.511241  -0.018219
    29  H   -0.000024   0.390449  -0.021641  -0.018219   0.518286
 Mulliken charges:
               1
     1  O   -0.406741
     2  O   -0.401810
     3  N   -0.118264
     4  H    0.298544
     5  C    0.005739
     6  C    0.191984
     7  C    0.106039
     8  C    0.119869
     9  C   -0.330110
    10  H    0.214443
    11  H    0.206952
    12  C   -0.104838
    13  C    0.128254
    14  C   -0.372468
    15  H    0.126832
    16  H    0.156940
    17  H    0.155382
    18  C   -0.451592
    19  H    0.147783
    20  H    0.173849
    21  H    0.147922
    22  C   -0.476992
    23  H    0.148254
    24  H    0.171470
    25  H    0.152457
    26  C   -0.495172
    27  H    0.169239
    28  H    0.184615
    29  H    0.151420
 Sum of Mulliken charges =  -0.00000
 Mulliken charges with hydrogens summed into heavy atoms:
               1
     1  O   -0.406741
     2  O   -0.401810
     3  N    0.180280
     5  C    0.005739
     6  C    0.191984
     7  C    0.106039
     8  C    0.119869
     9  C    0.091285
    12  C   -0.104838
    13  C    0.128254
    14  C    0.066686
    18  C    0.017963
    22  C   -0.004811
    26  C    0.010102
 Electronic spatial extent (au):  <R**2>=          50684.9507
 Charge=             -0.0000 electrons
 Dipole moment (field-independent basis, Debye):
    X=              0.7674    Y=              8.9855    Z=             -0.1308  Tot=              9.0191
 Quadrupole moment (field-independent basis, Debye-Ang):
   XX=           -111.0580   YY=            128.3409   ZZ=            -87.7960
   XY=             -4.1197   XZ=             -8.8175   YZ=              2.8664
 Traceless Quadrupole moment (field-independent basis, Debye-Ang):
   XX=            -87.5536   YY=            151.8453   ZZ=            -64.2916
   XY=             -4.1197   XZ=             -8.8175   YZ=              2.8664
 Octapole moment (field-independent basis, Debye-Ang**2):
  XXX=            553.7496  YYY=            970.8377  ZZZ=           -102.9991  XYY=            -88.1703
  XXY=          -1148.0471  XXZ=             -8.8086  XZZ=            128.7960  YZZ=           -977.2917
  YYZ=             48.6735  XYZ=            -81.3389
 Hexadecapole moment (field-independent basis, Debye-Ang**3):
 XXXX=          -4691.5961 YYYY=          -3992.9104 ZZZZ=           -315.1191 XXXY=           5545.8248
 XXXZ=           -225.3408 YYYX=           -619.4284 YYYZ=            365.2249 ZZZX=            -86.2738
 ZZZY=          -1177.7391 XXYY=         -12660.3975 XXZZ=           -694.2526 YYZZ=         -11189.0295
 XXYZ=           -145.7453 YYXZ=           -774.7443 ZZXY=           1377.9051
 N-N= 8.980160899312D+02 E-N=-3.271441039413D+03  KE= 6.305945581667D+02
 No NMR shielding tensors so no spin-rotation constants.
 Leave Link  601 at Tue Jan 20 20:55:03 2026, MaxMem=  2147483648 cpu:               3.6 elap:               0.1
 (Enter /data/home/wyx/g16/l9999.exe)
 Electronic transition elements 
                 1             2             3             4             5 
      1  -0.633218D+03 -0.633177D+03 -0.633170D+03 -0.633147D+03 -0.633131D+03
      2  -0.165184D+01 -0.343081D-01  0.109043D+00 -0.449687D+00 -0.410336D+00
      3  -0.394461D+00  0.462658D-01 -0.803877D-01  0.190579D+01  0.143447D+01
      4  -0.379585D+00  0.267784D-01  0.103794D-02 -0.101104D+00 -0.129228D+00
      5   0.162496D+00  0.439103D-02 -0.140316D-01  0.679197D-01  0.766348D-01
      6   0.418664D-01 -0.672369D-02  0.978210D-02 -0.318839D+00 -0.267223D+00
      7   0.376068D-01 -0.482623D-03 -0.293189D-02  0.175974D-01  0.230343D-01
      8   0.108825D+01  0.742047D+00  0.372935D+00  0.670180D+00  0.846448D+00
      9   0.141419D+00  0.156643D+00 -0.850736D+00  0.407092D-01  0.510059D-01
     10  -0.499212D+01  0.135332D+00  0.610449D+00 -0.602853D+00 -0.106631D+01
     11  -0.796013D+00 -0.412372D-01  0.483066D-01  0.817757D+00 -0.999962D-01
     12   0.153151D+01 -0.272355D+00  0.458888D+00 -0.136737D+02 -0.116623D+02
     13   0.669362D-01 -0.248426D-02 -0.270881D-02  0.819290D-01  0.441728D-01
     14   0.287692D+01  0.908101D-01 -0.262043D+00  0.281467D+01  0.241927D+01
     15   0.349752D-01 -0.202889D-01  0.496491D-01  0.317345D+00  0.114266D+00
     16   0.716399D+00  0.576887D-01 -0.115958D-01  0.234879D+00  0.315220D+00
                 6 
      1  -0.633110D+03
      2   0.506397D-01
      3  -0.219103D+00
      4   0.462897D-01
      5  -0.468160D-02
      6   0.443163D-01
      7  -0.291433D-01
      8  -0.469609D+00
      9  -0.623229D-01
     10  -0.614269D-01
     11   0.198136D+00
     12   0.202464D+01
     13  -0.175819D+00
     14  -0.287097D+00
     15   0.106838D+00
     16  -0.391904D+00
 1\1\GINC-CN012\SP\RCAM-B3LYP TD-FC\TZVP\C11H15N1O2\WYX\20-Jan-2026\0\\
 #p CAM-B3LYP/TZVP em=gd3bj TD=(Read,NStates=6,Root=1) SCRF=(Solvent=Wa
 ter,CorrectedLR,NonEquilibrium=Save) Geom=Check Guess=Read NoSymm\\Tit
 le Card Required\\0,1\O,0,1.2615009389,9.837065498,1.2932516823\O,0,-4
 .7745357232,9.727353672,-0.4491234194\N,0,-2.1201500642,12.9137798229,
 0.2746956904\H,0,-2.4285517001,13.8757693115,0.2031886512\C,0,-2.69981
 96861,10.6310106954,0.2067580492\C,0,-0.8009809025,12.7424314888,0.565
 2623084\C,0,-3.0770795512,11.982171729,0.076464449\C,0,-3.6153652651,9
 .5408258738,-0.0499093799\C,0,-1.3180439892,10.323565953,0.6196091911\
 H,0,-1.3373788496,9.8512898282,1.621554937\H,0,-0.9044354886,9.5064552
 436,0.0154451732\C,0,-0.3369155576,11.4238636036,0.6856649505\C,0,1.02
 96928645,10.9991612128,0.9206762005\C,0,-4.4394273977,12.5051329282,-0
 .2333447788\H,0,-4.4483218668,13.594498771,-0.1839832936\H,0,-4.765908
 3335,12.1993746905,-1.2260411257\H,0,-5.1757940645,12.118255847,0.4690
 298646\C,0,-3.1340528374,8.1191160074,0.1366047233\H,0,-4.0041225695,7
 .4756168188,0.2449632492\H,0,-2.5795467534,7.7923658319,-0.7471694862\
 H,0,-2.4838983152,7.9886379762,0.9995908046\C,0,2.2043848351,11.915572
 5205,0.6790246528\H,0,2.0301642392,12.6409818659,-0.110936623\H,0,2.46
 20676487,12.4591625955,1.5908539868\H,0,3.0582282669,11.2954181281,0.4
 12397229\C,0,-0.0305856345,14.0067385111,0.7638430092\H,0,0.6551961759
 ,13.9234404613,1.6036750973\H,0,0.5529327316,14.2831694407,-0.11683425
 13\H,0,-0.708424181,14.8336081232,0.9767884578\\Version=ES64L-G16RevA.
 03\HF=-633.3208358\RMSD=2.038e-09\Dipole=0.3019115,3.5351571,-0.051443
 \Quadrupole=-65.0939613,112.8932217,-47.7992604,-3.0629235,-6.5555724,
 2.1311315\PG=C01 [X(C11H15N1O2)]\\@


 AN AIRPLANE IS A COLLECTION OF SPARE PARTS
 FLYING IN CLOSE FORMATION.
 Job cpu time:       0 days  4 hours 46 minutes 51.4 seconds.
 Elapsed time:       0 days  0 hours  9 minutes  1.4 seconds.
 File lengths (MBytes):  RWF=    644 Int=      0 D2E=      0 Chk=     67 Scr=      1
 Normal termination of Gaussian 16 at Tue Jan 20 20:55:05 2026.
