 Entering Gaussian System, Link 0=g16
 Input=DDL-S2-opt-freq.gjf
 Output=DDL-S2-opt-freq.log
 Initial command:
 /data/home/wyx/g16/l1.exe "/scr/tmp/wyx/13031/Gau-1832060.inp" -scrdir="/scr/tmp/wyx/13031/"
 Entering Link 1 = /data/home/wyx/g16/l1.exe PID=   1832061.
  
 Copyright (c) 1988,1990,1992,1993,1995,1998,2003,2009,2016,
            Gaussian, Inc.  All Rights Reserved.
  
 This is part of the Gaussian(R) 16 program.  It is based on
 the Gaussian(R) 09 system (copyright 2009, Gaussian, Inc.),
 the Gaussian(R) 03 system (copyright 2003, Gaussian, Inc.),
 the Gaussian(R) 98 system (copyright 1998, Gaussian, Inc.),
 the Gaussian(R) 94 system (copyright 1995, Gaussian, Inc.),
 the Gaussian 92(TM) system (copyright 1992, Gaussian, Inc.),
 the Gaussian 90(TM) system (copyright 1990, Gaussian, Inc.),
 the Gaussian 88(TM) system (copyright 1988, Gaussian, Inc.),
 the Gaussian 86(TM) system (copyright 1986, Carnegie Mellon
 University), and the Gaussian 82(TM) system (copyright 1983,
 Carnegie Mellon University). Gaussian is a federally registered
 trademark of Gaussian, Inc.
  
 This software contains proprietary and confidential information,
 including trade secrets, belonging to Gaussian, Inc.
  
 This software is provided under written license and may be
 used, copied, transmitted, or stored only in accord with that
 written license.
  
 The following legend is applicable only to US Government
 contracts under FAR:
  
                    RESTRICTED RIGHTS LEGEND
  
 Use, reproduction and disclosure by the US Government is
 subject to restrictions as set forth in subparagraphs (a)
 and (c) of the Commercial Computer Software - Restricted
 Rights clause in FAR 52.227-19.
  
 Gaussian, Inc.
 340 Quinnipiac St., Bldg. 40, Wallingford CT 06492
  
  
 ---------------------------------------------------------------
 Warning -- This program may not be used in any manner that
 competes with the business of Gaussian, Inc. or will provide
 assistance to any competitor of Gaussian, Inc.  The licensee
 of this program is prohibited from giving any competitor of
 Gaussian, Inc. access to this program.  By using this program,
 the user acknowledges that Gaussian, Inc. is engaged in the
 business of creating and licensing software in the field of
 computational chemistry and represents and warrants to the
 licensee that it is not a competitor of Gaussian, Inc. and that
 it will not use this program in any manner prohibited above.
 ---------------------------------------------------------------
  

 Cite this work as:
 Gaussian 16, Revision A.03,
 M. J. Frisch, G. W. Trucks, H. B. Schlegel, G. E. Scuseria, 
 M. A. Robb, J. R. Cheeseman, G. Scalmani, V. Barone, 
 G. A. Petersson, H. Nakatsuji, X. Li, M. Caricato, A. V. Marenich, 
 J. Bloino, B. G. Janesko, R. Gomperts, B. Mennucci, H. P. Hratchian, 
 J. V. Ortiz, A. F. Izmaylov, J. L. Sonnenberg, D. Williams-Young, 
 F. Ding, F. Lipparini, F. Egidi, J. Goings, B. Peng, A. Petrone, 
 T. Henderson, D. Ranasinghe, V. G. Zakrzewski, J. Gao, N. Rega, 
 G. Zheng, W. Liang, M. Hada, M. Ehara, K. Toyota, R. Fukuda, 
 J. Hasegawa, M. Ishida, T. Nakajima, Y. Honda, O. Kitao, H. Nakai, 
 T. Vreven, K. Throssell, J. A. Montgomery, Jr., J. E. Peralta, 
 F. Ogliaro, M. J. Bearpark, J. J. Heyd, E. N. Brothers, K. N. Kudin, 
 V. N. Staroverov, T. A. Keith, R. Kobayashi, J. Normand, 
 K. Raghavachari, A. P. Rendell, J. C. Burant, S. S. Iyengar, 
 J. Tomasi, M. Cossi, J. M. Millam, M. Klene, C. Adamo, R. Cammi, 
 J. W. Ochterski, R. L. Martin, K. Morokuma, O. Farkas, 
 J. B. Foresman, and D. J. Fox, Gaussian, Inc., Wallingford CT, 2016.
 
 ******************************************
 Gaussian 16:  ES64L-G16RevA.03 25-Dec-2016
                20-Jan-2026 
 ******************************************
 %nprocshared=32
 Will use up to   32 processors via shared memory.
 %mem=16GB
 %oldchk=DDL-S0-TD.chk
 %chk=DDL-S2-opt-freq.chk
 Copying data from "DDL-S0-TD.chk" to current chk file "DDL-S2-opt-freq.chk"
 IOpt=  2 FromEx=T IUOpen= 4 IOptOp= 5 NList=   0 IFRang= 0 IUIn= 4 IUOut= 2.
 ----------------------------------------------------------------------
 #p CAM-B3LYP/TZVP em=gd3bj TD=(NStates=6,Root=2) SCRF=Solvent=Water Ge
 om=Check Guess=Read Opt Freq NoSymm
 ----------------------------------------------------------------------
 1/18=20,19=15,26=3,29=2,38=1/1,3;
 2/9=110,12=2,15=1,40=1/2;
 3/5=19,7=101,11=9,14=-4,25=1,30=1,70=2201,71=1,72=1,74=-40,116=-2,124=41/1,2,3,8;
 4/5=1/1;
 5/5=2,38=6,53=1/2;
 8/6=1,10=1,107=2,108=6/1;
 9/8=2,15=2,41=6,42=1,70=2/14;
 10/5=4,28=2,31=1/2;
 6/7=2,8=2,9=2,10=2/1;
 7/12=6,13=5,14=2,30=1/1,2,3,16;
 1/18=20,19=15,26=3/3(2);
 2/9=110,15=1/2;
 99//99;
 2/9=110,15=1/2;
 3/5=19,7=101,11=9,14=-2,25=1,30=1,70=2205,71=1,72=1,74=-40,124=41/1,2,3,8;
 4/5=5,16=3,69=1/1;
 5/5=2,38=5,53=1/2;
 8/6=1,10=1,107=2,108=6/1;
 9/8=2,15=2,41=6,42=1,49=4,70=2/14;
 10/5=4,28=2,31=1/2;
 7/12=6,13=5,14=2,30=1/1,2,3,16;
 1/18=20,19=15,26=3/3(-8);
 2/9=110,15=1/2;
 6/7=2,8=2,9=2,10=2/1;
 99//99;
 Leave Link    1 at Tue Jan 20 21:12:18 2026, MaxMem=  2147483648 cpu:              12.4 elap:               0.4
 (Enter /data/home/wyx/g16/l101.exe)
 -------------------
 Title Card Required
 -------------------
 Structure from the checkpoint file:  "DDL-S2-opt-freq.chk"
 Charge =  0 Multiplicity = 1
 Redundant internal coordinates found in file.  (old form).
 O,0,1.302922329,9.8389006239,1.1152084938
 O,0,-4.661551276,9.7585222625,-0.7455338741
 N,0,-2.1592342563,12.9095588306,0.5322684014
 H,0,-2.4672449629,13.8667515186,0.475966381
 C,0,-2.6935109921,10.6388973069,0.238801059
 C,0,-0.8051980162,12.6939503207,0.6798266206
 C,0,-3.0649013818,11.9379807988,0.1686068321
 C,0,-3.5952766053,9.5634417762,-0.1707353911
 C,0,-1.3522025946,10.2877211838,0.8419871992
 H,0,-1.470307372,9.9802025177,1.8896248421
 H,0,-0.9230735841,9.4227833141,0.3414859304
 C,0,-0.3540150651,11.4210866448,0.7535465383
 C,0,1.0470609639,11.0068597868,0.8369553198
 C,0,-4.3858274015,12.4782717401,-0.2759268114
 H,0,-4.4896296274,13.5203451313,0.0257643391
 H,0,-4.47461118,12.4223629531,-1.360957256
 H,0,-5.2064961429,11.8985215762,0.1349504657
 C,0,-3.1717453312,8.1483279654,0.137143685
 H,0,-4.0021252623,7.4767750828,-0.0645762745
 H,0,-2.3256806809,7.8637948657,-0.4919469199
 H,0,-2.8507734523,8.0407868038,1.1736564779
 C,0,2.200736885,11.9375709623,0.5539258092
 H,0,1.9996278675,12.6320362967,-0.2574013218
 H,0,2.4466928198,12.5170727693,1.4453131552
 H,0,3.0654477616,11.3270559297,0.3046110804
 C,0,-0.0259501429,13.9729271056,0.7326327264
 H,0,0.8262718127,13.9137637853,1.3983330584
 H,0,0.3288902928,14.2515834289,-0.2607245259
 H,0,-0.6674664345,14.7779811682,1.0891939597
 Recover connectivity data from disk.
 ITRead=  0  0  0  0  0  0  0  0  0  0  0  0  0  0  0  0  0  0  0  0
 ITRead=  0  0  0  0  0  0  0  0  0
 MicOpt= -1 -1 -1 -1 -1 -1 -1 -1 -1 -1 -1 -1 -1 -1 -1 -1 -1 -1 -1 -1
 MicOpt= -1 -1 -1 -1 -1 -1 -1 -1 -1
 NAtoms=     29 NQM=       29 NQMF=       0 NMMI=      0 NMMIF=      0
                NMic=       0 NMicF=      0.
                    Isotopes and Nuclear Properties:
 (Nuclear quadrupole moments (NQMom) in fm**2, nuclear magnetic moments (NMagM)
  in nuclear magnetons)

  Atom         1           2           3           4           5           6           7           8           9          10
 IAtWgt=          16          16          14           1          12          12          12          12          12           1
 AtmWgt=  15.9949146  15.9949146  14.0030740   1.0078250  12.0000000  12.0000000  12.0000000  12.0000000  12.0000000   1.0078250
 NucSpn=           0           0           2           1           0           0           0           0           0           1
 AtZEff=   5.6000000   5.6000000   4.5500000   1.0000000   3.6000000   3.6000000   3.6000000   3.6000000   3.6000000   1.0000000
 NQMom=    0.0000000   0.0000000   2.0440000   0.0000000   0.0000000   0.0000000   0.0000000   0.0000000   0.0000000   0.0000000
 NMagM=    0.0000000   0.0000000   0.4037610   2.7928460   0.0000000   0.0000000   0.0000000   0.0000000   0.0000000   2.7928460
 AtZNuc=   8.0000000   8.0000000   7.0000000   1.0000000   6.0000000   6.0000000   6.0000000   6.0000000   6.0000000   1.0000000

  Atom        11          12          13          14          15          16          17          18          19          20
 IAtWgt=           1          12          12          12           1           1           1          12           1           1
 AtmWgt=   1.0078250  12.0000000  12.0000000  12.0000000   1.0078250   1.0078250   1.0078250  12.0000000   1.0078250   1.0078250
 NucSpn=           1           0           0           0           1           1           1           0           1           1
 AtZEff=   1.0000000   3.6000000   3.6000000   3.6000000   1.0000000   1.0000000   1.0000000   3.6000000   1.0000000   1.0000000
 NQMom=    0.0000000   0.0000000   0.0000000   0.0000000   0.0000000   0.0000000   0.0000000   0.0000000   0.0000000   0.0000000
 NMagM=    2.7928460   0.0000000   0.0000000   0.0000000   2.7928460   2.7928460   2.7928460   0.0000000   2.7928460   2.7928460
 AtZNuc=   1.0000000   6.0000000   6.0000000   6.0000000   1.0000000   1.0000000   1.0000000   6.0000000   1.0000000   1.0000000

  Atom        21          22          23          24          25          26          27          28          29
 IAtWgt=           1          12           1           1           1          12           1           1           1
 AtmWgt=   1.0078250  12.0000000   1.0078250   1.0078250   1.0078250  12.0000000   1.0078250   1.0078250   1.0078250
 NucSpn=           1           0           1           1           1           0           1           1           1
 AtZEff=   1.0000000   3.6000000   1.0000000   1.0000000   1.0000000   3.6000000   1.0000000   1.0000000   1.0000000
 NQMom=    0.0000000   0.0000000   0.0000000   0.0000000   0.0000000   0.0000000   0.0000000   0.0000000   0.0000000
 NMagM=    2.7928460   0.0000000   2.7928460   2.7928460   2.7928460   0.0000000   2.7928460   2.7928460   2.7928460
 AtZNuc=   1.0000000   6.0000000   1.0000000   1.0000000   1.0000000   6.0000000   1.0000000   1.0000000   1.0000000
 Leave Link  101 at Tue Jan 20 21:12:23 2026, MaxMem=  2147483648 cpu:               6.3 elap:               0.2
 (Enter /data/home/wyx/g16/l103.exe)

 GradGradGradGradGradGradGradGradGradGradGradGradGradGradGradGradGradGrad
 Berny optimization.
 Initialization pass.
                           ----------------------------
                           !    Initial Parameters    !
                           ! (Angstroms and Degrees)  !
 --------------------------                            --------------------------
 ! Name  Definition              Value          Derivative Info.                !
 --------------------------------------------------------------------------------
 ! R1    R(1,13)                 1.2276         estimate D2E/DX2                !
 ! R2    R(2,8)                  1.2269         estimate D2E/DX2                !
 ! R3    R(3,4)                  1.0071         estimate D2E/DX2                !
 ! R4    R(3,6)                  1.379          estimate D2E/DX2                !
 ! R5    R(3,7)                  1.3771         estimate D2E/DX2                !
 ! R6    R(5,7)                  1.353          estimate D2E/DX2                !
 ! R7    R(5,8)                  1.462          estimate D2E/DX2                !
 ! R8    R(5,9)                  1.512          estimate D2E/DX2                !
 ! R9    R(6,12)                 1.3525         estimate D2E/DX2                !
 ! R10   R(6,26)                 1.4986         estimate D2E/DX2                !
 ! R11   R(7,14)                 1.4948         estimate D2E/DX2                !
 ! R12   R(8,18)                 1.5089         estimate D2E/DX2                !
 ! R13   R(9,10)                 1.0982         estimate D2E/DX2                !
 ! R14   R(9,11)                 1.0876         estimate D2E/DX2                !
 ! R15   R(9,12)                 1.5129         estimate D2E/DX2                !
 ! R16   R(12,13)                1.4634         estimate D2E/DX2                !
 ! R17   R(13,22)                1.5091         estimate D2E/DX2                !
 ! R18   R(14,15)                1.0898         estimate D2E/DX2                !
 ! R19   R(14,16)                1.0901         estimate D2E/DX2                !
 ! R20   R(14,17)                1.0856         estimate D2E/DX2                !
 ! R21   R(18,19)                1.0868         estimate D2E/DX2                !
 ! R22   R(18,20)                1.092          estimate D2E/DX2                !
 ! R23   R(18,21)                1.0904         estimate D2E/DX2                !
 ! R24   R(22,23)                1.0867         estimate D2E/DX2                !
 ! R25   R(22,24)                1.0913         estimate D2E/DX2                !
 ! R26   R(22,25)                1.0875         estimate D2E/DX2                !
 ! R27   R(26,27)                1.083          estimate D2E/DX2                !
 ! R28   R(26,28)                1.091          estimate D2E/DX2                !
 ! R29   R(26,29)                1.0894         estimate D2E/DX2                !
 ! A1    A(4,3,6)              117.0574         estimate D2E/DX2                !
 ! A2    A(4,3,7)              117.0426         estimate D2E/DX2                !
 ! A3    A(6,3,7)              124.3116         estimate D2E/DX2                !
 ! A4    A(7,5,8)              121.4975         estimate D2E/DX2                !
 ! A5    A(7,5,9)              119.1575         estimate D2E/DX2                !
 ! A6    A(8,5,9)              119.2124         estimate D2E/DX2                !
 ! A7    A(3,6,12)             118.7204         estimate D2E/DX2                !
 ! A8    A(3,6,26)             112.3895         estimate D2E/DX2                !
 ! A9    A(12,6,26)            128.8899         estimate D2E/DX2                !
 ! A10   A(3,7,5)              118.8944         estimate D2E/DX2                !
 ! A11   A(3,7,14)             113.8716         estimate D2E/DX2                !
 ! A12   A(5,7,14)             127.2336         estimate D2E/DX2                !
 ! A13   A(2,8,5)              123.3873         estimate D2E/DX2                !
 ! A14   A(2,8,18)             119.2515         estimate D2E/DX2                !
 ! A15   A(5,8,18)             117.3611         estimate D2E/DX2                !
 ! A16   A(5,9,10)             110.4988         estimate D2E/DX2                !
 ! A17   A(5,9,11)             110.5579         estimate D2E/DX2                !
 ! A18   A(5,9,12)             112.8294         estimate D2E/DX2                !
 ! A19   A(10,9,11)            104.996          estimate D2E/DX2                !
 ! A20   A(10,9,12)            109.664          estimate D2E/DX2                !
 ! A21   A(11,9,12)            107.9725         estimate D2E/DX2                !
 ! A22   A(6,12,9)             119.2183         estimate D2E/DX2                !
 ! A23   A(6,12,13)            126.0784         estimate D2E/DX2                !
 ! A24   A(9,12,13)            114.6023         estimate D2E/DX2                !
 ! A25   A(1,13,12)            118.801          estimate D2E/DX2                !
 ! A26   A(1,13,22)            118.0311         estimate D2E/DX2                !
 ! A27   A(12,13,22)           123.1388         estimate D2E/DX2                !
 ! A28   A(7,14,15)            110.332          estimate D2E/DX2                !
 ! A29   A(7,14,16)            110.4534         estimate D2E/DX2                !
 ! A30   A(7,14,17)            111.2517         estimate D2E/DX2                !
 ! A31   A(15,14,16)           108.471          estimate D2E/DX2                !
 ! A32   A(15,14,17)           109.5043         estimate D2E/DX2                !
 ! A33   A(16,14,17)           106.7248         estimate D2E/DX2                !
 ! A34   A(8,18,19)            109.0971         estimate D2E/DX2                !
 ! A35   A(8,18,20)            110.1383         estimate D2E/DX2                !
 ! A36   A(8,18,21)            111.6593         estimate D2E/DX2                !
 ! A37   A(19,18,20)           108.9067         estimate D2E/DX2                !
 ! A38   A(19,18,21)           109.9011         estimate D2E/DX2                !
 ! A39   A(20,18,21)           107.0885         estimate D2E/DX2                !
 ! A40   A(13,22,23)           113.1208         estimate D2E/DX2                !
 ! A41   A(13,22,24)           110.2805         estimate D2E/DX2                !
 ! A42   A(13,22,25)           107.7367         estimate D2E/DX2                !
 ! A43   A(23,22,24)           108.1909         estimate D2E/DX2                !
 ! A44   A(23,22,25)           109.5574         estimate D2E/DX2                !
 ! A45   A(24,22,25)           107.8288         estimate D2E/DX2                !
 ! A46   A(6,26,27)            112.5946         estimate D2E/DX2                !
 ! A47   A(6,26,28)            110.7944         estimate D2E/DX2                !
 ! A48   A(6,26,29)            109.6345         estimate D2E/DX2                !
 ! A49   A(27,26,28)           108.5223         estimate D2E/DX2                !
 ! A50   A(27,26,29)           107.6118         estimate D2E/DX2                !
 ! A51   A(28,26,29)           107.5046         estimate D2E/DX2                !
 ! D1    D(4,3,6,12)          -179.735          estimate D2E/DX2                !
 ! D2    D(4,3,6,26)             0.1239         estimate D2E/DX2                !
 ! D3    D(7,3,6,12)           -14.5687         estimate D2E/DX2                !
 ! D4    D(7,3,6,26)           165.2903         estimate D2E/DX2                !
 ! D5    D(4,3,7,5)           -179.5484         estimate D2E/DX2                !
 ! D6    D(4,3,7,14)             0.6549         estimate D2E/DX2                !
 ! D7    D(6,3,7,5)             15.2833         estimate D2E/DX2                !
 ! D8    D(6,3,7,14)          -164.5135         estimate D2E/DX2                !
 ! D9    D(8,5,7,3)           -178.1623         estimate D2E/DX2                !
 ! D10   D(8,5,7,14)             1.6042         estimate D2E/DX2                !
 ! D11   D(9,5,7,3)              6.057          estimate D2E/DX2                !
 ! D12   D(9,5,7,14)          -174.1764         estimate D2E/DX2                !
 ! D13   D(7,5,8,2)              9.0736         estimate D2E/DX2                !
 ! D14   D(7,5,8,18)          -171.0402         estimate D2E/DX2                !
 ! D15   D(9,5,8,2)           -175.148          estimate D2E/DX2                !
 ! D16   D(9,5,8,18)             4.7381         estimate D2E/DX2                !
 ! D17   D(7,5,9,10)            98.3103         estimate D2E/DX2                !
 ! D18   D(7,5,9,11)          -145.889          estimate D2E/DX2                !
 ! D19   D(7,5,9,12)           -24.8627         estimate D2E/DX2                !
 ! D20   D(8,5,9,10)           -77.568          estimate D2E/DX2                !
 ! D21   D(8,5,9,11)            38.2327         estimate D2E/DX2                !
 ! D22   D(8,5,9,12)           159.2591         estimate D2E/DX2                !
 ! D23   D(3,6,12,9)            -7.3896         estimate D2E/DX2                !
 ! D24   D(3,6,12,13)          176.4729         estimate D2E/DX2                !
 ! D25   D(26,6,12,9)          172.778          estimate D2E/DX2                !
 ! D26   D(26,6,12,13)          -3.3594         estimate D2E/DX2                !
 ! D27   D(3,6,26,27)          145.157          estimate D2E/DX2                !
 ! D28   D(3,6,26,28)          -93.1013         estimate D2E/DX2                !
 ! D29   D(3,6,26,29)           25.3938         estimate D2E/DX2                !
 ! D30   D(12,6,26,27)         -35.002          estimate D2E/DX2                !
 ! D31   D(12,6,26,28)          86.7398         estimate D2E/DX2                !
 ! D32   D(12,6,26,29)        -154.7652         estimate D2E/DX2                !
 ! D33   D(3,7,14,15)          -15.6521         estimate D2E/DX2                !
 ! D34   D(3,7,14,16)          104.269          estimate D2E/DX2                !
 ! D35   D(3,7,14,17)         -137.398          estimate D2E/DX2                !
 ! D36   D(5,7,14,15)          164.5714         estimate D2E/DX2                !
 ! D37   D(5,7,14,16)          -75.5074         estimate D2E/DX2                !
 ! D38   D(5,7,14,17)           42.8256         estimate D2E/DX2                !
 ! D39   D(2,8,18,19)           -9.7482         estimate D2E/DX2                !
 ! D40   D(2,8,18,20)          109.7365         estimate D2E/DX2                !
 ! D41   D(2,8,18,21)         -131.422          estimate D2E/DX2                !
 ! D42   D(5,8,18,19)          170.3607         estimate D2E/DX2                !
 ! D43   D(5,8,18,20)          -70.1546         estimate D2E/DX2                !
 ! D44   D(5,8,18,21)           48.6869         estimate D2E/DX2                !
 ! D45   D(5,9,12,6)            25.5642         estimate D2E/DX2                !
 ! D46   D(5,9,12,13)         -157.8687         estimate D2E/DX2                !
 ! D47   D(10,9,12,6)          -98.0715         estimate D2E/DX2                !
 ! D48   D(10,9,12,13)          78.4956         estimate D2E/DX2                !
 ! D49   D(11,9,12,6)          148.0506         estimate D2E/DX2                !
 ! D50   D(11,9,12,13)         -35.3823         estimate D2E/DX2                !
 ! D51   D(6,12,13,1)          168.3259         estimate D2E/DX2                !
 ! D52   D(6,12,13,22)         -13.6789         estimate D2E/DX2                !
 ! D53   D(9,12,13,1)           -7.9666         estimate D2E/DX2                !
 ! D54   D(9,12,13,22)         170.0286         estimate D2E/DX2                !
 ! D55   D(1,13,22,23)         141.041          estimate D2E/DX2                !
 ! D56   D(1,13,22,24)         -97.6497         estimate D2E/DX2                !
 ! D57   D(1,13,22,25)          19.7949         estimate D2E/DX2                !
 ! D58   D(12,13,22,23)        -36.9687         estimate D2E/DX2                !
 ! D59   D(12,13,22,24)         84.3406         estimate D2E/DX2                !
 ! D60   D(12,13,22,25)       -158.2148         estimate D2E/DX2                !
 --------------------------------------------------------------------------------
 Trust Radius=3.00D-01 FncErr=1.00D-07 GrdErr=1.00D-06 EigMax=2.50D+02 EigMin=1.00D-04
 Number of steps in this run=    150 maximum allowed number of steps=    174.
 GradGradGradGradGradGradGradGradGradGradGradGradGradGradGradGradGradGrad

 Leave Link  103 at Tue Jan 20 21:12:28 2026, MaxMem=  2147483648 cpu:               0.2 elap:               0.1
 (Enter /data/home/wyx/g16/l202.exe)
                          Input orientation:                          
 ---------------------------------------------------------------------
 Center     Atomic      Atomic             Coordinates (Angstroms)
 Number     Number       Type             X           Y           Z
 ---------------------------------------------------------------------
      1          8           0        1.302922    9.838901    1.115208
      2          8           0       -4.661551    9.758522   -0.745534
      3          7           0       -2.159234   12.909559    0.532268
      4          1           0       -2.467245   13.866752    0.475966
      5          6           0       -2.693511   10.638897    0.238801
      6          6           0       -0.805198   12.693950    0.679827
      7          6           0       -3.064901   11.937981    0.168607
      8          6           0       -3.595277    9.563442   -0.170735
      9          6           0       -1.352203   10.287721    0.841987
     10          1           0       -1.470307    9.980203    1.889625
     11          1           0       -0.923074    9.422783    0.341486
     12          6           0       -0.354015   11.421087    0.753547
     13          6           0        1.047061   11.006860    0.836955
     14          6           0       -4.385827   12.478272   -0.275927
     15          1           0       -4.489630   13.520345    0.025764
     16          1           0       -4.474611   12.422363   -1.360957
     17          1           0       -5.206496   11.898522    0.134950
     18          6           0       -3.171745    8.148328    0.137144
     19          1           0       -4.002125    7.476775   -0.064576
     20          1           0       -2.325681    7.863795   -0.491947
     21          1           0       -2.850773    8.040787    1.173656
     22          6           0        2.200737   11.937571    0.553926
     23          1           0        1.999628   12.632036   -0.257401
     24          1           0        2.446693   12.517073    1.445313
     25          1           0        3.065448   11.327056    0.304611
     26          6           0       -0.025950   13.972927    0.732633
     27          1           0        0.826272   13.913764    1.398333
     28          1           0        0.328890   14.251583   -0.260725
     29          1           0       -0.667466   14.777981    1.089194
 ---------------------------------------------------------------------
                    Distance matrix (angstroms):
                    1          2          3          4          5
     1  O    0.000000
     2  O    6.248501   0.000000
     3  N    4.664257   4.221777   0.000000
     4  H    5.553951   4.815038   1.007104   0.000000
     5  C    4.168880   2.370054   2.351059   3.244455   0.000000
     6  C    3.575617   5.051718   1.379012   2.044363   2.825504
     7  C    4.937618   2.852189   1.377115   2.042503   1.352951
     8  C    5.071674   1.226944   3.708494   4.495459   1.462021
     9  C    2.706617   3.708377   2.760663   3.766530   1.512040
    10  H    2.882792   4.144544   3.301237   4.254125   2.157620
    11  H    2.393085   3.907755   3.704335   4.706528   2.150332
    12  C    2.319386   4.854506   2.350177   3.244082   2.519925
    13  C    1.227607   6.053996   3.740779   4.545288   3.805925
    14  C    6.423660   2.773732   2.407676   2.484789   2.551897
    15  H    6.949358   3.843926   2.461778   2.100647   3.402083
    16  H    6.795996   2.740390   3.030286   3.080595   2.985347
    17  H    6.897498   2.377355   3.235099   3.390239   2.812922
    18  C    4.882345   2.364607   4.883710   5.771611   2.538105
    19  H    5.925796   2.470813   5.767808   6.593925   3.435626
    20  H    4.432917   3.018375   5.151355   6.082137   2.893179
    21  H    4.526568   3.148464   4.959289   5.880113   2.765658
    22  C    2.350644   7.316273   4.467055   5.051522   5.073413
    23  H    3.189210   7.270947   4.242255   4.692047   5.122926
    24  H    2.930834   7.933256   4.711927   5.187297   5.604008
    25  H    2.445030   7.954220   5.463831   6.090165   5.800302
    26  C    4.359179   6.437001   2.392028   2.457045   4.298314
    27  H    4.112404   7.209605   3.266763   3.420559   4.945517
    28  H    4.723738   6.732544   2.936091   2.917050   4.736659
    29  H    5.317671   6.671874   2.454901   2.108457   4.686154
                    6          7          8          9         10
     6  C    0.000000
     7  C    2.437026   0.000000
     8  C    4.278794   2.456601   0.000000
     9  C    2.472943   2.471869   2.565457   0.000000
    10  H    3.044735   3.055737   2.989025   1.098208   0.000000
    11  H    3.290730   3.308101   2.724486   1.087553   1.734046
    12  C    1.352473   2.821035   3.848496   1.512851   2.147773
    13  C    2.510344   4.268713   4.964896   2.504726   2.915353
    14  C    3.712262   1.494781   3.021965   3.905269   4.407972
    15  H    3.832201   2.134041   4.061473   4.578157   5.012274
    16  H    4.207511   2.135761   3.219206   4.377110   5.055321
    17  H    4.505666   2.142223   2.853431   4.236763   4.551696
    18  C    5.153420   3.791289   1.508879   2.895608   3.053170
    19  H    6.163878   4.564550   2.128608   3.968043   4.061546
    20  H    5.197627   4.193062   2.145658   2.932995   3.298898
    21  H    5.106876   4.030397   2.163366   2.721109   2.485886
    22  C    3.102194   5.279718   6.305188   3.927895   4.369433
    23  H    2.957918   5.129586   6.381750   4.235474   4.866456
    24  H    3.345452   5.687090   6.916715   4.445854   4.687858
    25  H    4.122024   6.162216   6.906630   4.569970   4.989926
    26  C    1.498598   3.700589   5.744539   3.918118   4.400755
    27  H    2.160067   4.534002   6.398232   4.266551   4.581326
    28  H    2.144065   4.129758   6.114397   4.444575   5.109384
    29  H    2.128318   3.828939   6.111540   4.548891   4.929901
                   11         12         13         14         15
    11  H    0.000000
    12  C    2.118216   0.000000
    13  C    2.576086   1.463405   0.000000
    14  C    4.659171   4.293363   5.737581   0.000000
    15  H    5.441509   4.694663   6.134377   1.089821   0.000000
    16  H    4.950678   4.738459   6.109282   1.090091   1.768838
    17  H    4.951732   4.914995   6.355694   1.085554   1.776550
    18  C    2.592782   4.362397   5.143857   4.515865   5.532431
    19  H    3.665023   5.434669   6.226439   5.020644   6.063873
    20  H    2.256626   4.253592   4.797940   5.058089   6.078426
    21  H    2.513653   4.223354   4.909590   4.914159   5.833444
    22  C    4.015903   2.614070   1.509072   6.660619   6.895298
    23  H    4.381798   2.833381   2.178577   6.387333   6.555893
    24  H    4.706207   3.086048   2.147047   7.046099   7.150821
    25  H    4.419945   3.450089   2.111824   7.561999   7.871942
    26  C    4.654206   2.572927   3.155914   4.718020   4.541908
    27  H    4.934171   2.832361   2.968835   5.659484   5.504319
    28  H    5.024677   3.083313   3.499843   5.037204   4.882102
    29  H    5.413183   3.388163   4.150251   4.580221   4.161906
                   16         17         18         19         20
    16  H    0.000000
    17  H    1.745796   0.000000
    18  C    4.712658   4.266634   0.000000
    19  H    5.134461   4.587174   1.086833   0.000000
    20  H    5.114061   4.997111   1.092035   1.772822   0.000000
    21  H    5.315950   4.637937   1.090388   1.782397   1.755358
    22  C    6.961471   7.419176   6.587536   7.665295   6.178831
    23  H    6.570964   7.253979   6.855830   7.914224   6.442005
    24  H    7.469175   7.789156   7.236303   8.322957   6.941291
    25  H    7.799122   8.293396   7.002495   8.056770   6.457008
    26  C    5.155381   5.612347   6.646547   7.658035   6.641525
    27  H    6.159328   6.484723   7.128463   8.178530   7.078848
    28  H    5.256442   6.027766   7.047161   8.043270   6.921275
    29  H    5.103580   5.459364   7.150532   8.109177   7.283931
                   21         22         23         24         25
    21  H    0.000000
    22  C    6.409895   0.000000
    23  H    6.830365   1.086728   0.000000
    24  H    6.940755   1.091278   1.764177   0.000000
    25  H    6.823231   1.087479   1.776177   1.760738   0.000000
    26  C    6.585166   3.022043   2.623189   2.956584   4.091525
    27  H    6.932748   2.550983   2.400218   2.139794   3.591823
    28  H    7.123321   3.085793   2.326867   3.225551   4.044900
    29  H    7.082637   4.071981   3.678558   3.864779   5.143841
                   26         27         28         29
    26  C    0.000000
    27  H    1.083023   0.000000
    28  H    1.091018   1.764648   0.000000
    29  H    1.089399   1.753195   1.758437   0.000000
 Symmetry turned off by external request.
 Stoichiometry    C11H15NO2
 Framework group  C1[X(C11H15NO2)]
 Deg. of freedom    81
 Full point group                 C1      NOp   1
 Rotational constants (GHZ):           1.0780882           0.4908019           0.3474928
 Leave Link  202 at Tue Jan 20 21:12:28 2026, MaxMem=  2147483648 cpu:               0.1 elap:               0.0
 (Enter /data/home/wyx/g16/l301.exe)
 Standard basis: TZVP (5D, 7F)
 Ernie: Thresh=  0.10000D-02 Tol=  0.10000D-05 Strict=F.
   356 basis functions,   610 primitive gaussians,   370 cartesian basis functions
    52 alpha electrons       52 beta electrons
       nuclear repulsion energy       900.7656076009 Hartrees.
 IExCor=20419 DFT=T Ex+Corr=CAM-B3LYP ExCW=0 ScaHFX=  1.000000
 ScaDFX=  1.000000  1.000000  1.000000  0.810000 ScalE2=  1.000000  1.000000
 IRadAn=      5 IRanWt=     -1 IRanGd=            0 ICorTp=0 IEmpDi=141
 HFx  wShort=  0.000000 wLong=  0.330000 cFull=  0.190000 cShort=  0.000000 cLong=  0.460000
 DFx  wShort=  0.000000 wLong=  0.330000 cFull=  0.190000 cShort=  0.000000 cLong=  0.460000
 NAtoms=   29 NActive=   29 NUniq=   29 SFac= 1.00D+00 NAtFMM=   60 NAOKFM=F Big=F
 Integral buffers will be    131072 words long.
 Raffenetti 1 integral format.
 Two-electron integral symmetry is turned off.
 R6Disp:  Grimme-D3(BJ) Dispersion energy=       -0.0262203193 Hartrees.
 Nuclear repulsion after empirical dispersion term =      900.7393872816 Hartrees.
 ------------------------------------------------------------------------------
 Polarizable Continuum Model (PCM)
 =================================
 Model                : PCM.
 Atomic radii         : UFF (Universal Force Field).
 Polarization charges : Total charges.
 Charge compensation  : None.
 Solution method      : On-the-fly selection.
 Cavity type          : Scaled VdW (van der Waals Surface) (Alpha=1.100).
 Cavity algorithm     : GePol (No added spheres)
                        Default sphere list used, NSphG=   29.
                        Lebedev-Laikov grids with approx.  5.0 points / Ang**2.
                        Smoothing algorithm: York/Karplus (Gamma=1.0000).
                        Polarization charges: spherical gaussians, with
                                              point-specific exponents (IZeta= 3).
                        Self-potential: point-specific (ISelfS= 7).
                        Self-field    : sphere-specific E.n sum rule (ISelfD= 2).
 1st derivatives      : Analytical E(r).r(x)/FMM algorithm (CHGder, D1EAlg=3).
                        Cavity 1st derivative terms included.
 Solvent              : Water, Eps=  78.355300 Eps(inf)=   1.777849
 ------------------------------------------------------------------------------
 GePol: Number of generator spheres                  =      29
 GePol: Total number of spheres                      =      29
 GePol: Number of exposed spheres                    =      29 (100.00%)
 GePol: Number of points                             =    2084
 GePol: Average weight of points                     =       0.13
 GePol: Minimum weight of points                     =   0.22D-09
 GePol: Maximum weight of points                     =    0.20577
 GePol: Number of points with low weight             =     133
 GePol: Fraction of low-weight points (<1% of avg)   =       6.38%
 GePol: Cavity surface area                          =    269.389 Ang**2
 GePol: Cavity volume                                =    288.584 Ang**3
 Leave Link  301 at Tue Jan 20 21:12:29 2026, MaxMem=  2147483648 cpu:               1.1 elap:               0.1
 (Enter /data/home/wyx/g16/l302.exe)
 NPDir=0 NMtPBC=     1 NCelOv=     1 NCel=       1 NClECP=     1 NCelD=      1
         NCelK=      1 NCelE2=     1 NClLst=     1 CellRange=     0.0.
 One-electron integrals computed using PRISM.
 NBasis=   356 RedAO= T EigKep=  4.72D-05  NBF=   356
 NBsUse=   356 1.00D-06 EigRej= -1.00D+00 NBFU=   356
 Precomputing XC quadrature grid using
 IXCGrd= 4 IRadAn=           5 IRanWt=          -1 IRanGd=           0 AccXCQ= 0.00D+00.
 Generated NRdTot=       0 NPtTot=           0 NUsed=           0 NTot=          32
 NSgBfM=   366   366   366   366   366 MxSgAt=    29 MxSgA2=    29.
 Leave Link  302 at Tue Jan 20 21:12:30 2026, MaxMem=  2147483648 cpu:               6.2 elap:               0.2
 (Enter /data/home/wyx/g16/l303.exe)
 DipDrv:  MaxL=1.
 Leave Link  303 at Tue Jan 20 21:12:30 2026, MaxMem=  2147483648 cpu:               1.1 elap:               0.1
 (Enter /data/home/wyx/g16/l308.exe)
 Leave Link  308 at Tue Jan 20 21:12:32 2026, MaxMem=  2147483648 cpu:               1.4 elap:               0.1
 (Enter /data/home/wyx/g16/l401.exe)
 Initial guess from the checkpoint file:  "DDL-S2-opt-freq.chk"
 B after Tr=    -2.896353   21.179111    0.717862
         Rot=    0.980298    0.015996    0.096306   -0.171715 Ang=  22.78 deg.
 Guess basis will be translated and rotated to current coordinates.
 JPrj=2 DoOrth=T DoCkMO=T.
 Leave Link  401 at Tue Jan 20 21:12:34 2026, MaxMem=  2147483648 cpu:               4.4 elap:               0.2
 (Enter /data/home/wyx/g16/l502.exe)
 Two-electron integral symmetry not used.
 Closed shell SCF:
 Using DIIS extrapolation, IDIIS=  1040.
 NGot=  2147483648 LenX=  2147195087 LenY=  2147057746
 Requested convergence on RMS density matrix=1.00D-08 within 128 cycles.
 Requested convergence on MAX density matrix=1.00D-06.
 Requested convergence on             energy=1.00D-06.
 No special actions if energy rises.
 Fock matrices will be formed incrementally for  20 cycles.

 Cycle   1  Pass 1  IDiag  1:
 FoFJK:  IHMeth= 1 ICntrl=       0 DoSepK=T KAlg= 0 I1Cent=           0 FoldK=F
 IRaf=         1 NMat=       1 IRICut=       1 DoRegI=T DoRafI=F ISym2E= 0 IDoP0=0 IntGTp=1.
 FoFCou: FMM=F IPFlag=           0 FMFlag=      100000 FMFlg1=           0
         NFxFlg=           0 DoJE=T BraDBF=F KetDBF=F FulRan=T
         wScrn=  0.000000 ICntrl=       500 IOpCl=  0 I1Cent=           0 NGrid=           0
         NMat0=    1 NMatS0=      1 NMatT0=    0 NMatD0=    1 NMtDS0=    0 NMtDT0=    0
 Symmetry not used in FoFCou.
 Inv3:  Mode=1 IEnd=    13029168.
 Iteration    1 A*A^-1 deviation from unit magnitude is 2.89D-15 for    119.
 Iteration    1 A*A^-1 deviation from orthogonality  is 2.09D-15 for   1368     53.
 Iteration    1 A^-1*A deviation from unit magnitude is 3.33D-15 for   1146.
 Iteration    1 A^-1*A deviation from orthogonality  is 5.45D-15 for   1702   1658.
 E= -633.332500185248    
 DIIS: error= 5.71D-06 at cycle   1 NSaved=   1.
 NSaved= 1 IEnMin= 1 EnMin= -633.332500185248     IErMin= 1 ErrMin= 5.71D-06
 ErrMax= 5.71D-06  0.00D+00 EMaxC= 1.00D-01 BMatC= 3.22D-08 BMatP= 3.22D-08
 IDIUse=1 WtCom= 1.00D+00 WtEn= 0.00D+00
 Coeff-Com:  0.100D+01
 Coeff:      0.100D+01
 Gap=     0.240 Goal=   None    Shift=    0.000
 RMSDP=1.08D-05 MaxDP=6.07D-04              OVMax= 6.15D-05

 Cycle   2  Pass 1  IDiag  1:
 RMSU=  1.06D-05    CP:  1.00D+00
 E= -633.332500245071     Delta-E=       -0.000000059823 Rises=F Damp=F
 DIIS: error= 3.39D-06 at cycle   2 NSaved=   2.
 NSaved= 2 IEnMin= 2 EnMin= -633.332500245071     IErMin= 2 ErrMin= 3.39D-06
 ErrMax= 3.39D-06  0.00D+00 EMaxC= 1.00D-01 BMatC= 6.01D-09 BMatP= 3.22D-08
 IDIUse=1 WtCom= 1.00D+00 WtEn= 0.00D+00
 Coeff-Com:  0.202D+00 0.798D+00
 Coeff:      0.202D+00 0.798D+00
 Gap=     0.240 Goal=   None    Shift=    0.000
 RMSDP=1.02D-06 MaxDP=4.03D-05 DE=-5.98D-08 OVMax= 2.01D-05

 Cycle   3  Pass 1  IDiag  1:
 RMSU=  9.31D-07    CP:  1.00D+00  1.04D+00
 E= -633.332500248170     Delta-E=       -0.000000003099 Rises=F Damp=F
 DIIS: error= 3.23D-06 at cycle   3 NSaved=   3.
 NSaved= 3 IEnMin= 3 EnMin= -633.332500248170     IErMin= 3 ErrMin= 3.23D-06
 ErrMax= 3.23D-06  0.00D+00 EMaxC= 1.00D-01 BMatC= 3.97D-09 BMatP= 6.01D-09
 IDIUse=1 WtCom= 1.00D+00 WtEn= 0.00D+00
 Coeff-Com:  0.108D-01 0.440D+00 0.549D+00
 Coeff:      0.108D-01 0.440D+00 0.549D+00
 Gap=     0.240 Goal=   None    Shift=    0.000
 RMSDP=6.07D-07 MaxDP=4.57D-05 DE=-3.10D-09 OVMax= 1.38D-05

 Cycle   4  Pass 1  IDiag  1:
 RMSU=  3.34D-07    CP:  1.00D+00  1.08D+00  9.76D-01
 E= -633.332500251024     Delta-E=       -0.000000002853 Rises=F Damp=F
 DIIS: error= 7.90D-07 at cycle   4 NSaved=   4.
 NSaved= 4 IEnMin= 4 EnMin= -633.332500251024     IErMin= 4 ErrMin= 7.90D-07
 ErrMax= 7.90D-07  0.00D+00 EMaxC= 1.00D-01 BMatC= 2.73D-10 BMatP= 3.97D-09
 IDIUse=1 WtCom= 1.00D+00 WtEn= 0.00D+00
 Coeff-Com: -0.249D-01 0.670D-01 0.231D+00 0.727D+00
 Coeff:     -0.249D-01 0.670D-01 0.231D+00 0.727D+00
 Gap=     0.240 Goal=   None    Shift=    0.000
 RMSDP=1.99D-07 MaxDP=9.74D-06 DE=-2.85D-09 OVMax= 3.51D-06

 Cycle   5  Pass 1  IDiag  1:
 RMSU=  9.75D-08    CP:  1.00D+00  1.09D+00  1.06D+00  1.04D+00
 E= -633.332500251241     Delta-E=       -0.000000000217 Rises=F Damp=F
 DIIS: error= 1.94D-07 at cycle   5 NSaved=   5.
 NSaved= 5 IEnMin= 5 EnMin= -633.332500251241     IErMin= 5 ErrMin= 1.94D-07
 ErrMax= 1.94D-07  0.00D+00 EMaxC= 1.00D-01 BMatC= 2.13D-11 BMatP= 2.73D-10
 IDIUse=1 WtCom= 1.00D+00 WtEn= 0.00D+00
 Coeff-Com: -0.104D-01-0.143D-03 0.541D-01 0.286D+00 0.670D+00
 Coeff:     -0.104D-01-0.143D-03 0.541D-01 0.286D+00 0.670D+00
 Gap=     0.240 Goal=   None    Shift=    0.000
 RMSDP=5.76D-08 MaxDP=3.50D-06 DE=-2.17D-10 OVMax= 1.47D-06

 Cycle   6  Pass 1  IDiag  1:
 RMSU=  2.55D-08    CP:  1.00D+00  1.10D+00  1.09D+00  1.14D+00  1.09D+00
 E= -633.332500251248     Delta-E=       -0.000000000007 Rises=F Damp=F
 DIIS: error= 5.14D-08 at cycle   6 NSaved=   6.
 NSaved= 6 IEnMin= 6 EnMin= -633.332500251248     IErMin= 6 ErrMin= 5.14D-08
 ErrMax= 5.14D-08  0.00D+00 EMaxC= 1.00D-01 BMatC= 1.99D-12 BMatP= 2.13D-11
 IDIUse=1 WtCom= 1.00D+00 WtEn= 0.00D+00
 Coeff-Com: -0.213D-03-0.649D-02-0.115D-01-0.102D-01 0.220D+00 0.808D+00
 Coeff:     -0.213D-03-0.649D-02-0.115D-01-0.102D-01 0.220D+00 0.808D+00
 Gap=     0.240 Goal=   None    Shift=    0.000
 RMSDP=2.03D-08 MaxDP=8.47D-07 DE=-7.16D-12 OVMax= 6.12D-07

 Cycle   7  Pass 1  IDiag  1:
 RMSU=  9.46D-09    CP:  1.00D+00  1.10D+00  1.10D+00  1.17D+00  1.19D+00
                    CP:  9.93D-01
 E= -633.332500251247     Delta-E=        0.000000000001 Rises=F Damp=F
 DIIS: error= 1.88D-08 at cycle   7 NSaved=   7.
 NSaved= 7 IEnMin= 6 EnMin= -633.332500251248     IErMin= 7 ErrMin= 1.88D-08
 ErrMax= 1.88D-08  0.00D+00 EMaxC= 1.00D-01 BMatC= 2.79D-13 BMatP= 1.99D-12
 IDIUse=1 WtCom= 1.00D+00 WtEn= 0.00D+00
 Coeff-Com:  0.637D-03-0.315D-02-0.873D-02-0.266D-01 0.505D-01 0.352D+00
 Coeff-Com:  0.635D+00
 Coeff:      0.637D-03-0.315D-02-0.873D-02-0.266D-01 0.505D-01 0.352D+00
 Coeff:      0.635D+00
 Gap=     0.240 Goal=   None    Shift=    0.000
 RMSDP=5.73D-09 MaxDP=2.64D-07 DE= 1.36D-12 OVMax= 2.73D-07

 Error on total polarization charges =  0.01554
 SCF Done:  E(RCAM-B3LYP) =  -633.332500251     A.U. after    7 cycles
            NFock=  7  Conv=0.57D-08     -V/T= 2.0042
 KE= 6.306978382901D+02 PE=-3.277557801004D+03 EE= 1.112788075182D+03
 Leave Link  502 at Tue Jan 20 21:12:54 2026, MaxMem=  2147483648 cpu:             622.7 elap:              20.0
 (Enter /data/home/wyx/g16/l801.exe)
 DoSCS=F DFT=T ScalE2(SS,OS)=  1.000000  1.000000
 ExpMin= 9.52D-02 ExpMax= 2.70D+04 ExpMxC= 9.22D+02 IAcc=3 IRadAn=         5 AccDes= 0.00D+00
 HarFok:  IExCor=  205 AccDes= 0.00D+00 IRadAn=         5 IDoV=-2 UseB2=F ITyADJ=14
 ICtDFT= 12500011 ScaDFX=  1.000000  1.000000  1.000000  1.000000
 Largest valence mixing into a core orbital is  5.65D-05
 Largest core mixing into a valence orbital is  1.21D-05
 Range of M.O.s used for correlation:    15   356
 NBasis=   356 NAE=    52 NBE=    52 NFC=    14 NFV=     0
 NROrb=    342 NOA=    38 NOB=    38 NVA=   304 NVB=   304

 **** Warning!!: The largest alpha MO coefficient is  0.50820260D+02

 Leave Link  801 at Tue Jan 20 21:12:55 2026, MaxMem=  2147483648 cpu:               1.6 elap:               0.1
 (Enter /data/home/wyx/g16/l914.exe)
 RHF ground state
 Two-electron integral symmetry not used.
 MDV=  2147483648 DFT=T DoStab=F Mixed=T DoRPA=T DoScal=F NonHer=T
 NEqPCM:  Using equilibrium solvation (IEInf=0, Eps=  78.3553, EpsInf=   1.7778)
 Making orbital integer symmetry assigments:
    24 initial guesses have been made.
 Convergence on wavefunction:    0.000001000000000
 Davidson Disk Diagonalization:  ConvIn= 1.00D-06 SkipCon=T Conv= 1.00D-06.
 Max sub-space:  2000 roots to seek:    24 dimension of matrix:        23104
 Iteration     1 Dimension    24 NMult     0 NNew     24
 CISAX will form    24 AO SS matrices at one time.
 NMat=    24 NSing=    24 JSym2X= 0.
 FoFJK:  IHMeth= 1 ICntrl=       0 DoSepK=T KAlg= 0 I1Cent=           0 FoldK=F
 IRaf=         1 NMat=      48 IRICut=       1 DoRegI=T DoRafI=F ISym2E= 0 IDoP0=3 IntGTp=3.
 FoFCou: FMM=F IPFlag=           0 FMFlag=      100000 FMFlg1=           0
         NFxFlg=           0 DoJE=F BraDBF=F KetDBF=F FulRan=T
         wScrn=  0.000000 ICntrl=       500 IOpCl=  0 I1Cent=           0 NGrid=           0
         NMat0=   24 NMatS0=     24 NMatT0=    0 NMatD0=   24 NMtDS0=    0 NMtDT0=    0
 Symmetry not used in FoFCou.
 New state      2 was old state      3
 New state      3 was old state      4
 New state      4 was old state      2
 New state      5 was old state      6
 New state      6 was old state      5
 Excitation Energies [eV] at current iteration:
 Root      1 :     3.894814713639808
 Root      2 :     4.374350139634564
 Root      3 :     4.560549992353701
 Root      4 :     5.529440859145271
 Root      5 :     6.167566524788234
 Root      6 :     6.332932806396157
 Root      7 :     6.828731861914565
 Root      8 :     6.857722731450234
 Root      9 :     7.024981046071102
 Root     10 :     7.146813172168272
 Root     11 :     7.204113752383600
 Root     12 :     7.462357430183449
 Root     13 :     7.621639830868803
 Root     14 :     7.681779301528894
 Root     15 :     7.831867569931547
 Root     16 :     8.008414994325635
 Root     17 :     8.165293474287477
 Root     18 :     8.293134394005349
 Root     19 :     8.343459888343835
 Root     20 :     8.672185299951177
 Root     21 :     8.791749660590957
 Root     22 :     8.898455320032047
 Root     23 :     9.009179037292924
 Root     24 :     9.232339457510964
 Iteration     2 Dimension    36 NMult    24 NNew     12
 CISAX will form    12 AO SS matrices at one time.
 NMat=    12 NSing=    12 JSym2X= 0.
 Root      1 not converged, maximum delta is    0.046879638708195
 Root      2 not converged, maximum delta is    0.072491699245874
 Root      3 not converged, maximum delta is    0.087615198751967
 Root      4 not converged, maximum delta is    0.357936894412033
 Root      5 not converged, maximum delta is    0.385318854872194
 Root      6 not converged, maximum delta is    0.269964506684661
 Excitation Energies [eV] at current iteration:
 Root      1 :     3.476960651427524   Change is   -0.417854062212285
 Root      2 :     4.137711161768030   Change is   -0.236638977866533
 Root      3 :     4.288827204659596   Change is   -0.271722787694105
 Root      4 :     5.080600793646974   Change is   -0.448840065498296
 Root      5 :     5.567249790241989   Change is   -0.600316734546246
 Root      6 :     6.101803816111588   Change is   -0.231128990284569
 Iteration     3 Dimension    48 NMult    36 NNew     12
 CISAX will form    12 AO SS matrices at one time.
 NMat=    12 NSing=    12 JSym2X= 0.
 Root      1 not converged, maximum delta is    0.006892338333444
 Root      2 not converged, maximum delta is    0.011004743322203
 Root      3 not converged, maximum delta is    0.012367167258188
 Root      4 not converged, maximum delta is    0.010123414941517
 Root      5 not converged, maximum delta is    0.010407365749226
 Root      6 not converged, maximum delta is    0.017729444603965
 Excitation Energies [eV] at current iteration:
 Root      1 :     3.462521187712438   Change is   -0.014439463715086
 Root      2 :     4.124481040394657   Change is   -0.013230121373374
 Root      3 :     4.275222341594792   Change is   -0.013604863064804
 Root      4 :     5.060147327031787   Change is   -0.020453466615186
 Root      5 :     5.552641771463072   Change is   -0.014608018778916
 Root      6 :     6.090463284695316   Change is   -0.011340531416272
 Iteration     4 Dimension    60 NMult    48 NNew     12
 CISAX will form    12 AO SS matrices at one time.
 NMat=    12 NSing=    12 JSym2X= 0.
 Root      1 not converged, maximum delta is    0.001743577391372
 Root      2 not converged, maximum delta is    0.002354067316112
 Root      3 not converged, maximum delta is    0.002045603390629
 Root      4 not converged, maximum delta is    0.002956129235972
 Root      5 not converged, maximum delta is    0.002028322098672
 Root      6 not converged, maximum delta is    0.003248752212116
 Excitation Energies [eV] at current iteration:
 Root      1 :     3.461373099958454   Change is   -0.001148087753984
 Root      2 :     4.123558942149764   Change is   -0.000922098244893
 Root      3 :     4.274427192373485   Change is   -0.000795149221306
 Root      4 :     5.058464337281251   Change is   -0.001682989750537
 Root      5 :     5.551220261704096   Change is   -0.001421509758976
 Root      6 :     6.089714908652319   Change is   -0.000748376042998
 Iteration     5 Dimension    72 NMult    60 NNew     12
 CISAX will form    12 AO SS matrices at one time.
 NMat=    12 NSing=    12 JSym2X= 0.
 Root      1 not converged, maximum delta is    0.000503480839501
 Root      2 not converged, maximum delta is    0.000280335764451
 Root      3 not converged, maximum delta is    0.000519450540083
 Root      4 not converged, maximum delta is    0.000633476843283
 Root      5 not converged, maximum delta is    0.000798824000652
 Root      6 not converged, maximum delta is    0.000931178318312
 Excitation Energies [eV] at current iteration:
 Root      1 :     3.461317405567728   Change is   -0.000055694390726
 Root      2 :     4.123517162602683   Change is   -0.000041779547081
 Root      3 :     4.274385217152454   Change is   -0.000041975221032
 Root      4 :     5.058322986675489   Change is   -0.000141350605762
 Root      5 :     5.551096466205885   Change is   -0.000123795498212
 Root      6 :     6.089665755904870   Change is   -0.000049152747448
 Iteration     6 Dimension    84 NMult    72 NNew     12
 CISAX will form    12 AO SS matrices at one time.
 NMat=    12 NSing=    12 JSym2X= 0.
 Root      1 not converged, maximum delta is    0.000101283476363
 Root      2 not converged, maximum delta is    0.000086566072744
 Root      3 not converged, maximum delta is    0.000148684466571
 Root      4 not converged, maximum delta is    0.000325765685639
 Root      5 not converged, maximum delta is    0.000284779179773
 Root      6 not converged, maximum delta is    0.000227724896565
 Excitation Energies [eV] at current iteration:
 Root      1 :     3.461314690422917   Change is   -0.000002715144812
 Root      2 :     4.123514550010747   Change is   -0.000002612591936
 Root      3 :     4.274382954985406   Change is   -0.000002262167048
 Root      4 :     5.058314057692314   Change is   -0.000008928983174
 Root      5 :     5.551088203960166   Change is   -0.000008262245718
 Root      6 :     6.089661879095400   Change is   -0.000003876809471
 Iteration     7 Dimension    96 NMult    84 NNew     12
 CISAX will form    12 AO SS matrices at one time.
 NMat=    12 NSing=    12 JSym2X= 0.
 Root      1 not converged, maximum delta is    0.000017407451282
 Root      2 not converged, maximum delta is    0.000015708139603
 Root      3 not converged, maximum delta is    0.000031071853166
 Root      4 not converged, maximum delta is    0.000085472729220
 Root      5 not converged, maximum delta is    0.000083483005292
 Root      6 not converged, maximum delta is    0.000104657781895
 Excitation Energies [eV] at current iteration:
 Root      1 :     3.461314569159208   Change is   -0.000000121263708
 Root      2 :     4.123514380051017   Change is   -0.000000169959730
 Root      3 :     4.274382830294180   Change is   -0.000000124691225
 Root      4 :     5.058313332546223   Change is   -0.000000725146092
 Root      5 :     5.551087606113231   Change is   -0.000000597846935
 Root      6 :     6.089661488168156   Change is   -0.000000390927243
 Iteration     8 Dimension   108 NMult    96 NNew     12
 CISAX will form    12 AO SS matrices at one time.
 NMat=    12 NSing=    12 JSym2X= 0.
 Root      1 not converged, maximum delta is    0.000002615166002
 Root      2 not converged, maximum delta is    0.000003290760752
 Root      3 not converged, maximum delta is    0.000004628401355
 Root      4 not converged, maximum delta is    0.000013914580183
 Root      5 not converged, maximum delta is    0.000018879970593
 Root      6 not converged, maximum delta is    0.000025522503820
 Excitation Energies [eV] at current iteration:
 Root      1 :     3.461314565664650   Change is   -0.000000003494558
 Root      2 :     4.123514372574754   Change is   -0.000000007476262
 Root      3 :     4.274382823715302   Change is   -0.000000006578878
 Root      4 :     5.058313292491458   Change is   -0.000000040054764
 Root      5 :     5.551087566708552   Change is   -0.000000039404679
 Root      6 :     6.089661452496912   Change is   -0.000000035671244
 Iteration     9 Dimension   120 NMult   108 NNew     12
 CISAX will form    12 AO SS matrices at one time.
 NMat=    12 NSing=    12 JSym2X= 0.
 Root      1 has converged.
 Root      2 has converged.
 Root      3 has converged.
 Root      4 not converged, maximum delta is    0.000002289808116
 Root      5 not converged, maximum delta is    0.000002893515871
 Root      6 not converged, maximum delta is    0.000003581060917
 Excitation Energies [eV] at current iteration:
 Root      1 :     3.461314565565113   Change is   -0.000000000099537
 Root      2 :     4.123514372342099   Change is   -0.000000000232656
 Root      3 :     4.274382823465047   Change is   -0.000000000250255
 Root      4 :     5.058313290808031   Change is   -0.000000001683427
 Root      5 :     5.551087564438011   Change is   -0.000000002270542
 Root      6 :     6.089661450274716   Change is   -0.000000002222197
 Iteration    10 Dimension   126 NMult   120 NNew      6
 CISAX will form     6 AO SS matrices at one time.
 NMat=     6 NSing=     6 JSym2X= 0.
 Root      1 has converged.
 Root      2 has converged.
 Root      3 has converged.
 Root      4 has converged.
 Root      5 has converged.
 Root      6 has converged.
 Excitation Energies [eV] at current iteration:
 Root      1 :     3.461314565564804   Change is   -0.000000000000309
 Root      2 :     4.123514372341022   Change is   -0.000000000001076
 Root      3 :     4.274382823462509   Change is   -0.000000000002538
 Root      4 :     5.058313290737189   Change is   -0.000000000070842
 Root      5 :     5.551087564320573   Change is   -0.000000000117437
 Root      6 :     6.089661450125154   Change is   -0.000000000149561
 Convergence achieved on expansion vectors.
 ***********************************************************************
 Excited states from <AA,BB:AA,BB> singles matrix:
 ***********************************************************************
 
 1PDM for each excited state written to RWF  633
 Ground to excited state transition densities written to RWF  633
 Ground to excited state transition electric dipole moments (Au):
       state          X           Y           Z        Dip. S.      Osc.
         1        -1.6224     -0.3709     -0.3815      2.9154      0.2472
         2         0.1638      0.0613      0.0816      0.0372      0.0038
         3         0.0621     -0.1690     -0.0312      0.0334      0.0035
         4        -0.5105      1.9359      0.0677      4.0129      0.4973
         5        -0.4068      1.3488     -0.0566      1.9879      0.2704
         6         0.0561     -0.2712      0.0738      0.0821      0.0123
 Ground to excited state transition velocity dipole moments (Au):
       state          X           Y           Z        Dip. S.      Osc.
         1         0.1971      0.0486      0.0475      0.0435      0.2277
         2        -0.0244     -0.0091     -0.0094      0.0008      0.0034
         3        -0.0088      0.0252      0.0015      0.0007      0.0030
         4         0.0874     -0.3468     -0.0089      0.1280      0.4592
         5         0.0818     -0.2708      0.0102      0.0801      0.2619
         6        -0.0067      0.0568     -0.0350      0.0045      0.0134
 Ground to excited state transition magnetic dipole moments (Au):
       state          X           Y           Z
         1         1.3271      0.3154     -5.6897
         2         0.5270      0.0830      1.1143
         3         0.4479     -0.8979      0.3785
         4         0.2188     -0.0575     -0.9516
         5         0.6911      0.0601     -1.1638
         6        -0.7445     -0.1173     -0.0465
 Ground to excited state transition velocity quadrupole moments (Au):
       state          XX          YY          ZZ          XY          XZ          YZ
         1        -0.9215      1.7760      0.0490      3.5121     -0.0157      0.9022
         2         0.1034     -0.3332     -0.0242     -0.4556     -0.0059     -0.1027
         3        -0.0243      1.1084     -0.0071     -0.2378      0.0427      0.0866
         4         0.6541    -14.9104      0.0826      3.2906      0.4372     -0.3718
         5        -0.0261    -11.7684     -0.0001      2.5588      0.1763      0.1017
         6         0.3703      2.6719     -0.2465     -0.3152      0.2181     -0.6022
 <0|del|b> * <b|rxdel|0> + <0|del|b> * <b|delr+rdel|0>
 Rotatory Strengths (R) in cgs (10**-40 erg-esu-cm/Gauss)
       state          XX          YY          ZZ    R(velocity)    E-M Angle
         1      -242.4936      7.3832    273.2498     12.7131       89.68
         2       -16.2704    -58.4645    -37.5579    -37.4309      134.64
         3       -52.7760     -8.4389    -55.5878    -38.9342      154.98
         4       286.7771     46.3473   -152.2810     60.2812       82.19
         5        79.2126     46.6530    -27.3823     32.8278       85.75
         6       -10.0859     -0.5928     10.5637     -0.0383       90.00
 1/2[<0|r|b>*<b|rxdel|0> + (<0|rxdel|b>*<b|r|0>)*]
 Rotatory Strengths (R) in cgs (10**-40 erg-esu-cm/Gauss)
       state          XX          YY          ZZ     R(length)
         1      1522.6319     82.7031  -1534.8741     23.4870
         2       -61.0309     -3.5996    -64.3101    -42.9802
         3       -19.6676   -107.2949      8.3630    -39.5332
         4        78.9997     78.6764     45.5495     67.7419
         5       198.8469    -57.3114    -46.6025     31.6443
         6        29.5206    -22.4905      2.4290      3.1530
  1/2[<0|del|b>*<b|r|0> + (<0|r|b>*<b|del|0>)*] (Au)
       state          X           Y           Z        Dip. S.   Osc.(frdel)
         1        -0.3197     -0.0180     -0.0181      0.3559      0.2372
         2        -0.0040     -0.0006     -0.0008      0.0053      0.0036
         3        -0.0005     -0.0043     -0.0000      0.0048      0.0032
         4        -0.0446     -0.6715     -0.0006      0.7167      0.4778
         5        -0.0333     -0.3653     -0.0006      0.3992      0.2661
         6        -0.0004     -0.0154     -0.0026      0.0184      0.0122

 Excitation energies and oscillator strengths:
 
 Excited state symmetry could not be determined.
 Excited State   1:      Singlet-?Sym    3.4613 eV  358.20 nm  f=0.2472  <S**2>=0.000
      52 -> 53         0.69786
 
 Excited state symmetry could not be determined.
 Excited State   2:      Singlet-?Sym    4.1235 eV  300.68 nm  f=0.0038  <S**2>=0.000
      50 -> 53         0.12880
      50 -> 54        -0.20488
      51 -> 53         0.55309
      51 -> 54        -0.32138
 This state for optimization and/or second-order correction.
 Total Energy, E(TD-HF/TD-DFT) =  -633.180963886    
 Copying the excited state density for this state as the 1-particle RhoCI density.
 
 Excited state symmetry could not be determined.
 Excited State   3:      Singlet-?Sym    4.2744 eV  290.06 nm  f=0.0035  <S**2>=0.000
      49 -> 53         0.25637
      49 -> 54         0.17814
      50 -> 53         0.50091
      50 -> 54         0.24631
      50 -> 58        -0.10656
      51 -> 53        -0.11838
      51 -> 54        -0.21655
 
 Excited state symmetry could not be determined.
 Excited State   4:      Singlet-?Sym    5.0583 eV  245.11 nm  f=0.4973  <S**2>=0.000
      49 -> 53         0.13479
      52 -> 54         0.68307
 
 Excited state symmetry could not be determined.
 Excited State   5:      Singlet-?Sym    5.5511 eV  223.35 nm  f=0.2704  <S**2>=0.000
      49 -> 53         0.58911
      50 -> 53        -0.29439
      51 -> 53         0.16335
      52 -> 54        -0.13749
 
 Excited state symmetry could not be determined.
 Excited State   6:      Singlet-?Sym    6.0897 eV  203.60 nm  f=0.0123  <S**2>=0.000
      52 -> 55         0.66513
      52 -> 56        -0.13327
 SavETr:  write IOETrn=   770 NScale= 10 NData=  16 NLR=1 NState=    6 LETran=     118.
 The selected state is a singlet.
 CISGrd: IGrad=2 NXY=2 DFT=T
 CISAX will form     1 AO SS matrices at one time.
 NMat=     1 NSing=     1 JSym2X= 0.
 GePol: Maximum number of non-zero 1st derivatives   =     196
 Leave Link  914 at Tue Jan 20 21:16:29 2026, MaxMem=  2147483648 cpu:            6785.3 elap:             213.0
 (Enter /data/home/wyx/g16/l1002.exe)
 Minotr:  Closed shell wavefunction.
          Computing CIS/TDA/TD derivatives.
          Using Z-Vector for PSCF gradient.
          Skipping F1 and S1 gradient terms here.
          IDoAtm=11111111111111111111111111111
 NEqPCM:  Using equilibrium solvation (IEInf=0, Eps=  78.3553, EpsInf=   1.7778)
          Frozen-core window.
          Direct CPHF calculation.
          Differentiating once with respect to electric field.
                with respect to dipole field.
          Differentiating once with respect to nuclear coordinates.
          Requested convergence is 1.0D-10 RMS, and 1.0D-09 maximum.
          NewPWx=F KeepS1=T KeepF1=T KeepIn=T MapXYZ=F SortEE=F KeepMc=T.
 Two-electron integral symmetry not used.
          MDV=    2147483648 using IRadAn=       5.
          Solving linear equations separately, MaxMat=     384.
          There are     1 degrees of freedom in the 1st order CPHF.  IDoFFX=0 NUNeed=     1.
 FoFJK:  IHMeth= 1 ICntrl=       0 DoSepK=T KAlg= 0 I1Cent=           0 FoldK=F
 IRaf=         1 NMat=       1 IRICut=       1 DoRegI=T DoRafI=F ISym2E= 0 IDoP0=0 IntGTp=1.
 FoFCou: FMM=F IPFlag=           0 FMFlag=      100000 FMFlg1=           0
         NFxFlg=           0 DoJE=T BraDBF=F KetDBF=F FulRan=T
         wScrn=  0.000000 ICntrl=       500 IOpCl=  0 I1Cent=           0 NGrid=           0
         NMat0=    1 NMatS0=      1 NMatT0=    0 NMatD0=    1 NMtDS0=    0 NMtDT0=    0
 Symmetry not used in FoFCou.
 LinEq1:  Iter=  0 NonCon=     1 RMS=7.41D-03 Max=2.80D-01 NDo=     1
 AX will form     1 AO Fock derivatives at one time.
 LinEq1:  Iter=  1 NonCon=     1 RMS=1.99D-03 Max=7.46D-02 NDo=     1
 LinEq1:  Iter=  2 NonCon=     1 RMS=1.40D-03 Max=7.89D-02 NDo=     1
 LinEq1:  Iter=  3 NonCon=     1 RMS=5.56D-04 Max=2.91D-02 NDo=     1
 LinEq1:  Iter=  4 NonCon=     1 RMS=2.95D-04 Max=1.29D-02 NDo=     1
 LinEq1:  Iter=  5 NonCon=     1 RMS=1.49D-04 Max=7.32D-03 NDo=     1
 LinEq1:  Iter=  6 NonCon=     1 RMS=7.33D-05 Max=2.28D-03 NDo=     1
 LinEq1:  Iter=  7 NonCon=     1 RMS=4.05D-05 Max=1.61D-03 NDo=     1
 LinEq1:  Iter=  8 NonCon=     1 RMS=1.64D-05 Max=5.81D-04 NDo=     1
 LinEq1:  Iter=  9 NonCon=     1 RMS=1.24D-05 Max=6.00D-04 NDo=     1
 LinEq1:  Iter= 10 NonCon=     1 RMS=4.79D-06 Max=8.90D-05 NDo=     1
 LinEq1:  Iter= 11 NonCon=     1 RMS=2.93D-06 Max=1.09D-04 NDo=     1
 LinEq1:  Iter= 12 NonCon=     1 RMS=9.90D-07 Max=2.64D-05 NDo=     1
 LinEq1:  Iter= 13 NonCon=     1 RMS=4.55D-07 Max=1.29D-05 NDo=     1
 LinEq1:  Iter= 14 NonCon=     1 RMS=1.75D-07 Max=6.16D-06 NDo=     1
 LinEq1:  Iter= 15 NonCon=     1 RMS=8.02D-08 Max=3.35D-06 NDo=     1
 LinEq1:  Iter= 16 NonCon=     1 RMS=3.48D-08 Max=1.42D-06 NDo=     1
 LinEq1:  Iter= 17 NonCon=     1 RMS=1.32D-08 Max=3.62D-07 NDo=     1
 LinEq1:  Iter= 18 NonCon=     1 RMS=5.45D-09 Max=1.03D-07 NDo=     1
 LinEq1:  Iter= 19 NonCon=     1 RMS=1.52D-09 Max=3.07D-08 NDo=     1
 LinEq1:  Iter= 20 NonCon=     1 RMS=3.94D-10 Max=1.09D-08 NDo=     1
 LinEq1:  Iter= 21 NonCon=     1 RMS=1.47D-10 Max=3.60D-09 NDo=     1
 LinEq1:  Iter= 22 NonCon=     1 RMS=5.87D-11 Max=1.49D-09 NDo=     1
 LinEq1:  Iter= 23 NonCon=     0 RMS=1.80D-11 Max=6.53D-10 NDo=     1
 Linear equations converged to 1.000D-10 1.000D-09 after    23 iterations.
 End of Minotr F.D. properties file   721 does not exist.
 End of Minotr F.D. properties file   722 does not exist.
 End of Minotr F.D. properties file   788 does not exist.
 Leave Link 1002 at Tue Jan 20 21:18:13 2026, MaxMem=  2147483648 cpu:            2886.4 elap:             103.1
 (Enter /data/home/wyx/g16/l601.exe)
 Copying SCF densities to generalized density rwf, IOpCl= 0 IROHF=0.

 **********************************************************************

            Population analysis using the SCF density.

 **********************************************************************

 Alpha  occ. eigenvalues --  -19.17998 -19.17626 -14.43973 -10.33548 -10.33270
 Alpha  occ. eigenvalues --  -10.31927 -10.31452 -10.25575 -10.25010 -10.24913
 Alpha  occ. eigenvalues --  -10.24748 -10.24553 -10.24191 -10.23890  -1.12139
 Alpha  occ. eigenvalues --   -1.11764  -1.07344  -0.91141  -0.90230  -0.83820
 Alpha  occ. eigenvalues --   -0.82473  -0.81462  -0.78469  -0.73968  -0.70990
 Alpha  occ. eigenvalues --   -0.68595  -0.61561  -0.58155  -0.56772  -0.55167
 Alpha  occ. eigenvalues --   -0.54444  -0.53999  -0.52576  -0.51912  -0.50671
 Alpha  occ. eigenvalues --   -0.50129  -0.49508  -0.49055  -0.48487  -0.48136
 Alpha  occ. eigenvalues --   -0.46802  -0.45482  -0.44963  -0.43294  -0.43052
 Alpha  occ. eigenvalues --   -0.42472  -0.42179  -0.42012  -0.32839  -0.32368
 Alpha  occ. eigenvalues --   -0.31452  -0.26279
 Alpha virt. eigenvalues --   -0.02250   0.02398   0.06536   0.08260   0.08839
 Alpha virt. eigenvalues --    0.10148   0.10745   0.12034   0.12748   0.13601
 Alpha virt. eigenvalues --    0.14294   0.15078   0.15736   0.16191   0.16972
 Alpha virt. eigenvalues --    0.17478   0.17730   0.18042   0.18217   0.19197
 Alpha virt. eigenvalues --    0.20002   0.22117   0.22748   0.23430   0.23528
 Alpha virt. eigenvalues --    0.24192   0.24866   0.25592   0.25765   0.26462
 Alpha virt. eigenvalues --    0.26823   0.27195   0.28660   0.29266   0.30225
 Alpha virt. eigenvalues --    0.31551   0.32014   0.32796   0.33607   0.34349
 Alpha virt. eigenvalues --    0.35416   0.35836   0.36834   0.38092   0.38944
 Alpha virt. eigenvalues --    0.40071   0.40897   0.41874   0.42326   0.42736
 Alpha virt. eigenvalues --    0.43983   0.44138   0.45333   0.45961   0.46098
 Alpha virt. eigenvalues --    0.47283   0.47769   0.47984   0.48323   0.48901
 Alpha virt. eigenvalues --    0.49520   0.50035   0.50694   0.51291   0.51553
 Alpha virt. eigenvalues --    0.52775   0.53170   0.53393   0.54184   0.54452
 Alpha virt. eigenvalues --    0.54658   0.55866   0.56234   0.56637   0.58093
 Alpha virt. eigenvalues --    0.58478   0.59271   0.60555   0.60977   0.62350
 Alpha virt. eigenvalues --    0.63079   0.65409   0.65884   0.66509   0.67834
 Alpha virt. eigenvalues --    0.68717   0.70150   0.71346   0.72382   0.73102
 Alpha virt. eigenvalues --    0.73618   0.73803   0.74940   0.76297   0.77410
 Alpha virt. eigenvalues --    0.78172   0.79586   0.81753   0.83511   0.84291
 Alpha virt. eigenvalues --    0.88948   0.92733   0.97958   0.99184   1.25093
 Alpha virt. eigenvalues --    1.25812   1.27317   1.27631   1.29328   1.31623
 Alpha virt. eigenvalues --    1.32390   1.32923   1.34080   1.35356   1.35947
 Alpha virt. eigenvalues --    1.36493   1.36993   1.38145   1.39297   1.39855
 Alpha virt. eigenvalues --    1.40065   1.40325   1.41179   1.41658   1.41800
 Alpha virt. eigenvalues --    1.43257   1.44110   1.44721   1.45248   1.46880
 Alpha virt. eigenvalues --    1.48045   1.48871   1.49559   1.50606   1.51103
 Alpha virt. eigenvalues --    1.52155   1.52566   1.54174   1.54309   1.57492
 Alpha virt. eigenvalues --    1.58160   1.60321   1.60651   1.61139   1.62134
 Alpha virt. eigenvalues --    1.62604   1.63290   1.64262   1.65228   1.65826
 Alpha virt. eigenvalues --    1.67169   1.67601   1.67935   1.68029   1.68808
 Alpha virt. eigenvalues --    1.68958   1.69976   1.70756   1.72316   1.72473
 Alpha virt. eigenvalues --    1.73151   1.75094   1.76030   1.76805   1.78673
 Alpha virt. eigenvalues --    1.79671   1.83507   1.84633   1.86153   1.86569
 Alpha virt. eigenvalues --    1.87021   1.87147   1.88448   1.89374   1.90983
 Alpha virt. eigenvalues --    1.91547   1.94412   1.95413   1.97910   1.99501
 Alpha virt. eigenvalues --    2.00776   2.03724   2.04284   2.06306   2.09375
 Alpha virt. eigenvalues --    2.11345   2.12862   2.14455   2.16377   2.19448
 Alpha virt. eigenvalues --    2.20640   2.21170   2.21736   2.22677   2.25846
 Alpha virt. eigenvalues --    2.26777   2.27415   2.28854   2.30247   2.31290
 Alpha virt. eigenvalues --    2.32582   2.34598   2.35678   2.36309   2.37691
 Alpha virt. eigenvalues --    2.39443   2.40065   2.41528   2.44135   2.44782
 Alpha virt. eigenvalues --    2.45702   2.47513   2.49728   2.50490   2.51904
 Alpha virt. eigenvalues --    2.53094   2.53279   2.54816   2.56787   2.58595
 Alpha virt. eigenvalues --    2.59011   2.59903   2.60726   2.61297   2.62443
 Alpha virt. eigenvalues --    2.64354   2.65363   2.67105   2.67661   2.69182
 Alpha virt. eigenvalues --    2.70261   2.71916   2.73036   2.73447   2.74600
 Alpha virt. eigenvalues --    2.76236   2.76612   2.77335   2.78040   2.79154
 Alpha virt. eigenvalues --    2.80640   2.81164   2.82579   2.83423   2.84438
 Alpha virt. eigenvalues --    2.85545   2.85854   2.87568   2.90476   2.91674
 Alpha virt. eigenvalues --    2.97535   2.99678   3.01190   3.03688   3.09946
 Alpha virt. eigenvalues --    3.12020   3.14709   3.16936   3.16990   3.19171
 Alpha virt. eigenvalues --    3.20327   3.22126   3.25089   3.26284   3.26963
 Alpha virt. eigenvalues --    3.27325   3.29241   3.33268   3.34514   3.36354
 Alpha virt. eigenvalues --    3.37091   3.38757   3.39645   3.40128   3.41349
 Alpha virt. eigenvalues --    3.42727   3.44674   3.45282   3.46149   3.47886
 Alpha virt. eigenvalues --    3.48124   3.49656   3.55227   3.58034   3.59363
 Alpha virt. eigenvalues --    3.60039   3.89564   3.99261   4.34146   4.35487
 Alpha virt. eigenvalues --   21.62839  21.78782  22.08097  22.10978  22.11537
 Alpha virt. eigenvalues --   22.14111  22.15376  22.17628  22.21142  22.24976
 Alpha virt. eigenvalues --   22.30667  31.93466  43.62571  43.64773
          Condensed to atoms (all electrons):
               1          2          3          4          5          6
     1  O    7.956408   0.000000  -0.000253   0.000017   0.015919   0.017532
     2  O    0.000000   7.980261   0.000377   0.000030  -0.202768   0.000856
     3  N   -0.000253   0.000377   6.399975   0.374858  -0.110765   0.331962
     4  H    0.000017   0.000030   0.374858   0.403050   0.016915  -0.045805
     5  C    0.015919  -0.202768  -0.110765   0.016915   6.934861  -0.051838
     6  C    0.017532   0.000856   0.331962  -0.045805  -0.051838   5.626810
     7  C   -0.000483  -0.027883   0.371171  -0.040565   0.341936  -0.084090
     8  C   -0.000116   0.714306   0.004875  -0.000593  -0.225421   0.025168
     9  C   -0.032916   0.017116   0.016037  -0.000289  -0.414875  -0.149736
    10  H    0.003158   0.000055   0.003868   0.000006  -0.029996  -0.014786
    11  H    0.018874   0.000002  -0.001318   0.000018  -0.103522   0.024337
    12  C   -0.217545  -0.002077  -0.094456   0.014719   0.122170  -0.167875
    13  C    0.708576  -0.000033  -0.000150   0.000343   0.072987   0.183243
    14  C   -0.000004  -0.014990  -0.035676  -0.008089  -0.063923   0.007727
    15  H   -0.000000   0.004162   0.003132   0.001012   0.016175   0.006293
    16  H   -0.000000   0.001436  -0.003332   0.000881  -0.003403  -0.002006
    17  H   -0.000000   0.002017   0.002015   0.000759  -0.009289  -0.000741
    18  C   -0.000133  -0.106196  -0.000588   0.000017  -0.271834   0.000541
    19  H   -0.000004   0.009529   0.000004  -0.000001   0.026234   0.000025
    20  H    0.000019   0.001174   0.000012  -0.000000   0.003725   0.000244
    21  H    0.000069   0.003391   0.000118   0.000000   0.039769  -0.001015
    22  C   -0.107166   0.000000   0.000001   0.000107   0.003893  -0.008299
    23  H    0.004673  -0.000000  -0.000100  -0.000051  -0.000553  -0.034287
    24  H    0.001194  -0.000000  -0.000042  -0.000017  -0.000114   0.011461
    25  H    0.007861   0.000000   0.000033  -0.000002  -0.000130  -0.001420
    26  C    0.000895   0.000002  -0.030411  -0.005850  -0.000512   0.178533
    27  H   -0.000228   0.000000   0.003322   0.000900   0.000107  -0.044626
    28  H   -0.000044  -0.000000  -0.002367   0.000433   0.000413  -0.035336
    29  H    0.000025  -0.000000  -0.000304   0.000777  -0.000600  -0.047888
               7          8          9         10         11         12
     1  O   -0.000483  -0.000116  -0.032916   0.003158   0.018874  -0.217545
     2  O   -0.027883   0.714306   0.017116   0.000055   0.000002  -0.002077
     3  N    0.371171   0.004875   0.016037   0.003868  -0.001318  -0.094456
     4  H   -0.040565  -0.000593  -0.000289   0.000006   0.000018   0.014719
     5  C    0.341936  -0.225421  -0.414875  -0.029996  -0.103522   0.122170
     6  C   -0.084090   0.025168  -0.149736  -0.014786   0.024337  -0.167875
     7  C    5.440183  -0.163405  -0.162155  -0.003725   0.018214  -0.009210
     8  C   -0.163405   5.325235   0.066164  -0.005374  -0.007567  -0.026303
     9  C   -0.162155   0.066164   6.197570   0.396363   0.516987   0.074327
    10  H   -0.003725  -0.005374   0.396363   0.548807  -0.034170  -0.024988
    11  H    0.018214  -0.007567   0.516987  -0.034170   0.504547  -0.104139
    12  C   -0.009210  -0.026303   0.074327  -0.024988  -0.104139   7.198878
    13  C    0.010631  -0.005251  -0.261322   0.003081  -0.001193  -0.366943
    14  C    0.247345  -0.043226   0.010207  -0.001321   0.000485  -0.004138
    15  H   -0.068796   0.005439  -0.000209   0.000078  -0.000002  -0.001077
    16  H   -0.026935  -0.001165   0.000556  -0.000068   0.000050   0.000910
    17  H   -0.032530  -0.008330  -0.000544   0.000192  -0.000055  -0.000076
    18  C    0.003185   0.314232  -0.001242  -0.008475   0.008509  -0.003584
    19  H    0.000288  -0.053902   0.000244  -0.000058   0.000448  -0.000206
    20  H    0.001811  -0.025516  -0.009347   0.001049  -0.002621  -0.003772
    21  H   -0.000646  -0.060589  -0.008611   0.002116  -0.004711   0.006167
    22  C   -0.000022  -0.000047   0.002399   0.001394   0.001361  -0.248429
    23  H    0.000021  -0.000012   0.003414  -0.000110  -0.000104   0.063810
    24  H    0.000046   0.000003  -0.001872   0.000131  -0.000115  -0.012119
    25  H    0.000004   0.000004   0.000228  -0.000030  -0.000153   0.024673
    26  C    0.002114   0.000350   0.018120  -0.000742   0.000022  -0.075378
    27  H   -0.000827   0.000004  -0.001005  -0.000077   0.000001  -0.008014
    28  H   -0.000838  -0.000010  -0.000159  -0.000025   0.000045  -0.020186
    29  H    0.003894  -0.000005  -0.000468   0.000099  -0.000009   0.024287
              13         14         15         16         17         18
     1  O    0.708576  -0.000004  -0.000000  -0.000000  -0.000000  -0.000133
     2  O   -0.000033  -0.014990   0.004162   0.001436   0.002017  -0.106196
     3  N   -0.000150  -0.035676   0.003132  -0.003332   0.002015  -0.000588
     4  H    0.000343  -0.008089   0.001012   0.000881   0.000759   0.000017
     5  C    0.072987  -0.063923   0.016175  -0.003403  -0.009289  -0.271834
     6  C    0.183243   0.007727   0.006293  -0.002006  -0.000741   0.000541
     7  C    0.010631   0.247345  -0.068796  -0.026935  -0.032530   0.003185
     8  C   -0.005251  -0.043226   0.005439  -0.001165  -0.008330   0.314232
     9  C   -0.261322   0.010207  -0.000209   0.000556  -0.000544  -0.001242
    10  H    0.003081  -0.001321   0.000078  -0.000068   0.000192  -0.008475
    11  H   -0.001193   0.000485  -0.000002   0.000050  -0.000055   0.008509
    12  C   -0.366943  -0.004138  -0.001077   0.000910  -0.000076  -0.003584
    13  C    5.411243  -0.000079  -0.000011  -0.000027   0.000001   0.000315
    14  C   -0.000079   5.083216   0.384947   0.409630   0.427309   0.001353
    15  H   -0.000011   0.384947   0.569740  -0.025039  -0.027320   0.000289
    16  H   -0.000027   0.409630  -0.025039   0.511236  -0.027444  -0.000065
    17  H    0.000001   0.427309  -0.027320  -0.027444   0.510954  -0.000265
    18  C    0.000315   0.001353   0.000289  -0.000065  -0.000265   5.356240
    19  H   -0.000012   0.000079  -0.000006  -0.000017   0.000029   0.388781
    20  H   -0.000023  -0.000283  -0.000006  -0.000006   0.000031   0.396158
    21  H    0.000418   0.000085  -0.000017   0.000004  -0.000044   0.381983
    22  C    0.284560  -0.000024   0.000002   0.000000  -0.000000   0.000022
    23  H   -0.088621  -0.000002   0.000000   0.000000   0.000000   0.000003
    24  H   -0.021506  -0.000000   0.000000   0.000000  -0.000000  -0.000002
    25  H   -0.042579   0.000000   0.000000  -0.000000   0.000000  -0.000001
    26  C   -0.054051   0.001466  -0.000001  -0.000196   0.000060   0.000025
    27  H   -0.005792   0.000096  -0.000013   0.000001  -0.000001  -0.000000
    28  H    0.006299  -0.000106   0.000003  -0.000015   0.000004  -0.000001
    29  H   -0.000323  -0.000242   0.000134   0.000003  -0.000005   0.000000
              19         20         21         22         23         24
     1  O   -0.000004   0.000019   0.000069  -0.107166   0.004673   0.001194
     2  O    0.009529   0.001174   0.003391   0.000000  -0.000000  -0.000000
     3  N    0.000004   0.000012   0.000118   0.000001  -0.000100  -0.000042
     4  H   -0.000001  -0.000000   0.000000   0.000107  -0.000051  -0.000017
     5  C    0.026234   0.003725   0.039769   0.003893  -0.000553  -0.000114
     6  C    0.000025   0.000244  -0.001015  -0.008299  -0.034287   0.011461
     7  C    0.000288   0.001811  -0.000646  -0.000022   0.000021   0.000046
     8  C   -0.053902  -0.025516  -0.060589  -0.000047  -0.000012   0.000003
     9  C    0.000244  -0.009347  -0.008611   0.002399   0.003414  -0.001872
    10  H   -0.000058   0.001049   0.002116   0.001394  -0.000110   0.000131
    11  H    0.000448  -0.002621  -0.004711   0.001361  -0.000104  -0.000115
    12  C   -0.000206  -0.003772   0.006167  -0.248429   0.063810  -0.012119
    13  C   -0.000012  -0.000023   0.000418   0.284560  -0.088621  -0.021506
    14  C    0.000079  -0.000283   0.000085  -0.000024  -0.000002  -0.000000
    15  H   -0.000006  -0.000006  -0.000017   0.000002   0.000000   0.000000
    16  H   -0.000017  -0.000006   0.000004   0.000000   0.000000   0.000000
    17  H    0.000029   0.000031  -0.000044  -0.000000   0.000000  -0.000000
    18  C    0.388781   0.396158   0.381983   0.000022   0.000003  -0.000002
    19  H    0.507557  -0.009991  -0.020141  -0.000000   0.000000   0.000000
    20  H   -0.009991   0.501853  -0.026235  -0.000013  -0.000000   0.000000
    21  H   -0.020141  -0.026235   0.533079   0.000013  -0.000000  -0.000000
    22  C   -0.000000  -0.000013   0.000013   5.411868   0.400100   0.401168
    23  H    0.000000  -0.000000  -0.000000   0.400100   0.533915  -0.026088
    24  H    0.000000   0.000000  -0.000000   0.401168  -0.026088   0.490035
    25  H   -0.000000  -0.000000  -0.000000   0.383649  -0.021657  -0.008243
    26  C    0.000000   0.000006  -0.000014  -0.028194   0.015225  -0.015604
    27  H   -0.000000  -0.000000  -0.000000   0.009511  -0.010613  -0.000920
    28  H   -0.000000   0.000000  -0.000000  -0.011241  -0.001196   0.001157
    29  H    0.000000  -0.000000   0.000000   0.001935   0.000729   0.000212
              25         26         27         28         29
     1  O    0.007861   0.000895  -0.000228  -0.000044   0.000025
[...]
 .00000606,0.00000869,0.00002267,0.00002252,0.00000450,-0.00001447,0.00
 000248,-0.00000728,-0.00001110,-0.00001097,-0.00000363,-0.00000510,0.0
 0001786,-0.05072036,0.00229205,-0.00253124,0.04929967,-0.00473582,-0.0
 0450181,-0.00144135,-0.00003804,-0.00000340,0.00003070,0.00000424,0.00
 002845,0.00009515,0.00001047,0.00000418,-0.00003489,0.00009696,0.00003
 658,0.00001182,-0.00015706,-0.00038220,0.00022455,-0.00005909,0.000013
 98,0.00012197,-0.00003129,-0.00003194,-0.00009752,-0.00001003,-0.00013
 655,-0.00046035,0.00011617,0.00001473,0.00004819,-0.00014708,0.0000387
 8,0.00008779,-0.00001410,0.00046818,-0.00113616,0.00493898,-0.01194843
 ,0.01506010,0.00000934,0.00000555,-0.00002740,-0.00001954,-0.00001400,
 -0.00000213,0.00001158,0.00002660,0.00000336,0.00000102,-0.00000852,0.
 00000294,0.00001323,0.00001326,0.00001713,0.00000025,-0.00000471,-0.00
 000107,-0.00000618,-0.00000414,-0.00000590,0.00000255,0.00000712,0.000
 00916,0.00146940,-0.15157301,0.14006404,-0.00389337,0.16628970,-0.0001
 6175,-0.00090349,-0.00049873,-0.00007219,0.00000990,-0.00000973,-0.000
 18925,-0.00018364,-0.00007062,0.00005595,-0.00000134,0.00007000,-0.000
 02622,0.00001533,-0.00001559,0.00026828,0.00068690,0.00011887,0.000032
 33,0.00002231,-0.00002564,0.00008523,-0.00002306,0.00001249,0.00014627
 ,-0.00001190,-0.00000795,-0.00000492,-0.00004092,0.00001045,-0.0000146
 9,-0.00002467,-0.00003568,0.00028439,0.00015805,0.00034079,-0.00049969
 ,-0.00312485,0.00250154,-0.00000283,-0.00002488,-0.00000036,-0.0000004
 1,0.00000025,-0.00000058,0.00000561,0.00000604,0.00000032,-0.00000666,
 -0.00000197,-0.00000076,-0.00000540,0.00000923,0.00000125,-0.00000015,
 -0.00000712,0.00000287,-0.00000038,-0.00000690,-0.00000208,-0.00000224
 ,-0.00000423,0.00000090,-0.00137275,0.13676092,-0.21405225,0.00494604,
 -0.14943385,0.22934306,-0.00148994,-0.00105177,0.00270340,-0.00024888,
 0.00003077,-0.00012891,-0.00107812,0.00075418,-0.00037926,-0.00003224,
 -0.00012179,-0.00007487,-0.00011006,0.00019081,0.00002877,0.00067459,-
 0.00167944,0.00010191,0.00024231,-0.00004622,-0.00009627,0.00030210,-0
 .00009073,0.00022025,0.00000430,-0.00023612,0.00064905,-0.00015657,-0.
 00005520,-0.00012403,0.00007854,0.00000384,-0.00003604,-0.00264639,0.0
 0200282,0.00170959,0.00511168,-0.01265390,-0.02411868,-0.00002227,-0.0
 0004010,0.00003885,0.00003097,0.00004953,0.00000767,-0.00001734,-0.000
 01981,-0.00001016,0.00000163,0.00001790,-0.00000248,-0.00002679,0.0000
 4333,-0.00003249,-0.00001507,-0.00002851,0.00001282,0.00000592,-0.0000
 3347,-0.00000200,0.00001357,0.00000813,-0.00001711,-0.04636435,-0.0008
 6531,-0.00023460,-0.00052446,0.00017644,-0.00042770,0.04693013,-0.0034
 6925,-0.00203236,0.00312307,-0.00000599,-0.00000905,-0.00003658,0.0000
 7546,0.00012276,-0.00018472,-0.00000937,0.00000090,0.00001636,0.000051
 18,0.00003827,0.00004179,-0.00013307,-0.00074392,-0.00003461,0.0000229
 7,-0.00001647,-0.00017389,-0.00004655,-0.00001152,0.00007337,-0.000182
 26,-0.00010152,0.00042722,-0.00013885,-0.00000800,-0.00013749,0.000097
 13,-0.00001722,-0.00001099,-0.00052516,0.00039027,0.00130066,0.0034259
 9,-0.01210327,-0.01717445,-0.00001465,-0.00000196,0.00002435,0.0000089
 1,0.00002512,0.00000209,-0.00001579,-0.00001267,-0.00000616,-0.0000004
 0,0.00000665,-0.00000049,-0.00000049,0.00000947,-0.00001269,-0.0000091
 5,-0.00000452,0.00000203,0.00000007,-0.00000587,0.00000239,0.00001204,
 0.00001792,-0.00000830,0.00102782,-0.12456031,-0.12943092,0.00029834,0
 .01231436,0.01742134,-0.00171777,0.13595939,0.00003557,0.00076321,-0.0
 0100272,0.00004651,-0.00000825,0.00001721,0.00011718,0.00019359,-0.000
 05667,-0.00007974,0.00000161,0.00004456,0.00002030,-0.00003220,0.00000
 393,-0.00026715,-0.00071273,-0.00000847,0.00000253,-0.00000588,-0.0000
 5336,-0.00005958,0.00002616,-0.00002279,-0.00014330,-0.00000585,0.0000
 1115,-0.00001437,-0.00000010,-0.00003553,0.00000674,0.00002781,-0.0000
 1353,-0.00042465,-0.00037756,0.00041005,-0.00076887,0.00141464,0.00165
 501,0.00000506,0.00002293,-0.00000036,-0.00000511,-0.00000475,-0.00000
 154,0.00000039,0.00000040,-0.00000018,0.00000561,-0.00000095,0.0000025
 3,0.00000523,-0.00000648,0.00000563,0.00000094,0.00000453,-0.00000173,
 -0.00000092,0.00000587,0.00000113,0.00000110,0.00000273,0.00000097,0.0
 0216415,-0.12511478,-0.23353159,0.00039540,-0.01458824,-0.02030695,-0.
 00286467,0.13752753,0.25105694,0.00547925,0.00225807,-0.00046112,-0.00
 017750,-0.00000774,-0.00005481,-0.00069610,0.00024692,-0.00008913,-0.0
 0001946,-0.00002339,0.00000975,-0.00003723,-0.00038454,0.00004008,0.00
 111350,-0.00092195,0.00026564,0.00014730,0.00007538,0.00003077,-0.0000
 6864,-0.00010400,-0.00000814,-0.00101410,0.00073765,-0.00036876,0.0000
 1297,-0.00002652,0.00006968,0.00001806,-0.00004680,-0.00003249,-0.0015
 6778,-0.00419427,-0.00010808,-0.02701189,0.01566508,0.00027644,-0.0000
 2327,-0.00000977,-0.00000710,-0.00000563,0.00002152,0.00000119,-0.0000
 0280,0.00002278,-0.00000312,0.00001112,0.00000749,0.00000368,0.0000076
 1,0.00006502,0.00000137,-0.00001282,-0.00002782,0.00000730,-0.00000603
 ,-0.00002930,-0.00000990,0.00000720,0.00001817,0.00000050,-0.24173388,
 0.12466848,0.00547776,0.00166217,-0.00122477,-0.00101763,0.00131366,-0
 .00102476,0.00075974,0.26227804,-0.00035493,0.00227111,-0.00042217,0.0
 0002982,-0.00000949,0.00000175,-0.00002716,0.00019409,-0.00001405,-0.0
 0007003,-0.00002081,-0.00000840,-0.00008923,-0.00021506,-0.00001423,-0
 .00010463,-0.00056889,0.00013660,0.00000373,-0.00003680,-0.00000013,-0
 .00015946,-0.00003201,-0.00002956,-0.00085629,0.00040125,-0.00028864,0
 .00003421,0.00006760,0.00001397,0.00003833,0.00004023,-0.00001487,-0.0
 0153879,-0.00288113,-0.00013356,-0.02184767,0.00922192,0.00099550,-0.0
 0000772,0.00002521,-0.00000255,-0.00000421,0.00000667,-0.00000048,-0.0
 0000321,0.00000746,-0.00000056,0.00001561,0.00000818,0.00000393,0.0000
 1416,0.00001976,0.00000337,-0.00000289,-0.00000305,-0.00000021,-0.0000
 0205,-0.00000309,-0.00000149,0.00000322,0.00000497,0.00000113,0.131163
 53,-0.12962402,-0.00178134,0.01484475,-0.00915533,-0.00240314,0.013515
 42,-0.00863142,0.00118421,-0.13573458,0.13956074,0.00043542,0.00047334
 ,-0.00055222,0.00007685,-0.00000730,-0.00002188,0.00023024,-0.00009782
 ,0.00004602,0.00000202,0.00002574,0.00001334,-0.00002853,0.00000005,0.
 00013292,-0.00022348,0.00024130,-0.00007323,-0.00001575,-0.00001884,-0
 .00014184,-0.00008226,0.00001654,0.00007899,-0.00006898,0.00004223,0.0
 0014555,-0.00004011,-0.00003959,-0.00000243,0.00004875,0.00003455,-0.0
 0000155,0.00026697,-0.00051452,0.00060573,-0.00226617,-0.00020940,-0.0
 0091065,-0.00001714,0.00000364,0.00003847,0.00001469,0.00001890,0.0000
 0071,-0.00001584,-0.00002172,-0.00000549,0.00000218,0.00000900,-0.0000
 0661,-0.00000278,-0.00000690,-0.00001581,-0.00000436,0.00000670,-0.000
 00016,0.00000338,0.00000415,0.00000619,0.00000505,0.00000578,-0.000008
 51,0.00506348,-0.00131188,-0.04844491,-0.02194343,0.01224199,0.0022468
 8,0.02345644,-0.01382698,0.00088044,-0.00477875,0.00276868,0.04568713,
 0.00053959,-0.00140591,0.00007437,-0.00022627,0.00009115,-0.00003578,-
 0.03552923,-0.03596923,-0.00555592,-0.00048587,-0.00317436,0.00050084,
 -0.00068204,-0.00031638,-0.00009191,-0.12143250,-0.04052905,-0.0056810
 2,-0.00120734,0.00335011,-0.00082293,0.00022317,-0.00019003,0.00008988
 ,-0.00125539,0.00308760,-0.00202913,0.00031652,0.00058752,0.00007916,0
 .00008518,0.00028318,-0.00000516,0.01767355,0.00191643,0.00078844,-0.0
 0234698,0.00160894,0.00085782,-0.00036449,-0.00095806,-0.00015900,0.00
 003348,0.00001172,0.00003791,0.00003141,0.00001392,0.00000376,-0.00034
 087,-0.00001623,-0.00007509,0.00002832,0.00008225,0.00002620,0.0000231
 2,-0.00002828,0.00001406,0.00000718,-0.00002660,-0.00001064,0.00000249
 ,-0.00008226,-0.00000085,-0.00300284,0.00065157,-0.00059192,-0.0013089
 0,0.00179157,-0.00124503,-0.00105293,0.00105524,0.00085636,0.00027416,
 0.00061401,-0.00000515,0.58322518,-0.00027686,-0.00124342,0.00000438,0
 .00028719,-0.00008061,0.00003089,-0.00846347,-0.00132925,-0.00226032,0
 .00305318,0.00247014,0.00105140,0.00026714,-0.00076370,0.00000473,-0.0
 6311922,-0.18527131,-0.00563778,0.00314913,0.00052852,0.00007150,-0.00
 011444,0.00033619,0.00004074,0.00262431,-0.00046167,0.00047227,-0.0002
 8727,-0.00046210,-0.00005337,-0.00033651,-0.00054362,0.00003848,-0.015
 27743,-0.02207998,-0.00073748,0.00002176,0.00237052,-0.00019266,-0.000
 03702,0.00039102,0.00008152,0.00001171,-0.00001665,-0.00002788,-0.0000
 0188,-0.00004133,0.00002497,0.00012417,0.00006639,0.00003371,0.0000143
 0,-0.00013350,0.00002555,-0.00003308,0.00001884,-0.00001677,-0.0000193
 8,0.00003434,0.00000846,-0.00004957,0.00007201,-0.00002829,0.00381960,
 -0.00261062,0.00005404,0.00061139,-0.00061796,0.00101294,0.00027263,-0
 .00004717,-0.00084238,-0.00008789,-0.00103460,0.00006318,-0.04113246,0
 .51950828,-0.00059087,0.00098163,0.00053830,0.00005797,-0.00002866,-0.
 00020063,-0.00913409,-0.00725330,0.00597766,0.00152171,-0.00055269,-0.
 00323127,-0.00022994,-0.00003630,-0.00022769,-0.00639947,-0.00677698,-
 0.07610423,-0.00124099,0.00061851,0.00555380,0.00016880,0.00007404,0.0
 0012413,-0.00141151,0.00087844,0.00719382,-0.00077956,-0.00088157,-0.0
 0030306,0.00097404,0.00095767,-0.00001557,-0.00024150,0.00329614,0.004
 53065,0.00254907,-0.00087287,-0.00463785,-0.00024148,-0.00020765,0.000
 40283,0.00008983,0.00005291,-0.00002173,-0.00003206,-0.00004242,-0.000
 05262,-0.00004762,0.00003971,-0.00013379,0.00000278,-0.00002836,-0.000
 22252,-0.00005600,0.00002432,0.00000353,0.00005823,-0.00003749,0.00003
 886,-0.00000231,-0.00000202,0.00000826,0.00018250,-0.00003991,0.000857
 72,0.00069470,-0.00065915,0.00047063,-0.00032302,0.00034903,-0.0003363
 1,0.00006161,-0.00034877,-0.00043929,0.01379767,-0.00103947,0.56482398
 ,-0.00010382,0.00005137,0.00005005,-0.00023802,0.00001771,-0.00007565,
 -0.00187651,-0.00339776,-0.00063658,0.00072132,-0.00029706,-0.00023959
 ,-0.00008556,0.00008301,0.00002201,-0.01184862,-0.00031085,-0.01185006
 ,-0.00028876,0.00020704,0.00045198,0.00018793,-0.00013138,0.00005676,-
 0.00018555,-0.00004352,0.00046286,-0.00007816,-0.00006664,-0.00003361,
 0.00006919,0.00003226,-0.00000251,0.00000574,0.00129689,0.00057699,0.0
 0062735,-0.00016301,-0.00068263,-0.00006427,-0.00018244,0.00003025,0.0
 0000388,0.00003041,-0.00000007,-0.00000084,0.00001643,-0.00000727,-0.0
 0006163,-0.00000790,-0.00001889,-0.00000662,0.00003849,-0.00003531,-0.
 00001045,-0.00002515,0.00000934,0.00000300,-0.00003755,-0.00000646,0.0
 0000340,-0.00000012,-0.00000031,-0.00126984,0.00169680,0.00085656,-0.0
 0036907,0.00023249,0.00018767,-0.00119405,0.00157827,-0.00021035,-0.00
 003301,0.00011351,0.00005666,-0.14555419,-0.00193672,-0.13779285,0.160
 77036,0.00059657,-0.00047626,0.00009091,-0.00029905,0.00004318,-0.0000
 9786,-0.00078307,-0.00338247,0.00006166,-0.00044503,-0.00033914,-0.000
 21933,0.00006394,0.00037183,-0.00006845,-0.01792062,0.00258414,-0.0242
 3888,-0.00112577,-0.00009694,0.00039787,0.00015213,-0.00023629,0.00007
 731,-0.00020313,0.00028400,0.00083352,-0.00015991,-0.00015550,-0.00002
 956,0.00008849,0.00009895,-0.00003322,0.00162108,-0.00036124,0.0011821
 2,-0.00195927,-0.00031655,-0.00104776,-0.00007572,-0.00023456,0.000104
 44,0.00000306,0.00004235,0.00000346,-0.00000260,0.00002274,-0.00002682
 ,-0.00005565,0.00000275,-0.00002925,-0.00001890,0.00006203,-0.00002676
 ,-0.00001276,-0.00003063,0.00001398,0.00000859,-0.00003495,-0.00000419
 ,0.00000854,0.00000292,0.00000036,0.00093272,-0.00094439,-0.00063588,0
 .00030144,-0.00023896,-0.00003777,0.00165766,-0.00067601,0.00057068,0.
 00005029,0.00013352,0.00029466,-0.00076857,-0.04867219,-0.00121905,0.0
 0173193,0.05174502,0.00024657,0.00038285,-0.00008637,-0.00015992,0.000
 02516,-0.00001887,0.00126249,0.00032055,-0.00026484,-0.00003547,-0.000
 00270,0.00004442,-0.00001369,0.00012109,-0.00000871,0.00145635,-0.0000
 7270,0.00160956,0.00012874,-0.00012369,-0.00014406,0.00012810,-0.00010
 745,0.00001564,0.00000465,-0.00008243,0.00003592,-0.00001585,-0.000010
 85,-0.00001847,-0.00000654,0.00000555,-0.00001228,-0.00006861,-0.00003
 728,0.00080533,-0.00072084,-0.00056845,-0.00008907,0.00001207,-0.00002
 267,0.00000974,-0.00000832,0.00000353,0.00000585,0.00000973,0.00001743
 ,0.00000334,0.00000796,0.00001062,0.00000641,-0.00001245,0.00002676,-0
 .00000280,0.00000200,-0.00001407,0.00000591,-0.00000029,-0.00001472,-0
 .00000580,-0.00000080,-0.00000430,0.00000368,-0.00126390,0.00117553,0.
 00036731,0.00016906,-0.00022307,-0.00105463,-0.00027706,0.00043289,0.0
 0121113,-0.00005103,0.00063593,0.00010568,-0.13687203,-0.00395809,-0.2
 2725692,0.14919296,0.00073424,0.24125542,0.00001915,0.00020272,0.00000
 435,-0.00042585,0.00005431,-0.00007922,-0.00049282,-0.00193209,-0.0005
 9698,0.00011313,-0.00012013,0.00082458,-0.00002180,0.00028337,-0.00001
 802,-0.01123445,-0.00349919,0.01229924,-0.00024277,-0.00038381,-0.0008
 8843,0.00027189,-0.00028877,0.00005203,0.00001037,-0.00016219,-0.00058
 343,0.00005796,0.00004160,0.00003299,-0.00013280,-0.00007613,0.0000083
 4,-0.00032479,0.00129359,-0.00043701,-0.00006077,-0.00011860,0.0005123
 0,0.00000965,-0.00015901,-0.00004882,-0.00001455,0.00002793,0.00000633
 ,0.00001118,0.00004468,-0.00000223,-0.00004204,-0.00001283,0.00000525,
 -0.00002384,0.00007974,0.00003182,-0.00000224,-0.00005314,0.00001891,-
 0.00000595,-0.00004153,-0.00001684,0.00000121,-0.00000671,0.00000061,-
 0.00008777,0.00085799,-0.00036520,-0.00086175,0.00133175,-0.00029221,0
 .00012318,-0.00031837,-0.00009664,0.00005590,-0.00006406,-0.00009195,-
 0.12917033,-0.01909422,0.12712517,0.01214392,0.00281273,-0.01624613,0.
 14124362,0.00074219,-0.00090009,0.00009428,-0.00030449,0.00004983,-0.0
 0001192,0.00133106,-0.00116833,0.00016539,-0.00031132,-0.00010906,0.00
 003823,0.00014669,0.00041794,0.00017036,-0.01734228,-0.00349117,0.0240
 9988,-0.00085045,-0.00068261,-0.00075225,0.00006416,-0.00028062,-0.000
 05852,0.00023253,-0.00007727,-0.00143357,0.00006385,0.00011723,0.00006
 145,-0.00023941,-0.00025479,-0.00002560,0.00153765,-0.00112354,-0.0008
 0719,-0.00258306,0.00052354,0.00075937,0.00007224,-0.00012308,-0.00015
 022,-0.00003080,0.00001894,0.00002090,0.00000028,0.00005487,-0.0000026
 7,-0.00003238,-0.00001514,0.00001503,-0.00001079,0.00005957,0.00002831
 ,0.00000640,-0.00002835,0.00000815,-0.00001203,-0.00003010,-0.00001897
 ,0.00000515,0.00001029,0.00000340,0.00029900,-0.00056515,0.00017727,0.
 00140420,-0.00064073,0.00015311,-0.00007947,0.00007106,-0.00005929,0.0
 0003364,0.00018325,-0.00016895,-0.02027888,-0.05049084,0.02847990,0.00
 044320,-0.00042216,0.00020407,0.02256502,0.05460605,-0.00013702,-0.000
 38257,-0.00010551,-0.00000314,0.00000186,0.00000650,-0.00095978,-0.000
 45666,-0.00072881,-0.00012136,0.00001982,0.00013914,-0.00002366,-0.000
 09522,0.00004192,-0.00274138,0.00150415,0.00504355,0.00014833,0.000216
 60,-0.00055027,-0.00000330,0.00000878,0.00000753,-0.00005997,0.0001607
 9,-0.00014927,0.00002091,0.00001924,-0.00000953,0.00002953,0.00000053,
 -0.00001123,0.00049141,-0.00024575,0.00078719,0.00039391,0.00047183,0.
 00019680,-0.00002057,-0.00001388,-0.00000422,-0.00000294,-0.00000555,0
 .00000469,0.00000742,-0.00000331,0.00001549,-0.00001006,-0.00001116,0.
 00000812,0.00000897,0.00000819,0.00000550,0.00000041,-0.00000189,0.000
 00019,-0.00000255,0.,-0.00000245,-0.00000004,-0.00000423,0.00000025,0.
 00080849,-0.00063991,-0.00025460,-0.00050495,0.00019745,0.00093082,0.0
 0010764,0.00010925,-0.00032225,-0.00000604,-0.00040604,0.00029883,0.12
 521850,0.02764802,-0.22848198,0.01511982,0.00255878,-0.02036579,-0.137
 47372,-0.02989585,0.24398596,0.00017494,0.00034389,-0.00000347,0.00007
 676,-0.00000466,0.00001954,0.00014532,-0.00332929,-0.00016530,-0.00053
 167,-0.00061266,-0.00043974,0.00019193,-0.00007379,0.00002126,0.010318
 26,-0.01643300,-0.00178028,0.00038272,-0.00041770,-0.00008447,-0.00007
 963,0.00000858,-0.00001868,0.00018634,-0.00055689,0.00021807,-0.000054
 56,-0.00008460,-0.00001211,-0.00004499,-0.00007619,-0.00000131,-0.0023
 5057,-0.00171420,-0.00010084,-0.00049111,-0.00060866,-0.00015891,0.000
 02207,0.00014323,0.00004711,-0.00001063,-0.00000165,-0.00000614,-0.000
 00145,0.00000194,-0.00000444,0.00004623,0.00000411,0.00000954,-0.00000
 693,-0.00003583,0.00001221,-0.00000566,0.00000350,-0.00000345,-0.00000
 346,0.00001173,0.00000388,-0.00001299,0.00001216,-0.00000330,-0.001158
 84,0.00055265,0.00024256,0.00018542,0.00012994,-0.00066967,0.00014688,
 -0.00004150,0.00051254,0.00002919,0.00047661,-0.00007744,-0.15850319,0
 .13601089,0.01123920,-0.01126712,0.01380088,0.00313223,-0.01091665,0.0
 1312811,-0.00028486,0.17353338,0.00036783,-0.00047803,0.00009815,-0.00
 011915,-0.00000037,-0.00002175,0.00313061,0.00233199,0.00102893,-0.002
 08339,0.00026310,-0.00088484,0.00045659,0.00040783,0.00012762,0.019182
 96,-0.02519110,-0.00162890,-0.00068422,-0.00024312,0.00003168,-0.00005
 634,-0.00008655,-0.00003987,0.00074794,-0.00063804,0.00042383,-0.00018
 340,-0.00027799,-0.00003177,-0.00014558,-0.00022517,-0.00000287,-0.004
 47120,-0.00170802,-0.00068963,-0.00090485,0.00074618,-0.00029247,0.000
 02551,0.00003548,-0.00001432,-0.00001884,0.00001714,0.00001128,-0.0000
 1606,0.00002042,-0.00001669,0.00003828,0.00002726,0.00000565,-0.000009
 31,0.00001410,-0.00000311,-0.00001525,-0.00000874,0.00000073,-0.000006
 56,-0.00001164,-0.00000538,-0.00000045,0.00004250,-0.00000110,-0.00011
 633,0.00018705,0.00001550,0.00004833,0.00000020,-0.00002259,-0.0000038
 7,0.00002708,0.00001353,-0.00002238,0.00006974,-0.00002653,0.12973109,
 -0.20989572,-0.01572564,-0.00096970,0.00122482,0.00114628,-0.00326465,
 0.00429046,-0.00076328,-0.14063760,0.22905913,0.00012845,-0.00021822,0
 .00001229,0.00002862,-0.00000062,0.00001729,0.00020007,-0.00032650,-0.
 00014244,-0.00086531,-0.00047914,0.00034281,0.00009514,0.00005470,-0.0
 0000767,0.00131634,-0.00010710,-0.00228868,-0.00010526,-0.00008377,-0.
 00001624,-0.00007290,-0.00001598,-0.00002954,-0.00006678,0.00005822,0.
 00066318,-0.00010164,-0.00016187,-0.00001366,0.00005391,0.00011312,0.0
 0000022,0.00018783,-0.00046682,0.00067468,-0.00046310,0.00012162,-0.00
 035704,0.00002000,0.00004340,-0.00000206,-0.00000601,-0.00001012,-0.00
 000291,-0.00000224,0.00000596,-0.00000744,0.00001519,0.00000189,0.0000
 0603,0.00000255,-0.00000298,0.00000863,0.00000235,0.00000272,-0.000000
 71,-0.00000124,0.00000620,0.00000066,-0.00000118,0.00000383,0.00000497
 ,-0.00028021,0.00016470,-0.00045771,-0.00021414,-0.00010523,0.00003068
 ,0.00011296,0.00018492,0.00039333,-0.00000942,0.00012514,0.00033767,0.
 01083657,-0.01587233,-0.04885870,-0.01548177,0.02079080,0.00384327,0.0
 1631492,-0.02109408,-0.00048658,-0.01164371,0.01726755,0.04633568\\0.0
 0000143,-0.00000160,-0.00000040,0.00000553,-0.00000258,0.00000201,0.00
 000446,0.00000016,-0.00000733,-0.00000174,-0.00000011,0.00000210,0.000
 00144,-0.00000063,-0.00000020,-0.00000668,0.00000245,0.00000597,-0.000
 00216,-0.00000279,0.00000002,-0.00000228,0.00000096,0.00000107,-0.0000
 0111,0.00000188,-0.00000017,0.00000065,-0.00000062,0.00000112,0.000000
 88,-0.00000008,0.00000130,0.00000366,-0.00000175,0.00000079,-0.0000012
 1,0.00000423,-0.00000513,-0.00000114,-0.00000088,0.00000407,0.00000032
 ,-0.00000050,0.00000047,-0.00000150,-0.00000254,-0.00000010,0.00000055
 ,-0.00000107,0.00000082,-0.00000018,-0.00000051,0.00000491,0.00000118,
 -0.00000111,0.00000301,0.00000128,-0.00000066,0.00000269,0.00000202,-0
 .00000048,0.00000150,0.00000084,-0.00000080,0.00000120,-0.00000125,0.0
 0000218,-0.00000327,0.00000072,0.00000159,-0.00000248,-0.00000019,0.00
 000255,-0.00000214,-0.00000044,0.00000090,-0.00000255,-0.00000269,0.00
 000130,-0.00000412,-0.00000079,0.00000012,-0.00000314,-0.00000164,0.00
 000040,-0.00000202\\\@


 Just remember, when you're over the hill, you begin to pick up speed.
 -- Charles Schulz
 Job cpu time:       0 days  7 hours 44 minutes 33.6 seconds.
 Elapsed time:       0 days  0 hours 14 minutes 36.0 seconds.
 File lengths (MBytes):  RWF=   1418 Int=      0 D2E=      0 Chk=     67 Scr=      1
 Normal termination of Gaussian 16 at Wed Jan 21 01:16:08 2026.
