 Entering Gaussian System, Link 0=g16
 Input=DDL-S0-TD.gjf
 Output=DDL-S0-TD.log
 Initial command:
 /data/home/wyx/g16/l1.exe "/scr/tmp/wyx/13031/Gau-1803971.inp" -scrdir="/scr/tmp/wyx/13031/"
 Entering Link 1 = /data/home/wyx/g16/l1.exe PID=   1803972.
  
 Copyright (c) 1988,1990,1992,1993,1995,1998,2003,2009,2016,
            Gaussian, Inc.  All Rights Reserved.
  
 This is part of the Gaussian(R) 16 program.  It is based on
 the Gaussian(R) 09 system (copyright 2009, Gaussian, Inc.),
 the Gaussian(R) 03 system (copyright 2003, Gaussian, Inc.),
 the Gaussian(R) 98 system (copyright 1998, Gaussian, Inc.),
 the Gaussian(R) 94 system (copyright 1995, Gaussian, Inc.),
 the Gaussian 92(TM) system (copyright 1992, Gaussian, Inc.),
 the Gaussian 90(TM) system (copyright 1990, Gaussian, Inc.),
 the Gaussian 88(TM) system (copyright 1988, Gaussian, Inc.),
 the Gaussian 86(TM) system (copyright 1986, Carnegie Mellon
 University), and the Gaussian 82(TM) system (copyright 1983,
 Carnegie Mellon University). Gaussian is a federally registered
 trademark of Gaussian, Inc.
  
 This software contains proprietary and confidential information,
 including trade secrets, belonging to Gaussian, Inc.
  
 This software is provided under written license and may be
 used, copied, transmitted, or stored only in accord with that
 written license.
  
 The following legend is applicable only to US Government
 contracts under FAR:
  
                    RESTRICTED RIGHTS LEGEND
  
 Use, reproduction and disclosure by the US Government is
 subject to restrictions as set forth in subparagraphs (a)
 and (c) of the Commercial Computer Software - Restricted
 Rights clause in FAR 52.227-19.
  
 Gaussian, Inc.
 340 Quinnipiac St., Bldg. 40, Wallingford CT 06492
  
  
 ---------------------------------------------------------------
 Warning -- This program may not be used in any manner that
 competes with the business of Gaussian, Inc. or will provide
 assistance to any competitor of Gaussian, Inc.  The licensee
 of this program is prohibited from giving any competitor of
 Gaussian, Inc. access to this program.  By using this program,
 the user acknowledges that Gaussian, Inc. is engaged in the
 business of creating and licensing software in the field of
 computational chemistry and represents and warrants to the
 licensee that it is not a competitor of Gaussian, Inc. and that
 it will not use this program in any manner prohibited above.
 ---------------------------------------------------------------
  

 Cite this work as:
 Gaussian 16, Revision A.03,
 M. J. Frisch, G. W. Trucks, H. B. Schlegel, G. E. Scuseria, 
 M. A. Robb, J. R. Cheeseman, G. Scalmani, V. Barone, 
 G. A. Petersson, H. Nakatsuji, X. Li, M. Caricato, A. V. Marenich, 
 J. Bloino, B. G. Janesko, R. Gomperts, B. Mennucci, H. P. Hratchian, 
 J. V. Ortiz, A. F. Izmaylov, J. L. Sonnenberg, D. Williams-Young, 
 F. Ding, F. Lipparini, F. Egidi, J. Goings, B. Peng, A. Petrone, 
 T. Henderson, D. Ranasinghe, V. G. Zakrzewski, J. Gao, N. Rega, 
 G. Zheng, W. Liang, M. Hada, M. Ehara, K. Toyota, R. Fukuda, 
 J. Hasegawa, M. Ishida, T. Nakajima, Y. Honda, O. Kitao, H. Nakai, 
 T. Vreven, K. Throssell, J. A. Montgomery, Jr., J. E. Peralta, 
 F. Ogliaro, M. J. Bearpark, J. J. Heyd, E. N. Brothers, K. N. Kudin, 
 V. N. Staroverov, T. A. Keith, R. Kobayashi, J. Normand, 
 K. Raghavachari, A. P. Rendell, J. C. Burant, S. S. Iyengar, 
 J. Tomasi, M. Cossi, J. M. Millam, M. Klene, C. Adamo, R. Cammi, 
 J. W. Ochterski, R. L. Martin, K. Morokuma, O. Farkas, 
 J. B. Foresman, and D. J. Fox, Gaussian, Inc., Wallingford CT, 2016.
 
 ******************************************
 Gaussian 16:  ES64L-G16RevA.03 25-Dec-2016
                20-Jan-2026 
 ******************************************
 %nprocshared=32
 Will use up to   32 processors via shared memory.
 %mem=16GB
 %oldchk=DDL-S0-opt-freq.chk
 %chk=DDL-S0-TD.chk
 Copying data from "DDL-S0-opt-freq.chk" to current chk file "DDL-S0-TD.chk"
 IOpt=  2 FromEx=T IUOpen= 4 IOptOp= 5 NList=   0 IFRang= 0 IUIn= 4 IUOut= 2.
 ----------------------------------------------------------------------
 #p CAM-B3LYP/TZVP em=gd3bj TD=NStates=6 SCRF=Solvent=Water Geom=Check 
 Guess=Read
 ----------------------------------------------------------------------
 1/29=2,38=1,172=1/1;
 2/12=2,40=1/2;
 3/5=19,7=101,11=9,14=-4,25=1,30=1,70=2201,72=1,74=-40,116=-2,124=41/1,2,3,8;
 4/5=1/1;
 5/5=2,38=6,53=1/2;
 8/6=1,10=1,108=6/1;
 9/41=6,42=1,70=2/14;
 6/7=2,8=2,9=2,10=2/1;
 99/5=1,9=1/99;
 Leave Link    1 at Tue Jan 20 18:12:25 2026, MaxMem=  2147483648 cpu:               1.8 elap:               0.3
 (Enter /data/home/wyx/g16/l101.exe)
 -------------------
 Title Card Required
 -------------------
 Structure from the checkpoint file:  "DDL-S0-TD.chk"
 Charge =  0 Multiplicity = 1
 Redundant internal coordinates found in file.  (old form).
 O,0,1.302922329,9.8389006239,1.1152084938
 O,0,-4.661551276,9.7585222625,-0.7455338741
 N,0,-2.1592342563,12.9095588306,0.5322684014
 H,0,-2.4672449629,13.8667515186,0.475966381
 C,0,-2.6935109921,10.6388973069,0.238801059
 C,0,-0.8051980162,12.6939503207,0.6798266206
 C,0,-3.0649013818,11.9379807988,0.1686068321
 C,0,-3.5952766053,9.5634417762,-0.1707353911
 C,0,-1.3522025946,10.2877211838,0.8419871992
 H,0,-1.470307372,9.9802025177,1.8896248421
 H,0,-0.9230735841,9.4227833141,0.3414859304
 C,0,-0.3540150651,11.4210866448,0.7535465383
 C,0,1.0470609639,11.0068597868,0.8369553198
 C,0,-4.3858274015,12.4782717401,-0.2759268114
 H,0,-4.4896296274,13.5203451313,0.0257643391
 H,0,-4.47461118,12.4223629531,-1.360957256
 H,0,-5.2064961429,11.8985215762,0.1349504657
 C,0,-3.1717453312,8.1483279654,0.137143685
 H,0,-4.0021252623,7.4767750828,-0.0645762745
 H,0,-2.3256806809,7.8637948657,-0.4919469199
 H,0,-2.8507734523,8.0407868038,1.1736564779
 C,0,2.200736885,11.9375709623,0.5539258092
 H,0,1.9996278675,12.6320362967,-0.2574013218
 H,0,2.4466928198,12.5170727693,1.4453131552
 H,0,3.0654477616,11.3270559297,0.3046110804
 C,0,-0.0259501429,13.9729271056,0.7326327264
 H,0,0.8262718127,13.9137637853,1.3983330584
 H,0,0.3288902928,14.2515834289,-0.2607245259
 H,0,-0.6674664345,14.7779811682,1.0891939597
 Recover connectivity data from disk.
 ITRead=  0  0  0  0  0  0  0  0  0  0  0  0  0  0  0  0  0  0  0  0
 ITRead=  0  0  0  0  0  0  0  0  0
 MicOpt= -1 -1 -1 -1 -1 -1 -1 -1 -1 -1 -1 -1 -1 -1 -1 -1 -1 -1 -1 -1
 MicOpt= -1 -1 -1 -1 -1 -1 -1 -1 -1
                           ----------------------------
                           !    Current Parameters    !
                           ! (Angstroms and Degrees)  !
 --------------------------                            --------------------------
 ! Name  Definition              Value                                          !
 --------------------------------------------------------------------------------
 ! R1    R(1,13)                 1.2276                                         !
 ! R2    R(2,8)                  1.2269                                         !
 ! R3    R(3,4)                  1.0071                                         !
 ! R4    R(3,6)                  1.379                                          !
 ! R5    R(3,7)                  1.3771                                         !
 ! R6    R(5,7)                  1.353                                          !
 ! R7    R(5,8)                  1.462                                          !
 ! R8    R(5,9)                  1.512                                          !
 ! R9    R(6,12)                 1.3525                                         !
 ! R10   R(6,26)                 1.4986                                         !
 ! R11   R(7,14)                 1.4948                                         !
 ! R12   R(8,18)                 1.5089                                         !
 ! R13   R(9,10)                 1.0982                                         !
 ! R14   R(9,11)                 1.0876                                         !
 ! R15   R(9,12)                 1.5129                                         !
 ! R16   R(12,13)                1.4634                                         !
 ! R17   R(13,22)                1.5091                                         !
 ! R18   R(14,15)                1.0898                                         !
 ! R19   R(14,16)                1.0901                                         !
 ! R20   R(14,17)                1.0856                                         !
 ! R21   R(18,19)                1.0868                                         !
 ! R22   R(18,20)                1.092                                          !
 ! R23   R(18,21)                1.0904                                         !
 ! R24   R(22,23)                1.0867                                         !
 ! R25   R(22,24)                1.0913                                         !
 ! R26   R(22,25)                1.0875                                         !
 ! R27   R(26,27)                1.083                                          !
 ! R28   R(26,28)                1.091                                          !
 ! R29   R(26,29)                1.0894                                         !
 ! A1    A(4,3,6)              117.0574                                         !
 ! A2    A(4,3,7)              117.0426                                         !
 ! A3    A(6,3,7)              124.3116                                         !
 ! A4    A(7,5,8)              121.4975                                         !
 ! A5    A(7,5,9)              119.1575                                         !
 ! A6    A(8,5,9)              119.2124                                         !
 ! A7    A(3,6,12)             118.7204                                         !
 ! A8    A(3,6,26)             112.3895                                         !
 ! A9    A(12,6,26)            128.8899                                         !
 ! A10   A(3,7,5)              118.8944                                         !
 ! A11   A(3,7,14)             113.8716                                         !
 ! A12   A(5,7,14)             127.2336                                         !
 ! A13   A(2,8,5)              123.3873                                         !
 ! A14   A(2,8,18)             119.2515                                         !
 ! A15   A(5,8,18)             117.3611                                         !
 ! A16   A(5,9,10)             110.4988                                         !
 ! A17   A(5,9,11)             110.5579                                         !
 ! A18   A(5,9,12)             112.8294                                         !
 ! A19   A(10,9,11)            104.996                                          !
 ! A20   A(10,9,12)            109.664                                          !
 ! A21   A(11,9,12)            107.9725                                         !
 ! A22   A(6,12,9)             119.2183                                         !
 ! A23   A(6,12,13)            126.0784                                         !
 ! A24   A(9,12,13)            114.6023                                         !
 ! A25   A(1,13,12)            118.801                                          !
 ! A26   A(1,13,22)            118.0311                                         !
 ! A27   A(12,13,22)           123.1388                                         !
 ! A28   A(7,14,15)            110.332                                          !
 ! A29   A(7,14,16)            110.4534                                         !
 ! A30   A(7,14,17)            111.2517                                         !
 ! A31   A(15,14,16)           108.471                                          !
 ! A32   A(15,14,17)           109.5043                                         !
 ! A33   A(16,14,17)           106.7248                                         !
 ! A34   A(8,18,19)            109.0971                                         !
 ! A35   A(8,18,20)            110.1383                                         !
 ! A36   A(8,18,21)            111.6593                                         !
 ! A37   A(19,18,20)           108.9067                                         !
 ! A38   A(19,18,21)           109.9011                                         !
 ! A39   A(20,18,21)           107.0885                                         !
 ! A40   A(13,22,23)           113.1208                                         !
 ! A41   A(13,22,24)           110.2805                                         !
 ! A42   A(13,22,25)           107.7367                                         !
 ! A43   A(23,22,24)           108.1909                                         !
 ! A44   A(23,22,25)           109.5574                                         !
 ! A45   A(24,22,25)           107.8288                                         !
 ! A46   A(6,26,27)            112.5946                                         !
 ! A47   A(6,26,28)            110.7944                                         !
 ! A48   A(6,26,29)            109.6345                                         !
 ! A49   A(27,26,28)           108.5223                                         !
 ! A50   A(27,26,29)           107.6118                                         !
 ! A51   A(28,26,29)           107.5046                                         !
 ! D1    D(4,3,6,12)          -179.735                                          !
 ! D2    D(4,3,6,26)             0.1239                                         !
 ! D3    D(7,3,6,12)           -14.5687                                         !
 ! D4    D(7,3,6,26)           165.2903                                         !
 ! D5    D(4,3,7,5)           -179.5484                                         !
 ! D6    D(4,3,7,14)             0.6549                                         !
 ! D7    D(6,3,7,5)             15.2833                                         !
 ! D8    D(6,3,7,14)          -164.5135                                         !
 ! D9    D(8,5,7,3)           -178.1623                                         !
 ! D10   D(8,5,7,14)             1.6042                                         !
 ! D11   D(9,5,7,3)              6.057                                          !
 ! D12   D(9,5,7,14)          -174.1764                                         !
 ! D13   D(7,5,8,2)              9.0736                                         !
 ! D14   D(7,5,8,18)          -171.0402                                         !
 ! D15   D(9,5,8,2)           -175.148                                          !
 ! D16   D(9,5,8,18)             4.7381                                         !
 ! D17   D(7,5,9,10)            98.3103                                         !
 ! D18   D(7,5,9,11)          -145.889                                          !
 ! D19   D(7,5,9,12)           -24.8627                                         !
 ! D20   D(8,5,9,10)           -77.568                                          !
 ! D21   D(8,5,9,11)            38.2327                                         !
 ! D22   D(8,5,9,12)           159.2591                                         !
 ! D23   D(3,6,12,9)            -7.3896                                         !
 ! D24   D(3,6,12,13)          176.4729                                         !
 ! D25   D(26,6,12,9)          172.778                                          !
 ! D26   D(26,6,12,13)          -3.3594                                         !
 ! D27   D(3,6,26,27)          145.157                                          !
 ! D28   D(3,6,26,28)          -93.1013                                         !
 ! D29   D(3,6,26,29)           25.3938                                         !
 ! D30   D(12,6,26,27)         -35.002                                          !
 ! D31   D(12,6,26,28)          86.7398                                         !
 ! D32   D(12,6,26,29)        -154.7652                                         !
 ! D33   D(3,7,14,15)          -15.6521                                         !
 ! D34   D(3,7,14,16)          104.269                                          !
 ! D35   D(3,7,14,17)         -137.398                                          !
 ! D36   D(5,7,14,15)          164.5714                                         !
 ! D37   D(5,7,14,16)          -75.5074                                         !
 ! D38   D(5,7,14,17)           42.8256                                         !
 ! D39   D(2,8,18,19)           -9.7482                                         !
 ! D40   D(2,8,18,20)          109.7365                                         !
 ! D41   D(2,8,18,21)         -131.422                                          !
 ! D42   D(5,8,18,19)          170.3607                                         !
 ! D43   D(5,8,18,20)          -70.1546                                         !
 ! D44   D(5,8,18,21)           48.6869                                         !
 ! D45   D(5,9,12,6)            25.5642                                         !
 ! D46   D(5,9,12,13)         -157.8687                                         !
 ! D47   D(10,9,12,6)          -98.0715                                         !
 ! D48   D(10,9,12,13)          78.4956                                         !
 ! D49   D(11,9,12,6)          148.0506                                         !
 ! D50   D(11,9,12,13)         -35.3823                                         !
 ! D51   D(6,12,13,1)          168.3259                                         !
 ! D52   D(6,12,13,22)         -13.6789                                         !
 ! D53   D(9,12,13,1)           -7.9666                                         !
 ! D54   D(9,12,13,22)         170.0286                                         !
 ! D55   D(1,13,22,23)         141.041                                          !
 ! D56   D(1,13,22,24)         -97.6497                                         !
 ! D57   D(1,13,22,25)          19.7949                                         !
 ! D58   D(12,13,22,23)        -36.9687                                         !
 ! D59   D(12,13,22,24)         84.3406                                         !
 ! D60   D(12,13,22,25)       -158.2148                                         !
 --------------------------------------------------------------------------------
 NAtoms=     29 NQM=       29 NQMF=       0 NMMI=      0 NMMIF=      0
                NMic=       0 NMicF=      0.
                    Isotopes and Nuclear Properties:
 (Nuclear quadrupole moments (NQMom) in fm**2, nuclear magnetic moments (NMagM)
  in nuclear magnetons)

  Atom         1           2           3           4           5           6           7           8           9          10
 IAtWgt=          16          16          14           1          12          12          12          12          12           1
 AtmWgt=  15.9949146  15.9949146  14.0030740   1.0078250  12.0000000  12.0000000  12.0000000  12.0000000  12.0000000   1.0078250
 NucSpn=           0           0           2           1           0           0           0           0           0           1
 AtZEff=   5.6000000   5.6000000   4.5500000   1.0000000   3.6000000   3.6000000   3.6000000   3.6000000   3.6000000   1.0000000
 NQMom=    0.0000000   0.0000000   2.0440000   0.0000000   0.0000000   0.0000000   0.0000000   0.0000000   0.0000000   0.0000000
 NMagM=    0.0000000   0.0000000   0.4037610   2.7928460   0.0000000   0.0000000   0.0000000   0.0000000   0.0000000   2.7928460
 AtZNuc=   8.0000000   8.0000000   7.0000000   1.0000000   6.0000000   6.0000000   6.0000000   6.0000000   6.0000000   1.0000000

  Atom        11          12          13          14          15          16          17          18          19          20
 IAtWgt=           1          12          12          12           1           1           1          12           1           1
 AtmWgt=   1.0078250  12.0000000  12.0000000  12.0000000   1.0078250   1.0078250   1.0078250  12.0000000   1.0078250   1.0078250
 NucSpn=           1           0           0           0           1           1           1           0           1           1
 AtZEff=   1.0000000   3.6000000   3.6000000   3.6000000   1.0000000   1.0000000   1.0000000   3.6000000   1.0000000   1.0000000
 NQMom=    0.0000000   0.0000000   0.0000000   0.0000000   0.0000000   0.0000000   0.0000000   0.0000000   0.0000000   0.0000000
 NMagM=    2.7928460   0.0000000   0.0000000   0.0000000   2.7928460   2.7928460   2.7928460   0.0000000   2.7928460   2.7928460
 AtZNuc=   1.0000000   6.0000000   6.0000000   6.0000000   1.0000000   1.0000000   1.0000000   6.0000000   1.0000000   1.0000000

  Atom        21          22          23          24          25          26          27          28          29
 IAtWgt=           1          12           1           1           1          12           1           1           1
 AtmWgt=   1.0078250  12.0000000   1.0078250   1.0078250   1.0078250  12.0000000   1.0078250   1.0078250   1.0078250
 NucSpn=           1           0           1           1           1           0           1           1           1
 AtZEff=   1.0000000   3.6000000   1.0000000   1.0000000   1.0000000   3.6000000   1.0000000   1.0000000   1.0000000
 NQMom=    0.0000000   0.0000000   0.0000000   0.0000000   0.0000000   0.0000000   0.0000000   0.0000000   0.0000000
 NMagM=    2.7928460   0.0000000   2.7928460   2.7928460   2.7928460   0.0000000   2.7928460   2.7928460   2.7928460
 AtZNuc=   1.0000000   6.0000000   1.0000000   1.0000000   1.0000000   6.0000000   1.0000000   1.0000000   1.0000000
 Leave Link  101 at Tue Jan 20 18:12:27 2026, MaxMem=  2147483648 cpu:               6.3 elap:               0.2
 (Enter /data/home/wyx/g16/l202.exe)
                          Input orientation:                          
 ---------------------------------------------------------------------
 Center     Atomic      Atomic             Coordinates (Angstroms)
 Number     Number       Type             X           Y           Z
 ---------------------------------------------------------------------
      1          8           0        1.302922    9.838901    1.115208
      2          8           0       -4.661551    9.758522   -0.745534
      3          7           0       -2.159234   12.909559    0.532268
      4          1           0       -2.467245   13.866752    0.475966
      5          6           0       -2.693511   10.638897    0.238801
      6          6           0       -0.805198   12.693950    0.679827
      7          6           0       -3.064901   11.937981    0.168607
      8          6           0       -3.595277    9.563442   -0.170735
      9          6           0       -1.352203   10.287721    0.841987
     10          1           0       -1.470307    9.980203    1.889625
     11          1           0       -0.923074    9.422783    0.341486
     12          6           0       -0.354015   11.421087    0.753547
     13          6           0        1.047061   11.006860    0.836955
     14          6           0       -4.385827   12.478272   -0.275927
     15          1           0       -4.489630   13.520345    0.025764
     16          1           0       -4.474611   12.422363   -1.360957
     17          1           0       -5.206496   11.898522    0.134950
     18          6           0       -3.171745    8.148328    0.137144
     19          1           0       -4.002125    7.476775   -0.064576
     20          1           0       -2.325681    7.863795   -0.491947
     21          1           0       -2.850773    8.040787    1.173656
     22          6           0        2.200737   11.937571    0.553926
     23          1           0        1.999628   12.632036   -0.257401
     24          1           0        2.446693   12.517073    1.445313
     25          1           0        3.065448   11.327056    0.304611
     26          6           0       -0.025950   13.972927    0.732633
     27          1           0        0.826272   13.913764    1.398333
     28          1           0        0.328890   14.251583   -0.260725
     29          1           0       -0.667466   14.777981    1.089194
 ---------------------------------------------------------------------
                    Distance matrix (angstroms):
                    1          2          3          4          5
     1  O    0.000000
     2  O    6.248501   0.000000
     3  N    4.664257   4.221777   0.000000
     4  H    5.553951   4.815038   1.007104   0.000000
     5  C    4.168880   2.370054   2.351059   3.244455   0.000000
     6  C    3.575617   5.051718   1.379012   2.044363   2.825504
     7  C    4.937618   2.852189   1.377115   2.042503   1.352951
     8  C    5.071674   1.226944   3.708494   4.495459   1.462021
     9  C    2.706617   3.708377   2.760663   3.766530   1.512040
    10  H    2.882792   4.144544   3.301237   4.254125   2.157620
    11  H    2.393085   3.907755   3.704335   4.706528   2.150332
    12  C    2.319386   4.854506   2.350177   3.244082   2.519925
    13  C    1.227607   6.053996   3.740779   4.545288   3.805925
    14  C    6.423660   2.773732   2.407676   2.484789   2.551897
    15  H    6.949358   3.843926   2.461778   2.100647   3.402083
    16  H    6.795996   2.740390   3.030286   3.080595   2.985347
    17  H    6.897498   2.377355   3.235099   3.390239   2.812922
    18  C    4.882345   2.364607   4.883710   5.771611   2.538105
    19  H    5.925796   2.470813   5.767808   6.593925   3.435626
    20  H    4.432917   3.018375   5.151355   6.082137   2.893179
    21  H    4.526568   3.148464   4.959289   5.880113   2.765658
    22  C    2.350644   7.316273   4.467055   5.051522   5.073413
    23  H    3.189210   7.270947   4.242255   4.692047   5.122926
    24  H    2.930834   7.933256   4.711927   5.187297   5.604008
    25  H    2.445030   7.954220   5.463831   6.090165   5.800302
    26  C    4.359179   6.437001   2.392028   2.457045   4.298314
    27  H    4.112404   7.209605   3.266763   3.420559   4.945517
    28  H    4.723738   6.732544   2.936091   2.917050   4.736659
    29  H    5.317671   6.671874   2.454901   2.108457   4.686154
                    6          7          8          9         10
     6  C    0.000000
     7  C    2.437026   0.000000
     8  C    4.278794   2.456601   0.000000
     9  C    2.472943   2.471869   2.565457   0.000000
    10  H    3.044735   3.055737   2.989025   1.098208   0.000000
    11  H    3.290730   3.308101   2.724486   1.087553   1.734046
    12  C    1.352473   2.821035   3.848496   1.512851   2.147773
    13  C    2.510344   4.268713   4.964896   2.504726   2.915353
    14  C    3.712262   1.494781   3.021965   3.905269   4.407972
    15  H    3.832201   2.134041   4.061473   4.578157   5.012274
    16  H    4.207511   2.135761   3.219206   4.377110   5.055321
    17  H    4.505666   2.142223   2.853431   4.236763   4.551696
    18  C    5.153420   3.791289   1.508879   2.895608   3.053170
    19  H    6.163878   4.564550   2.128608   3.968043   4.061546
    20  H    5.197627   4.193062   2.145658   2.932995   3.298898
    21  H    5.106876   4.030397   2.163366   2.721109   2.485886
    22  C    3.102194   5.279718   6.305188   3.927895   4.369433
    23  H    2.957918   5.129586   6.381750   4.235474   4.866456
    24  H    3.345452   5.687090   6.916715   4.445854   4.687858
    25  H    4.122024   6.162216   6.906630   4.569970   4.989926
    26  C    1.498598   3.700589   5.744539   3.918118   4.400755
    27  H    2.160067   4.534002   6.398232   4.266551   4.581326
    28  H    2.144065   4.129758   6.114397   4.444575   5.109384
    29  H    2.128318   3.828939   6.111540   4.548891   4.929901
                   11         12         13         14         15
    11  H    0.000000
    12  C    2.118216   0.000000
    13  C    2.576086   1.463405   0.000000
    14  C    4.659171   4.293363   5.737581   0.000000
    15  H    5.441509   4.694663   6.134377   1.089821   0.000000
    16  H    4.950678   4.738459   6.109282   1.090091   1.768838
    17  H    4.951732   4.914995   6.355694   1.085554   1.776550
    18  C    2.592782   4.362397   5.143857   4.515865   5.532431
    19  H    3.665023   5.434669   6.226439   5.020644   6.063873
    20  H    2.256626   4.253592   4.797940   5.058089   6.078426
    21  H    2.513653   4.223354   4.909590   4.914159   5.833444
    22  C    4.015903   2.614070   1.509072   6.660619   6.895298
    23  H    4.381798   2.833381   2.178577   6.387333   6.555893
    24  H    4.706207   3.086048   2.147047   7.046099   7.150821
    25  H    4.419945   3.450089   2.111824   7.561999   7.871942
    26  C    4.654206   2.572927   3.155914   4.718020   4.541908
    27  H    4.934171   2.832361   2.968835   5.659484   5.504319
    28  H    5.024677   3.083313   3.499843   5.037204   4.882102
    29  H    5.413183   3.388163   4.150251   4.580221   4.161906
                   16         17         18         19         20
    16  H    0.000000
    17  H    1.745796   0.000000
    18  C    4.712658   4.266634   0.000000
    19  H    5.134461   4.587174   1.086833   0.000000
    20  H    5.114061   4.997111   1.092035   1.772822   0.000000
    21  H    5.315950   4.637937   1.090388   1.782397   1.755358
    22  C    6.961471   7.419176   6.587536   7.665295   6.178831
    23  H    6.570964   7.253979   6.855830   7.914224   6.442005
    24  H    7.469175   7.789156   7.236303   8.322957   6.941291
    25  H    7.799122   8.293396   7.002495   8.056770   6.457008
    26  C    5.155381   5.612347   6.646547   7.658035   6.641525
    27  H    6.159328   6.484723   7.128463   8.178530   7.078848
    28  H    5.256442   6.027766   7.047161   8.043270   6.921275
    29  H    5.103580   5.459364   7.150532   8.109177   7.283931
                   21         22         23         24         25
    21  H    0.000000
    22  C    6.409895   0.000000
    23  H    6.830365   1.086728   0.000000
    24  H    6.940755   1.091278   1.764177   0.000000
    25  H    6.823231   1.087479   1.776177   1.760738   0.000000
    26  C    6.585166   3.022043   2.623189   2.956584   4.091525
    27  H    6.932748   2.550983   2.400218   2.139794   3.591823
    28  H    7.123321   3.085793   2.326867   3.225551   4.044900
    29  H    7.082637   4.071981   3.678558   3.864779   5.143841
                   26         27         28         29
    26  C    0.000000
    27  H    1.083023   0.000000
    28  H    1.091018   1.764648   0.000000
    29  H    1.089399   1.753195   1.758437   0.000000
 Stoichiometry    C11H15NO2
 Framework group  C1[X(C11H15NO2)]
 Deg. of freedom    81
 Full point group                 C1      NOp   1
 RotChk:  IX=2 Diff= 5.27D-16
 Largest Abelian subgroup         C1      NOp   1
 Largest concise Abelian subgroup C1      NOp   1
                         Standard orientation:                         
 ---------------------------------------------------------------------
 Center     Atomic      Atomic             Coordinates (Angstroms)
 Number     Number       Type             X           Y           Z
 ---------------------------------------------------------------------
      1          8           0        2.285615   -2.280482    0.172671
      2          8           0       -3.584909   -0.246540   -0.493507
      3          7           0        0.028220    1.799998    0.268318
      4          1           0        0.058966    2.806628    0.271301
      5          6           0       -1.289881   -0.138462    0.088148
      6          6           0        1.231089    1.136024    0.150330
      7          6           0       -1.203993    1.211759    0.089232
      8          6           0       -2.562197   -0.822744   -0.136519
      9          6           0       -0.061284   -0.955052    0.419808
     10          1           0       -0.082655   -1.272387    1.470951
     11          1           0       -0.051033   -1.879439   -0.153057
     12          6           0        1.228363   -0.216381    0.137154
     13          6           0        2.395385   -1.078716   -0.052561
     14          6           0       -2.320452    2.189193   -0.091083
     15          1           0       -2.006862    3.184467    0.223243
     16          1           0       -2.620259    2.236142   -1.138084
     17          1           0       -3.199145    1.891213    0.472419
     18          6           0       -2.595833   -2.314803    0.085618
     19          1           0       -3.626977   -2.656412    0.050244
     20          1           0       -2.027352   -2.824106   -0.695394
     21          1           0       -2.146263   -2.589807    1.040189
     22          6           0        3.723944   -0.569975   -0.555960
     23          1           0        3.625631    0.202546   -1.313933
     24          1           0        4.311127   -0.164428    0.269653
     25          1           0        4.268498   -1.416561   -0.967499
     26          6           0        2.394134    2.075578    0.048524
     27          1           0        3.282228    1.692753    0.536041
     28          1           0        2.634033    2.283299   -0.995324
     29          1           0        2.141227    3.023767    0.521564
 ---------------------------------------------------------------------
 Rotational constants (GHZ):           1.0780882           0.4908019           0.3474928
 Leave Link  202 at Tue Jan 20 18:12:27 2026, MaxMem=  2147483648 cpu:               0.1 elap:               0.0
 (Enter /data/home/wyx/g16/l301.exe)
 Standard basis: TZVP (5D, 7F)
 Ernie: Thresh=  0.10000D-02 Tol=  0.10000D-05 Strict=F.
 There are   370 symmetry adapted cartesian basis functions of A   symmetry.
 There are   356 symmetry adapted basis functions of A   symmetry.
   356 basis functions,   610 primitive gaussians,   370 cartesian basis functions
    52 alpha electrons       52 beta electrons
       nuclear repulsion energy       900.7656076009 Hartrees.
 IExCor=20419 DFT=T Ex+Corr=CAM-B3LYP ExCW=0 ScaHFX=  1.000000
 ScaDFX=  1.000000  1.000000  1.000000  0.810000 ScalE2=  1.000000  1.000000
 IRadAn=      5 IRanWt=     -1 IRanGd=            0 ICorTp=0 IEmpDi=141
 HFx  wShort=  0.000000 wLong=  0.330000 cFull=  0.190000 cShort=  0.000000 cLong=  0.460000
 DFx  wShort=  0.000000 wLong=  0.330000 cFull=  0.190000 cShort=  0.000000 cLong=  0.460000
 NAtoms=   29 NActive=   29 NUniq=   29 SFac= 1.00D+00 NAtFMM=   60 NAOKFM=F Big=F
 Integral buffers will be    131072 words long.
 Raffenetti 1 integral format.
 Two-electron integral symmetry is turned on.
 R6Disp:  Grimme-D3(BJ) Dispersion energy=       -0.0262203193 Hartrees.
 Nuclear repulsion after empirical dispersion term =      900.7393872816 Hartrees.
 ------------------------------------------------------------------------------
 Polarizable Continuum Model (PCM)
 =================================
 Model                : PCM.
 Atomic radii         : UFF (Universal Force Field).
 Polarization charges : Total charges.
 Charge compensation  : None.
 Solution method      : On-the-fly selection.
 Cavity type          : Scaled VdW (van der Waals Surface) (Alpha=1.100).
 Cavity algorithm     : GePol (No added spheres)
                        Default sphere list used, NSphG=   29.
                        Lebedev-Laikov grids with approx.  5.0 points / Ang**2.
                        Smoothing algorithm: York/Karplus (Gamma=1.0000).
                        Polarization charges: spherical gaussians, with
                                              point-specific exponents (IZeta= 3).
                        Self-potential: point-specific (ISelfS= 7).
                        Self-field    : sphere-specific E.n sum rule (ISelfD= 2).
 Solvent              : Water, Eps=  78.355300 Eps(inf)=   1.777849
 ------------------------------------------------------------------------------
 GePol: Number of generator spheres                  =      29
 GePol: Total number of spheres                      =      29
 GePol: Number of exposed spheres                    =      29 (100.00%)
 GePol: Number of points                             =    2091
 GePol: Average weight of points                     =       0.13
 GePol: Minimum weight of points                     =   0.43D-09
 GePol: Maximum weight of points                     =    0.20577
 GePol: Number of points with low weight             =     133
 GePol: Fraction of low-weight points (<1% of avg)   =       6.36%
 GePol: Cavity surface area                          =    268.679 Ang**2
 GePol: Cavity volume                                =    286.746 Ang**3
 Leave Link  301 at Tue Jan 20 18:12:27 2026, MaxMem=  2147483648 cpu:               1.1 elap:               0.0
 (Enter /data/home/wyx/g16/l302.exe)
 NPDir=0 NMtPBC=     1 NCelOv=     1 NCel=       1 NClECP=     1 NCelD=      1
         NCelK=      1 NCelE2=     1 NClLst=     1 CellRange=     0.0.
 One-electron integrals computed using PRISM.
 One-electron integral symmetry used in STVInt
 NBasis=   356 RedAO= T EigKep=  4.72D-05  NBF=   356
 NBsUse=   356 1.00D-06 EigRej= -1.00D+00 NBFU=   356
 Precomputing XC quadrature grid using
 IXCGrd= 4 IRadAn=           5 IRanWt=          -1 IRanGd=           0 AccXCQ= 0.00D+00.
 Generated NRdTot=       0 NPtTot=           0 NUsed=           0 NTot=          32
 NSgBfM=   366   366   366   366   366 MxSgAt=    29 MxSgA2=    29.
 Leave Link  302 at Tue Jan 20 18:12:27 2026, MaxMem=  2147483648 cpu:               6.3 elap:               0.2
 (Enter /data/home/wyx/g16/l303.exe)
 DipDrv:  MaxL=1.
 Leave Link  303 at Tue Jan 20 18:12:27 2026, MaxMem=  2147483648 cpu:               1.1 elap:               0.0
 (Enter /data/home/wyx/g16/l308.exe)
 Leave Link  308 at Tue Jan 20 18:12:28 2026, MaxMem=  2147483648 cpu:               1.3 elap:               0.1
 (Enter /data/home/wyx/g16/l401.exe)
 Initial guess from the checkpoint file:  "DDL-S0-TD.chk"
 B after Tr=     0.000000   -0.000000    0.000000
         Rot=    1.000000    0.000000   -0.000000   -0.000000 Ang=   0.00 deg.
 Guess basis will be translated and rotated to current coordinates.
 JPrj=2 DoOrth=T DoCkMO=T.
 Leave Link  401 at Tue Jan 20 18:12:28 2026, MaxMem=  2147483648 cpu:               4.4 elap:               0.2
 (Enter /data/home/wyx/g16/l502.exe)
 Integral symmetry usage will be decided dynamically.
 Closed shell SCF:
 Using DIIS extrapolation, IDIIS=  1040.
 NGot=  2147483648 LenX=  2147194175 LenY=  2147056834
 Requested convergence on RMS density matrix=1.00D-08 within 128 cycles.
 Requested convergence on MAX density matrix=1.00D-06.
 Requested convergence on             energy=1.00D-06.
 No special actions if energy rises.
 Fock matrices will be formed incrementally for  20 cycles.

 Cycle   1  Pass 1  IDiag  1:
 FoFJK:  IHMeth= 1 ICntrl=       0 DoSepK=T KAlg= 0 I1Cent=           0 FoldK=F
 IRaf=         1 NMat=       1 IRICut=       1 DoRegI=T DoRafI=F ISym2E= 0 IDoP0=0 IntGTp=1.
 FoFCou: FMM=F IPFlag=           0 FMFlag=      100000 FMFlg1=           0
         NFxFlg=           0 DoJE=T BraDBF=F KetDBF=F FulRan=T
         wScrn=  0.000000 ICntrl=       500 IOpCl=  0 I1Cent=           0 NGrid=           0
         NMat0=    1 NMatS0=      1 NMatT0=    0 NMatD0=    1 NMtDS0=    0 NMtDT0=    0
 Symmetry not used in FoFCou.
 Inv3:  Mode=1 IEnd=    13116843.
 Iteration    1 A*A^-1 deviation from unit magnitude is 3.11D-15 for   1107.
 Iteration    1 A*A^-1 deviation from orthogonality  is 1.77D-15 for   1670    758.
 Iteration    1 A^-1*A deviation from unit magnitude is 3.00D-15 for   1652.
 Iteration    1 A^-1*A deviation from orthogonality  is 1.67D-15 for   2032   1871.
 E= -633.332474832161    
 DIIS: error= 7.17D-09 at cycle   1 NSaved=   1.
 NSaved= 1 IEnMin= 1 EnMin= -633.332474832161     IErMin= 1 ErrMin= 7.17D-09
 ErrMax= 7.17D-09  0.00D+00 EMaxC= 1.00D-01 BMatC= 3.73D-14 BMatP= 3.73D-14
 IDIUse=1 WtCom= 1.00D+00 WtEn= 0.00D+00
 Coeff-Com:  0.100D+01
 Coeff:      0.100D+01
 Gap=     0.240 Goal=   None    Shift=    0.000
 RMSDP=2.25D-09 MaxDP=1.06D-07              OVMax= 1.55D-07

 Error on total polarization charges =  0.01549
 SCF Done:  E(RCAM-B3LYP) =  -633.332474832     A.U. after    1 cycles
            NFock=  1  Conv=0.23D-08     -V/T= 2.0042
 KE= 6.306979058754D+02 PE=-3.277557992438D+03 EE= 1.112788224449D+03
 Leave Link  502 at Tue Jan 20 18:12:32 2026, MaxMem=  2147483648 cpu:             120.2 elap:               4.1
 (Enter /data/home/wyx/g16/l801.exe)
 DoSCS=F DFT=T ScalE2(SS,OS)=  1.000000  1.000000
 ExpMin= 9.52D-02 ExpMax= 2.70D+04 ExpMxC= 9.22D+02 IAcc=3 IRadAn=         5 AccDes= 0.00D+00
 HarFok:  IExCor=  205 AccDes= 0.00D+00 IRadAn=         5 IDoV=-2 UseB2=F ITyADJ=14
 ICtDFT= 12500011 ScaDFX=  1.000000  1.000000  1.000000  1.000000
 Largest valence mixing into a core orbital is  5.65D-05
 Largest core mixing into a valence orbital is  1.21D-05
 Range of M.O.s used for correlation:    15   356
 NBasis=   356 NAE=    52 NBE=    52 NFC=    14 NFV=     0
 NROrb=    342 NOA=    38 NOB=    38 NVA=   304 NVB=   304

 **** Warning!!: The largest alpha MO coefficient is  0.50827895D+02

 Leave Link  801 at Tue Jan 20 18:12:32 2026, MaxMem=  2147483648 cpu:               1.6 elap:               0.1
 (Enter /data/home/wyx/g16/l914.exe)
 RHF ground state
 Two-electron integrals replicated using symmetry.
 MDV=  2147483648 DFT=T DoStab=F Mixed=T DoRPA=T DoScal=F NonHer=T
 NEqPCM:  Using non-equilibrium solvation (IEInf=1, Eps=  78.3553, EpsInf=   1.7778)
 Inv3:  Mode=1 IEnd=    13116843.
 Iteration    1 A*A^-1 deviation from unit magnitude is 2.89D-15 for    225.
 Iteration    1 A*A^-1 deviation from orthogonality  is 1.89D-15 for   1910     87.
 Iteration    1 A^-1*A deviation from unit magnitude is 2.66D-15 for    225.
 Iteration    1 A^-1*A deviation from orthogonality  is 1.55D-15 for   1938    115.
 Making orbital integer symmetry assigments:
 Orbital symmetries:
       Occupied  (A) (A) (A) (A) (A) (A) (A) (A) (A) (A) (A) (A)
                 (A) (A) (A) (A) (A) (A) (A) (A) (A) (A) (A) (A)
                 (A) (A) (A) (A) (A) (A) (A) (A) (A) (A) (A) (A)
                 (A) (A) (A) (A) (A) (A) (A) (A) (A) (A) (A) (A)
                 (A) (A) (A) (A)
       Virtual   (A) (A) (A) (A) (A) (A) (A) (A) (A) (A) (A) (A)
                 (A) (A) (A) (A) (A) (A) (A) (A) (A) (A) (A) (A)
                 (A) (A) (A) (A) (A) (A) (A) (A) (A) (A) (A) (A)
                 (A) (A) (A) (A) (A) (A) (A) (A) (A) (A) (A) (A)
                 (A) (A) (A) (A) (A) (A) (A) (A) (A) (A) (A) (A)
                 (A) (A) (A) (A) (A) (A) (A) (A) (A) (A) (A) (A)
                 (A) (A) (A) (A) (A) (A) (A) (A) (A) (A) (A) (A)
                 (A) (A) (A) (A) (A) (A) (A) (A) (A) (A) (A) (A)
                 (A) (A) (A) (A) (A) (A) (A) (A) (A) (A) (A) (A)
                 (A) (A) (A) (A) (A) (A) (A) (A) (A) (A) (A) (A)
                 (A) (A) (A) (A) (A) (A) (A) (A) (A) (A) (A) (A)
                 (A) (A) (A) (A) (A) (A) (A) (A) (A) (A) (A) (A)
                 (A) (A) (A) (A) (A) (A) (A) (A) (A) (A) (A) (A)
                 (A) (A) (A) (A) (A) (A) (A) (A) (A) (A) (A) (A)
                 (A) (A) (A) (A) (A) (A) (A) (A) (A) (A) (A) (A)
                 (A) (A) (A) (A) (A) (A) (A) (A) (A) (A) (A) (A)
                 (A) (A) (A) (A) (A) (A) (A) (A) (A) (A) (A) (A)
                 (A) (A) (A) (A) (A) (A) (A) (A) (A) (A) (A) (A)
                 (A) (A) (A) (A) (A) (A) (A) (A) (A) (A) (A) (A)
                 (A) (A) (A) (A) (A) (A) (A) (A) (A) (A) (A) (A)
                 (A) (A) (A) (A) (A) (A) (A) (A) (A) (A) (A) (A)
                 (A) (A) (A) (A) (A) (A) (A) (A) (A) (A) (A) (A)
                 (A) (A) (A) (A) (A) (A) (A) (A) (A) (A) (A) (A)
                 (A) (A) (A) (A) (A) (A) (A) (A) (A) (A) (A) (A)
                 (A) (A) (A) (A) (A) (A) (A) (A) (A) (A) (A) (A)
                 (A) (A) (A) (A)
    24 initial guesses have been made.
 Convergence on wavefunction:    0.001000000000000
 Davidson Disk Diagonalization:  ConvIn= 1.00D-03 SkipCon=T Conv= 1.00D-03.
 Max sub-space:  2000 roots to seek:    24 dimension of matrix:        23104
 Iteration     1 Dimension    24 NMult     0 NNew     24
 CISAX will form    24 AO SS matrices at one time.
 NMat=    24 NSing=    24 JSym2X= 0.
 FoFJK:  IHMeth= 1 ICntrl=       0 DoSepK=T KAlg= 0 I1Cent=           0 FoldK=F
 IRaf=         1 NMat=      48 IRICut=       1 DoRegI=T DoRafI=F ISym2E= 0 IDoP0=3 IntGTp=3.
 New state      2 was old state      3
 New state      3 was old state      4
 New state      4 was old state      2
 New state      5 was old state      6
 New state      6 was old state      5
 Excitation Energies [eV] at current iteration:
 Root      1 :     4.014269180485459
 Root      2 :     4.384703343503604
 Root      3 :     4.567368589524396
 Root      4 :     5.574282313626576
 Root      5 :     6.268673150121876
 Root      6 :     6.508131869706281
 Root      7 :     6.836165366860262
 Root      8 :     6.892189257034841
 Root      9 :     7.039440479211148
 Root     10 :     7.168886576248489
 Root     11 :     7.253649401911049
 Root     12 :     7.476949013313233
 Root     13 :     7.638217235034561
 Root     14 :     7.690856992443134
 Root     15 :     7.838315953025980
 Root     16 :     8.062298802036414
 Root     17 :     8.178334675056881
 Root     18 :     8.303104341078457
 Root     19 :     8.371276493468850
 Root     20 :     8.687327191466524
 Root     21 :     8.823435245417258
 Root     22 :     8.974377589824829
 Root     23 :     9.104384605875213
 Root     24 :     9.239987611234593
 Iteration     2 Dimension    36 NMult    24 NNew     12
 CISAX will form    12 AO SS matrices at one time.
 NMat=    12 NSing=    12 JSym2X= 0.
 Root      1 not converged, maximum delta is    0.050926874652325
 Root      2 not converged, maximum delta is    0.072167711519175
 Root      3 not converged, maximum delta is    0.086849650166912
 Root      4 not converged, maximum delta is    0.264421008840597
 New state      5 was old state      6
 Root      5 not converged, maximum delta is    0.333205475580318
 New state      6 was old state      5
 Root      6 not converged, maximum delta is    0.200419452148956
 Excitation Energies [eV] at current iteration:
 Root      1 :     3.577262033986252   Change is   -0.437007146499207
 Root      2 :     4.143112905315156   Change is   -0.241590438188449
 Root      3 :     4.294700043849992   Change is   -0.272668545674404
 Root      4 :     5.222771864168352   Change is   -0.351510449458225
 Root      5 :     5.671236101715764   Change is   -0.836895767990516
 Root      6 :     6.149730318920148   Change is   -0.118942831201728
 Iteration     3 Dimension    48 NMult    36 NNew     12
 CISAX will form    12 AO SS matrices at one time.
 NMat=    12 NSing=    12 JSym2X= 0.
 Root      1 not converged, maximum delta is    0.008777630740897
 Root      2 not converged, maximum delta is    0.010927756079961
 Root      3 not converged, maximum delta is    0.012599755427200
 Root      4 not converged, maximum delta is    0.019194419511182
 Root      5 not converged, maximum delta is    0.020640710494034
 Root      6 not converged, maximum delta is    0.017783621927503
 Excitation Energies [eV] at current iteration:
 Root      1 :     3.559564298743007   Change is   -0.017697735243245
 Root      2 :     4.129517322258715   Change is   -0.013595583056441
 Root      3 :     4.280701911685824   Change is   -0.013998132164167
 Root      4 :     5.200669801800617   Change is   -0.022102062367735
 Root      5 :     5.645923260204341   Change is   -0.025312841511424
 Root      6 :     6.138683386150235   Change is   -0.011046932769913
 Iteration     4 Dimension    60 NMult    48 NNew     12
 CISAX will form    12 AO SS matrices at one time.
 NMat=    12 NSing=    12 JSym2X= 0.
 Root      1 not converged, maximum delta is    0.002101265940948
 Root      2 not converged, maximum delta is    0.002181496500976
 Root      3 not converged, maximum delta is    0.001998883306210
 Root      4 not converged, maximum delta is    0.002248904762611
 Root      5 not converged, maximum delta is    0.002342442401213
 Root      6 not converged, maximum delta is    0.003340332424712
 Excitation Energies [eV] at current iteration:
 Root      1 :     3.558088395810469   Change is   -0.001475902932538
 Root      2 :     4.128625638401436   Change is   -0.000891683857279
 Root      3 :     4.279901932718639   Change is   -0.000799978967186
 Root      4 :     5.199026390282876   Change is   -0.001643411517741
 Root      5 :     5.643809146173174   Change is   -0.002114114031167
 Root      6 :     6.137862391349558   Change is   -0.000820994800677
 Iteration     5 Dimension    72 NMult    60 NNew     12
 CISAX will form    12 AO SS matrices at one time.
 NMat=    12 NSing=    12 JSym2X= 0.
 Root      1 has converged.
 Root      2 has converged.
 Root      3 has converged.
 Root      4 has converged.
 Root      5 not converged, maximum delta is    0.001091686379297
 Root      6 not converged, maximum delta is    0.001031612963031
 Excitation Energies [eV] at current iteration:
 Root      1 :     3.558005394031146   Change is   -0.000083001779324
 Root      2 :     4.128576802616652   Change is   -0.000048835784784
 Root      3 :     4.279855702277544   Change is   -0.000046230441095
 Root      4 :     5.198869333547588   Change is   -0.000157056735288
 Root      5 :     5.643590223876900   Change is   -0.000218922296274
 Root      6 :     6.137798883211519   Change is   -0.000063508138039
 Iteration     6 Dimension    76 NMult    72 NNew      4
 CISAX will form     4 AO SS matrices at one time.
 NMat=     4 NSing=     4 JSym2X= 0.
 Root      1 has converged.
 Root      2 has converged.
 Root      3 has converged.
 Root      4 has converged.
 Root      5 has converged.
 Root      6 has converged.
 Excitation Energies [eV] at current iteration:
 Root      1 :     3.558005181744738   Change is   -0.000000212286407
 Root      2 :     4.128576481436645   Change is   -0.000000321180007
 Root      3 :     4.279855634075332   Change is   -0.000000068202211
 Root      4 :     5.198864012411201   Change is   -0.000005321136387
 Root      5 :     5.643575461557363   Change is   -0.000014762319537
 Root      6 :     6.137794070953986   Change is   -0.000004812257533
 Convergence achieved on expansion vectors.
 ***********************************************************************
 Excited states from <AA,BB:AA,BB> singles matrix:
 ***********************************************************************
 
 1PDM for each excited state written to RWF  633
 Ground to excited state transition densities written to RWF  633
 Ground to excited state transition electric dipole moments (Au):
       state          X           Y           Z        Dip. S.      Osc.
         1        -1.4695      0.1466     -0.0397      2.1824      0.1902
         2         0.1874      0.0004      0.0442      0.0371      0.0037
         3         0.0051     -0.1181     -0.0370      0.0153      0.0016
         4         0.1414      1.3086      0.1320      1.7498      0.2229
         5         0.0835      1.4601      0.0604      2.1424      0.2962
         6        -0.0287     -0.2349      0.0881      0.0638      0.0096
 Ground to excited state transition velocity dipole moments (Au):
       state          X           Y           Z        Dip. S.      Osc.
         1         0.1843     -0.0148      0.0061      0.0342      0.1745
         2        -0.0274     -0.0003     -0.0038      0.0008      0.0034
         3        -0.0010      0.0174      0.0024      0.0003      0.0013
         4        -0.0289     -0.2377     -0.0200      0.0577      0.2014
         5        -0.0177     -0.2964     -0.0126      0.0883      0.2839
         6         0.0072      0.0488     -0.0388      0.0039      0.0116
 Ground to excited state transition magnetic dipole moments (Au):
       state          X           Y           Z
         1         0.1056     -0.0149     -1.4102
         2         0.7987     -0.1519      0.4393
         3         0.1449     -0.9975      0.1726
         4         0.0550     -0.0878     -0.0472
         5         0.2271     -0.1147     -0.2580
         6        -0.0010     -0.0060     -0.0121
 Ground to excited state transition velocity quadrupole moments (Au):
       state          XX          YY          ZZ          XY          XZ          YZ
         1        -0.1476      0.0879     -0.0022     -0.5256     -0.0683     -0.0076
         2         0.0002      0.0055     -0.0053      0.0758      0.0238      0.0793
         3        -0.0050      0.0080     -0.0288      0.0434      0.0620      0.0052
         4         1.1026     -0.2338      0.0140     -0.0512      0.0770     -0.0523
         5         0.7110     -0.2818     -0.0506     -0.1726      0.0787      0.0392
         6         0.2080      0.2205     -0.2057     -0.0136      0.0309      0.0592
 <0|del|b> * <b|rxdel|0> + <0|del|b> * <b|delr+rdel|0>
 Rotatory Strengths (R) in cgs (10**-40 erg-esu-cm/Gauss)
       state          XX          YY          ZZ    R(velocity)    E-M Angle
         1       -33.8869     34.3326     59.7400     20.0619       87.56
         2        -4.4585    -59.3254    -45.8900    -36.5579      156.90
         3       -40.3874      0.3701    -36.9841    -25.6671      161.77
         4        76.1496     -0.2901     -1.0036     24.9520       42.31
         5       106.9523     -6.2265     12.5045     37.7434       72.04
         6        -1.2517      0.5620      1.2306      0.1803       78.31
 1/2[<0|r|b>*<b|rxdel|0> + (<0|rxdel|b>*<b|r|0>)*]
 Rotatory Strengths (R) in cgs (10**-40 erg-esu-cm/Gauss)
       state          XX          YY          ZZ     R(length)
         1       109.7252      1.5494    -39.6220     23.8842
         2      -105.8343      0.0466    -13.7454    -39.8444
         3        -0.5182    -83.3068      4.5140    -26.4370
         4        -5.4963     81.2646      4.4011     26.7231
         5       -13.4114    118.4440     11.0298     38.6875
         6        -0.0212     -0.9924      0.7565     -0.0857
  1/2[<0|del|b>*<b|r|0> + (<0|r|b>*<b|del|0>)*] (Au)
       state          X           Y           Z        Dip. S.   Osc.(frdel)
         1        -0.2708     -0.0022     -0.0002      0.2732      0.1822
         2        -0.0051     -0.0000     -0.0002      0.0053      0.0035
         3        -0.0000     -0.0021     -0.0001      0.0022      0.0014
         4        -0.0041     -0.3110     -0.0026      0.3177      0.2118
         5        -0.0015     -0.4327     -0.0008      0.4350      0.2900
         6        -0.0002     -0.0115     -0.0034      0.0151      0.0101

 Excitation energies and oscillator strengths:
 
 Excited State   1:      Singlet-A      3.5580 eV  348.47 nm  f=0.1902  <S**2>=0.000
      52 -> 53         0.69746
 This state for optimization and/or second-order correction.
 Total Energy, E(TD-HF/TD-DFT) =  -633.201720548    
 Copying the excited state density for this state as the 1-particle RhoCI density.
 
 Excited State   2:      Singlet-A      4.1286 eV  300.31 nm  f=0.0037  <S**2>=0.000
      50 -> 53         0.12679
      50 -> 54        -0.20425
      51 -> 53         0.55317
      51 -> 54        -0.32068
 
 Excited State   3:      Singlet-A      4.2799 eV  289.69 nm  f=0.0016  <S**2>=0.000
      49 -> 53         0.26253
      49 -> 54         0.17886
      50 -> 53         0.49906
      50 -> 54         0.24577
      50 -> 58        -0.10619
      51 -> 53        -0.11509
      51 -> 54        -0.21696
 
 Excited State   4:      Singlet-A      5.1989 eV  238.48 nm  f=0.2229  <S**2>=0.000
      52 -> 54         0.69669
 
 Excited State   5:      Singlet-A      5.6436 eV  219.69 nm  f=0.2962  <S**2>=0.000
      49 -> 53         0.59771
      50 -> 53        -0.29225
      51 -> 53         0.17620
 
 Excited State   6:      Singlet-A      6.1378 eV  202.00 nm  f=0.0096  <S**2>=0.000
      52 -> 55         0.66972
      52 -> 56        -0.11393
 SavETr:  write IOETrn=   770 NScale= 10 NData=  16 NLR=1 NState=    6 LETran=     118.
 Leave Link  914 at Tue Jan 20 18:14:40 2026, MaxMem=  2147483648 cpu:            4045.7 elap:             127.4
 (Enter /data/home/wyx/g16/l601.exe)
 Copying SCF densities to generalized density rwf, IOpCl= 0 IROHF=0.

 **********************************************************************

            Population analysis using the SCF density.

 **********************************************************************

 Orbital symmetries:
       Occupied  (A) (A) (A) (A) (A) (A) (A) (A) (A) (A) (A) (A)
                 (A) (A) (A) (A) (A) (A) (A) (A) (A) (A) (A) (A)
                 (A) (A) (A) (A) (A) (A) (A) (A) (A) (A) (A) (A)
                 (A) (A) (A) (A) (A) (A) (A) (A) (A) (A) (A) (A)
                 (A) (A) (A) (A)
       Virtual   (A) (A) (A) (A) (A) (A) (A) (A) (A) (A) (A) (A)
                 (A) (A) (A) (A) (A) (A) (A) (A) (A) (A) (A) (A)
                 (A) (A) (A) (A) (A) (A) (A) (A) (A) (A) (A) (A)
                 (A) (A) (A) (A) (A) (A) (A) (A) (A) (A) (A) (A)
                 (A) (A) (A) (A) (A) (A) (A) (A) (A) (A) (A) (A)
                 (A) (A) (A) (A) (A) (A) (A) (A) (A) (A) (A) (A)
                 (A) (A) (A) (A) (A) (A) (A) (A) (A) (A) (A) (A)
                 (A) (A) (A) (A) (A) (A) (A) (A) (A) (A) (A) (A)
                 (A) (A) (A) (A) (A) (A) (A) (A) (A) (A) (A) (A)
                 (A) (A) (A) (A) (A) (A) (A) (A) (A) (A) (A) (A)
                 (A) (A) (A) (A) (A) (A) (A) (A) (A) (A) (A) (A)
                 (A) (A) (A) (A) (A) (A) (A) (A) (A) (A) (A) (A)
                 (A) (A) (A) (A) (A) (A) (A) (A) (A) (A) (A) (A)
                 (A) (A) (A) (A) (A) (A) (A) (A) (A) (A) (A) (A)
                 (A) (A) (A) (A) (A) (A) (A) (A) (A) (A) (A) (A)
                 (A) (A) (A) (A) (A) (A) (A) (A) (A) (A) (A) (A)
                 (A) (A) (A) (A) (A) (A) (A) (A) (A) (A) (A) (A)
                 (A) (A) (A) (A) (A) (A) (A) (A) (A) (A) (A) (A)
                 (A) (A) (A) (A) (A) (A) (A) (A) (A) (A) (A) (A)
                 (A) (A) (A) (A) (A) (A) (A) (A) (A) (A) (A) (A)
                 (A) (A) (A) (A) (A) (A) (A) (A) (A) (A) (A) (A)
                 (A) (A) (A) (A) (A) (A) (A) (A) (A) (A) (A) (A)
                 (A) (A) (A) (A) (A) (A) (A) (A) (A) (A) (A) (A)
                 (A) (A) (A) (A) (A) (A) (A) (A) (A) (A) (A) (A)
                 (A) (A) (A) (A) (A) (A) (A) (A) (A) (A) (A) (A)
                 (A) (A) (A) (A)
 The electronic state is 1-A.
 Alpha  occ. eigenvalues --  -19.18002 -19.17627 -14.43977 -10.33553 -10.33271
 Alpha  occ. eigenvalues --  -10.31932 -10.31454 -10.25582 -10.25014 -10.24916
 Alpha  occ. eigenvalues --  -10.24744 -10.24554 -10.24196 -10.23893  -1.12144
 Alpha  occ. eigenvalues --   -1.11765  -1.07347  -0.91145  -0.90233  -0.83822
 Alpha  occ. eigenvalues --   -0.82477  -0.81466  -0.78471  -0.73972  -0.70993
 Alpha  occ. eigenvalues --   -0.68598  -0.61564  -0.58158  -0.56776  -0.55170
 Alpha  occ. eigenvalues --   -0.54447  -0.54002  -0.52579  -0.51915  -0.50674
 Alpha  occ. eigenvalues --   -0.50132  -0.49511  -0.49058  -0.48490  -0.48139
 Alpha  occ. eigenvalues --   -0.46802  -0.45486  -0.44966  -0.43296  -0.43055
 Alpha  occ. eigenvalues --   -0.42475  -0.42182  -0.42014  -0.32842  -0.32372
 Alpha  occ. eigenvalues --   -0.31453  -0.26282
 Alpha virt. eigenvalues --   -0.02253   0.02395   0.06533   0.08255   0.08835
 Alpha virt. eigenvalues --    0.10144   0.10745   0.12033   0.12745   0.13597
 Alpha virt. eigenvalues --    0.14292   0.15074   0.15734   0.16187   0.16970
 Alpha virt. eigenvalues --    0.17478   0.17728   0.18040   0.18215   0.19196
 Alpha virt. eigenvalues --    0.19999   0.22115   0.22746   0.23429   0.23526
 Alpha virt. eigenvalues --    0.24187   0.24866   0.25592   0.25762   0.26460
 Alpha virt. eigenvalues --    0.26820   0.27193   0.28657   0.29262   0.30224
 Alpha virt. eigenvalues --    0.31548   0.32011   0.32794   0.33605   0.34346
 Alpha virt. eigenvalues --    0.35413   0.35836   0.36831   0.38090   0.38942
 Alpha virt. eigenvalues --    0.40070   0.40895   0.41871   0.42323   0.42733
 Alpha virt. eigenvalues --    0.43980   0.44136   0.45330   0.45958   0.46096
 Alpha virt. eigenvalues --    0.47281   0.47767   0.47981   0.48321   0.48899
 Alpha virt. eigenvalues --    0.49517   0.50034   0.50690   0.51292   0.51550
 Alpha virt. eigenvalues --    0.52774   0.53167   0.53390   0.54181   0.54448
 Alpha virt. eigenvalues --    0.54656   0.55863   0.56231   0.56634   0.58090
 Alpha virt. eigenvalues --    0.58476   0.59266   0.60552   0.60975   0.62348
 Alpha virt. eigenvalues --    0.63078   0.65408   0.65882   0.66507   0.67830
 Alpha virt. eigenvalues --    0.68715   0.70147   0.71344   0.72380   0.73099
 Alpha virt. eigenvalues --    0.73614   0.73800   0.74937   0.76294   0.77408
 Alpha virt. eigenvalues --    0.78169   0.79583   0.81749   0.83508   0.84289
 Alpha virt. eigenvalues --    0.88946   0.92731   0.97960   0.99183   1.25093
 Alpha virt. eigenvalues --    1.25808   1.27313   1.27628   1.29324   1.31619
 Alpha virt. eigenvalues --    1.32387   1.32919   1.34078   1.35353   1.35944
 Alpha virt. eigenvalues --    1.36492   1.36992   1.38142   1.39294   1.39852
 Alpha virt. eigenvalues --    1.40061   1.40321   1.41178   1.41655   1.41797
 Alpha virt. eigenvalues --    1.43254   1.44107   1.44720   1.45245   1.46878
 Alpha virt. eigenvalues --    1.48042   1.48868   1.49556   1.50603   1.51099
 Alpha virt. eigenvalues --    1.52152   1.52562   1.54171   1.54306   1.57489
 Alpha virt. eigenvalues --    1.58160   1.60319   1.60648   1.61135   1.62131
 Alpha virt. eigenvalues --    1.62600   1.63286   1.64260   1.65226   1.65826
 Alpha virt. eigenvalues --    1.67165   1.67598   1.67932   1.68026   1.68805
 Alpha virt. eigenvalues --    1.68957   1.69973   1.70754   1.72311   1.72469
 Alpha virt. eigenvalues --    1.73148   1.75090   1.76026   1.76803   1.78670
 Alpha virt. eigenvalues --    1.79667   1.83503   1.84628   1.86150   1.86569
 Alpha virt. eigenvalues --    1.87023   1.87146   1.88444   1.89368   1.90979
 Alpha virt. eigenvalues --    1.91543   1.94409   1.95408   1.97907   1.99498
 Alpha virt. eigenvalues --    2.00772   2.03720   2.04281   2.06303   2.09370
 Alpha virt. eigenvalues --    2.11342   2.12859   2.14451   2.16374   2.19444
 Alpha virt. eigenvalues --    2.20640   2.21167   2.21733   2.22673   2.25844
 Alpha virt. eigenvalues --    2.26774   2.27411   2.28850   2.30244   2.31286
 Alpha virt. eigenvalues --    2.32578   2.34595   2.35677   2.36305   2.37688
 Alpha virt. eigenvalues --    2.39439   2.40062   2.41525   2.44133   2.44777
 Alpha virt. eigenvalues --    2.45701   2.47509   2.49725   2.50487   2.51899
 Alpha virt. eigenvalues --    2.53093   2.53276   2.54813   2.56783   2.58591
 Alpha virt. eigenvalues --    2.59007   2.59900   2.60722   2.61295   2.62440
 Alpha virt. eigenvalues --    2.64350   2.65360   2.67103   2.67657   2.69179
 Alpha virt. eigenvalues --    2.70257   2.71915   2.73033   2.73445   2.74597
 Alpha virt. eigenvalues --    2.76235   2.76608   2.77331   2.78036   2.79151
 Alpha virt. eigenvalues --    2.80638   2.81161   2.82578   2.83420   2.84435
 Alpha virt. eigenvalues --    2.85541   2.85851   2.87565   2.90472   2.91671
 Alpha virt. eigenvalues --    2.97531   2.99677   3.01186   3.03684   3.09943
 Alpha virt. eigenvalues --    3.12015   3.14707   3.16931   3.16987   3.19172
 Alpha virt. eigenvalues --    3.20325   3.22121   3.25084   3.26280   3.26960
 Alpha virt. eigenvalues --    3.27323   3.29238   3.33268   3.34512   3.36350
 Alpha virt. eigenvalues --    3.37086   3.38752   3.39641   3.40130   3.41346
 Alpha virt. eigenvalues --    3.42725   3.44675   3.45276   3.46146   3.47884
 Alpha virt. eigenvalues --    3.48121   3.49650   3.55223   3.58031   3.59358
 Alpha virt. eigenvalues --    3.60037   3.89561   3.99257   4.34141   4.35486
 Alpha virt. eigenvalues --   21.62836  21.78779  22.08094  22.10974  22.11535
 Alpha virt. eigenvalues --   22.14109  22.15371  22.17626  22.21138  22.24973
 Alpha virt. eigenvalues --   22.30665  31.93462  43.62567  43.64771
          Condensed to atoms (all electrons):
               1          2          3          4          5          6
     1  O    7.956414   0.000000  -0.000253   0.000017   0.015908   0.017539
     2  O    0.000000   7.980016   0.000377   0.000031  -0.203104   0.000858
     3  N   -0.000253   0.000377   6.399970   0.374868  -0.110846   0.331879
     4  H    0.000017   0.000031   0.374868   0.403208   0.016914  -0.045838
     5  C    0.015908  -0.203104  -0.110846   0.016914   6.938219  -0.051638
     6  C    0.017539   0.000858   0.331879  -0.045838  -0.051638   5.627517
     7  C   -0.000481  -0.027634   0.371267  -0.040562   0.341644  -0.084251
     8  C   -0.000117   0.714790   0.004880  -0.000591  -0.227527   0.025232
     9  C   -0.032883   0.017112   0.016020  -0.000291  -0.415113  -0.149786
    10  H    0.003155   0.000055   0.003870   0.000007  -0.029970  -0.014735
    11  H    0.018854   0.000002  -0.001318   0.000018  -0.103545   0.024331
    12  C   -0.217619  -0.002078  -0.094342   0.014735   0.122137  -0.168233
    13  C    0.708660  -0.000033  -0.000159   0.000343   0.072984   0.183346
    14  C   -0.000004  -0.015326  -0.035750  -0.008130  -0.063705   0.007713
    15  H   -0.000000   0.004157   0.003121   0.001020   0.016229   0.006302
    16  H   -0.000000   0.001470  -0.003323   0.000885  -0.003424  -0.002006
    17  H   -0.000000   0.002036   0.002022   0.000760  -0.009397  -0.000742
    18  C   -0.000132  -0.106217  -0.000588   0.000017  -0.272415   0.000548
    19  H   -0.000004   0.009532   0.000004  -0.000001   0.026311   0.000025
    20  H    0.000019   0.001172   0.000012  -0.000000   0.003769   0.000244
    21  H    0.000069   0.003391   0.000118   0.000000   0.039783  -0.001016
    22  C   -0.107180   0.000000   0.000000   0.000108   0.003891  -0.008314
    23  H    0.004669  -0.000000  -0.000101  -0.000051  -0.000553  -0.034327
    24  H    0.001194  -0.000000  -0.000042  -0.000017  -0.000114   0.011442
    25  H    0.007873   0.000000   0.000033  -0.000002  -0.000130  -0.001419
    26  C    0.000895   0.000002  -0.030409  -0.005831  -0.000507   0.178064
    27  H   -0.000228   0.000000   0.003323   0.000899   0.000107  -0.044609
    28  H   -0.000044  -0.000000  -0.002377   0.000430   0.000414  -0.035360
    29  H    0.000025  -0.000000  -0.000293   0.000783  -0.000603  -0.047992
               7          8          9         10         11         12
     1  O   -0.000481  -0.000117  -0.032883   0.003155   0.018854  -0.217619
     2  O   -0.027634   0.714790   0.017112   0.000055   0.000002  -0.002078
     3  N    0.371267   0.004880   0.016020   0.003870  -0.001318  -0.094342
     4  H   -0.040562  -0.000591  -0.000291   0.000007   0.000018   0.014735
     5  C    0.341644  -0.227527  -0.415113  -0.029970  -0.103545   0.122137
     6  C   -0.084251   0.025232  -0.149786  -0.014735   0.024331  -0.168233
     7  C    5.439647  -0.163580  -0.161989  -0.003748   0.018206  -0.009195
     8  C   -0.163580   5.327259   0.066306  -0.005376  -0.007570  -0.026370
     9  C   -0.161989   0.066306   6.197566   0.396356   0.517019   0.074305
    10  H   -0.003748  -0.005376   0.396356   0.548782  -0.034174  -0.024998
    11  H    0.018206  -0.007570   0.517019  -0.034174   0.504419  -0.104117
    12  C   -0.009195  -0.026370   0.074305  -0.024998  -0.104117   7.200056
    13  C    0.010667  -0.005270  -0.261309   0.003084  -0.001191  -0.367730
    14  C    0.248039  -0.043500   0.010193  -0.001319   0.000484  -0.004117
    15  H   -0.068771   0.005449  -0.000212   0.000078  -0.000002  -0.001080
    16  H   -0.026746  -0.001162   0.000560  -0.000068   0.000050   0.000910
    17  H   -0.032411  -0.008286  -0.000541   0.000192  -0.000055  -0.000077
    18  C    0.003209   0.314391  -0.001237  -0.008478   0.008540  -0.003594
    19  H    0.000289  -0.053935   0.000242  -0.000058   0.000449  -0.000206
    20  H    0.001809  -0.025611  -0.009357   0.001050  -0.002623  -0.003771
    21  H   -0.000649  -0.060531  -0.008605   0.002117  -0.004715   0.006176
    22  C   -0.000022  -0.000047   0.002394   0.001396   0.001359  -0.248607
    23  H    0.000021  -0.000012   0.003410  -0.000110  -0.000104   0.063819
    24  H    0.000046   0.000003  -0.001872   0.000131  -0.000115  -0.012058
    25  H    0.000004   0.000004   0.000228  -0.000030  -0.000153   0.024705
    26  C    0.002115   0.000350   0.018129  -0.000742   0.000023  -0.075197
    27  H   -0.000826   0.000004  -0.001007  -0.000077   0.000001  -0.007965
    28  H   -0.000839  -0.000010  -0.000161  -0.000025   0.000045  -0.020187
    29  H    0.003896  -0.000006  -0.000467   0.000099  -0.000009   0.024284
              13         14         15         16         17         18
     1  O    0.708660  -0.000004  -0.000000  -0.000000  -0.000000  -0.000132
     2  O   -0.000033  -0.015326   0.004157   0.001470   0.002036  -0.106217
     3  N   -0.000159  -0.035750   0.003121  -0.003323   0.002022  -0.000588
     4  H    0.000343  -0.008130   0.001020   0.000885   0.000760   0.000017
     5  C    0.072984  -0.063705   0.016229  -0.003424  -0.009397  -0.272415
     6  C    0.183346   0.007713   0.006302  -0.002006  -0.000742   0.000548
     7  C    0.010667   0.248039  -0.068771  -0.026746  -0.032411   0.003209
     8  C   -0.005270  -0.043500   0.005449  -0.001162  -0.008286   0.314391
     9  C   -0.261309   0.010193  -0.000212   0.000560  -0.000541  -0.001237
    10  H    0.003084  -0.001319   0.000078  -0.000068   0.000192  -0.008478
    11  H   -0.001191   0.000484  -0.000002   0.000050  -0.000055   0.008540
    12  C   -0.367730  -0.004117  -0.001080   0.000910  -0.000077  -0.003594
    13  C    5.411975  -0.000078  -0.000011  -0.000027   0.000001   0.000314
    14  C   -0.000078   5.082358   0.384804   0.409426   0.427276   0.001316
    15  H   -0.000011   0.384804   0.570068  -0.025057  -0.027397   0.000289
    16  H   -0.000027   0.409426  -0.025057   0.511227  -0.027360  -0.000064
    17  H    0.000001   0.427276  -0.027397  -0.027360   0.510957  -0.000260
    18  C    0.000314   0.001316   0.000289  -0.000064  -0.000260   5.356828
    19  H   -0.000012   0.000081  -0.000006  -0.000017   0.000029   0.388723
    20  H   -0.000023  -0.000282  -0.000006  -0.000006   0.000031   0.396231
    21  H    0.000418   0.000087  -0.000017   0.000004  -0.000044   0.381874
    22  C    0.284340  -0.000024   0.000002   0.000000  -0.000000   0.000022
    23  H   -0.088592  -0.000002   0.000000   0.000000   0.000000   0.000003
    24  H   -0.021619  -0.000000   0.000000   0.000000  -0.000000  -0.000002
    25  H   -0.042539   0.000000   0.000000  -0.000000   0.000000  -0.000001
    26  C   -0.054148   0.001465   0.000000  -0.000196   0.000060   0.000025
    27  H   -0.005839   0.000096  -0.000013   0.000001  -0.000001  -0.000000
    28  H    0.006303  -0.000106   0.000003  -0.000015   0.000004  -0.000001
    29  H   -0.000321  -0.000241   0.000134   0.000003  -0.000005   0.000000
              19         20         21         22         23         24
     1  O   -0.000004   0.000019   0.000069  -0.107180   0.004669   0.001194
     2  O    0.009532   0.001172   0.003391   0.000000  -0.000000  -0.000000
     3  N    0.000004   0.000012   0.000118   0.000000  -0.000101  -0.000042
     4  H   -0.000001  -0.000000   0.000000   0.000108  -0.000051  -0.000017
     5  C    0.026311   0.003769   0.039783   0.003891  -0.000553  -0.000114
     6  C    0.000025   0.000244  -0.001016  -0.008314  -0.034327   0.011442
     7  C    0.000289   0.001809  -0.000649  -0.000022   0.000021   0.000046
     8  C   -0.053935  -0.025611  -0.060531  -0.000047  -0.000012   0.000003
     9  C    0.000242  -0.009357  -0.008605   0.002394   0.003410  -0.001872
    10  H   -0.000058   0.001050   0.002117   0.001396  -0.000110   0.000131
    11  H    0.000449  -0.002623  -0.004715   0.001359  -0.000104  -0.000115
    12  C   -0.000206  -0.003771   0.006176  -0.248607   0.063819  -0.012058
    13  C   -0.000012  -0.000023   0.000418   0.284340  -0.088592  -0.021619
    14  C    0.000081  -0.000282   0.000087  -0.000024  -0.000002  -0.000000
    15  H   -0.000006  -0.000006  -0.000017   0.000002   0.000000   0.000000
    16  H   -0.000017  -0.000006   0.000004   0.000000   0.000000   0.000000
    17  H    0.000029   0.000031  -0.000044  -0.000000   0.000000  -0.000000
    18  C    0.388723   0.396231   0.381874   0.000022   0.000003  -0.000002
    19  H    0.507564  -0.009987  -0.020122  -0.000000   0.000000   0.000000
    20  H   -0.009987   0.501765  -0.026242  -0.000013  -0.000000   0.000000
    21  H   -0.020122  -0.026242   0.533118   0.000013  -0.000000  -0.000000
    22  C   -0.000000  -0.000013   0.000013   5.412374   0.400066   0.401253
    23  H    0.000000  -0.000000  -0.000000   0.400066   0.533891  -0.026118
    24  H    0.000000   0.000000  -0.000000   0.401253  -0.026118   0.490033
    25  H   -0.000000  -0.000000  -0.000000   0.383554  -0.021644  -0.008222
    26  C    0.000000   0.000006  -0.000014  -0.028193   0.015291  -0.015619
    27  H   -0.000000  -0.000000  -0.000000   0.009562  -0.010631  -0.000898
    28  H   -0.000000   0.000000  -0.000000  -0.011254  -0.001203   0.001158
    29  H    0.000000  -0.000000   0.000000   0.001935   0.000730   0.000212
              25         26         27         28         29
     1  O    0.007873   0.000895  -0.000228  -0.000044   0.000025
     2  O    0.000000   0.000002   0.000000  -0.000000  -0.000000
     3  N    0.000033  -0.030409   0.003323  -0.002377  -0.000293
     4  H   -0.000002  -0.005831   0.000899   0.000430   0.000783
     5  C   -0.000130  -0.000507   0.000107   0.000414  -0.000603
     6  C   -0.001419   0.178064  -0.044609  -0.035360  -0.047992
     7  C    0.000004   0.002115  -0.000826  -0.000839   0.003896
     8  C    0.000004   0.000350   0.000004  -0.000010  -0.000006
     9  C    0.000228   0.018129  -0.001007  -0.000161  -0.000467
    10  H   -0.000030  -0.000742  -0.000077  -0.000025   0.000099
    11  H   -0.000153   0.000023   0.000001   0.000045  -0.000009
    12  C    0.024705  -0.075197  -0.007965  -0.020187   0.024284
    13  C   -0.042539  -0.054148  -0.005839   0.006303  -0.000321
    14  C    0.000000   0.001465   0.000096  -0.000106  -0.000241
    15  H    0.000000   0.000000  -0.000013   0.000003   0.000134
    16  H   -0.000000  -0.000196   0.000001  -0.000015   0.000003
    17  H    0.000000   0.000060  -0.000001   0.000004  -0.000005
    18  C   -0.000001   0.000025  -0.000000  -0.000001   0.000000
    19  H   -0.000000   0.000000  -0.000000  -0.000000   0.000000
    20  H   -0.000000   0.000006  -0.000000   0.000000  -0.000000
    21  H   -0.000000  -0.000014  -0.000000  -0.000000   0.000000
    22  C    0.383554  -0.028193   0.009562  -0.011254   0.001935
    23  H   -0.021644   0.015291  -0.010631  -0.001203   0.000730
    24  H   -0.008222  -0.015619  -0.000898   0.001158   0.000212
    25  H    0.496822   0.001983   0.000906   0.000096  -0.000045
    26  C    0.001983   5.253648   0.426340   0.430562   0.388399
    27  H    0.000906   0.426340   0.509650  -0.024673  -0.026483
    28  H    0.000096   0.430562  -0.024673   0.476598  -0.018113
    29  H   -0.000045   0.388399  -0.026483  -0.018113   0.517322
 Mulliken charges:
               1
     1  O   -0.376347
     2  O   -0.380609
     3  N   -0.231962
     4  H    0.286269
     5  C   -0.105718
     6  C    0.275224
     7  C    0.180845
     8  C    0.170832
     9  C   -0.275008
    10  H    0.163536
    11  H    0.165891
    12  C   -0.139585
    13  C    0.166467
    14  C   -0.400753
    15  H    0.130916
    16  H    0.164933
    17  H    0.163208
    18  C   -0.459344
    19  H    0.151099
    20  H    0.171816
    21  H    0.154789
    22  C   -0.498615
    23  H    0.161546
    24  H    0.181227
    25  H    0.157979
    26  C   -0.506503
    27  H    0.172362
    28  H    0.198753
    29  H    0.156754
 Sum of Mulliken charges =   0.00000
 Mulliken charges with hydrogens summed into heavy atoms:
               1
     1  O   -0.376347
     2  O   -0.380609
     3  N    0.054307
     5  C   -0.105718
     6  C    0.275224
     7  C    0.180845
     8  C    0.170832
     9  C    0.054419
    12  C   -0.139585
    13  C    0.166467
    14  C    0.058303
    18  C    0.018360
    22  C    0.002136
    26  C    0.021366
 Electronic spatial extent (au):  <R**2>=           3181.3146
 Charge=              0.0000 electrons
 Dipole moment (field-independent basis, Debye):
    X=              4.0063    Y=              7.4298    Z=              0.4726  Tot=              8.4543
 Quadrupole moment (field-independent basis, Debye-Ang):
   XX=            -97.6159   YY=            -78.6643   ZZ=            -85.0268
   XY=             12.7877   XZ=             -6.0544   YZ=              1.4268
 Traceless Quadrupole moment (field-independent basis, Debye-Ang):
   XX=            -10.5136   YY=              8.4380   ZZ=              2.0756
   XY=             12.7877   XZ=             -6.0544   YZ=              1.4268
 Octapole moment (field-independent basis, Debye-Ang**2):
  XXX=            108.2127  YYY=             64.8856  ZZZ=             -2.0594  XYY=            -34.2325
  XXY=             30.7905  XXZ=             11.8839  XZZ=              3.1359  YZZ=             -1.0903
  YYZ=             -2.7333  XYZ=              5.1064
 Hexadecapole moment (field-independent basis, Debye-Ang**3):
 XXXX=          -3012.0911 YYYY=          -1271.0354 ZZZZ=           -161.7847 XXXY=             39.9193
 XXXZ=            -70.7534 YYYX=             87.8292 YYYZ=             22.7047 ZZZX=              1.8162
 ZZZY=             -6.3025 XXYY=           -691.3525 XXZZ=           -487.9708 YYZZ=           -242.4341
 XXYZ=              5.5518 YYXZ=             -6.1879 ZZXY=             -1.2128
 N-N= 9.007393872816D+02 E-N=-3.277557992298D+03  KE= 6.306979058754D+02
 Leave Link  601 at Tue Jan 20 18:14:41 2026, MaxMem=  2147483648 cpu:               1.5 elap:               0.1
 (Enter /data/home/wyx/g16/l9999.exe)
 Electronic transition elements 
                 1             2             3             4             5 
      1  -0.633202D+03 -0.633181D+03 -0.633175D+03 -0.633141D+03 -0.633125D+03
      2  -0.139673D+01  0.164114D+00  0.512450D-01 -0.331712D+00 -0.421754D+00
      3  -0.361269D+00  0.639940D-01 -0.109291D+00  0.127854D+01  0.140148D+01
      4  -0.317808D+00  0.777236D-01 -0.277353D-01  0.710548D-01 -0.194772D-01
      5   0.173775D+00 -0.244686D-01 -0.717018D-02  0.564761D-01  0.849338D-01
      6   0.486863D-01 -0.955153D-02  0.160743D-01 -0.233315D+00 -0.284750D+00
      7   0.406910D-01 -0.873965D-02  0.104482D-02 -0.961341D-02  0.352849D-02
      8   0.376403D+00  0.702090D+00  0.432873D+00  0.891622D-01  0.297885D+00
      9   0.242341D-01  0.127703D+00 -0.889248D+00 -0.638398D-01 -0.302998D-01
     10  -0.136298D+01  0.587161D+00  0.260174D+00 -0.305259D-01 -0.204097D+00
     11   0.231040D+00 -0.442733D-01 -0.526900D-01  0.909904D+00  0.654908D+00
     12  -0.275046D+00  0.530407D-01  0.341742D-01 -0.112200D+00 -0.277755D+00
     13  -0.179426D-01 -0.828907D-02 -0.720937D-02  0.851286D-01  0.143996D-02
     14  -0.464294D+00  0.394201D-01  0.235070D-01  0.384678D+00  0.168586D+00
     15  -0.162308D-01 -0.122258D-01  0.518996D-01  0.268368D+00  0.200762D+00
     16  -0.123374D+00  0.922129D-01  0.312207D-01  0.525032D-01  0.977984D-01
                 6 
      1  -0.633107D+03
      2   0.347650D-01
      3  -0.230827D+00
      4   0.962597D-01
      5  -0.212563D-02
      6   0.483669D-01
      7  -0.398933D-01
      8   0.338850D-02
      9  -0.595328D-02
     10  -0.117226D-01
     11   0.198780D+00
     12   0.210087D+00
     13  -0.186108D+00
     14  -0.272002D-01
     15   0.890202D-01
     16   0.628098D-01
 1\1\GINC-CN012\SP\RCAM-B3LYP TD-FC\TZVP\C11H15N1O2\WYX\20-Jan-2026\0\\
 #p CAM-B3LYP/TZVP em=gd3bj TD=NStates=6 SCRF=Solvent=Water Geom=Check 
 Guess=Read\\Title Card Required\\0,1\O,0,1.302922329,9.8389006239,1.11
 52084938\O,0,-4.661551276,9.7585222625,-0.7455338741\N,0,-2.1592342563
 ,12.9095588306,0.5322684014\H,0,-2.4672449629,13.8667515186,0.47596638
 1\C,0,-2.6935109921,10.6388973069,0.238801059\C,0,-0.8051980162,12.693
 9503207,0.6798266206\C,0,-3.0649013818,11.9379807988,0.1686068321\C,0,
 -3.5952766053,9.5634417762,-0.1707353911\C,0,-1.3522025946,10.28772118
 38,0.8419871992\H,0,-1.470307372,9.9802025177,1.8896248421\H,0,-0.9230
 735841,9.4227833141,0.3414859304\C,0,-0.3540150651,11.4210866448,0.753
 5465383\C,0,1.0470609639,11.0068597868,0.8369553198\C,0,-4.3858274015,
 12.4782717401,-0.2759268114\H,0,-4.4896296274,13.5203451313,0.02576433
 91\H,0,-4.47461118,12.4223629531,-1.360957256\H,0,-5.2064961429,11.898
 5215762,0.1349504657\C,0,-3.1717453312,8.1483279654,0.137143685\H,0,-4
 .0021252623,7.4767750828,-0.0645762745\H,0,-2.3256806809,7.8637948657,
 -0.4919469199\H,0,-2.8507734523,8.0407868038,1.1736564779\C,0,2.200736
 885,11.9375709623,0.5539258092\H,0,1.9996278675,12.6320362967,-0.25740
 13218\H,0,2.4466928198,12.5170727693,1.4453131552\H,0,3.0654477616,11.
 3270559297,0.3046110804\C,0,-0.0259501429,13.9729271056,0.7326327264\H
 ,0,0.8262718127,13.9137637853,1.3983330584\H,0,0.3288902928,14.2515834
 289,-0.2607245259\H,0,-0.6674664345,14.7779811682,1.0891939597\\Versio
 n=ES64L-G16RevA.03\State=1-A\HF=-633.3324748\RMSD=2.250e-09\PG=C01 [X(
 C11H15N1O2)]\\@


 WOMEN HOLD UP HALF THE SKY. -- MAO TSE TUNG
 Job cpu time:       0 days  1 hours  9 minutes 56.3 seconds.
 Elapsed time:       0 days  0 hours  2 minutes 12.9 seconds.
 File lengths (MBytes):  RWF=    820 Int=      0 D2E=      0 Chk=     67 Scr=      1
 Normal termination of Gaussian 16 at Tue Jan 20 18:14:43 2026.
