 Entering Gaussian System, Link 0=g16
 Input=DDL-S0-intmodes.gjf
 Output=DDL-S0-intmodes.log
 Initial command:
 /data/home/wyx/g16/l1.exe "/scr/tmp/wyx/15847/Gau-162289.inp" -scrdir="/scr/tmp/wyx/15847/"
 Entering Link 1 = /data/home/wyx/g16/l1.exe PID=    162290.
  
 Copyright (c) 1988,1990,1992,1993,1995,1998,2003,2009,2016,
            Gaussian, Inc.  All Rights Reserved.
  
 This is part of the Gaussian(R) 16 program.  It is based on
 the Gaussian(R) 09 system (copyright 2009, Gaussian, Inc.),
 the Gaussian(R) 03 system (copyright 2003, Gaussian, Inc.),
 the Gaussian(R) 98 system (copyright 1998, Gaussian, Inc.),
 the Gaussian(R) 94 system (copyright 1995, Gaussian, Inc.),
 the Gaussian 92(TM) system (copyright 1992, Gaussian, Inc.),
 the Gaussian 90(TM) system (copyright 1990, Gaussian, Inc.),
 the Gaussian 88(TM) system (copyright 1988, Gaussian, Inc.),
 the Gaussian 86(TM) system (copyright 1986, Carnegie Mellon
 University), and the Gaussian 82(TM) system (copyright 1983,
 Carnegie Mellon University). Gaussian is a federally registered
 trademark of Gaussian, Inc.
  
 This software contains proprietary and confidential information,
 including trade secrets, belonging to Gaussian, Inc.
  
 This software is provided under written license and may be
 used, copied, transmitted, or stored only in accord with that
 written license.
  
 The following legend is applicable only to US Government
 contracts under FAR:
  
                    RESTRICTED RIGHTS LEGEND
  
 Use, reproduction and disclosure by the US Government is
 subject to restrictions as set forth in subparagraphs (a)
 and (c) of the Commercial Computer Software - Restricted
 Rights clause in FAR 52.227-19.
  
 Gaussian, Inc.
 340 Quinnipiac St., Bldg. 40, Wallingford CT 06492
  
  
 ---------------------------------------------------------------
 Warning -- This program may not be used in any manner that
 competes with the business of Gaussian, Inc. or will provide
 assistance to any competitor of Gaussian, Inc.  The licensee
 of this program is prohibited from giving any competitor of
 Gaussian, Inc. access to this program.  By using this program,
 the user acknowledges that Gaussian, Inc. is engaged in the
 business of creating and licensing software in the field of
 computational chemistry and represents and warrants to the
 licensee that it is not a competitor of Gaussian, Inc. and that
 it will not use this program in any manner prohibited above.
 ---------------------------------------------------------------
  

 Cite this work as:
 Gaussian 16, Revision A.03,
 M. J. Frisch, G. W. Trucks, H. B. Schlegel, G. E. Scuseria, 
 M. A. Robb, J. R. Cheeseman, G. Scalmani, V. Barone, 
 G. A. Petersson, H. Nakatsuji, X. Li, M. Caricato, A. V. Marenich, 
 J. Bloino, B. G. Janesko, R. Gomperts, B. Mennucci, H. P. Hratchian, 
 J. V. Ortiz, A. F. Izmaylov, J. L. Sonnenberg, D. Williams-Young, 
 F. Ding, F. Lipparini, F. Egidi, J. Goings, B. Peng, A. Petrone, 
 T. Henderson, D. Ranasinghe, V. G. Zakrzewski, J. Gao, N. Rega, 
 G. Zheng, W. Liang, M. Hada, M. Ehara, K. Toyota, R. Fukuda, 
 J. Hasegawa, M. Ishida, T. Nakajima, Y. Honda, O. Kitao, H. Nakai, 
 T. Vreven, K. Throssell, J. A. Montgomery, Jr., J. E. Peralta, 
 F. Ogliaro, M. J. Bearpark, J. J. Heyd, E. N. Brothers, K. N. Kudin, 
 V. N. Staroverov, T. A. Keith, R. Kobayashi, J. Normand, 
 K. Raghavachari, A. P. Rendell, J. C. Burant, S. S. Iyengar, 
 J. Tomasi, M. Cossi, J. M. Millam, M. Klene, C. Adamo, R. Cammi, 
 J. W. Ochterski, R. L. Martin, K. Morokuma, O. Farkas, 
 J. B. Foresman, and D. J. Fox, Gaussian, Inc., Wallingford CT, 2016.
 
 ******************************************
 Gaussian 16:  ES64L-G16RevA.03 25-Dec-2016
                12-Jun-2026 
 ******************************************
 %nprocshared=32
 Will use up to   32 processors via shared memory.
 %mem=16GB
 %oldchk=DDL-S0-opt-freq.chk
 %chk=DDL-S0-intmodes.chk
 Copying data from "DDL-S0-opt-freq.chk" to current chk file "DDL-S0-intmodes.chk"
 IOpt=  2 FromEx=T IUOpen= 4 IOptOp= 5 NList=   0 IFRang= 0 IUIn= 4 IUOut= 2.
 ----------------------------------------------------------------------
 #p freq=intmodes IOp(7/75=-1) CAM-B3LYP/TZVP em=gd3bj SCRF=Solvent=Wat
 er Geom=Check Guess=Read
 ----------------------------------------------------------------------
 1/10=4,18=20,29=2,30=1,38=1/1,3;
 2/9=110,12=2,40=1/2;
 3/5=19,7=101,11=2,14=-4,25=1,30=1,70=2201,71=2,72=1,74=-40,116=-2,124=41,140=1/1,2,3;
 4/5=1/1;
 5/5=2,38=6,53=1,98=1/2;
 8/6=4,10=90,11=11/1;
 11/6=1,8=1,9=11,15=111,16=1/1,2,10;
 10/6=1/2;
 6/7=2,8=2,9=2,10=2,28=1/1;
 7/8=21,10=1,25=1,75=-1/1,2,3,16;
 1/10=4,18=20,30=1/3;
 99//99;
 Leave Link    1 at Fri Jun 12 19:59:16 2026, MaxMem=  2147483648 cpu:              12.1 elap:               0.6
 (Enter /data/home/wyx/g16/l101.exe)
 -------------------
 Title Card Required
 -------------------
 Structure from the checkpoint file:  "DDL-S0-intmodes.chk"
 Charge =  0 Multiplicity = 1
 Redundant internal coordinates found in file.  (old form).
 O,0,1.302922329,9.8389006239,1.1152084938
 O,0,-4.661551276,9.7585222625,-0.7455338741
 N,0,-2.1592342563,12.9095588306,0.5322684014
 H,0,-2.4672449629,13.8667515186,0.475966381
 C,0,-2.6935109921,10.6388973069,0.238801059
 C,0,-0.8051980162,12.6939503207,0.6798266206
 C,0,-3.0649013818,11.9379807988,0.1686068321
 C,0,-3.5952766053,9.5634417762,-0.1707353911
 C,0,-1.3522025946,10.2877211838,0.8419871992
 H,0,-1.470307372,9.9802025177,1.8896248421
 H,0,-0.9230735841,9.4227833141,0.3414859304
 C,0,-0.3540150651,11.4210866448,0.7535465383
 C,0,1.0470609639,11.0068597868,0.8369553198
 C,0,-4.3858274015,12.4782717401,-0.2759268114
 H,0,-4.4896296274,13.5203451313,0.0257643391
 H,0,-4.47461118,12.4223629531,-1.360957256
 H,0,-5.2064961429,11.8985215762,0.1349504657
 C,0,-3.1717453312,8.1483279654,0.137143685
 H,0,-4.0021252623,7.4767750828,-0.0645762745
 H,0,-2.3256806809,7.8637948657,-0.4919469199
 H,0,-2.8507734523,8.0407868038,1.1736564779
 C,0,2.200736885,11.9375709623,0.5539258092
 H,0,1.9996278675,12.6320362967,-0.2574013218
 H,0,2.4466928198,12.5170727693,1.4453131552
 H,0,3.0654477616,11.3270559297,0.3046110804
 C,0,-0.0259501429,13.9729271056,0.7326327264
 H,0,0.8262718127,13.9137637853,1.3983330584
 H,0,0.3288902928,14.2515834289,-0.2607245259
 H,0,-0.6674664345,14.7779811682,1.0891939597
 Recover connectivity data from disk.
 ITRead=  0  0  0  0  0  0  0  0  0  0  0  0  0  0  0  0  0  0  0  0
 ITRead=  0  0  0  0  0  0  0  0  0
 MicOpt= -1 -1 -1 -1 -1 -1 -1 -1 -1 -1 -1 -1 -1 -1 -1 -1 -1 -1 -1 -1
 MicOpt= -1 -1 -1 -1 -1 -1 -1 -1 -1
 NAtoms=     29 NQM=       29 NQMF=       0 NMMI=      0 NMMIF=      0
                NMic=       0 NMicF=      0.
                    Isotopes and Nuclear Properties:
 (Nuclear quadrupole moments (NQMom) in fm**2, nuclear magnetic moments (NMagM)
  in nuclear magnetons)

  Atom         1           2           3           4           5           6           7           8           9          10
 IAtWgt=          16          16          14           1          12          12          12          12          12           1
 AtmWgt=  15.9949146  15.9949146  14.0030740   1.0078250  12.0000000  12.0000000  12.0000000  12.0000000  12.0000000   1.0078250
 NucSpn=           0           0           2           1           0           0           0           0           0           1
 AtZEff=   5.6000000   5.6000000   4.5500000   1.0000000   3.6000000   3.6000000   3.6000000   3.6000000   3.6000000   1.0000000
 NQMom=    0.0000000   0.0000000   2.0440000   0.0000000   0.0000000   0.0000000   0.0000000   0.0000000   0.0000000   0.0000000
 NMagM=    0.0000000   0.0000000   0.4037610   2.7928460   0.0000000   0.0000000   0.0000000   0.0000000   0.0000000   2.7928460
 AtZNuc=   8.0000000   8.0000000   7.0000000   1.0000000   6.0000000   6.0000000   6.0000000   6.0000000   6.0000000   1.0000000

  Atom        11          12          13          14          15          16          17          18          19          20
 IAtWgt=           1          12          12          12           1           1           1          12           1           1
 AtmWgt=   1.0078250  12.0000000  12.0000000  12.0000000   1.0078250   1.0078250   1.0078250  12.0000000   1.0078250   1.0078250
 NucSpn=           1           0           0           0           1           1           1           0           1           1
 AtZEff=   1.0000000   3.6000000   3.6000000   3.6000000   1.0000000   1.0000000   1.0000000   3.6000000   1.0000000   1.0000000
 NQMom=    0.0000000   0.0000000   0.0000000   0.0000000   0.0000000   0.0000000   0.0000000   0.0000000   0.0000000   0.0000000
 NMagM=    2.7928460   0.0000000   0.0000000   0.0000000   2.7928460   2.7928460   2.7928460   0.0000000   2.7928460   2.7928460
 AtZNuc=   1.0000000   6.0000000   6.0000000   6.0000000   1.0000000   1.0000000   1.0000000   6.0000000   1.0000000   1.0000000

  Atom        21          22          23          24          25          26          27          28          29
 IAtWgt=           1          12           1           1           1          12           1           1           1
 AtmWgt=   1.0078250  12.0000000   1.0078250   1.0078250   1.0078250  12.0000000   1.0078250   1.0078250   1.0078250
 NucSpn=           1           0           1           1           1           0           1           1           1
 AtZEff=   1.0000000   3.6000000   1.0000000   1.0000000   1.0000000   3.6000000   1.0000000   1.0000000   1.0000000
 NQMom=    0.0000000   0.0000000   0.0000000   0.0000000   0.0000000   0.0000000   0.0000000   0.0000000   0.0000000
 NMagM=    2.7928460   0.0000000   2.7928460   2.7928460   2.7928460   0.0000000   2.7928460   2.7928460   2.7928460
 AtZNuc=   1.0000000   6.0000000   1.0000000   1.0000000   1.0000000   6.0000000   1.0000000   1.0000000   1.0000000
 Leave Link  101 at Fri Jun 12 19:59:19 2026, MaxMem=  2147483648 cpu:              10.9 elap:               0.5
 (Enter /data/home/wyx/g16/l103.exe)

 GradGradGradGradGradGradGradGradGradGradGradGradGradGradGradGradGradGrad
 Berny optimization.
 Initialization pass.
                           ----------------------------
                           !    Initial Parameters    !
                           ! (Angstroms and Degrees)  !
 --------------------------                            --------------------------
 ! Name  Definition              Value          Derivative Info.                !
 --------------------------------------------------------------------------------
 ! R1    R(1,13)                 1.2276         calculate D2E/DX2 analytically  !
 ! R2    R(2,8)                  1.2269         calculate D2E/DX2 analytically  !
 ! R3    R(3,4)                  1.0071         calculate D2E/DX2 analytically  !
 ! R4    R(3,6)                  1.379          calculate D2E/DX2 analytically  !
 ! R5    R(3,7)                  1.3771         calculate D2E/DX2 analytically  !
 ! R6    R(5,7)                  1.353          calculate D2E/DX2 analytically  !
 ! R7    R(5,8)                  1.462          calculate D2E/DX2 analytically  !
 ! R8    R(5,9)                  1.512          calculate D2E/DX2 analytically  !
 ! R9    R(6,12)                 1.3525         calculate D2E/DX2 analytically  !
 ! R10   R(6,26)                 1.4986         calculate D2E/DX2 analytically  !
 ! R11   R(7,14)                 1.4948         calculate D2E/DX2 analytically  !
 ! R12   R(8,18)                 1.5089         calculate D2E/DX2 analytically  !
 ! R13   R(9,10)                 1.0982         calculate D2E/DX2 analytically  !
 ! R14   R(9,11)                 1.0876         calculate D2E/DX2 analytically  !
 ! R15   R(9,12)                 1.5129         calculate D2E/DX2 analytically  !
 ! R16   R(12,13)                1.4634         calculate D2E/DX2 analytically  !
 ! R17   R(13,22)                1.5091         calculate D2E/DX2 analytically  !
 ! R18   R(14,15)                1.0898         calculate D2E/DX2 analytically  !
 ! R19   R(14,16)                1.0901         calculate D2E/DX2 analytically  !
 ! R20   R(14,17)                1.0856         calculate D2E/DX2 analytically  !
 ! R21   R(18,19)                1.0868         calculate D2E/DX2 analytically  !
 ! R22   R(18,20)                1.092          calculate D2E/DX2 analytically  !
 ! R23   R(18,21)                1.0904         calculate D2E/DX2 analytically  !
 ! R24   R(22,23)                1.0867         calculate D2E/DX2 analytically  !
 ! R25   R(22,24)                1.0913         calculate D2E/DX2 analytically  !
 ! R26   R(22,25)                1.0875         calculate D2E/DX2 analytically  !
 ! R27   R(26,27)                1.083          calculate D2E/DX2 analytically  !
 ! R28   R(26,28)                1.091          calculate D2E/DX2 analytically  !
 ! R29   R(26,29)                1.0894         calculate D2E/DX2 analytically  !
 ! A1    A(4,3,6)              117.0574         calculate D2E/DX2 analytically  !
 ! A2    A(4,3,7)              117.0426         calculate D2E/DX2 analytically  !
 ! A3    A(6,3,7)              124.3116         calculate D2E/DX2 analytically  !
 ! A4    A(7,5,8)              121.4975         calculate D2E/DX2 analytically  !
 ! A5    A(7,5,9)              119.1575         calculate D2E/DX2 analytically  !
 ! A6    A(8,5,9)              119.2124         calculate D2E/DX2 analytically  !
 ! A7    A(3,6,12)             118.7204         calculate D2E/DX2 analytically  !
 ! A8    A(3,6,26)             112.3895         calculate D2E/DX2 analytically  !
 ! A9    A(12,6,26)            128.8899         calculate D2E/DX2 analytically  !
 ! A10   A(3,7,5)              118.8944         calculate D2E/DX2 analytically  !
 ! A11   A(3,7,14)             113.8716         calculate D2E/DX2 analytically  !
 ! A12   A(5,7,14)             127.2336         calculate D2E/DX2 analytically  !
 ! A13   A(2,8,5)              123.3873         calculate D2E/DX2 analytically  !
 ! A14   A(2,8,18)             119.2515         calculate D2E/DX2 analytically  !
 ! A15   A(5,8,18)             117.3611         calculate D2E/DX2 analytically  !
 ! A16   A(5,9,10)             110.4988         calculate D2E/DX2 analytically  !
 ! A17   A(5,9,11)             110.5579         calculate D2E/DX2 analytically  !
 ! A18   A(5,9,12)             112.8294         calculate D2E/DX2 analytically  !
 ! A19   A(10,9,11)            104.996          calculate D2E/DX2 analytically  !
 ! A20   A(10,9,12)            109.664          calculate D2E/DX2 analytically  !
 ! A21   A(11,9,12)            107.9725         calculate D2E/DX2 analytically  !
 ! A22   A(6,12,9)             119.2183         calculate D2E/DX2 analytically  !
 ! A23   A(6,12,13)            126.0784         calculate D2E/DX2 analytically  !
 ! A24   A(9,12,13)            114.6023         calculate D2E/DX2 analytically  !
 ! A25   A(1,13,12)            118.801          calculate D2E/DX2 analytically  !
 ! A26   A(1,13,22)            118.0311         calculate D2E/DX2 analytically  !
 ! A27   A(12,13,22)           123.1388         calculate D2E/DX2 analytically  !
 ! A28   A(7,14,15)            110.332          calculate D2E/DX2 analytically  !
 ! A29   A(7,14,16)            110.4534         calculate D2E/DX2 analytically  !
 ! A30   A(7,14,17)            111.2517         calculate D2E/DX2 analytically  !
 ! A31   A(15,14,16)           108.471          calculate D2E/DX2 analytically  !
 ! A32   A(15,14,17)           109.5043         calculate D2E/DX2 analytically  !
 ! A33   A(16,14,17)           106.7248         calculate D2E/DX2 analytically  !
 ! A34   A(8,18,19)            109.0971         calculate D2E/DX2 analytically  !
 ! A35   A(8,18,20)            110.1383         calculate D2E/DX2 analytically  !
 ! A36   A(8,18,21)            111.6593         calculate D2E/DX2 analytically  !
 ! A37   A(19,18,20)           108.9067         calculate D2E/DX2 analytically  !
 ! A38   A(19,18,21)           109.9011         calculate D2E/DX2 analytically  !
 ! A39   A(20,18,21)           107.0885         calculate D2E/DX2 analytically  !
 ! A40   A(13,22,23)           113.1208         calculate D2E/DX2 analytically  !
 ! A41   A(13,22,24)           110.2805         calculate D2E/DX2 analytically  !
 ! A42   A(13,22,25)           107.7367         calculate D2E/DX2 analytically  !
 ! A43   A(23,22,24)           108.1909         calculate D2E/DX2 analytically  !
 ! A44   A(23,22,25)           109.5574         calculate D2E/DX2 analytically  !
 ! A45   A(24,22,25)           107.8288         calculate D2E/DX2 analytically  !
 ! A46   A(6,26,27)            112.5946         calculate D2E/DX2 analytically  !
 ! A47   A(6,26,28)            110.7944         calculate D2E/DX2 analytically  !
 ! A48   A(6,26,29)            109.6345         calculate D2E/DX2 analytically  !
 ! A49   A(27,26,28)           108.5223         calculate D2E/DX2 analytically  !
 ! A50   A(27,26,29)           107.6118         calculate D2E/DX2 analytically  !
 ! A51   A(28,26,29)           107.5046         calculate D2E/DX2 analytically  !
 ! D1    D(4,3,6,12)          -179.735          calculate D2E/DX2 analytically  !
 ! D2    D(4,3,6,26)             0.1239         calculate D2E/DX2 analytically  !
 ! D3    D(7,3,6,12)           -14.5687         calculate D2E/DX2 analytically  !
 ! D4    D(7,3,6,26)           165.2903         calculate D2E/DX2 analytically  !
 ! D5    D(4,3,7,5)           -179.5484         calculate D2E/DX2 analytically  !
 ! D6    D(4,3,7,14)             0.6549         calculate D2E/DX2 analytically  !
 ! D7    D(6,3,7,5)             15.2833         calculate D2E/DX2 analytically  !
 ! D8    D(6,3,7,14)          -164.5135         calculate D2E/DX2 analytically  !
 ! D9    D(8,5,7,3)           -178.1623         calculate D2E/DX2 analytically  !
 ! D10   D(8,5,7,14)             1.6042         calculate D2E/DX2 analytically  !
 ! D11   D(9,5,7,3)              6.057          calculate D2E/DX2 analytically  !
 ! D12   D(9,5,7,14)          -174.1764         calculate D2E/DX2 analytically  !
 ! D13   D(7,5,8,2)              9.0736         calculate D2E/DX2 analytically  !
 ! D14   D(7,5,8,18)          -171.0402         calculate D2E/DX2 analytically  !
 ! D15   D(9,5,8,2)           -175.148          calculate D2E/DX2 analytically  !
 ! D16   D(9,5,8,18)             4.7381         calculate D2E/DX2 analytically  !
 ! D17   D(7,5,9,10)            98.3103         calculate D2E/DX2 analytically  !
 ! D18   D(7,5,9,11)          -145.889          calculate D2E/DX2 analytically  !
 ! D19   D(7,5,9,12)           -24.8627         calculate D2E/DX2 analytically  !
 ! D20   D(8,5,9,10)           -77.568          calculate D2E/DX2 analytically  !
 ! D21   D(8,5,9,11)            38.2327         calculate D2E/DX2 analytically  !
 ! D22   D(8,5,9,12)           159.2591         calculate D2E/DX2 analytically  !
 ! D23   D(3,6,12,9)            -7.3896         calculate D2E/DX2 analytically  !
 ! D24   D(3,6,12,13)          176.4729         calculate D2E/DX2 analytically  !
 ! D25   D(26,6,12,9)          172.778          calculate D2E/DX2 analytically  !
 ! D26   D(26,6,12,13)          -3.3594         calculate D2E/DX2 analytically  !
 ! D27   D(3,6,26,27)          145.157          calculate D2E/DX2 analytically  !
 ! D28   D(3,6,26,28)          -93.1013         calculate D2E/DX2 analytically  !
 ! D29   D(3,6,26,29)           25.3938         calculate D2E/DX2 analytically  !
 ! D30   D(12,6,26,27)         -35.002          calculate D2E/DX2 analytically  !
 ! D31   D(12,6,26,28)          86.7398         calculate D2E/DX2 analytically  !
 ! D32   D(12,6,26,29)        -154.7652         calculate D2E/DX2 analytically  !
 ! D33   D(3,7,14,15)          -15.6521         calculate D2E/DX2 analytically  !
 ! D34   D(3,7,14,16)          104.269          calculate D2E/DX2 analytically  !
 ! D35   D(3,7,14,17)         -137.398          calculate D2E/DX2 analytically  !
 ! D36   D(5,7,14,15)          164.5714         calculate D2E/DX2 analytically  !
 ! D37   D(5,7,14,16)          -75.5074         calculate D2E/DX2 analytically  !
 ! D38   D(5,7,14,17)           42.8256         calculate D2E/DX2 analytically  !
 ! D39   D(2,8,18,19)           -9.7482         calculate D2E/DX2 analytically  !
 ! D40   D(2,8,18,20)          109.7365         calculate D2E/DX2 analytically  !
 ! D41   D(2,8,18,21)         -131.422          calculate D2E/DX2 analytically  !
 ! D42   D(5,8,18,19)          170.3607         calculate D2E/DX2 analytically  !
 ! D43   D(5,8,18,20)          -70.1546         calculate D2E/DX2 analytically  !
 ! D44   D(5,8,18,21)           48.6869         calculate D2E/DX2 analytically  !
 ! D45   D(5,9,12,6)            25.5642         calculate D2E/DX2 analytically  !
 ! D46   D(5,9,12,13)         -157.8687         calculate D2E/DX2 analytically  !
 ! D47   D(10,9,12,6)          -98.0715         calculate D2E/DX2 analytically  !
 ! D48   D(10,9,12,13)          78.4956         calculate D2E/DX2 analytically  !
 ! D49   D(11,9,12,6)          148.0506         calculate D2E/DX2 analytically  !
 ! D50   D(11,9,12,13)         -35.3823         calculate D2E/DX2 analytically  !
 ! D51   D(6,12,13,1)          168.3259         calculate D2E/DX2 analytically  !
 ! D52   D(6,12,13,22)         -13.6789         calculate D2E/DX2 analytically  !
 ! D53   D(9,12,13,1)           -7.9666         calculate D2E/DX2 analytically  !
 ! D54   D(9,12,13,22)         170.0286         calculate D2E/DX2 analytically  !
 ! D55   D(1,13,22,23)         141.041          calculate D2E/DX2 analytically  !
 ! D56   D(1,13,22,24)         -97.6497         calculate D2E/DX2 analytically  !
 ! D57   D(1,13,22,25)          19.7949         calculate D2E/DX2 analytically  !
 ! D58   D(12,13,22,23)        -36.9687         calculate D2E/DX2 analytically  !
 ! D59   D(12,13,22,24)         84.3406         calculate D2E/DX2 analytically  !
 ! D60   D(12,13,22,25)       -158.2148         calculate D2E/DX2 analytically  !
 --------------------------------------------------------------------------------
 Trust Radius=3.00D-01 FncErr=1.00D-07 GrdErr=1.00D-07 EigMax=2.50D+02 EigMin=1.00D-04
 Number of steps in this run=      2 maximum allowed number of steps=      2.
 GradGradGradGradGradGradGradGradGradGradGradGradGradGradGradGradGradGrad

 Leave Link  103 at Fri Jun 12 19:59:20 2026, MaxMem=  2147483648 cpu:               1.4 elap:               0.1
 (Enter /data/home/wyx/g16/l202.exe)
                          Input orientation:                          
 ---------------------------------------------------------------------
 Center     Atomic      Atomic             Coordinates (Angstroms)
 Number     Number       Type             X           Y           Z
 ---------------------------------------------------------------------
      1          8           0        1.302922    9.838901    1.115208
      2          8           0       -4.661551    9.758522   -0.745534
      3          7           0       -2.159234   12.909559    0.532268
      4          1           0       -2.467245   13.866752    0.475966
      5          6           0       -2.693511   10.638897    0.238801
      6          6           0       -0.805198   12.693950    0.679827
      7          6           0       -3.064901   11.937981    0.168607
      8          6           0       -3.595277    9.563442   -0.170735
      9          6           0       -1.352203   10.287721    0.841987
     10          1           0       -1.470307    9.980203    1.889625
     11          1           0       -0.923074    9.422783    0.341486
     12          6           0       -0.354015   11.421087    0.753547
     13          6           0        1.047061   11.006860    0.836955
     14          6           0       -4.385827   12.478272   -0.275927
     15          1           0       -4.489630   13.520345    0.025764
     16          1           0       -4.474611   12.422363   -1.360957
     17          1           0       -5.206496   11.898522    0.134950
     18          6           0       -3.171745    8.148328    0.137144
     19          1           0       -4.002125    7.476775   -0.064576
     20          1           0       -2.325681    7.863795   -0.491947
     21          1           0       -2.850773    8.040787    1.173656
     22          6           0        2.200737   11.937571    0.553926
     23          1           0        1.999628   12.632036   -0.257401
     24          1           0        2.446693   12.517073    1.445313
     25          1           0        3.065448   11.327056    0.304611
     26          6           0       -0.025950   13.972927    0.732633
     27          1           0        0.826272   13.913764    1.398333
     28          1           0        0.328890   14.251583   -0.260725
     29          1           0       -0.667466   14.777981    1.089194
 ---------------------------------------------------------------------
                    Distance matrix (angstroms):
                    1          2          3          4          5
     1  O    0.000000
     2  O    6.248501   0.000000
     3  N    4.664257   4.221777   0.000000
     4  H    5.553951   4.815038   1.007104   0.000000
     5  C    4.168880   2.370054   2.351059   3.244455   0.000000
     6  C    3.575617   5.051718   1.379012   2.044363   2.825504
     7  C    4.937618   2.852189   1.377115   2.042503   1.352951
     8  C    5.071674   1.226944   3.708494   4.495459   1.462021
     9  C    2.706617   3.708377   2.760663   3.766530   1.512040
    10  H    2.882792   4.144544   3.301237   4.254125   2.157620
    11  H    2.393085   3.907755   3.704335   4.706528   2.150332
    12  C    2.319386   4.854506   2.350177   3.244082   2.519925
    13  C    1.227607   6.053996   3.740779   4.545288   3.805925
    14  C    6.423660   2.773732   2.407676   2.484789   2.551897
    15  H    6.949358   3.843926   2.461778   2.100647   3.402083
    16  H    6.795996   2.740390   3.030286   3.080595   2.985347
    17  H    6.897498   2.377355   3.235099   3.390239   2.812922
    18  C    4.882345   2.364607   4.883710   5.771611   2.538105
    19  H    5.925796   2.470813   5.767808   6.593925   3.435626
    20  H    4.432917   3.018375   5.151355   6.082137   2.893179
    21  H    4.526568   3.148464   4.959289   5.880113   2.765658
    22  C    2.350644   7.316273   4.467055   5.051522   5.073413
    23  H    3.189210   7.270947   4.242255   4.692047   5.122926
    24  H    2.930834   7.933256   4.711927   5.187297   5.604008
    25  H    2.445030   7.954220   5.463831   6.090165   5.800302
    26  C    4.359179   6.437001   2.392028   2.457045   4.298314
    27  H    4.112404   7.209605   3.266763   3.420559   4.945517
    28  H    4.723738   6.732544   2.936091   2.917050   4.736659
    29  H    5.317671   6.671874   2.454901   2.108457   4.686154
                    6          7          8          9         10
     6  C    0.000000
     7  C    2.437026   0.000000
     8  C    4.278794   2.456601   0.000000
     9  C    2.472943   2.471869   2.565457   0.000000
    10  H    3.044735   3.055737   2.989025   1.098208   0.000000
    11  H    3.290730   3.308101   2.724486   1.087553   1.734046
    12  C    1.352473   2.821035   3.848496   1.512851   2.147773
    13  C    2.510344   4.268713   4.964896   2.504726   2.915353
    14  C    3.712262   1.494781   3.021965   3.905269   4.407972
    15  H    3.832201   2.134041   4.061473   4.578157   5.012274
    16  H    4.207511   2.135761   3.219206   4.377110   5.055321
    17  H    4.505666   2.142223   2.853431   4.236763   4.551696
    18  C    5.153420   3.791289   1.508879   2.895608   3.053170
    19  H    6.163878   4.564550   2.128608   3.968043   4.061546
    20  H    5.197627   4.193062   2.145658   2.932995   3.298898
    21  H    5.106876   4.030397   2.163366   2.721109   2.485886
    22  C    3.102194   5.279718   6.305188   3.927895   4.369433
    23  H    2.957918   5.129586   6.381750   4.235474   4.866456
    24  H    3.345452   5.687090   6.916715   4.445854   4.687858
    25  H    4.122024   6.162216   6.906630   4.569970   4.989926
    26  C    1.498598   3.700589   5.744539   3.918118   4.400755
    27  H    2.160067   4.534002   6.398232   4.266551   4.581326
    28  H    2.144065   4.129758   6.114397   4.444575   5.109384
    29  H    2.128318   3.828939   6.111540   4.548891   4.929901
                   11         12         13         14         15
    11  H    0.000000
    12  C    2.118216   0.000000
    13  C    2.576086   1.463405   0.000000
    14  C    4.659171   4.293363   5.737581   0.000000
    15  H    5.441509   4.694663   6.134377   1.089821   0.000000
    16  H    4.950678   4.738459   6.109282   1.090091   1.768838
    17  H    4.951732   4.914995   6.355694   1.085554   1.776550
    18  C    2.592782   4.362397   5.143857   4.515865   5.532431
    19  H    3.665023   5.434669   6.226439   5.020644   6.063873
    20  H    2.256626   4.253592   4.797940   5.058089   6.078426
    21  H    2.513653   4.223354   4.909590   4.914159   5.833444
    22  C    4.015903   2.614070   1.509072   6.660619   6.895298
    23  H    4.381798   2.833381   2.178577   6.387333   6.555893
    24  H    4.706207   3.086048   2.147047   7.046099   7.150821
    25  H    4.419945   3.450089   2.111824   7.561999   7.871942
    26  C    4.654206   2.572927   3.155914   4.718020   4.541908
    27  H    4.934171   2.832361   2.968835   5.659484   5.504319
    28  H    5.024677   3.083313   3.499843   5.037204   4.882102
    29  H    5.413183   3.388163   4.150251   4.580221   4.161906
                   16         17         18         19         20
    16  H    0.000000
    17  H    1.745796   0.000000
    18  C    4.712658   4.266634   0.000000
    19  H    5.134461   4.587174   1.086833   0.000000
    20  H    5.114061   4.997111   1.092035   1.772822   0.000000
    21  H    5.315950   4.637937   1.090388   1.782397   1.755358
    22  C    6.961471   7.419176   6.587536   7.665295   6.178831
    23  H    6.570964   7.253979   6.855830   7.914224   6.442005
    24  H    7.469175   7.789156   7.236303   8.322957   6.941291
    25  H    7.799122   8.293396   7.002495   8.056770   6.457008
    26  C    5.155381   5.612347   6.646547   7.658035   6.641525
    27  H    6.159328   6.484723   7.128463   8.178530   7.078848
    28  H    5.256442   6.027766   7.047161   8.043270   6.921275
    29  H    5.103580   5.459364   7.150532   8.109177   7.283931
                   21         22         23         24         25
    21  H    0.000000
    22  C    6.409895   0.000000
    23  H    6.830365   1.086728   0.000000
    24  H    6.940755   1.091278   1.764177   0.000000
    25  H    6.823231   1.087479   1.776177   1.760738   0.000000
    26  C    6.585166   3.022043   2.623189   2.956584   4.091525
    27  H    6.932748   2.550983   2.400218   2.139794   3.591823
    28  H    7.123321   3.085793   2.326867   3.225551   4.044900
    29  H    7.082637   4.071981   3.678558   3.864779   5.143841
                   26         27         28         29
    26  C    0.000000
    27  H    1.083023   0.000000
    28  H    1.091018   1.764648   0.000000
    29  H    1.089399   1.753195   1.758437   0.000000
 Stoichiometry    C11H15NO2
 Framework group  C1[X(C11H15NO2)]
 Deg. of freedom    81
 Full point group                 C1      NOp   1
 RotChk:  IX=2 Diff= 5.27D-16
 Largest Abelian subgroup         C1      NOp   1
 Largest concise Abelian subgroup C1      NOp   1
                         Standard orientation:                         
 ---------------------------------------------------------------------
 Center     Atomic      Atomic             Coordinates (Angstroms)
 Number     Number       Type             X           Y           Z
 ---------------------------------------------------------------------
      1          8           0        2.285615   -2.280482    0.172671
      2          8           0       -3.584909   -0.246540   -0.493507
      3          7           0        0.028220    1.799998    0.268318
      4          1           0        0.058966    2.806628    0.271301
      5          6           0       -1.289881   -0.138462    0.088148
      6          6           0        1.231089    1.136024    0.150330
      7          6           0       -1.203993    1.211759    0.089232
      8          6           0       -2.562197   -0.822744   -0.136519
      9          6           0       -0.061284   -0.955052    0.419808
     10          1           0       -0.082655   -1.272387    1.470951
     11          1           0       -0.051033   -1.879439   -0.153057
     12          6           0        1.228363   -0.216381    0.137154
     13          6           0        2.395385   -1.078716   -0.052561
     14          6           0       -2.320452    2.189193   -0.091083
     15          1           0       -2.006862    3.184467    0.223243
     16          1           0       -2.620259    2.236142   -1.138084
     17          1           0       -3.199145    1.891213    0.472419
     18          6           0       -2.595833   -2.314803    0.085618
     19          1           0       -3.626977   -2.656412    0.050244
     20          1           0       -2.027352   -2.824106   -0.695394
     21          1           0       -2.146263   -2.589807    1.040189
     22          6           0        3.723944   -0.569975   -0.555960
     23          1           0        3.625631    0.202546   -1.313933
     24          1           0        4.311127   -0.164428    0.269653
     25          1           0        4.268498   -1.416561   -0.967499
     26          6           0        2.394134    2.075578    0.048524
     27          1           0        3.282228    1.692753    0.536041
     28          1           0        2.634033    2.283299   -0.995324
     29          1           0        2.141227    3.023767    0.521564
 ---------------------------------------------------------------------
 Rotational constants (GHZ):           1.0780882           0.4908019           0.3474928
 Leave Link  202 at Fri Jun 12 19:59:22 2026, MaxMem=  2147483648 cpu:               4.1 elap:               0.2
 (Enter /data/home/wyx/g16/l301.exe)
 Standard basis: TZVP (5D, 7F)
 Ernie: Thresh=  0.10000D-02 Tol=  0.10000D-05 Strict=F.
 There are   370 symmetry adapted cartesian basis functions of A   symmetry.
 There are   356 symmetry adapted basis functions of A   symmetry.
   356 basis functions,   610 primitive gaussians,   370 cartesian basis functions
    52 alpha electrons       52 beta electrons
       nuclear repulsion energy       900.7656076009 Hartrees.
 IExCor=20419 DFT=T Ex+Corr=CAM-B3LYP ExCW=0 ScaHFX=  1.000000
 ScaDFX=  1.000000  1.000000  1.000000  0.810000 ScalE2=  1.000000  1.000000
 IRadAn=      5 IRanWt=     -1 IRanGd=            0 ICorTp=0 IEmpDi=141
 HFx  wShort=  0.000000 wLong=  0.330000 cFull=  0.190000 cShort=  0.000000 cLong=  0.460000
 DFx  wShort=  0.000000 wLong=  0.330000 cFull=  0.190000 cShort=  0.000000 cLong=  0.460000
 NAtoms=   29 NActive=   29 NUniq=   29 SFac= 1.00D+00 NAtFMM=   60 NAOKFM=F Big=F
 Integral buffers will be    131072 words long.
 Raffenetti 2 integral format.
 Two-electron integral symmetry is turned on.
 R6Disp:  Grimme-D3(BJ) Dispersion energy=       -0.0262203193 Hartrees.
 Nuclear repulsion after empirical dispersion term =      900.7393872816 Hartrees.
 Force inversion solution in PCM.
 ------------------------------------------------------------------------------
 Polarizable Continuum Model (PCM)
 =================================
 Model                : PCM.
 Atomic radii         : UFF (Universal Force Field).
 Polarization charges : Total charges.
 Charge compensation  : None.
 Solution method      : Matrix inversion.
 Cavity type          : Scaled VdW (van der Waals Surface) (Alpha=1.100).
 Cavity algorithm     : GePol (No added spheres)
                        Default sphere list used, NSphG=   29.
                        Lebedev-Laikov grids with approx.  5.0 points / Ang**2.
                        Smoothing algorithm: York/Karplus (Gamma=1.0000).
                        Polarization charges: spherical gaussians, with
                                              point-specific exponents (IZeta= 3).
                        Self-potential: point-specific (ISelfS= 7).
                        Self-field    : sphere-specific E.n sum rule (ISelfD= 2).
 1st derivatives      : Analytical E(r).r(x)/FMM algorithm (CHGder, D1EAlg=3).
                        Cavity 1st derivative terms included.
 2nd derivatives      : Analytical E(r).r(xy)/FMM algorithm (CHGder, D2EAlg=3).
                        Cavity 2nd derivative terms included.
 Solvent              : Water, Eps=  78.355300 Eps(inf)=   1.777849
 ------------------------------------------------------------------------------
 GePol: Number of generator spheres                  =      29
 GePol: Total number of spheres                      =      29
 GePol: Number of exposed spheres                    =      29 (100.00%)
 GePol: Number of points                             =    2091
 GePol: Average weight of points                     =       0.13
 GePol: Minimum weight of points                     =   0.43D-09
 GePol: Maximum weight of points                     =    0.20577
 GePol: Number of points with low weight             =     133
 GePol: Fraction of low-weight points (<1% of avg)   =       6.36%
 GePol: Cavity surface area                          =    268.679 Ang**2
 GePol: Cavity volume                                =    286.746 Ang**3
 Leave Link  301 at Fri Jun 12 19:59:24 2026, MaxMem=  2147483648 cpu:               3.7 elap:               0.2
 (Enter /data/home/wyx/g16/l302.exe)
 NPDir=0 NMtPBC=     1 NCelOv=     1 NCel=       1 NClECP=     1 NCelD=      1
         NCelK=      1 NCelE2=     1 NClLst=     1 CellRange=     0.0.
 One-electron integrals computed using PRISM.
 One-electron integral symmetry used in STVInt
 NBasis=   356 RedAO= T EigKep=  4.72D-05  NBF=   356
 NBsUse=   356 1.00D-06 EigRej= -1.00D+00 NBFU=   356
 Precomputing XC quadrature grid using
 IXCGrd= 4 IRadAn=           5 IRanWt=          -1 IRanGd=           0 AccXCQ= 0.00D+00.
 Generated NRdTot=       0 NPtTot=           0 NUsed=           0 NTot=          32
 NSgBfM=   366   366   366   366   366 MxSgAt=    29 MxSgA2=    29.
 Leave Link  302 at Fri Jun 12 19:59:25 2026, MaxMem=  2147483648 cpu:               8.9 elap:               0.3
 (Enter /data/home/wyx/g16/l303.exe)
 DipDrv:  MaxL=1.
 Leave Link  303 at Fri Jun 12 19:59:26 2026, MaxMem=  2147483648 cpu:               2.1 elap:               0.1
 (Enter /data/home/wyx/g16/l401.exe)
 Initial guess from the checkpoint file:  "DDL-S0-intmodes.chk"
 B after Tr=     0.000000   -0.000000    0.000000
         Rot=    1.000000    0.000000   -0.000000   -0.000000 Ang=   0.00 deg.
 Guess basis will be translated and rotated to current coordinates.
 JPrj=2 DoOrth=T DoCkMO=T.
 Leave Link  401 at Fri Jun 12 19:59:26 2026, MaxMem=  2147483648 cpu:               7.7 elap:               0.3
 (Enter /data/home/wyx/g16/l502.exe)
 Integral symmetry usage will be decided dynamically.
 Closed shell SCF:
 Using DIIS extrapolation, IDIIS=  1040.
 NGot=  2147483648 LenX=  2147194175 LenY=  2147056834
 Requested convergence on RMS density matrix=1.00D-08 within 128 cycles.
 Requested convergence on MAX density matrix=1.00D-06.
 Requested convergence on             energy=1.00D-06.
 No special actions if energy rises.
 Fock matrices will be formed incrementally for  20 cycles.

 Cycle   1  Pass 1  IDiag  1:
 FoFJK:  IHMeth= 1 ICntrl=       0 DoSepK=T KAlg= 0 I1Cent=           0 FoldK=F
 IRaf=         1 NMat=       1 IRICut=       1 DoRegI=T DoRafI=F ISym2E= 0 IDoP0=0 IntGTp=1.
 FoFCou: FMM=F IPFlag=           0 FMFlag=      100000 FMFlg1=           0
         NFxFlg=           0 DoJE=T BraDBF=F KetDBF=F FulRan=T
         wScrn=  0.000000 ICntrl=       500 IOpCl=  0 I1Cent=           0 NGrid=           0
         NMat0=    1 NMatS0=      1 NMatT0=    0 NMatD0=    1 NMtDS0=    0 NMtDT0=    0
 Symmetry not used in FoFCou.
 Inv3:  Mode=1 IEnd=    13116843.
 Iteration    1 A*A^-1 deviation from unit magnitude is 3.55D-15 for     76.
 Iteration    1 A*A^-1 deviation from orthogonality  is 2.16D-15 for   1347    913.
 Iteration    1 A^-1*A deviation from unit magnitude is 2.66D-15 for     76.
 Iteration    1 A^-1*A deviation from orthogonality  is 1.67D-15 for   2032   1871.
 E= -633.332474832161    
 DIIS: error= 7.17D-09 at cycle   1 NSaved=   1.
 NSaved= 1 IEnMin= 1 EnMin= -633.332474832161     IErMin= 1 ErrMin= 7.17D-09
 ErrMax= 7.17D-09  0.00D+00 EMaxC= 1.00D-01 BMatC= 3.73D-14 BMatP= 3.73D-14
 IDIUse=1 WtCom= 1.00D+00 WtEn= 0.00D+00
 Coeff-Com:  0.100D+01
 Coeff:      0.100D+01
 Gap=     0.240 Goal=   None    Shift=    0.000
 RMSDP=2.25D-09 MaxDP=1.06D-07              OVMax= 1.55D-07

 Error on total polarization charges =  0.01549
 SCF Done:  E(RCAM-B3LYP) =  -633.332474832     A.U. after    1 cycles
            NFock=  1  Conv=0.23D-08     -V/T= 2.0042
 KE= 6.306979058754D+02 PE=-3.277557992438D+03 EE= 1.112788224449D+03
 Leave Link  502 at Fri Jun 12 19:59:31 2026, MaxMem=  2147483648 cpu:             140.5 elap:               4.8
 (Enter /data/home/wyx/g16/l801.exe)
 DoSCS=F DFT=T ScalE2(SS,OS)=  1.000000  1.000000
 Range of M.O.s used for correlation:     1   356
 NBasis=   356 NAE=    52 NBE=    52 NFC=     0 NFV=     0
 NROrb=    356 NOA=    52 NOB=    52 NVA=   304 NVB=   304

 **** Warning!!: The largest alpha MO coefficient is  0.50827895D+02

 Leave Link  801 at Fri Jun 12 19:59:31 2026, MaxMem=  2147483648 cpu:               1.1 elap:               0.1
 (Enter /data/home/wyx/g16/l1101.exe)
 Using compressed storage, NAtomX=    29.
 Will process     30 centers per pass.
 R6Disp: Adding Grimme-D3(BJ) dispersion energy 1st derivatives to the gradient.
 Leave Link 1101 at Fri Jun 12 19:59:32 2026, MaxMem=  2147483648 cpu:              14.9 elap:               0.5
 (Enter /data/home/wyx/g16/l1102.exe)
 Symmetrizing basis deriv contribution to polar:
 IMax=3 JMax=2 DiffMx= 0.00D+00
 Leave Link 1102 at Fri Jun 12 19:59:38 2026, MaxMem=  2147483648 cpu:               4.6 elap:               0.2
 (Enter /data/home/wyx/g16/l1110.exe)
 Forming Gx(P) for the SCF density, NAtomX=    29.
 Integral derivatives from FoFJK, PRISM(SPDF).
 Do as many integral derivatives as possible in FoFJK.
 G2DrvN: MDV=    2147481424.
 G2DrvN: will do    30 centers at a time, making    1 passes.
 Calling FoFCou, ICntrl=  3107 FMM=F I1Cent=   0 AccDes= 0.00D+00.
 FoFJK:  IHMeth= 1 ICntrl=    3107 DoSepK=T KAlg= 0 I1Cent=           0 FoldK=F
 IRaf=         1 NMat=       1 IRICut=       1 DoRegI=T DoRafI=F ISym2E= 0 IDoP0=0 IntGTp=1.
 FoFCou: FMM=F IPFlag=           0 FMFlag=      100000 FMFlg1=           0
         NFxFlg=           0 DoJE=F BraDBF=F KetDBF=F FulRan=T
         wScrn=  0.000000 ICntrl=      3507 IOpCl=  0 I1Cent=           0 NGrid=           0
         NMat0=    1 NMatS0=      1 NMatT0=    0 NMatD0=    1 NMtDS0=    0 NMtDT0=    0
 Symmetry not used in FoFCou.
 NEqPCM:  Using equilibrium solvation (IEInf=0, Eps=  78.3553, EpsInf=   1.7778)
 G2PCM: DoFxE=T DoFxN=T DoGrad=T DoDP/DQ/DG/TGxP=FFFF NFrqRd=   0 IEInf=0 SqF1=F DoCFld=F IF1Alg=4.
 GePol: Maximum number of non-zero 1st derivatives   =     196
 End of G2Drv F.D. properties file   721 does not exist.
 End of G2Drv F.D. properties file   722 does not exist.
 End of G2Drv F.D. properties file   788 does not exist.
 Leave Link 1110 at Fri Jun 12 20:00:13 2026, MaxMem=  2147483648 cpu:            1117.1 elap:              35.1
 (Enter /data/home/wyx/g16/l1002.exe)
 Minotr:  Closed shell wavefunction.
          IDoAtm=11111111111111111111111111111
 NEqPCM:  Using equilibrium solvation (IEInf=0, Eps=  78.3553, EpsInf=   1.7778)
          Direct CPHF calculation.
          Differentiating once with respect to electric field.
                with respect to dipole field.
          Differentiating once with respect to nuclear coordinates.
          Requested convergence is 1.0D-08 RMS, and 1.0D-07 maximum.
          Secondary convergence is 1.0D-12 RMS, and 1.0D-12 maximum.
          NewPWx=T KeepS1=F KeepF1=F KeepIn=T MapXYZ=F SortEE=F KeepMc=T.
         8748 words used for storage of precomputed grid.
 Two-electron integrals replicated using symmetry.
          MDV=    2147483648 using IRadAn=       1.
          Solving linear equations simultaneously, MaxMat=     384.
 FoF2E skips out because all densities are zero.
 CalDSu exits because no D1Ps are significant.
 FoFJK:  IHMeth= 1 ICntrl=       0 DoSepK=T KAlg= 0 I1Cent=           0 FoldK=F
 IRaf=         1 NMat=      87 IRICut=       1 DoRegI=T DoRafI=F ISym2E= 2 IDoP0=3 IntGTp=3.
          There are    90 degrees of freedom in the 1st order CPHF.  IDoFFX=6 NUNeed=     3.
     87 vectors produced by pass  0 Test12= 1.76D-14 1.11D-09 XBig12= 1.09D+02 5.42D+00.
 AX will form    87 AO Fock derivatives at one time.
     87 vectors produced by pass  1 Test12= 1.76D-14 1.11D-09 XBig12= 1.38D+01 3.62D-01.
     87 vectors produced by pass  2 Test12= 1.76D-14 1.11D-09 XBig12= 2.20D-01 9.85D-02.
     87 vectors produced by pass  3 Test12= 1.76D-14 1.11D-09 XBig12= 1.66D-03 4.31D-03.
     87 vectors produced by pass  4 Test12= 1.76D-14 1.11D-09 XBig12= 8.75D-06 2.71D-04.
     87 vectors produced by pass  5 Test12= 1.76D-14 1.11D-09 XBig12= 3.75D-08 1.45D-05.
     65 vectors produced by pass  6 Test12= 1.76D-14 1.11D-09 XBig12= 1.55D-10 1.89D-06.
     11 vectors produced by pass  7 Test12= 1.76D-14 1.11D-09 XBig12= 7.26D-13 1.84D-07.
      3 vectors produced by pass  8 Test12= 1.76D-14 1.11D-09 XBig12= 3.35D-15 1.33D-08.
      1 vectors produced by pass  9 Test12= 1.76D-14 1.11D-09 XBig12= 9.43D-17 1.99D-09.
 InvSVY:  IOpt=1 It=  1 EMax= 5.33D-15
 Solved reduced A of dimension   602 with    90 vectors.
 FullF1:  Do perturbations      1 to       3.
 Isotropic polarizability for W=    0.000000      192.32 Bohr**3.
 End of Minotr F.D. properties file   721 does not exist.
 End of Minotr F.D. properties file   722 does not exist.
 End of Minotr F.D. properties file   788 does not exist.
 Leave Link 1002 at Fri Jun 12 20:02:30 2026, MaxMem=  2147483648 cpu:            4370.8 elap:             137.1
 (Enter /data/home/wyx/g16/l601.exe)
 Copying SCF densities to generalized density rwf, IOpCl= 0 IROHF=0.

 **********************************************************************

            Population analysis using the SCF density.

 **********************************************************************

 Orbital symmetries:
       Occupied  (A) (A) (A) (A) (A) (A) (A) (A) (A) (A) (A) (A)
                 (A) (A) (A) (A) (A) (A) (A) (A) (A) (A) (A) (A)
                 (A) (A) (A) (A) (A) (A) (A) (A) (A) (A) (A) (A)
                 (A) (A) (A) (A) (A) (A) (A) (A) (A) (A) (A) (A)
                 (A) (A) (A) (A)
       Virtual   (A) (A) (A) (A) (A) (A) (A) (A) (A) (A) (A) (A)
                 (A) (A) (A) (A) (A) (A) (A) (A) (A) (A) (A) (A)
                 (A) (A) (A) (A) (A) (A) (A) (A) (A) (A) (A) (A)
                 (A) (A) (A) (A) (A) (A) (A) (A) (A) (A) (A) (A)
                 (A) (A) (A) (A) (A) (A) (A) (A) (A) (A) (A) (A)
                 (A) (A) (A) (A) (A) (A) (A) (A) (A) (A) (A) (A)
                 (A) (A) (A) (A) (A) (A) (A) (A) (A) (A) (A) (A)
                 (A) (A) (A) (A) (A) (A) (A) (A) (A) (A) (A) (A)
                 (A) (A) (A) (A) (A) (A) (A) (A) (A) (A) (A) (A)
                 (A) (A) (A) (A) (A) (A) (A) (A) (A) (A) (A) (A)
                 (A) (A) (A) (A) (A) (A) (A) (A) (A) (A) (A) (A)
                 (A) (A) (A) (A) (A) (A) (A) (A) (A) (A) (A) (A)
                 (A) (A) (A) (A) (A) (A) (A) (A) (A) (A) (A) (A)
                 (A) (A) (A) (A) (A) (A) (A) (A) (A) (A) (A) (A)
                 (A) (A) (A) (A) (A) (A) (A) (A) (A) (A) (A) (A)
                 (A) (A) (A) (A) (A) (A) (A) (A) (A) (A) (A) (A)
                 (A) (A) (A) (A) (A) (A) (A) (A) (A) (A) (A) (A)
                 (A) (A) (A) (A) (A) (A) (A) (A) (A) (A) (A) (A)
                 (A) (A) (A) (A) (A) (A) (A) (A) (A) (A) (A) (A)
                 (A) (A) (A) (A) (A) (A) (A) (A) (A) (A) (A) (A)
                 (A) (A) (A) (A) (A) (A) (A) (A) (A) (A) (A) (A)
                 (A) (A) (A) (A) (A) (A) (A) (A) (A) (A) (A) (A)
                 (A) (A) (A) (A) (A) (A) (A) (A) (A) (A) (A) (A)
                 (A) (A) (A) (A) (A) (A) (A) (A) (A) (A) (A) (A)
                 (A) (A) (A) (A) (A) (A) (A) (A) (A) (A) (A) (A)
                 (A) (A) (A) (A)
 The electronic state is 1-A.
 Alpha  occ. eigenvalues --  -19.18002 -19.17627 -14.43977 -10.33553 -10.33271
 Alpha  occ. eigenvalues --  -10.31932 -10.31454 -10.25582 -10.25014 -10.24916
 Alpha  occ. eigenvalues --  -10.24744 -10.24554 -10.24196 -10.23893  -1.12144
 Alpha  occ. eigenvalues --   -1.11765  -1.07347  -0.91145  -0.90233  -0.83822
 Alpha  occ. eigenvalues --   -0.82477  -0.81466  -0.78471  -0.73972  -0.70993
 Alpha  occ. eigenvalues --   -0.68598  -0.61564  -0.58158  -0.56776  -0.55170
 Alpha  occ. eigenvalues --   -0.54447  -0.54002  -0.52579  -0.51915  -0.50674
 Alpha  occ. eigenvalues --   -0.50132  -0.49511  -0.49058  -0.48490  -0.48139
 Alpha  occ. eigenvalues --   -0.46802  -0.45486  -0.44966  -0.43296  -0.43055
 Alpha  occ. eigenvalues --   -0.42475  -0.42182  -0.42014  -0.32842  -0.32372
 Alpha  occ. eigenvalues --   -0.31453  -0.26282
 Alpha virt. eigenvalues --   -0.02253   0.02395   0.06533   0.08255   0.08835
 Alpha virt. eigenvalues --    0.10144   0.10745   0.12033   0.12745   0.13597
 Alpha virt. eigenvalues --    0.14292   0.15074   0.15734   0.16187   0.16970
 Alpha virt. eigenvalues --    0.17478   0.17728   0.18040   0.18215   0.19196
 Alpha virt. eigenvalues --    0.19999   0.22115   0.22746   0.23429   0.23526
 Alpha virt. eigenvalues --    0.24187   0.24866   0.25592   0.25762   0.26460
 Alpha virt. eigenvalues --    0.26820   0.27193   0.28657   0.29262   0.30224
 Alpha virt. eigenvalues --    0.31548   0.32011   0.32794   0.33605   0.34346
 Alpha virt. eigenvalues --    0.35413   0.35836   0.36831   0.38090   0.38942
 Alpha virt. eigenvalues --    0.40070   0.40895   0.41871   0.42323   0.42733
 Alpha virt. eigenvalues --    0.43980   0.44136   0.45330   0.45958   0.46096
 Alpha virt. eigenvalues --    0.47281   0.47767   0.47981   0.48321   0.48899
 Alpha virt. eigenvalues --    0.49517   0.50034   0.50690   0.51292   0.51550
 Alpha virt. eigenvalues --    0.52774   0.53167   0.53390   0.54181   0.54448
 Alpha virt. eigenvalues --    0.54656   0.55863   0.56231   0.56634   0.58090
 Alpha virt. eigenvalues --    0.58476   0.59266   0.60552   0.60975   0.62348
 Alpha virt. eigenvalues --    0.63078   0.65408   0.65882   0.66507   0.67830
 Alpha virt. eigenvalues --    0.68715   0.70147   0.71344   0.72380   0.73099
 Alpha virt. eigenvalues --    0.73614   0.73800   0.74937   0.76294   0.77408
 Alpha virt. eigenvalues --    0.78169   0.79583   0.81749   0.83508   0.84289
 Alpha virt. eigenvalues --    0.88946   0.92731   0.97960   0.99183   1.25093
 Alpha virt. eigenvalues --    1.25808   1.27313   1.27628   1.29324   1.31619
 Alpha virt. eigenvalues --    1.32387   1.32919   1.34078   1.35353   1.35944
 Alpha virt. eigenvalues --    1.36492   1.36992   1.38142   1.39294   1.39852
 Alpha virt. eigenvalues --    1.40061   1.40321   1.41178   1.41655   1.41797
 Alpha virt. eigenvalues --    1.43254   1.44107   1.44720   1.45245   1.46878
 Alpha virt. eigenvalues --    1.48042   1.48868   1.49556   1.50603   1.51099
 Alpha virt. eigenvalues --    1.52152   1.52562   1.54171   1.54306   1.57489
 Alpha virt. eigenvalues --    1.58160   1.60319   1.60648   1.61135   1.62131
 Alpha virt. eigenvalues --    1.62600   1.63286   1.64260   1.65226   1.65826
 Alpha virt. eigenvalues --    1.67165   1.67598   1.67932   1.68026   1.68805
 Alpha virt. eigenvalues --    1.68957   1.69973   1.70754   1.72311   1.72469
 Alpha virt. eigenvalues --    1.73148   1.75090   1.76026   1.76803   1.78670
 Alpha virt. eigenvalues --    1.79667   1.83503   1.84628   1.86150   1.86569
 Alpha virt. eigenvalues --    1.87023   1.87146   1.88444   1.89368   1.90979
 Alpha virt. eigenvalues --    1.91543   1.94409   1.95408   1.97907   1.99498
 Alpha virt. eigenvalues --    2.00772   2.03720   2.04281   2.06303   2.09370
 Alpha virt. eigenvalues --    2.11342   2.12859   2.14451   2.16374   2.19444
 Alpha virt. eigenvalues --    2.20640   2.21167   2.21733   2.22673   2.25844
 Alpha virt. eigenvalues --    2.26774   2.27411   2.28850   2.30244   2.31286
 Alpha virt. eigenvalues --    2.32578   2.34595   2.35677   2.36305   2.37688
 Alpha virt. eigenvalues --    2.39439   2.40062   2.41525   2.44133   2.44777
 Alpha virt. eigenvalues --    2.45701   2.47509   2.49725   2.50487   2.51899
 Alpha virt. eigenvalues --    2.53093   2.53276   2.54813   2.56783   2.58591
 Alpha virt. eigenvalues --    2.59007   2.59900   2.60722   2.61295   2.62440
 Alpha virt. eigenvalues --    2.64350   2.65360   2.67103   2.67657   2.69179
 Alpha virt. eigenvalues --    2.70257   2.71915   2.73033   2.73445   2.74597
 Alpha virt. eigenvalues --    2.76235   2.76608   2.77331   2.78036   2.79151
 Alpha virt. eigenvalues --    2.80638   2.81161   2.82578   2.83420   2.84435
 Alpha virt. eigenvalues --    2.85541   2.85851   2.87565   2.90472   2.91671
 Alpha virt. eigenvalues --    2.97531   2.99677   3.01186   3.03684   3.09943
 Alpha virt. eigenvalues --    3.12015   3.14707   3.16931   3.16987   3.19172
 Alpha virt. eigenvalues --    3.20325   3.22121   3.25084   3.26280   3.26960
 Alpha virt. eigenvalues --    3.27323   3.29238   3.33268   3.34512   3.36350
 Alpha virt. eigenvalues --    3.37086   3.38752   3.39641   3.40130   3.41346
 Alpha virt. eigenvalues --    3.42725   3.44675   3.45276   3.46146   3.47884
 Alpha virt. eigenvalues --    3.48121   3.49650   3.55223   3.58031   3.59358
 Alpha virt. eigenvalues --    3.60037   3.89561   3.99257   4.34141   4.35486
 Alpha virt. eigenvalues --   21.62836  21.78779  22.08094  22.10974  22.11535
 Alpha virt. eigenvalues --   22.14109  22.15371  22.17626  22.21138  22.24973
 Alpha virt. eigenvalues --   22.30665  31.93462  43.62567  43.64771
          Condensed to atoms (all electrons):
               1          2          3          4          5          6
     1  O    7.956414   0.000000  -0.000253   0.000017   0.015908   0.017539
     2  O    0.000000   7.980016   0.000377   0.000031  -0.203104   0.000858
     3  N   -0.000253   0.000377   6.399970   0.374868  -0.110846   0.331879
     4  H    0.000017   0.000031   0.374868   0.403208   0.016914  -0.045838
     5  C    0.015908  -0.203104  -0.110846   0.016914   6.938219  -0.051638
     6  C    0.017539   0.000858   0.331879  -0.045838  -0.051638   5.627517
     7  C   -0.000481  -0.027634   0.371267  -0.040562   0.341644  -0.084251
     8  C   -0.000117   0.714790   0.004880  -0.000591  -0.227527   0.025232
     9  C   -0.032883   0.017112   0.016020  -0.000291  -0.415113  -0.149786
    10  H    0.003155   0.000055   0.003870   0.000007  -0.029970  -0.014735
    11  H    0.018854   0.000002  -0.001318   0.000018  -0.103545   0.024331
    12  C   -0.217619  -0.002078  -0.094342   0.014735   0.122137  -0.168233
    13  C    0.708660  -0.000033  -0.000159   0.000343   0.072984   0.183346
    14  C   -0.000004  -0.015326  -0.035750  -0.008130  -0.063705   0.007713
    15  H   -0.000000   0.004157   0.003121   0.001020   0.016229   0.006302
    16  H   -0.000000   0.001470  -0.003323   0.000885  -0.003424  -0.002006
    17  H   -0.000000   0.002036   0.002022   0.000760  -0.009397  -0.000742
    18  C   -0.000132  -0.106217  -0.000588   0.000017  -0.272415   0.000548
    19  H   -0.000004   0.009532   0.000004  -0.000001   0.026311   0.000025
    20  H    0.000019   0.001172   0.000012  -0.000000   0.003769   0.000244
    21  H    0.000069   0.003391   0.000118   0.000000   0.039783  -0.001016
    22  C   -0.107180   0.000000   0.000000   0.000108   0.003891  -0.008314
    23  H    0.004669  -0.000000  -0.000101  -0.000051  -0.000553  -0.034327
    24  H    0.001194  -0.000000  -0.000042  -0.000017  -0.000114   0.011442
    25  H    0.007873   0.000000   0.000033  -0.000002  -0.000130  -0.001419
    26  C    0.000895   0.000002  -0.030409  -0.005831  -0.000507   0.178064
    27  H   -0.000228   0.000000   0.003323   0.000899   0.000107  -0.044609
    28  H   -0.000044  -0.000000  -0.002377   0.000430   0.000414  -0.035360
    29  H    0.000025  -0.000000  -0.000293   0.000783  -0.000603  -0.047992
               7          8          9         10         11         12
     1  O   -0.000481  -0.000117  -0.032883   0.003155   0.018854  -0.217619
     2  O   -0.027634   0.714790   0.017112   0.000055   0.000002  -0.002078
     3  N    0.371267   0.004880   0.016020   0.003870  -0.001318  -0.094342
     4  H   -0.040562  -0.000591  -0.000291   0.000007   0.000018   0.014735
     5  C    0.341644  -0.227527  -0.415113  -0.029970  -0.103545   0.122137
     6  C   -0.084251   0.025232  -0.149786  -0.014735   0.024331  -0.168233
     7  C    5.439647  -0.163580  -0.161989  -0.003748   0.018206  -0.009195
     8  C   -0.163580   5.327259   0.066306  -0.005376  -0.007570  -0.026370
     9  C   -0.161989   0.066306   6.197566   0.396356   0.517019   0.074305
    10  H   -0.003748  -0.005376   0.396356   0.548782  -0.034174  -0.024998
    11  H    0.018206  -0.007570   0.517019  -0.034174   0.504419  -0.104117
    12  C   -0.009195  -0.026370   0.074305  -0.024998  -0.104117   7.200056
    13  C    0.010667  -0.005270  -0.261309   0.003084  -0.001191  -0.367730
    14  C    0.248039  -0.043500   0.010193  -0.001319   0.000484  -0.004117
    15  H   -0.068771   0.005449  -0.000212   0.000078  -0.000002  -0.001080
    16  H   -0.026746  -0.001162   0.000560  -0.000068   0.000050   0.000910
    17  H   -0.032411  -0.008286  -0.000541   0.000192  -0.000055  -0.000077
    18  C    0.003209   0.314391  -0.001237  -0.008478   0.008540  -0.003594
    19  H    0.000289  -0.053935   0.000242  -0.000058   0.000449  -0.000206
    20  H    0.001809  -0.025611  -0.009357   0.001050  -0.002623  -0.003771
    21  H   -0.000649  -0.060531  -0.008605   0.002117  -0.004715   0.006176
    22  C   -0.000022  -0.000047   0.002394   0.001396   0.001359  -0.248607
    23  H    0.000021  -0.000012   0.003410  -0.000110  -0.000104   0.063819
    24  H    0.000046   0.000003  -0.001872   0.000131  -0.000115  -0.012058
    25  H    0.000004   0.000004   0.000228  -0.000030  -0.000153   0.024705
    26  C    0.002115   0.000350   0.018129  -0.000742   0.000023  -0.075197
    27  H   -0.000826   0.000004  -0.001007  -0.000077   0.000001  -0.007965
    28  H   -0.000839  -0.000010  -0.000161  -0.000025   0.000045  -0.020187
    29  H    0.003896  -0.000006  -0.000467   0.000099  -0.000009   0.024284
              13         14         15         16         17         18
     1  O    0.708660  -0.000004  -0.000000  -0.000000  -0.000000  -0.000132
     2  O   -0.000033  -0.015326   0.004157   0.001470   0.002036  -0.106217
     3  N   -0.000159  -0.035750   0.003121  -0.003323   0.002022  -0.000588
     4  H    0.000343  -0.008130   0.001020   0.000885   0.000760   0.000017
     5  C    0.072984  -0.063705   0.016229  -0.003424  -0.009397  -0.272415
     6  C    0.183346   0.007713   0.006302  -0.002006  -0.000742   0.000548
     7  C    0.010667   0.248039  -0.068771  -0.026746  -0.032411   0.003209
     8  C   -0.005270  -0.043500   0.005449  -0.001162  -0.008286   0.314391
     9  C   -0.261309   0.010193  -0.000212   0.000560  -0.000541  -0.001237
    10  H    0.003084  -0.001319   0.000078  -0.000068   0.000192  -0.008478
    11  H   -0.001191   0.000484  -0.000002   0.000050  -0.000055   0.008540
    12  C   -0.367730  -0.004117  -0.001080   0.000910  -0.000077  -0.003594
    13  C    5.411975  -0.000078  -0.000011  -0.000027   0.000001   0.000314
    14  C   -0.000078   5.082358   0.384804   0.409426   0.427276   0.001316
    15  H   -0.000011   0.384804   0.570068  -0.025057  -0.027397   0.000289
    16  H   -0.000027   0.409426  -0.025057   0.511227  -0.027360  -0.000064
    17  H    0.000001   0.427276  -0.027397  -0.027360   0.510957  -0.000260
    18  C    0.000314   0.001316   0.000289  -0.000064  -0.000260   5.356828
    19  H   -0.000012   0.000081  -0.000006  -0.000017   0.000029   0.388723
    20  H   -0.000023  -0.000282  -0.000006  -0.000006   0.000031   0.396231
    21  H    0.000418   0.000087  -0.000017   0.000004  -0.000044   0.381874
    22  C    0.284340  -0.000024   0.000002   0.000000  -0.000000   0.000022
    23  H   -0.088592  -0.000002   0.000000   0.000000   0.000000   0.000003
    24  H   -0.021619  -0.000000   0.000000   0.000000  -0.000000  -0.000002
    25  H   -0.042539   0.000000   0.000000  -0.000000   0.000000  -0.000001
    26  C   -0.054148   0.001465   0.000000  -0.000196   0.000060   0.000025
    27  H   -0.005839   0.000096  -0.000013   0.000001  -0.000001  -0.000000
    28  H    0.006303  -0.000106   0.000003  -0.000015   0.000004  -0.000001
    29  H   -0.000321  -0.000241   0.000134   0.000003  -0.000005   0.000000
              19         20         21         22         23         24
     1  O   -0.000004   0.000019   0.000069  -0.107180   0.004669   0.001194
     2  O    0.009532   0.001172   0.003391   0.000000  -0.000000  -0.000000
     3  N    0.000004   0.000012   0.000118   0.000000  -0.000101  -0.000042
     4  H   -0.000001  -0.000000   0.000000   0.000108  -0.000051  -0.000017
     5  C    0.026311   0.003769   0.039783   0.003891  -0.000553  -0.000114
     6  C    0.000025   0.000244  -0.001016  -0.008314  -0.034327   0.011442
     7  C    0.000289   0.001809  -0.000649  -0.000022   0.000021   0.000046
     8  C   -0.053935  -0.025611  -0.060531  -0.000047  -0.000012   0.000003
     9  C    0.000242  -0.009357  -0.008605   0.002394   0.003410  -0.001872
    10  H   -0.000058   0.001050   0.002117   0.001396  -0.000110   0.000131
    11  H    0.000449  -0.002623  -0.004715   0.001359  -0.000104  -0.000115
    12  C   -0.000206  -0.003771   0.006176  -0.248607   0.063819  -0.012058
    13  C   -0.000012  -0.000023   0.000418   0.284340  -0.088592  -0.021619
    14  C    0.000081  -0.000282   0.000087  -0.000024  -0.000002  -0.000000
    15  H   -0.000006  -0.000006  -0.000017   0.000002   0.000000   0.000000
    16  H   -0.000017  -0.000006   0.000004   0.000000   0.000000   0.000000
    17  H    0.000029   0.000031  -0.000044  -0.000000   0.000000  -0.000000
    18  C    0.388723   0.396231   0.381874   0.000022   0.000003  -0.000002
    19  H    0.507564  -0.009987  -0.020122  -0.000000   0.000000   0.000000
    20  H   -0.009987   0.501765  -0.026242  -0.000013  -0.000000   0.000000
    21  H   -0.020122  -0.026242   0.533118   0.000013  -0.000000  -0.000000
    22  C   -0.000000  -0.000013   0.000013   5.412374   0.400066   0.401253
    23  H    0.000000  -0.000000  -0.000000   0.400066   0.533891  -0.026118
    24  H    0.000000   0.000000  -0.000000   0.401253  -0.026118   0.490033
    25  H   -0.000000  -0.000000  -0.000000   0.383554  -0.021644  -0.008222
    26  C    0.000000   0.000006  -0.000014  -0.028193   0.015291  -0.015619
    27  H   -0.000000  -0.000000  -0.000000   0.009562  -0.010631  -0.000898
    28  H   -0.000000   0.000000  -0.000000  -0.011254  -0.001203   0.001158
    29  H    0.000000  -0.000000   0.000000   0.001935   0.000730   0.000212
              25         26         27         28         29
     1  O    0.007873   0.000895  -0.000228  -0.000044   0.000025
     2  O    0.000000   0.000002   0.000000  -0.000000  -0.000000
     3  N    0.000033  -0.030409   0.003323  -0.002377  -0.000293
     4  H   -0.000002  -0.005831   0.000899   0.000430   0.000783
     5  C   -0.000130  -0.000507   0.000107   0.000414  -0.000603
     6  C   -0.001419   0.178064  -0.044609  -0.035360  -0.047992
     7  C    0.000004   0.002115  -0.000826  -0.000839   0.003896
     8  C    0.000004   0.000350   0.000004  -0.000010  -0.000006
     9  C    0.000228   0.018129  -0.001007  -0.000161  -0.000467
    10  H   -0.000030  -0.000742  -0.000077  -0.000025   0.000099
    11  H   -0.000153   0.000023   0.000001   0.000045  -0.000009
    12  C    0.024705  -0.075197  -0.007965  -0.020187   0.024284
    13  C   -0.042539  -0.054148  -0.005839   0.006303  -0.000321
    14  C    0.000000   0.001465   0.000096  -0.000106  -0.000241
    15  H    0.000000   0.000000  -0.000013   0.000003   0.000134
    16  H   -0.000000  -0.000196   0.000001  -0.000015   0.000003
    17  H    0.000000   0.000060  -0.000001   0.000004  -0.000005
    18  C   -0.000001   0.000025  -0.000000  -0.000001   0.000000
    19  H   -0.000000   0.000000  -0.000000  -0.000000   0.000000
    20  H   -0.000000   0.000006  -0.000000   0.000000  -0.000000
    21  H   -0.000000  -0.000014  -0.000000  -0.000000   0.000000
    22  C    0.383554  -0.028193   0.009562  -0.011254   0.001935
    23  H   -0.021644   0.015291  -0.010631  -0.001203   0.000730
    24  H   -0.008222  -0.015619  -0.000898   0.001158   0.000212
    25  H    0.496822   0.001983   0.000906   0.000096  -0.000045
    26  C    0.001983   5.253648   0.426340   0.430562   0.388399
    27  H    0.000906   0.426340   0.509650  -0.024673  -0.026483
    28  H    0.000096   0.430562  -0.024673   0.476598  -0.018113
    29  H   -0.000045   0.388399  -0.026483  -0.018113   0.517322
 Mulliken charges:
               1
     1  O   -0.376347
     2  O   -0.380609
     3  N   -0.231962
     4  H    0.286269
     5  C   -0.105718
     6  C    0.275224
     7  C    0.180845
     8  C    0.170832
     9  C   -0.275008
    10  H    0.163536
    11  H    0.165891
    12  C   -0.139585
    13  C    0.166467
    14  C   -0.400753
    15  H    0.130916
    16  H    0.164933
    17  H    0.163208
    18  C   -0.459344
    19  H    0.151099
    20  H    0.171816
    21  H    0.154789
    22  C   -0.498615
    23  H    0.161546
    24  H    0.181227
    25  H    0.157979
    26  C   -0.506503
    27  H    0.172362
    28  H    0.198753
    29  H    0.156754
 Sum of Mulliken charges =  -0.00000
 Mulliken charges with hydrogens summed into heavy atoms:
               1
     1  O   -0.376347
     2  O   -0.380609
     3  N    0.054307
     5  C   -0.105718
     6  C    0.275224
     7  C    0.180845
     8  C    0.170832
     9  C    0.054419
    12  C   -0.139585
    13  C    0.166467
    14  C    0.058303
    18  C    0.018360
    22  C    0.002136
    26  C    0.021366
 APT charges:
               1
     1  O   -1.157076
     2  O   -1.155399
     3  N   -1.477880
     4  H    0.288326
     5  C   -0.847304
     6  C    1.094321
     7  C    1.000070
     8  C    1.531460
     9  C    0.184105
    10  H   -0.044788
    11  H    0.007784
    12  C   -0.856974
    13  C    1.521601
    14  C   -0.001213
    15  H   -0.000316
    16  H    0.017753
    17  H    0.037193
    18  C   -0.161122
    19  H    0.013839
    20  H    0.036361
    21  H    0.029318
    22  C   -0.162234
    23  H    0.024633
    24  H    0.029863
    25  H    0.019826
    26  C   -0.039209
    27  H    0.030864
    28  H    0.017759
    29  H    0.018439
 Sum of APT charges =   0.00000
 APT charges with hydrogens summed into heavy atoms:
               1
     1  O   -1.157076
     2  O   -1.155399
     3  N   -1.189553
     5  C   -0.847304
     6  C    1.094321
     7  C    1.000070
     8  C    1.531460
     9  C    0.147101
    12  C   -0.856974
    13  C    1.521601
    14  C    0.053417
    18  C   -0.081604
    22  C   -0.087913
    26  C    0.027854
 Electronic spatial extent (au):  <R**2>=           3181.3146
 Charge=              0.0000 electrons
 Dipole moment (field-independent basis, Debye):
    X=              4.0063    Y=              7.4298    Z=              0.4726  Tot=              8.4543
 Quadrupole moment (field-independent basis, Debye-Ang):
   XX=            -97.6159   YY=            -78.6643   ZZ=            -85.0268
   XY=             12.7877   XZ=             -6.0544   YZ=              1.4268
 Traceless Quadrupole moment (field-independent basis, Debye-Ang):
   XX=            -10.5136   YY=              8.4380   ZZ=              2.0756
   XY=             12.7877   XZ=             -6.0544   YZ=              1.4268
 Octapole moment (field-independent basis, Debye-Ang**2):
  XXX=            108.2127  YYY=             64.8856  ZZZ=             -2.0594  XYY=            -34.2325
  XXY=             30.7905  XXZ=             11.8839  XZZ=              3.1359  YZZ=             -1.0903
  YYZ=             -2.7333  XYZ=              5.1064
 Hexadecapole moment (field-independent basis, Debye-Ang**3):
 XXXX=          -3012.0911 YYYY=          -1271.0354 ZZZZ=           -161.7847 XXXY=             39.9193
 XXXZ=            -70.7534 YYYX=             87.8292 YYYZ=             22.7047 ZZZX=              1.8162
 ZZZY=             -6.3025 XXYY=           -691.3525 XXZZ=           -487.9708 YYZZ=           -242.4341
 XXYZ=              5.5518 YYXZ=             -6.1879 ZZXY=             -1.2128
 N-N= 9.007393872816D+02 E-N=-3.277557992298D+03  KE= 6.306979058754D+02
  Exact polarizability: 222.843  -3.568 229.888   2.945  -3.030 124.237
 Approx polarizability: 175.487  -3.747 204.665   4.347  -2.351 120.959
 No NMR shielding tensors so no spin-rotation constants.
 Leave Link  601 at Fri Jun 12 20:02:33 2026, MaxMem=  2147483648 cpu:               8.0 elap:               0.3
 (Enter /data/home/wyx/g16/l701.exe)
 ... and contract with generalized density number  0.
 Compute integral second derivatives.
 R6Disp: Adding Grimme-D3(BJ) dispersion energy 2nd derivatives to the Hessian.
 D2PCM: PCM CHGder 2nd derivatives, FixD1E=F FixD2E=F DoIter=F DoCFld=F I1PDM=0
 GePol: Maximum number of non-zero 2nd derivatives   =     196
 Leave Link  701 at Fri Jun 12 20:02:39 2026, MaxMem=  2147483648 cpu:             116.6 elap:               3.7
 (Enter /data/home/wyx/g16/l702.exe)
 L702 exits ... SP integral derivatives will be done elsewhere.
 Leave Link  702 at Fri Jun 12 20:02:40 2026, MaxMem=  2147483648 cpu:               2.3 elap:               0.1
 (Enter /data/home/wyx/g16/l703.exe)
 Integral derivatives from FoFJK, PRISM(SPDF).
 Compute integral second derivatives, UseDBF=F ICtDFT=           0.
 Calling FoFJK, ICntrl=    100127 FMM=F ISym2X=0 I1Cent= 0 IOpClX= 0 NMat=1 NMatS=1 NMatT=0.
 FoFJK:  IHMeth= 1 ICntrl=  100127 DoSepK=T KAlg= 0 I1Cent=           0 FoldK=F
 IRaf=         1 NMat=       1 IRICut=       1 DoRegI=T DoRafI=F ISym2E= 0 IDoP0=0 IntGTp=1.
 FoFCou: FMM=F IPFlag=           0 FMFlag=      100000 FMFlg1=         800
         NFxFlg=           0 DoJE=F BraDBF=F KetDBF=F FulRan=T
         wScrn=  0.000000 ICntrl=    100527 IOpCl=  0 I1Cent=           0 NGrid=           0
         NMat0=    1 NMatS0=      1 NMatT0=    0 NMatD0=    1 NMtDS0=    0 NMtDT0=    0
 Symmetry not used in FoFCou.
 Leave Link  703 at Fri Jun 12 20:03:47 2026, MaxMem=  2147483648 cpu:            2079.0 elap:              65.2
 (Enter /data/home/wyx/g16/l716.exe)
 Dipole        = 1.57621231D+00 2.92311031D+00 1.85924456D-01
 Polarizability= 2.22842743D+02-3.56831625D+00 2.29887883D+02
                 2.94512421D+00-3.03042416D+00 1.24237009D+02
 Full mass-weighted force constant matrix:
 Low frequencies ---  -10.1152   -9.3420   -0.7296   -0.0008   -0.0004   -0.0002
 Low frequencies ---   25.0627   42.6243   67.7146
 Diagonal vibrational polarizability:
      119.1508838      44.0361534     361.9911581
 Harmonic frequencies (cm**-1), IR intensities (KM/Mole), Raman scattering
 activities (A**4/AMU), depolarization ratios for plane and unpolarized
 incident light, reduced masses (AMU), force constants (mDyne/A),
 and normal coordinates:
                      1                      2                      3
                      A                      A                      A
 Frequencies --     24.7327                42.5877                67.6436
 Red. masses --      3.3515                 2.6272                 3.0955
 Frc consts  --      0.0012                 0.0028                 0.0083
 IR Inten    --      5.2702                 9.6221                 1.9273
  Atom  AN      X      Y      Z        X      Y      Z        X      Y      Z
     1   8     0.00  -0.00   0.00    -0.02  -0.01  -0.12     0.10   0.04   0.19
     2   8    -0.09   0.04   0.27     0.00  -0.02  -0.08    -0.04   0.01   0.02
     3   7     0.00   0.00  -0.10    -0.00  -0.00  -0.04     0.00  -0.01  -0.06
     4   1     0.00   0.00  -0.11    -0.00  -0.00  -0.01     0.00  -0.01  -0.02
     5   6    -0.01  -0.00  -0.04    -0.01  -0.00  -0.04    -0.01  -0.01  -0.08
     6   6     0.00  -0.00  -0.05    -0.00  -0.00  -0.03     0.00  -0.01   0.00
     7   6    -0.00  -0.00  -0.05    -0.01  -0.01  -0.01     0.00  -0.01  -0.05
     8   6    -0.03   0.01   0.05    -0.02  -0.00   0.02    -0.03   0.01   0.00
     9   6     0.00  -0.03  -0.14     0.00  -0.03  -0.13    -0.00  -0.05  -0.18
    10   1     0.01  -0.16  -0.18     0.01  -0.13  -0.16    -0.01  -0.20  -0.23
    11   1     0.00   0.04  -0.25    -0.00   0.03  -0.22    -0.00   0.03  -0.31
    12   6     0.01  -0.00  -0.04     0.01  -0.00  -0.06     0.00  -0.01  -0.06
    13   6     0.03   0.00   0.04     0.02   0.00  -0.02     0.04   0.02   0.02
    14   6    -0.02  -0.01  -0.00    -0.01   0.01   0.08    -0.00  -0.00   0.01
    15   1     0.07   0.05  -0.29    -0.07  -0.06   0.36    -0.00  -0.02   0.05
    16   1    -0.27  -0.24   0.06     0.13   0.25   0.05    -0.03   0.05   0.02
    17   1     0.11   0.13   0.27    -0.07  -0.15  -0.10     0.01  -0.03   0.02
    18   6     0.02  -0.02  -0.14    -0.05   0.03   0.21    -0.06   0.03   0.09
    19   1     0.02  -0.03  -0.11    -0.07   0.06   0.30    -0.07   0.05   0.19
    20   1    -0.02   0.09  -0.24    -0.11  -0.08   0.24    -0.13  -0.03   0.08
    21   1     0.09  -0.13  -0.20    -0.01   0.13   0.21     0.01   0.07   0.07
    22   6     0.08   0.01   0.18     0.08   0.03   0.17    -0.02   0.01  -0.15
    23   1     0.15  -0.01   0.15     0.17   0.02   0.16    -0.10   0.08  -0.06
    24   1    -0.02   0.03   0.23    -0.05   0.05   0.26     0.13  -0.11  -0.20
    25   1     0.13   0.00   0.25     0.15   0.04   0.25    -0.13   0.02  -0.31
    26   6     0.01  -0.00  -0.00     0.00   0.00   0.01     0.02  -0.02   0.18
    27   1    -0.03   0.03   0.10    -0.05   0.05   0.13     0.03  -0.16   0.04
    28   1     0.10  -0.06   0.01     0.11  -0.09   0.01    -0.03   0.25   0.22
    29   1    -0.03   0.03  -0.08    -0.05   0.04  -0.10     0.05  -0.14   0.44
                      4                      5                      6
                      A                      A                      A
 Frequencies --     71.2865               129.3132               146.0966
 Red. masses --      3.2312                 1.5296                 1.2760
 Frc consts  --      0.0097                 0.0151                 0.0160
 IR Inten    --      2.4742                 5.1634                 2.2724
  Atom  AN      X      Y      Z        X      Y      Z        X      Y      Z
     1   8     0.03   0.03   0.21     0.06   0.01   0.01     0.05   0.01   0.01
     2   8     0.01   0.01  -0.06     0.04   0.07  -0.08    -0.02   0.01   0.03
     3   7    -0.00  -0.00  -0.00    -0.00  -0.02   0.03     0.00  -0.01   0.01
     4   1    -0.00  -0.00   0.02    -0.01  -0.02   0.05     0.01  -0.01   0.02
     5   6    -0.01   0.00   0.01     0.01  -0.03   0.00    -0.01  -0.01   0.00
     6   6    -0.01  -0.00  -0.08    -0.00  -0.02   0.00    -0.00  -0.02   0.01
     7   6    -0.01   0.00   0.07     0.00  -0.03   0.02     0.00  -0.01  -0.00
     8   6    -0.00   0.01  -0.05    -0.01   0.02  -0.02    -0.02   0.00   0.01
     9   6     0.00  -0.01  -0.05     0.01  -0.03   0.00    -0.01  -0.01   0.01
    10   1     0.02  -0.05  -0.06     0.01  -0.03   0.01    -0.01  -0.01   0.01
    11   1    -0.01   0.01  -0.08     0.01  -0.03   0.01    -0.01  -0.02   0.01
    12   6    -0.00  -0.00  -0.05     0.00  -0.02  -0.00    -0.01  -0.02   0.00
    13   6     0.01  -0.00   0.05     0.02   0.01  -0.00     0.00   0.01  -0.01
    14   6    -0.03   0.02   0.24    -0.02  -0.05   0.04     0.03   0.01  -0.05
    15   1    -0.07  -0.06   0.55     0.10   0.05  -0.40    -0.01  -0.02   0.10
    16   1     0.07   0.31   0.23    -0.39  -0.42   0.14     0.19   0.13  -0.09
    17   1    -0.07  -0.16   0.08     0.16   0.17   0.45    -0.05  -0.04  -0.21
    18   6     0.00  -0.01  -0.12    -0.09   0.03   0.04    -0.02  -0.00  -0.01
    19   1     0.00  -0.00  -0.13    -0.11   0.08  -0.01    -0.03   0.00   0.00
    20   1    -0.01   0.04  -0.16    -0.06  -0.04   0.11    -0.04   0.01  -0.04
    21   1     0.01  -0.06  -0.14    -0.17   0.06   0.08    -0.00  -0.02  -0.03
    22   6     0.01  -0.04   0.01     0.01   0.04  -0.01    -0.03   0.06  -0.05
    23   1     0.00  -0.12  -0.07    -0.02   0.00  -0.05    -0.11  -0.04  -0.14
    24   1     0.00   0.05  -0.04    -0.02   0.12  -0.02    -0.08   0.23  -0.10
    25   1     0.02  -0.08   0.09     0.05   0.05   0.04     0.05   0.07   0.06
    26   6    -0.01  -0.01  -0.19    -0.01  -0.01  -0.03     0.03  -0.04   0.04
    27   1    -0.01   0.06  -0.15    -0.04   0.06   0.09    -0.13   0.11   0.46
    28   1    -0.01  -0.14  -0.22     0.07  -0.15  -0.04     0.38  -0.42   0.04
    29   1    -0.01   0.05  -0.32    -0.06   0.05  -0.18    -0.10   0.13  -0.39
                      7                      8                      9
                      A                      A                      A
 Frequencies --    171.3647               181.0836               208.7486
 Red. masses --      2.4881                 1.0530                 3.3286
 Frc consts  --      0.0430                 0.0203                 0.0855
 IR Inten    --      6.0542                 0.9412                 6.2477
  Atom  AN      X      Y      Z        X      Y      Z        X      Y      Z
     1   8    -0.13  -0.00   0.02    -0.00   0.00   0.00    -0.06   0.01   0.06
     2   8     0.02  -0.09  -0.05     0.02  -0.00  -0.03    -0.04  -0.05   0.03
     3   7     0.00   0.06  -0.07    -0.00   0.00   0.02    -0.01  -0.01   0.29
     4   1     0.01   0.06  -0.03     0.00   0.00   0.01    -0.01  -0.01   0.34
     5   6     0.01   0.05  -0.02    -0.00   0.00   0.03     0.01   0.02  -0.09
     6   6     0.00   0.04  -0.01    -0.00   0.00   0.01    -0.00   0.02   0.08
     7   6    -0.00   0.05  -0.02    -0.00   0.00   0.02     0.01   0.02   0.06
     8   6     0.05  -0.02  -0.01     0.00   0.00   0.01     0.01  -0.00  -0.04
     9   6    -0.00   0.05  -0.03     0.00  -0.00   0.00    -0.00  -0.00  -0.17
    10   1    -0.00   0.04  -0.03     0.01  -0.03  -0.01    -0.01  -0.14  -0.21
    11   1     0.00   0.06  -0.04    -0.01   0.01  -0.02     0.01   0.07  -0.28
    12   6    -0.01   0.04  -0.01    -0.00   0.00   0.00    -0.00   0.02  -0.07
    13   6    -0.06  -0.01  -0.00    -0.00   0.00   0.00    -0.01  -0.01  -0.02
    14   6    -0.06   0.00   0.09     0.00  -0.00  -0.02     0.04   0.03  -0.11
    15   1    -0.03   0.05  -0.11     0.01   0.01  -0.07     0.05   0.07  -0.27
    16   1    -0.32  -0.16   0.16    -0.01  -0.06  -0.02     0.08  -0.15  -0.13
    17   1     0.08   0.05   0.35     0.01   0.03   0.00     0.01   0.14  -0.09
    18   6     0.16  -0.02   0.03    -0.01  -0.00  -0.00     0.08   0.01   0.06
    19   1     0.18  -0.08   0.08    -0.05   0.09   0.52     0.10  -0.06   0.03
    20   1     0.15  -0.00   0.02    -0.49   0.02  -0.37     0.17  -0.03   0.15
    21   1     0.22   0.04   0.02     0.49  -0.13  -0.28     0.04   0.12   0.11
    22   6    -0.05  -0.09  -0.04    -0.00  -0.00   0.00     0.01  -0.07  -0.01
    23   1    -0.04  -0.12  -0.08    -0.00  -0.01  -0.01     0.03  -0.23  -0.18
    24   1    -0.03  -0.05  -0.07    -0.00   0.01  -0.00    -0.08   0.15  -0.06
[...]
 0.03565700,-0.03908550,0.06189666,-0.00523185,-0.00465286,0.00085146,-
 0.00003269,-0.00001200,-0.00000665,0.00007808,-0.00000737,0.00009001,0
 .00001536,0.00000278,-0.00001843,0.00003988,-0.00001373,0.00004590,-0.
 00007045,-0.00016156,0.00014396,-0.00005624,-0.00000689,0.00003897,0.0
 0002999,0.00002540,-0.00002696,-0.00006586,-0.00010425,-0.00034791,0.0
 0006428,0.00005201,0.00001287,-0.00005132,0.00006862,0.00006626,0.0000
 0773,0.00026756,-0.00106574,0.00838357,-0.01158421,0.01229050,0.000000
 09,0.00000200,-0.00001114,-0.00000236,0.00000298,-0.00000130,-0.000008
 02,0.00000317,-0.00000218,-0.00000321,0.00000085,-0.00000049,-0.000006
 27,-0.00000879,0.00000213,-0.00000362,-0.00000220,-0.00000123,-0.00000
 010,0.00000381,0.00000360,0.00000314,0.00000172,-0.00000513,0.03411630
 ,-0.15759176,0.13668716,-0.03845262,0.17210094,0.00061735,0.00069932,0
 .00034876,-0.00003125,-0.00000466,-0.00002225,-0.00009314,-0.00028591,
 -0.00009222,0.00006720,0.00001494,0.00004049,-0.00003437,-0.00007877,-
 0.00002015,0.00040920,0.00087606,0.00004166,0.00002794,0.00008918,-0.0
 0000553,0.00004580,0.00003783,0.00004591,0.00009562,0.00001930,0.00011
 383,-0.00003594,-0.00006379,0.00001058,-0.00002132,-0.00005497,-0.0000
 4640,0.00058219,-0.00026837,0.00052006,-0.00352537,-0.00033332,-0.0030
 9577,-0.00000827,-0.00001740,0.00000340,0.00000463,-0.00000010,0.00000
 139,-0.00000177,-0.00000156,-0.00000116,-0.00000485,0.00000015,-0.0000
 0364,-0.00000017,-0.00000637,-0.00000282,-0.00000038,-0.00000160,0.000
 00001,-0.00000021,-0.00000206,-0.00000029,-0.00000038,0.00000019,0.000
 00073,-0.03639198,0.13415099,-0.20155004,0.04340595,-0.14581516,0.2142
 7957,-0.00051027,0.00027098,0.00263632,-0.00014721,-0.00002020,-0.0000
 9388,-0.00114159,0.00044031,-0.00030447,-0.00006542,-0.00009447,-0.000
 10763,-0.00008657,-0.00015506,-0.00013951,0.00052480,-0.00171957,0.000
 13803,0.00028416,0.00038859,0.00005407,0.00020888,0.00017302,0.0001668
 8,-0.00003952,-0.00018282,0.00059084,-0.00009708,-0.00009181,-0.000026
 97,0.00002166,0.00002330,-0.00000514,-0.00224456,0.00191491,0.00251229
 ,-0.00292540,-0.01293690,-0.02399061,-0.00001284,-0.00000792,0.0000296
 9,0.00000676,0.00000241,0.00000192,0.00000526,-0.00000524,0.00000127,-
 0.00000178,-0.00000134,-0.00000578,0.00000313,-0.00000773,-0.00000767,
 -0.00000360,-0.00000608,-0.00000022,0.00000602,-0.00000133,0.00000258,
 0.00000665,0.00000344,0.00000534,-0.05825233,-0.03493532,-0.05135048,-
 0.00186279,-0.00299224,-0.00454057,0.06032111,-0.00211648,-0.00086142,
 0.00399275,-0.00004698,-0.00001400,-0.00004164,0.00003590,0.00012144,-
 0.00025242,-0.00000383,0.00000028,-0.00000984,-0.00000626,-0.00000744,
 0.00002824,-0.00008563,-0.00062863,-0.00003401,-0.00000827,-0.00000078
 ,-0.00010352,0.00002758,0.00004701,0.00007345,-0.00012652,-0.00002424,
 0.00029910,-0.00010861,-0.00004674,-0.00006457,0.00006038,-0.00000923,
 0.00001076,-0.00035579,0.00026650,0.00140259,-0.00154112,-0.01197935,-
 0.01727327,-0.00001001,-0.00001311,0.00000804,0.00000114,0.00000366,0.
 00000101,-0.00000396,0.00000240,-0.00000328,-0.00000704,0.00000178,-0.
 00000434,-0.00000553,-0.00000964,-0.00000776,-0.00000483,-0.00000250,-
 0.00000126,0.00000136,0.00000205,0.00000475,0.00000528,0.00000749,-0.0
 0000235,-0.03355088,-0.11929311,-0.12129822,0.00519870,0.01233955,0.01
 714969,0.03529324,0.12962584,0.00011910,0.00092202,-0.00178204,0.00004
 902,0.00000544,0.00002932,0.00040533,0.00011401,0.00001526,-0.00006093
 ,0.00002321,0.00006019,0.00003640,0.00007656,0.00004933,-0.00033835,-0
 .00031283,0.00005555,-0.00007742,-0.00016449,-0.00009625,-0.00008936,-
 0.00005869,-0.00005223,-0.00014080,0.00006841,-0.00005588,-0.00000660,
 0.00000183,-0.00002384,0.00000787,0.00000496,-0.00001694,0.00017959,-0
 .00097715,-0.00027329,-0.00046264,0.00430755,0.00794541,0.00000530,0.0
 0000923,-0.00000173,-0.00000594,-0.00000022,0.00000004,0.00000156,0.00
 000165,-0.00000035,0.00000194,0.00000228,0.00000283,-0.00000055,0.0000
 0540,0.00000110,0.00000067,0.00000236,-0.00000091,-0.00000073,0.000001
 67,-0.00000049,-0.00000067,0.00000132,-0.00000144,-0.04795310,-0.11685
 827,-0.22450047,-0.00472940,-0.01360324,-0.01863249,0.05275940,0.12953
 046,0.24208462,0.00487130,0.00187452,-0.00225976,-0.00024245,-0.000077
 55,-0.00013625,-0.00054372,0.00006039,-0.00000166,-0.00002402,-0.00000
 677,0.00000779,-0.00013503,-0.00064471,0.00006522,0.00085383,-0.000642
 87,0.00002504,0.00014608,0.00023281,0.00004858,0.00015228,0.00028314,0
 .00008722,-0.00088206,0.00079289,-0.00031066,-0.00002932,-0.00005182,0
 .00008364,0.00003988,-0.00002593,-0.00001707,-0.00149137,-0.00434490,0
 .00054265,-0.02623457,0.01585895,0.00659652,-0.00001835,-0.00000295,-0
 .00000613,-0.00000276,0.00001062,0.00000084,-0.00001254,0.00000370,-0.
 00000288,-0.00001057,0.00000286,-0.00000565,-0.00001419,-0.00002927,-0
 .00000244,-0.00000986,-0.00001178,-0.00000336,0.00000364,0.00000212,0.
 00000951,0.00000767,0.00000767,-0.00000714,-0.21909229,0.12363849,0.05
 211173,-0.00323345,0.00152760,0.00040343,0.00738746,-0.00487858,-0.001
 13398,0.23819912,-0.00041336,0.00180765,-0.00088908,-0.00005391,-0.000
 03084,-0.00003239,0.00006221,0.00019352,0.00003784,-0.00006598,-0.0000
 1554,-0.00000399,-0.00010111,-0.00021761,0.00006462,-0.00017375,-0.000
 49159,0.00017118,-0.00000752,-0.00009274,-0.00002151,-0.00003448,0.000
 07092,-0.00002140,-0.00075907,0.00044054,-0.00032993,0.00004056,0.0000
 4411,0.00001932,0.00003898,0.00003741,-0.00001435,-0.00155045,-0.00276
 747,0.00012226,-0.01988131,0.00991575,0.00665513,0.00000370,0.00001405
 ,-0.00000619,-0.00000639,0.00000458,-0.00000054,-0.00000312,0.00000357
 ,-0.00000046,0.00000134,0.00000089,0.00000131,-0.00000602,-0.00000297,
 0.00000057,-0.00000261,-0.00000263,-0.00000039,0.00000097,0.00000171,0
 .00000265,0.00000231,0.00000368,-0.00000237,0.12894022,-0.13709474,-0.
 03518335,0.01358821,-0.00958502,-0.00628927,0.01295901,-0.00894845,-0.
 00249169,-0.13361263,0.14728005,-0.00073710,0.00040073,-0.00002908,0.0
 0009345,0.00002703,0.00002613,0.00043788,0.00000330,0.00000219,0.00000
 479,0.00002657,0.00001494,0.00001101,0.00025655,0.00004456,-0.00044972
 ,0.00041287,-0.00028830,-0.00010519,-0.00018762,-0.00006711,-0.0000948
 4,-0.00010448,0.00001065,0.00020879,-0.00016011,0.00023122,-0.00003057
 ,-0.00004584,0.00000224,0.00000423,0.00003011,-0.00000397,0.00060410,0
 .00041029,0.00067739,0.00302025,-0.00496485,-0.00217685,0.00000618,0.0
 0000259,0.00000730,-0.00000007,-0.00000275,-0.00000037,0.00000454,-0.0
 0000089,0.00000049,0.00000307,-0.00000060,0.00000130,0.00000286,0.0000
 1062,-0.00000366,0.00000274,0.00000431,0.00000120,-0.00000050,-0.00000
 108,-0.00000168,-0.00000152,0.00000124,0.00000192,0.05148836,-0.033061
 60,-0.06286258,-0.01981977,0.01236685,0.00791216,0.02157580,-0.0140650
 9,-0.00527875,-0.05608019,0.03848229,0.06134989,0.00030000,-0.00109075
 ,0.00011193,-0.00033429,-0.00006606,-0.00019761,-0.03641935,-0.0368269
 1,-0.00398901,0.00003069,-0.00269125,-0.00014290,-0.00098614,-0.001377
 65,-0.00036537,-0.12366405,-0.04496610,-0.00219086,-0.00190559,0.00406
 942,0.00113119,0.00074924,0.00050605,0.00034200,-0.00143158,0.00301291
 ,-0.00178020,0.00030092,0.00046788,0.00006463,0.00036282,0.00052200,-0
 .00008961,0.01684281,0.00262268,-0.00132151,-0.00119963,0.00128962,0.0
 0097596,-0.00031140,-0.00079410,-0.00037392,0.00009414,0.00004759,0.00
 001608,-0.00016251,0.00000901,-0.00001632,-0.00018062,0.00003472,-0.00
 009123,0.00004931,-0.00006747,-0.00002232,0.00002085,-0.00003544,0.000
 03084,-0.00001884,-0.00003248,-0.00002483,-0.00001271,-0.00002901,0.00
 004309,-0.00262154,0.00054382,-0.00007965,-0.00102005,0.00135078,-0.00
 052660,-0.00075511,0.00085364,0.00083643,0.00031728,0.00040457,-0.0001
 4721,0.59445310,-0.00016104,-0.00127992,0.00008187,-0.00007768,-0.0000
 1161,-0.00007595,-0.00716664,0.00054476,-0.00283610,0.00250543,0.00215
 672,0.00109348,0.00013640,-0.00035420,0.00031838,-0.06259826,-0.186192
 80,-0.00300857,0.00285921,-0.00024626,-0.00062447,-0.00002413,0.000066
 21,0.00017291,0.00258903,-0.00065158,-0.00062280,-0.00018324,-0.000232
 83,0.00006469,-0.00053899,-0.00055267,0.00016283,-0.01481772,-0.021980
 30,0.00117286,-0.00042433,0.00244872,0.00006537,-0.00003649,0.00033272
 ,0.00031081,-0.00005287,-0.00002252,-0.00001918,0.00011467,-0.00002612
 ,0.00003123,0.00006167,0.00000572,0.00001482,-0.00004009,-0.00006721,-
 0.00002199,-0.00002402,-0.00000164,-0.00001794,-0.00000580,0.00001362,
 0.00002617,0.00000131,0.00001990,-0.00004881,0.00318252,-0.00254651,-0
 .00090306,0.00074377,-0.00037638,0.00058301,-0.00001128,0.00004618,-0.
 00080479,-0.00011343,-0.00090754,0.00008031,-0.03758605,0.51359589,-0.
 00135526,0.00266589,0.00043131,-0.00031817,-0.00003786,-0.00001522,-0.
 00909663,-0.00523108,0.00519645,0.00164359,-0.00016258,-0.00165853,-0.
 00003190,-0.00061210,-0.00085212,-0.00280044,-0.01074730,-0.07689466,-
 0.00079994,-0.00006204,0.00495331,0.00087251,0.00034361,-0.00035858,-0
 .00119076,0.00092177,0.00808530,-0.00061689,-0.00092586,-0.00029221,0.
 00086903,0.00077479,0.00011910,-0.00542996,0.00604134,0.00704986,0.005
 22057,-0.00239032,-0.00536814,0.00004520,0.00020552,-0.00019887,0.0000
 4191,-0.00001986,-0.00001648,-0.00003056,-0.00003418,0.00005655,-0.000
 00853,-0.00008281,0.00001628,-0.00005983,-0.00002427,0.00018484,0.0000
 2888,-0.00003568,-0.00002211,0.00003665,0.00000415,-0.00004988,-0.0000
 3784,-0.00004803,-0.00003205,0.00146027,-0.00077945,-0.00011994,0.0010
 9368,-0.00119417,0.00086445,-0.00031225,0.00029318,-0.00058776,-0.0000
 6430,-0.00075792,-0.00010058,0.01900534,0.00342758,0.56189920,-0.00005
 709,0.00004733,0.00005080,-0.00023027,-0.00004249,-0.00010059,-0.00206
 906,-0.00370507,-0.00129340,0.00068558,-0.00027260,-0.00001767,-0.0001
 2793,-0.00042129,-0.00013913,-0.01310558,0.00185819,-0.00765181,-0.000
 17699,0.00073923,0.00045233,0.00038230,0.00022356,0.00009664,-0.000174
 08,-0.00000063,0.00043146,-0.00003628,-0.00005707,-0.00000423,0.000048
 69,0.00001689,0.00000554,0.00026612,0.00110076,0.00072197,0.00049041,-
 0.00024209,-0.00071193,-0.00008273,-0.00014842,-0.00001214,0.00003410,
 0.00001036,0.00000547,-0.00003033,-0.00000304,-0.00000729,-0.00005705,
 0.00000401,-0.00003029,-0.00001719,-0.00003522,0.00000802,-0.00000198,
 -0.00001822,-0.00000120,0.00000537,-0.00000128,0.00000053,0.00000170,-
 0.00000565,0.00000011,-0.00158047,0.00210354,0.00160478,-0.00053740,0.
 00057908,-0.00000391,-0.00105362,0.00159995,0.00029644,-0.00008938,0.0
 0031133,0.00000801,-0.22297191,0.01308789,-0.14105587,0.24377750,0.000
 53485,-0.00019658,-0.00002707,-0.00015140,-0.00004247,-0.00008911,-0.0
 0223769,-0.00447099,-0.00016268,-0.00046481,-0.00039692,-0.00018172,-0
 .00013000,-0.00024721,-0.00000694,-0.02352008,0.00540447,-0.01889968,-
 0.00093514,0.00055008,0.00044857,0.00022931,0.00021849,0.00011789,-0.0
 0016483,0.00039872,0.00062859,-0.00014351,-0.00011908,-0.00002474,0.00
 009111,0.00008883,-0.00003265,0.00163489,0.00000101,0.00066464,-0.0019
 0013,-0.00097260,-0.00044338,-0.00006278,-0.00017496,-0.00009904,0.000
 01491,0.00001221,0.00000764,-0.00004633,0.00000181,-0.00000494,-0.0000
 5091,-0.00000199,-0.00002325,0.00000178,-0.00003759,0.00000919,-0.0000
 0040,-0.00001088,-0.00000249,-0.00000256,-0.00000430,-0.00000251,-0.00
 000346,-0.00000225,-0.00000557,0.00108583,-0.00122715,-0.00113376,0.00
 047968,-0.00042649,-0.00015819,0.00173762,-0.00069164,0.00022151,0.000
 15449,0.00010435,0.00030738,0.01677351,-0.05059363,0.01281246,-0.01694
 067,0.05471858,0.00033510,0.00024067,-0.00015376,-0.00001777,-0.000004
 94,-0.00001543,0.00129310,0.00066733,0.00045841,-0.00021190,0.00001000
 ,-0.00015502,-0.00003285,-0.00006722,0.00003843,0.00271768,0.00088873,
 0.00014828,0.00029036,0.00010867,0.00008480,0.00001943,0.00004867,0.00
 003558,0.00003492,-0.00001386,-0.00002365,-0.00002846,-0.00001203,-0.0
 0001701,-0.00000858,-0.00000466,-0.00001548,0.00042329,-0.00052540,0.0
 0053272,-0.00123606,-0.00040469,0.00028610,0.00002460,0.00002876,0.000
 00936,-0.00000641,-0.00000221,-0.00000243,0.00000667,-0.00000179,0.000
 00584,0.00001290,-0.00000404,0.00000299,0.00000739,-0.00000877,-0.0000
 0009,-0.00000131,0.00000156,-0.00000102,-0.00000439,-0.00000113,0.0000
 0001,-0.00000122,0.00000081,-0.00000248,-0.00069194,0.00069482,0.00040
 213,0.00023891,-0.00046134,-0.00120419,0.00022947,0.00009831,0.0009657
 6,-0.00000992,0.00062333,0.00005166,-0.14094248,0.00918006,-0.15511593
 ,0.15109754,-0.01356952,0.16230965,0.00018041,-0.00018043,0.00003145,-
 0.00014732,-0.00004241,-0.00010292,-0.00014099,-0.00149025,-0.00105477
 ,-0.00019604,0.00001741,0.00065275,-0.00008910,-0.00025631,0.00011852,
 -0.00720702,-0.00423443,0.01522945,-0.00005492,0.00025022,-0.00090460,
 0.00012913,0.00017703,0.00022285,0.00006836,-0.00016405,-0.00070841,0.
 00001353,0.00003833,0.00002615,-0.00013466,-0.00007842,-0.00002150,0.0
 0014581,0.00060101,-0.00019506,-0.00059395,0.00036080,0.00041761,-0.00
 004793,-0.00012535,0.00002028,0.00001278,0.00001346,0.00000930,-0.0000
 1755,0.00000226,-0.00001797,-0.00002821,0.00001689,-0.00002156,0.00000
 365,-0.00003476,-0.00003159,-0.00000764,-0.00000871,-0.00000103,-0.000
 00448,-0.00000588,0.00001005,0.00000454,0.00000750,-0.00000274,0.00044
 436,0.00030546,-0.00037757,-0.00042451,0.00065846,0.00020815,0.0001449
 6,-0.00019360,-0.00019171,0.00004477,-0.00016084,0.00002225,-0.0728704
 0,-0.02243275,0.08060193,0.00999537,0.00651139,-0.02349330,0.07703984,
 0.00090425,-0.00122491,0.00005996,0.00002028,-0.00002031,-0.00003279,0
 .00217756,-0.00051995,-0.00002979,-0.00021776,0.00003973,-0.00000616,0
 .00014553,0.00025899,0.00027884,-0.01097149,-0.00878299,0.02718228,-0.
 00068675,-0.00050779,-0.00067732,-0.00017827,-0.00004888,0.00005177,0.
 00034456,-0.00031284,-0.00165603,-0.00002901,0.00007853,0.00005197,-0.
 00024934,-0.00027179,-0.00005507,0.00123283,-0.00171795,-0.00139404,-0
 .00300069,0.00097190,0.00107499,0.00001139,-0.00009405,-0.00003576,-0.
 00000649,0.00001676,0.00000367,-0.00003610,0.00002190,-0.00002638,-0.0
 0002065,0.00001255,-0.00001256,-0.00001885,-0.00001846,-0.00003624,-0.
 00001727,0.00000183,0.00000427,-0.00001018,0.00001274,0.00002121,0.000
 01694,0.00002104,-0.00000252,0.00006232,-0.00026366,0.00022027,0.00087
 025,-0.00030430,-0.00022531,-0.00003626,0.00005507,-0.00000887,0.00001
 958,0.00018779,-0.00018693,-0.02300178,-0.06080423,0.06165935,-0.00040
 261,-0.00105269,0.00196099,0.02608765,0.06712300,-0.00001118,-0.000479
 84,-0.00005652,-0.00003456,-0.00000972,-0.00002823,-0.00056997,-0.0002
 2953,-0.00028203,-0.00007362,0.00006351,-0.00014293,-0.00006911,-0.000
 15310,0.00003522,-0.00074400,0.00231557,0.00495305,0.00019947,0.000331
 79,-0.00034496,0.00005343,0.00007043,0.00005308,-0.00002766,0.00019641
 ,-0.00023928,0.00000819,0.00001301,-0.00001313,0.00005311,0.00000008,-
 0.00000584,0.00113759,-0.00104085,0.00055806,-0.00009021,0.00046071,0.
 00018194,-0.00004433,-0.00003112,0.00004904,0.00000048,0.00000168,-0.0
 0000030,0.00001389,-0.00000404,0.00000480,-0.00000565,0.00000800,-0.00
 000412,0.00000782,-0.00000787,-0.00000555,-0.00000045,-0.00000132,0.00
 000267,-0.00000379,-0.00000311,-0.00000031,-0.00000079,-0.00000068,0.0
 0000145,0.00041155,-0.00053561,-0.00030595,-0.00009962,-0.00000983,0.0
 0044311,0.00004847,0.00011325,-0.00018872,0.00001656,-0.00024318,0.000
 23429,0.07854459,0.05952537,-0.27143417,0.00706451,0.00377543,-0.01674
 372,-0.08808808,-0.06599633,0.29166299,0.00023353,0.00020050,-0.000035
 44,0.00007016,0.00001057,0.00002654,0.00019547,-0.00259253,-0.00059294
 ,-0.00041950,-0.00081545,-0.00057787,0.00016068,0.00003186,0.00019619,
 0.01006250,-0.01522214,-0.00732554,0.00044346,-0.00048964,-0.00022191,
 -0.00014438,-0.00008575,0.00000032,0.00010129,-0.00043063,0.00049224,-
 0.00010682,-0.00012043,-0.00002111,-0.00003859,-0.00005930,0.00001514,
 -0.00204665,-0.00154423,0.00043975,-0.00070992,-0.00053599,-0.00027331
 ,0.00001857,0.00010496,0.00002539,-0.00001780,0.00000464,0.00000373,0.
 00002243,0.00000256,0.00000683,0.00002702,0.00000277,0.00001607,-0.000
 01841,-0.00001157,-0.00000296,-0.00000257,-0.00000023,-0.00000918,0.00
 000078,0.00000475,0.00000101,-0.00000507,0.00000910,-0.00001593,-0.001
 05443,0.00056264,0.00049684,-0.00001139,0.00012252,-0.00064696,0.00027
 881,-0.00002328,0.00049314,0.00004265,0.00047915,-0.00003164,-0.146655
 43,0.12101292,0.05228955,-0.01328781,0.01750535,0.00995525,-0.00626279
 ,0.00699037,0.00230333,0.15912422,0.00037229,-0.00045746,0.00009558,-0
 .00000615,-0.00001885,-0.00000668,0.00303177,0.00204024,0.00130171,-0.
 00205687,0.00018226,-0.00106263,0.00044037,0.00039532,0.00025152,0.017
 95001,-0.02533046,-0.00950675,-0.00051392,-0.00025846,0.00006597,-0.00
 012687,0.00000848,-0.00008353,0.00071029,-0.00060753,0.00064471,-0.000
 23088,-0.00028277,-0.00003167,-0.00016654,-0.00021949,0.00003936,-0.00
 441183,-0.00146090,-0.00026658,-0.00089133,0.00072012,-0.00031584,0.00
 003420,0.00004371,-0.00003635,-0.00003500,0.00001304,-0.00000188,-0.00
 000843,0.00001617,-0.00000081,0.00001188,0.00000034,0.00000869,-0.0000
 2630,-0.00001214,0.00001671,-0.00001576,0.00000604,-0.00001128,0.00000
 125,0.00001694,0.00001475,0.00000739,0.00001394,-0.00002569,-0.0000243
 1,0.00016678,0.00008221,0.00006469,-0.00003357,-0.00001384,-0.00000126
 ,0.00001101,-0.00001962,-0.00002664,0.00004659,-0.00004121,0.11605684,
 -0.19238247,-0.06600415,0.00061424,-0.00082911,0.00052888,-0.00563968,
 0.00714299,0.00187087,-0.12511346,0.21106923,0.00025613,-0.00053323,0.
 00005343,0.00005964,0.00000760,0.00002155,0.00047437,0.00007234,0.0001
 6322,-0.00130322,-0.00070680,0.00046813,0.00012408,0.00021542,0.000111
 99,0.00028194,0.00197212,-0.00170957,-0.00023133,-0.00015048,-0.000071
 54,-0.00014027,-0.00006252,-0.00003850,0.00004027,0.00017568,0.0005175
 1,-0.00014241,-0.00017309,-0.00001356,0.00004242,0.00006529,-0.0000092
 4,0.00081623,-0.00062133,0.00019438,-0.00095191,0.00039826,-0.00022561
 ,0.00003571,0.00002621,-0.00003353,-0.00002012,0.00000521,0.00000372,-
 0.00000496,0.00000350,0.00000102,0.00001119,0.00000393,0.00001007,0.00
 000193,0.00000783,0.00000010,-0.00000147,0.00000593,-0.00000247,-0.000
 00291,0.00000303,0.00000147,0.00000309,0.00000848,-0.00000304,-0.00036
 596,0.00017602,-0.00028368,-0.00017839,-0.00002876,0.00005086,0.000132
 83,0.00015597,0.00028417,0.00004266,0.00010750,0.00024338,0.05119953,-
 0.06732812,-0.07573942,-0.01081467,0.01587394,0.00811847,0.01764209,-0
 .02218747,-0.00838395,-0.05700652,0.07250755,0.07627063\\-0.00000128,-
 0.00000426,-0.00000061,-0.00000410,0.00000328,-0.00000069,0.00000546,0
 .00000249,-0.00000468,-0.00000112,-0.00000033,0.00000896,0.00000080,-0
 .00000086,0.00000169,0.00000017,0.00000083,0.00000639,-0.00000373,0.00
 000166,0.00000142,0.00000107,0.00000184,0.00000006,0.00000695,-0.00000
 552,-0.00000964,-0.00000014,-0.00000377,0.00000361,-0.00000392,0.00000
 589,0.00000225,-0.00000087,-0.00000122,-0.00000827,-0.00000052,0.00000
 358,0.00000071,-0.00000223,-0.00000087,0.00001326,0.00000022,-0.000000
 44,0.00000232,-0.00000220,0.00000304,-0.00000099,0.00000475,0.00000385
 ,-0.00000052,-0.00000134,-0.00000008,-0.00000377,-0.00000096,0.0000020
 5,-0.00000207,-0.00000139,0.00000081,-0.00000196,0.00000024,-0.0000004
 9,-0.00000286,-0.00000781,0.00000255,-0.00001511,0.00000482,-0.0000066
 7,0.00000464,0.00000247,0.,0.00000545,0.00000030,-0.00000055,-0.000003
 90,-0.00000245,-0.00000366,-0.00000393,0.00000382,-0.00000085,0.000001
 93,-0.00000056,-0.00000027,0.00000484,0.00000356,-0.00000202,0.0000014
 8\\\@


 THE WORLD IS MADE UP OF THE WILLS, THE WON'TS, AND THE CANT'S:
 THE WILLS DO EVERYTHING,
 THE WON'TS DO NOTHING,
 THE CAN'TS CAN'T DO ANYTHING.

                               -- FROM WALT DISNEY'S "BLACK HOLE"
 Job cpu time:       0 days  2 hours 12 minutes  8.5 seconds.
 Elapsed time:       0 days  0 hours  4 minutes 10.4 seconds.
 File lengths (MBytes):  RWF=    430 Int=      0 D2E=      0 Chk=     67 Scr=      1
 Normal termination of Gaussian 16 at Fri Jun 12 20:03:51 2026.
