 Entering Gaussian System, Link 0=g16
 Input=DDL-S1-TD-Neq.gjf
 Output=DDL-S1-TD-Neq.log
 Initial command:
 /data/home/wyx/g16/l1.exe "/scr/tmp/wyx/13031/Gau-1827961.inp" -scrdir="/scr/tmp/wyx/13031/"
 Entering Link 1 = /data/home/wyx/g16/l1.exe PID=   1827962.
  
 Copyright (c) 1988,1990,1992,1993,1995,1998,2003,2009,2016,
            Gaussian, Inc.  All Rights Reserved.
  
 This is part of the Gaussian(R) 16 program.  It is based on
 the Gaussian(R) 09 system (copyright 2009, Gaussian, Inc.),
 the Gaussian(R) 03 system (copyright 2003, Gaussian, Inc.),
 the Gaussian(R) 98 system (copyright 1998, Gaussian, Inc.),
 the Gaussian(R) 94 system (copyright 1995, Gaussian, Inc.),
 the Gaussian 92(TM) system (copyright 1992, Gaussian, Inc.),
 the Gaussian 90(TM) system (copyright 1990, Gaussian, Inc.),
 the Gaussian 88(TM) system (copyright 1988, Gaussian, Inc.),
 the Gaussian 86(TM) system (copyright 1986, Carnegie Mellon
 University), and the Gaussian 82(TM) system (copyright 1983,
 Carnegie Mellon University). Gaussian is a federally registered
 trademark of Gaussian, Inc.
  
 This software contains proprietary and confidential information,
 including trade secrets, belonging to Gaussian, Inc.
  
 This software is provided under written license and may be
 used, copied, transmitted, or stored only in accord with that
 written license.
  
 The following legend is applicable only to US Government
 contracts under FAR:
  
                    RESTRICTED RIGHTS LEGEND
  
 Use, reproduction and disclosure by the US Government is
 subject to restrictions as set forth in subparagraphs (a)
 and (c) of the Commercial Computer Software - Restricted
 Rights clause in FAR 52.227-19.
  
 Gaussian, Inc.
 340 Quinnipiac St., Bldg. 40, Wallingford CT 06492
  
  
 ---------------------------------------------------------------
 Warning -- This program may not be used in any manner that
 competes with the business of Gaussian, Inc. or will provide
 assistance to any competitor of Gaussian, Inc.  The licensee
 of this program is prohibited from giving any competitor of
 Gaussian, Inc. access to this program.  By using this program,
 the user acknowledges that Gaussian, Inc. is engaged in the
 business of creating and licensing software in the field of
 computational chemistry and represents and warrants to the
 licensee that it is not a competitor of Gaussian, Inc. and that
 it will not use this program in any manner prohibited above.
 ---------------------------------------------------------------
  

 Cite this work as:
 Gaussian 16, Revision A.03,
 M. J. Frisch, G. W. Trucks, H. B. Schlegel, G. E. Scuseria, 
 M. A. Robb, J. R. Cheeseman, G. Scalmani, V. Barone, 
 G. A. Petersson, H. Nakatsuji, X. Li, M. Caricato, A. V. Marenich, 
 J. Bloino, B. G. Janesko, R. Gomperts, B. Mennucci, H. P. Hratchian, 
 J. V. Ortiz, A. F. Izmaylov, J. L. Sonnenberg, D. Williams-Young, 
 F. Ding, F. Lipparini, F. Egidi, J. Goings, B. Peng, A. Petrone, 
 T. Henderson, D. Ranasinghe, V. G. Zakrzewski, J. Gao, N. Rega, 
 G. Zheng, W. Liang, M. Hada, M. Ehara, K. Toyota, R. Fukuda, 
 J. Hasegawa, M. Ishida, T. Nakajima, Y. Honda, O. Kitao, H. Nakai, 
 T. Vreven, K. Throssell, J. A. Montgomery, Jr., J. E. Peralta, 
 F. Ogliaro, M. J. Bearpark, J. J. Heyd, E. N. Brothers, K. N. Kudin, 
 V. N. Staroverov, T. A. Keith, R. Kobayashi, J. Normand, 
 K. Raghavachari, A. P. Rendell, J. C. Burant, S. S. Iyengar, 
 J. Tomasi, M. Cossi, J. M. Millam, M. Klene, C. Adamo, R. Cammi, 
 J. W. Ochterski, R. L. Martin, K. Morokuma, O. Farkas, 
 J. B. Foresman, and D. J. Fox, Gaussian, Inc., Wallingford CT, 2016.
 
 ******************************************
 Gaussian 16:  ES64L-G16RevA.03 25-Dec-2016
                20-Jan-2026 
 ******************************************
 %nprocshared=32
 Will use up to   32 processors via shared memory.
 %mem=16GB
 %oldchk=DDL-S1-opt-freq.chk
 %chk=DDL-S1-TD-Neq.chk
 Copying data from "DDL-S1-opt-freq.chk" to current chk file "DDL-S1-TD-Neq.chk"
 IOpt=  2 FromEx=T IUOpen= 4 IOptOp= 5 NList=   0 IFRang= 0 IUIn= 4 IUOut= 2.
 ----------------------------------------------------------------------
 #p CAM-B3LYP/TZVP em=gd3bj TD=NStates=6 SCRF=(Solvent=Water) Geom=Chec
 k Guess=Read NoSymm
 ----------------------------------------------------------------------
 1/29=2,38=1,172=1/1;
 2/12=2,15=1,40=1/2;
 3/5=19,7=101,11=9,14=-4,25=1,30=1,70=2201,72=1,74=-40,116=-2,124=41/1,2,3,8;
 4/5=1/1;
 5/5=2,38=6,53=1/2;
 8/6=1,10=1,108=6/1;
 9/41=6,42=1,70=2/14;
 6/7=2,8=2,9=2,10=2/1;
 99/5=1,9=1/99;
 Leave Link    1 at Tue Jan 20 20:42:41 2026, MaxMem=  2147483648 cpu:               5.8 elap:               0.3
 (Enter /data/home/wyx/g16/l101.exe)
 -------------------
 Title Card Required
 -------------------
 Structure from the checkpoint file:  "DDL-S1-TD-Neq.chk"
 Charge =  0 Multiplicity = 1
 Redundant internal coordinates found in file.  (old form).
 O,0,1.2615009389,9.837065498,1.2932516823
 O,0,-4.7745357232,9.727353672,-0.4491234194
 N,0,-2.1201500642,12.9137798229,0.2746956904
 H,0,-2.4285517001,13.8757693115,0.2031886512
 C,0,-2.6998196861,10.6310106954,0.2067580492
 C,0,-0.8009809025,12.7424314888,0.5652623084
 C,0,-3.0770795512,11.982171729,0.076464449
 C,0,-3.6153652651,9.5408258738,-0.0499093799
 C,0,-1.3180439892,10.323565953,0.6196091911
 H,0,-1.3373788496,9.8512898282,1.621554937
 H,0,-0.9044354886,9.5064552436,0.0154451732
 C,0,-0.3369155576,11.4238636036,0.6856649505
 C,0,1.0296928645,10.9991612128,0.9206762005
 C,0,-4.4394273977,12.5051329282,-0.2333447788
 H,0,-4.4483218668,13.594498771,-0.1839832936
 H,0,-4.7659083335,12.1993746905,-1.2260411257
 H,0,-5.1757940645,12.118255847,0.4690298646
 C,0,-3.1340528374,8.1191160074,0.1366047233
 H,0,-4.0041225695,7.4756168188,0.2449632492
 H,0,-2.5795467534,7.7923658319,-0.7471694862
 H,0,-2.4838983152,7.9886379762,0.9995908046
 C,0,2.2043848351,11.9155725205,0.6790246528
 H,0,2.0301642392,12.6409818659,-0.110936623
 H,0,2.4620676487,12.4591625955,1.5908539868
 H,0,3.0582282669,11.2954181281,0.412397229
 C,0,-0.0305856345,14.0067385111,0.7638430092
 H,0,0.6551961759,13.9234404613,1.6036750973
 H,0,0.5529327316,14.2831694407,-0.1168342513
 H,0,-0.708424181,14.8336081232,0.9767884578
 Recover connectivity data from disk.
 ITRead=  0  0  0  0  0  0  0  0  0  0  0  0  0  0  0  0  0  0  0  0
 ITRead=  0  0  0  0  0  0  0  0  0
 MicOpt= -1 -1 -1 -1 -1 -1 -1 -1 -1 -1 -1 -1 -1 -1 -1 -1 -1 -1 -1 -1
 MicOpt= -1 -1 -1 -1 -1 -1 -1 -1 -1
                           ----------------------------
                           !    Current Parameters    !
                           ! (Angstroms and Degrees)  !
 --------------------------                            --------------------------
 ! Name  Definition              Value                                          !
 --------------------------------------------------------------------------------
 ! R1    R(1,13)                 1.2422                                         !
 ! R2    R(2,8)                  1.2401                                         !
 ! R3    R(3,4)                  1.0127                                         !
 ! R4    R(3,6)                  1.3616                                         !
 ! R5    R(3,7)                  1.3501                                         !
 ! R6    R(5,7)                  1.4089                                         !
 ! R7    R(5,8)                  1.4466                                         !
 ! R8    R(5,9)                  1.4745                                         !
 ! R9    R(6,12)                 1.403                                          !
 ! R10   R(6,26)                 1.4938                                         !
 ! R11   R(7,14)                 1.4918                                         !
 ! R12   R(8,18)                 1.5125                                         !
 ! R13   R(9,10)                 1.1078                                         !
 ! R14   R(9,11)                 1.0972                                         !
 ! R15   R(9,12)                 1.4757                                         !
 ! R16   R(12,13)                1.4502                                         !
 ! R17   R(13,22)                1.5093                                         !
 ! R18   R(14,15)                1.0905                                         !
 ! R19   R(14,16)                1.0888                                         !
 ! R20   R(14,17)                1.0887                                         !
 ! R21   R(18,19)                1.0876                                         !
 ! R22   R(18,20)                1.0933                                         !
 ! R23   R(18,21)                1.0883                                         !
 ! R24   R(22,23)                1.0866                                         !
 ! R25   R(22,24)                1.0924                                         !
 ! R26   R(22,25)                1.0885                                         !
 ! R27   R(26,27)                1.0875                                         !
 ! R28   R(26,28)                1.092                                          !
 ! R29   R(26,29)                1.0902                                         !
 ! A1    A(4,3,6)              115.4441                                         !
 ! A2    A(4,3,7)              115.4184                                         !
 ! A3    A(6,3,7)              129.136                                          !
 ! A4    A(7,5,8)              122.4709                                         !
 ! A5    A(7,5,9)              118.4754                                         !
 ! A6    A(8,5,9)              119.0538                                         !
 ! A7    A(3,6,12)             117.1956                                         !
 ! A8    A(3,6,26)             114.9302                                         !
 ! A9    A(12,6,26)            127.8382                                         !
 ! A10   A(3,7,5)              117.2821                                         !
 ! A11   A(3,7,14)             115.8401                                         !
 ! A12   A(5,7,14)             126.8656                                         !
 ! A13   A(2,8,5)              122.3685                                         !
 ! A14   A(2,8,18)             118.5897                                         !
 ! A15   A(5,8,18)             119.019                                          !
 ! A16   A(5,9,10)             109.0112                                         !
 ! A17   A(5,9,11)             110.7548                                         !
 ! A18   A(5,9,12)             118.6924                                         !
 ! A19   A(10,9,11)            100.7845                                         !
 ! A20   A(10,9,12)            106.7969                                         !
 ! A21   A(11,9,12)            109.2269                                         !
 ! A22   A(6,12,9)             118.4887                                         !
 ! A23   A(6,12,13)            126.928                                          !
 ! A24   A(9,12,13)            114.5458                                         !
 ! A25   A(1,13,12)            119.8957                                         !
 ! A26   A(1,13,22)            118.0862                                         !
 ! A27   A(12,13,22)           121.9815                                         !
 ! A28   A(7,14,15)            110.3794                                         !
 ! A29   A(7,14,16)            111.3909                                         !
 ! A30   A(7,14,17)            111.0468                                         !
 ! A31   A(15,14,16)           108.6231                                         !
 ! A32   A(15,14,17)           108.679                                          !
 ! A33   A(16,14,17)           106.5947                                         !
 ! A34   A(8,18,19)            108.2922                                         !
 ! A35   A(8,18,20)            110.0377                                         !
 ! A36   A(8,18,21)            113.6138                                         !
 ! A37   A(19,18,20)           108.0264                                         !
 ! A38   A(19,18,21)           109.1456                                         !
 ! A39   A(20,18,21)           107.5876                                         !
 ! A40   A(13,22,23)           113.3884                                         !
 ! A41   A(13,22,24)           110.6145                                         !
 ! A42   A(13,22,25)           107.6868                                         !
 ! A43   A(23,22,24)           108.2077                                         !
 ! A44   A(23,22,25)           109.1516                                         !
 ! A45   A(24,22,25)           107.6346                                         !
 ! A46   A(6,26,27)            111.2889                                         !
 ! A47   A(6,26,28)            112.4961                                         !
 ! A48   A(6,26,29)            110.319                                          !
 ! A49   A(27,26,28)           107.7728                                         !
 ! A50   A(27,26,29)           107.4184                                         !
 ! A51   A(28,26,29)           107.3236                                         !
 ! D1    D(4,3,6,12)           179.4034                                         !
 ! D2    D(4,3,6,26)             1.4123                                         !
 ! D3    D(7,3,6,12)            -0.145                                          !
 ! D4    D(7,3,6,26)          -178.1362                                         !
 ! D5    D(4,3,7,5)           -178.1304                                         !
 ! D6    D(4,3,7,14)             0.6857                                         !
 ! D7    D(6,3,7,5)              1.4181                                         !
 ! D8    D(6,3,7,14)          -179.7657                                         !
 ! D9    D(8,5,7,3)           -176.6626                                         !
 ! D10   D(8,5,7,14)             4.6692                                         !
 ! D11   D(9,5,7,3)              3.2896                                         !
 ! D12   D(9,5,7,14)          -175.3786                                         !
 ! D13   D(7,5,8,2)              2.7751                                         !
 ! D14   D(7,5,8,18)          -178.9866                                         !
 ! D15   D(9,5,8,2)           -177.1768                                         !
 ! D16   D(9,5,8,18)             1.0615                                         !
 ! D17   D(7,5,9,10)           113.5829                                         !
 ! D18   D(7,5,9,11)          -136.4052                                         !
 ! D19   D(7,5,9,12)            -8.8975                                         !
 ! D20   D(8,5,9,10)           -66.4633                                         !
 ! D21   D(8,5,9,11)            43.5486                                         !
 ! D22   D(8,5,9,12)           171.0564                                         !
 ! D23   D(3,6,12,9)            -5.7192                                         !
 ! D24   D(3,6,12,13)          176.6389                                         !
 ! D25   D(26,6,12,9)          171.974                                          !
 ! D26   D(26,6,12,13)          -5.6679                                         !
 ! D27   D(3,6,26,27)          138.4544                                         !
 ! D28   D(3,6,26,28)         -100.4845                                         !
 ! D29   D(3,6,26,29)           19.319                                          !
 ! D30   D(12,6,26,27)         -39.283                                          !
 ! D31   D(12,6,26,28)          81.7781                                         !
 ! D32   D(12,6,26,29)        -158.4184                                         !
 ! D33   D(3,7,14,15)           -3.7006                                         !
 ! D34   D(3,7,14,16)          117.0555                                         !
 ! D35   D(3,7,14,17)         -124.2992                                         !
 ! D36   D(5,7,14,15)          174.9843                                         !
 ! D37   D(5,7,14,16)          -64.2596                                         !
 ! D38   D(5,7,14,17)           54.3856                                         !
 ! D39   D(2,8,18,19)          -21.2687                                         !
 ! D40   D(2,8,18,20)           96.6026                                         !
 ! D41   D(2,8,18,21)         -142.7022                                         !
 ! D42   D(5,8,18,19)          160.4259                                         !
 ! D43   D(5,8,18,20)          -81.7028                                         !
 ! D44   D(5,8,18,21)           38.9925                                         !
 ! D45   D(5,9,12,6)            10.1453                                         !
 ! D46   D(5,9,12,13)         -171.9269                                         !
 ! D47   D(10,9,12,6)         -113.4355                                         !
 ! D48   D(10,9,12,13)          64.4923                                         !
 ! D49   D(11,9,12,6)          138.368                                          !
 ! D50   D(11,9,12,13)         -43.7042                                         !
 ! D51   D(6,12,13,1)          164.3171                                         !
 ! D52   D(6,12,13,22)         -17.9256                                         !
 ! D53   D(9,12,13,1)          -13.4044                                         !
 ! D54   D(9,12,13,22)         164.3529                                         !
 ! D55   D(1,13,22,23)         147.8622                                         !
 ! D56   D(1,13,22,24)         -90.3743                                         !
 ! D57   D(1,13,22,25)          26.9923                                         !
 ! D58   D(12,13,22,23)        -29.9341                                         !
 ! D59   D(12,13,22,24)         91.8295                                         !
 ! D60   D(12,13,22,25)       -150.804                                          !
 --------------------------------------------------------------------------------
 NAtoms=     29 NQM=       29 NQMF=       0 NMMI=      0 NMMIF=      0
                NMic=       0 NMicF=      0.
                    Isotopes and Nuclear Properties:
 (Nuclear quadrupole moments (NQMom) in fm**2, nuclear magnetic moments (NMagM)
  in nuclear magnetons)

  Atom         1           2           3           4           5           6           7           8           9          10
 IAtWgt=          16          16          14           1          12          12          12          12          12           1
 AtmWgt=  15.9949146  15.9949146  14.0030740   1.0078250  12.0000000  12.0000000  12.0000000  12.0000000  12.0000000   1.0078250
 NucSpn=           0           0           2           1           0           0           0           0           0           1
 AtZEff=   5.6000000   5.6000000   4.5500000   1.0000000   3.6000000   3.6000000   3.6000000   3.6000000   3.6000000   1.0000000
 NQMom=    0.0000000   0.0000000   2.0440000   0.0000000   0.0000000   0.0000000   0.0000000   0.0000000   0.0000000   0.0000000
 NMagM=    0.0000000   0.0000000   0.4037610   2.7928460   0.0000000   0.0000000   0.0000000   0.0000000   0.0000000   2.7928460
 AtZNuc=   8.0000000   8.0000000   7.0000000   1.0000000   6.0000000   6.0000000   6.0000000   6.0000000   6.0000000   1.0000000

  Atom        11          12          13          14          15          16          17          18          19          20
 IAtWgt=           1          12          12          12           1           1           1          12           1           1
 AtmWgt=   1.0078250  12.0000000  12.0000000  12.0000000   1.0078250   1.0078250   1.0078250  12.0000000   1.0078250   1.0078250
 NucSpn=           1           0           0           0           1           1           1           0           1           1
 AtZEff=   1.0000000   3.6000000   3.6000000   3.6000000   1.0000000   1.0000000   1.0000000   3.6000000   1.0000000   1.0000000
 NQMom=    0.0000000   0.0000000   0.0000000   0.0000000   0.0000000   0.0000000   0.0000000   0.0000000   0.0000000   0.0000000
 NMagM=    2.7928460   0.0000000   0.0000000   0.0000000   2.7928460   2.7928460   2.7928460   0.0000000   2.7928460   2.7928460
 AtZNuc=   1.0000000   6.0000000   6.0000000   6.0000000   1.0000000   1.0000000   1.0000000   6.0000000   1.0000000   1.0000000

  Atom        21          22          23          24          25          26          27          28          29
 IAtWgt=           1          12           1           1           1          12           1           1           1
 AtmWgt=   1.0078250  12.0000000   1.0078250   1.0078250   1.0078250  12.0000000   1.0078250   1.0078250   1.0078250
 NucSpn=           1           0           1           1           1           0           1           1           1
 AtZEff=   1.0000000   3.6000000   1.0000000   1.0000000   1.0000000   3.6000000   1.0000000   1.0000000   1.0000000
 NQMom=    0.0000000   0.0000000   0.0000000   0.0000000   0.0000000   0.0000000   0.0000000   0.0000000   0.0000000
 NMagM=    2.7928460   0.0000000   2.7928460   2.7928460   2.7928460   0.0000000   2.7928460   2.7928460   2.7928460
 AtZNuc=   1.0000000   6.0000000   1.0000000   1.0000000   1.0000000   6.0000000   1.0000000   1.0000000   1.0000000
 Leave Link  101 at Tue Jan 20 20:42:43 2026, MaxMem=  2147483648 cpu:               6.3 elap:               0.2
 (Enter /data/home/wyx/g16/l202.exe)
                          Input orientation:                          
 ---------------------------------------------------------------------
 Center     Atomic      Atomic             Coordinates (Angstroms)
 Number     Number       Type             X           Y           Z
 ---------------------------------------------------------------------
      1          8           0        1.261501    9.837065    1.293252
      2          8           0       -4.774536    9.727354   -0.449123
      3          7           0       -2.120150   12.913780    0.274696
      4          1           0       -2.428552   13.875769    0.203189
      5          6           0       -2.699820   10.631011    0.206758
      6          6           0       -0.800981   12.742431    0.565262
      7          6           0       -3.077080   11.982172    0.076464
      8          6           0       -3.615365    9.540826   -0.049909
      9          6           0       -1.318044   10.323566    0.619609
     10          1           0       -1.337379    9.851290    1.621555
     11          1           0       -0.904435    9.506455    0.015445
     12          6           0       -0.336916   11.423864    0.685665
     13          6           0        1.029693   10.999161    0.920676
     14          6           0       -4.439427   12.505133   -0.233345
     15          1           0       -4.448322   13.594499   -0.183983
     16          1           0       -4.765908   12.199375   -1.226041
     17          1           0       -5.175794   12.118256    0.469030
     18          6           0       -3.134053    8.119116    0.136605
     19          1           0       -4.004123    7.475617    0.244963
     20          1           0       -2.579547    7.792366   -0.747169
     21          1           0       -2.483898    7.988638    0.999591
     22          6           0        2.204385   11.915573    0.679025
     23          1           0        2.030164   12.640982   -0.110937
     24          1           0        2.462068   12.459163    1.590854
     25          1           0        3.058228   11.295418    0.412397
     26          6           0       -0.030586   14.006739    0.763843
     27          1           0        0.655196   13.923440    1.603675
     28          1           0        0.552933   14.283169   -0.116834
     29          1           0       -0.708424   14.833608    0.976788
 ---------------------------------------------------------------------
                    Distance matrix (angstroms):
                    1          2          3          4          5
     1  O    0.000000
     2  O    6.283442   0.000000
     3  N    4.683929   4.209868   0.000000
     4  H    5.578159   4.810250   1.012743   0.000000
     5  C    4.183644   2.356103   2.356198   3.256080   0.000000
     6  C    3.636613   5.090070   1.361615   2.016070   2.862204
     7  C    4.990524   2.870854   1.350149   2.005582   1.408878
     8  C    5.067116   1.240097   3.703762   4.501591   1.446584
     9  C    2.710079   3.666742   2.733413   3.744968   1.474541
    10  H    2.619573   4.014613   3.435929   4.404413   2.113258
    11  H    2.536410   3.904138   3.626987   4.631316   2.127118
    12  C    2.332815   4.884502   2.359803   3.258768   2.537968
    13  C    1.242181   6.097780   3.742267   4.555120   3.815033
    14  C    6.476856   2.806228   2.409179   2.472413   2.594660
    15  H    6.993040   3.889926   2.468633   2.075689   3.462976
    16  H    6.946726   2.591247   3.124520   3.211889   2.963343
    17  H    6.879094   2.592379   3.163477   3.272135   2.900195
    18  C    4.859020   2.370799   4.902639   5.800105   2.550117
    19  H    5.865334   2.479034   5.755333   6.591367   3.414554
    20  H    4.806013   2.941256   5.242531   6.159040   2.997057
    21  H    4.186996   3.220082   4.991474   5.941013   2.767190
    22  C    2.363577   7.400429   4.456624   5.053008   5.091597
    23  H    3.228705   7.409962   4.177109   4.637189   5.149142
    24  H    2.899193   7.999545   4.789120   5.277362   5.648269
    25  H    2.476071   8.034503   5.427122   6.066855   5.799900
    26  C    4.397264   6.503037   2.408340   2.466116   4.339435
    27  H    4.142756   7.162619   3.238541   3.387202   4.903835
    28  H    4.717865   7.017677   3.028844   3.026159   4.901364
    29  H    5.380167   6.681341   2.484280   2.115361   4.713855
                    6          7          8          9         10
     6  C    0.000000
     7  C    2.448988   0.000000
     8  C    4.306910   2.503176   0.000000
     9  C    2.474110   2.477940   2.517662   0.000000
    10  H    3.124448   3.155079   2.842429   1.107842   0.000000
    11  H    3.283983   3.294431   2.711935   1.097158   1.698805
    12  C    1.403023   2.862050   3.851640   1.475680   2.085619
    13  C    2.552778   4.306342   4.964408   2.461491   2.722475
    14  C    3.732610   1.491798   3.082182   3.902538   4.483998
    15  H    3.819749   2.132542   4.140538   4.598196   5.191295
    16  H    4.384556   2.143791   3.126486   4.337378   5.037571
    17  H    4.420164   2.139446   3.057349   4.257443   4.604441
    18  C    5.196347   3.863944   1.512517   2.896684   2.904056
    19  H    6.172685   4.604002   2.122068   3.932708   3.827577
    20  H    5.421155   4.298882   2.148535   3.141090   3.375353
    21  H    5.061562   4.141538   2.188825   2.637326   2.273943
    22  C    3.119112   5.316143   6.327737   3.865944   4.206390
    23  H    2.912545   5.152969   6.441017   4.136981   4.703643
    24  H    3.432137   5.762209   6.938587   4.448970   4.608442
    25  H    4.124404   6.182757   6.915864   4.487671   4.782147
    26  C    1.493792   3.721893   5.784221   3.904371   4.439722
    27  H    2.143253   4.475576   6.338718   4.221511   4.533551
    28  H    2.161530   4.302202   6.314191   4.440874   5.122190
    29  H    2.133293   3.814682   6.125191   4.565051   5.063082
                   11         12         13         14         15
    11  H    0.000000
    12  C    2.108964   0.000000
    13  C    2.605469   1.450249   0.000000
    14  C    4.642212   4.341005   5.788868   0.000000
    15  H    5.413964   4.729863   6.161550   1.090520   0.000000
    16  H    4.868683   4.885900   6.295864   1.088818   1.770061
    17  H    5.027101   4.893246   6.321742   1.088687   1.770575
    18  C    2.628799   4.364264   5.123105   4.591079   5.640026
    19  H    3.712821   5.406596   6.181525   5.070927   6.149961
    20  H    2.515091   4.502242   5.108019   5.092479   6.121621
    21  H    2.401461   4.063110   4.627613   5.073751   6.056854
    22  C    3.988602   2.588442   1.509340   6.732031   6.915351
    23  H    4.295708   2.778312   2.181913   6.472175   6.548688
    24  H    4.746971   3.118576   2.152310   7.138659   7.224439
    25  H    4.365852   3.408544   2.112125   7.622023   7.873356
    26  C    4.645026   2.602152   3.192853   4.763097   4.537038
    27  H    4.946179   2.841639   3.026243   5.598342   5.417548
    28  H    4.995840   3.100236   3.476843   5.300816   5.048893
    29  H    5.416748   3.442256   4.210366   4.561426   4.107264
                   16         17         18         19         20
    16  H    0.000000
    17  H    1.745810   0.000000
    18  C    4.600898   4.502481   0.000000
    19  H    5.005803   4.793445   1.087591   0.000000
    20  H    4.942795   5.189698   1.093298   1.764674   0.000000
    21  H    5.281222   4.957978   1.088334   1.773058   1.760353
    22  C    7.231515   7.385947   6.573144   7.645076   6.474632
    23  H    6.901092   7.248133   6.868601   7.951118   6.720365
    24  H    7.761831   7.727331   7.229620   8.273981   7.256943
    25  H    8.044795   8.275228   6.964862   8.030922   6.737988
    26  C    5.445134   5.488757   6.684986   7.662492   6.884678
    27  H    6.353587   6.208587   7.085258   8.070302   7.319843
    28  H    5.819159   6.152105   7.187047   8.200026   7.234658
    29  H    5.315526   5.252461   7.188462   8.095507   7.486803
                   21         22         23         24         25
    21  H    0.000000
    22  C    6.124016   0.000000
    23  H    6.576803   1.086559   0.000000
    24  H    6.693113   1.092393   1.765132   0.000000
    25  H    6.480336   1.088453   1.772381   1.760247   0.000000
    26  C    6.503219   3.061905   2.622446   3.048321   4.124990
    27  H    6.740973   2.699351   2.544628   2.325738   3.755024
    28  H    7.077420   2.994361   2.208852   3.144518   3.934876
    29  H    7.071524   4.133770   3.672958   4.008377   5.198557
                   26         27         28         29
    26  C    0.000000
    27  H    1.087453   0.000000
    28  H    1.092017   1.760686   0.000000
    29  H    1.090195   1.755236   1.757844   0.000000
 Symmetry turned off by external request.
 Stoichiometry    C11H15NO2
 Framework group  C1[X(C11H15NO2)]
 Deg. of freedom    81
 Full point group                 C1      NOp   1
 Rotational constants (GHZ):           1.0696409           0.4891732           0.3419374
 Leave Link  202 at Tue Jan 20 20:42:43 2026, MaxMem=  2147483648 cpu:               0.1 elap:               0.0
 (Enter /data/home/wyx/g16/l301.exe)
 Standard basis: TZVP (5D, 7F)
 Ernie: Thresh=  0.10000D-02 Tol=  0.10000D-05 Strict=F.
   356 basis functions,   610 primitive gaussians,   370 cartesian basis functions
    52 alpha electrons       52 beta electrons
       nuclear repulsion energy       898.0421854874 Hartrees.
 IExCor=20419 DFT=T Ex+Corr=CAM-B3LYP ExCW=0 ScaHFX=  1.000000
 ScaDFX=  1.000000  1.000000  1.000000  0.810000 ScalE2=  1.000000  1.000000
 IRadAn=      5 IRanWt=     -1 IRanGd=            0 ICorTp=0 IEmpDi=141
 HFx  wShort=  0.000000 wLong=  0.330000 cFull=  0.190000 cShort=  0.000000 cLong=  0.460000
 DFx  wShort=  0.000000 wLong=  0.330000 cFull=  0.190000 cShort=  0.000000 cLong=  0.460000
 NAtoms=   29 NActive=   29 NUniq=   29 SFac= 1.00D+00 NAtFMM=   60 NAOKFM=F Big=F
 Integral buffers will be    131072 words long.
 Raffenetti 1 integral format.
 Two-electron integral symmetry is turned off.
 R6Disp:  Grimme-D3(BJ) Dispersion energy=       -0.0260955562 Hartrees.
 Nuclear repulsion after empirical dispersion term =      898.0160899312 Hartrees.
 ------------------------------------------------------------------------------
 Polarizable Continuum Model (PCM)
 =================================
 Model                : PCM.
 Atomic radii         : UFF (Universal Force Field).
 Polarization charges : Total charges.
 Charge compensation  : None.
 Solution method      : On-the-fly selection.
 Cavity type          : Scaled VdW (van der Waals Surface) (Alpha=1.100).
 Cavity algorithm     : GePol (No added spheres)
                        Default sphere list used, NSphG=   29.
                        Lebedev-Laikov grids with approx.  5.0 points / Ang**2.
                        Smoothing algorithm: York/Karplus (Gamma=1.0000).
                        Polarization charges: spherical gaussians, with
                                              point-specific exponents (IZeta= 3).
                        Self-potential: point-specific (ISelfS= 7).
                        Self-field    : sphere-specific E.n sum rule (ISelfD= 2).
 Solvent              : Water, Eps=  78.355300 Eps(inf)=   1.777849
 ------------------------------------------------------------------------------
 GePol: Number of generator spheres                  =      29
 GePol: Total number of spheres                      =      29
 GePol: Number of exposed spheres                    =      29 (100.00%)
 GePol: Number of points                             =    2100
 GePol: Average weight of points                     =       0.13
 GePol: Minimum weight of points                     =   0.46D-09
 GePol: Maximum weight of points                     =    0.20577
 GePol: Number of points with low weight             =     150
 GePol: Fraction of low-weight points (<1% of avg)   =       7.14%
 GePol: Cavity surface area                          =    269.813 Ang**2
 GePol: Cavity volume                                =    287.533 Ang**3
 Leave Link  301 at Tue Jan 20 20:42:43 2026, MaxMem=  2147483648 cpu:               1.1 elap:               0.1
 (Enter /data/home/wyx/g16/l302.exe)
 NPDir=0 NMtPBC=     1 NCelOv=     1 NCel=       1 NClECP=     1 NCelD=      1
         NCelK=      1 NCelE2=     1 NClLst=     1 CellRange=     0.0.
 One-electron integrals computed using PRISM.
 NBasis=   356 RedAO= T EigKep=  3.90D-05  NBF=   356
 NBsUse=   356 1.00D-06 EigRej= -1.00D+00 NBFU=   356
 Precomputing XC quadrature grid using
 IXCGrd= 4 IRadAn=           5 IRanWt=          -1 IRanGd=           0 AccXCQ= 0.00D+00.
 Generated NRdTot=       0 NPtTot=           0 NUsed=           0 NTot=          32
 NSgBfM=   366   366   366   366   366 MxSgAt=    29 MxSgA2=    29.
 Leave Link  302 at Tue Jan 20 20:42:44 2026, MaxMem=  2147483648 cpu:               6.2 elap:               0.2
 (Enter /data/home/wyx/g16/l303.exe)
 DipDrv:  MaxL=1.
 Leave Link  303 at Tue Jan 20 20:42:44 2026, MaxMem=  2147483648 cpu:               1.1 elap:               0.1
 (Enter /data/home/wyx/g16/l308.exe)
 Leave Link  308 at Tue Jan 20 20:42:44 2026, MaxMem=  2147483648 cpu:               1.3 elap:               0.1
 (Enter /data/home/wyx/g16/l401.exe)
 Initial guess from the checkpoint file:  "DDL-S1-TD-Neq.chk"
 B after Tr=     0.000000    0.000000    0.000000
         Rot=    1.000000    0.000000    0.000000    0.000000 Ang=   0.00 deg.
 Guess basis will be translated and rotated to current coordinates.
 JPrj=2 DoOrth=T DoCkMO=T.
 Leave Link  401 at Tue Jan 20 20:42:45 2026, MaxMem=  2147483648 cpu:               4.4 elap:               0.2
 (Enter /data/home/wyx/g16/l502.exe)
 Two-electron integral symmetry not used.
 Closed shell SCF:
 Using DIIS extrapolation, IDIIS=  1040.
 NGot=  2147483648 LenX=  2147195087 LenY=  2147057746
 Requested convergence on RMS density matrix=1.00D-08 within 128 cycles.
 Requested convergence on MAX density matrix=1.00D-06.
 Requested convergence on             energy=1.00D-06.
 No special actions if energy rises.
 Fock matrices will be formed incrementally for  20 cycles.

 Cycle   1  Pass 1  IDiag  1:
 FoFJK:  IHMeth= 1 ICntrl=       0 DoSepK=T KAlg= 0 I1Cent=           0 FoldK=F
 IRaf=         1 NMat=       1 IRICut=       1 DoRegI=T DoRafI=F ISym2E= 0 IDoP0=0 IntGTp=1.
 FoFCou: FMM=F IPFlag=           0 FMFlag=      100000 FMFlg1=           0
         NFxFlg=           0 DoJE=T BraDBF=F KetDBF=F FulRan=T
         wScrn=  0.000000 ICntrl=       500 IOpCl=  0 I1Cent=           0 NGrid=           0
         NMat0=    1 NMatS0=      1 NMatT0=    0 NMatD0=    1 NMtDS0=    0 NMtDT0=    0
 Symmetry not used in FoFCou.
 Inv3:  Mode=1 IEnd=    13230000.
 Iteration    1 A*A^-1 deviation from unit magnitude is 3.77D-15 for   1108.
 Iteration    1 A*A^-1 deviation from orthogonality  is 1.54D-15 for   1995    369.
 Iteration    1 A^-1*A deviation from unit magnitude is 3.77D-15 for   1108.
 Iteration    1 A^-1*A deviation from orthogonality  is 1.55D-14 for   1802   1754.
 E= -633.320835756407    
 DIIS: error= 1.10D-08 at cycle   1 NSaved=   1.
 NSaved= 1 IEnMin= 1 EnMin= -633.320835756407     IErMin= 1 ErrMin= 1.10D-08
 ErrMax= 1.10D-08  0.00D+00 EMaxC= 1.00D-01 BMatC= 3.68D-14 BMatP= 3.68D-14
 IDIUse=1 WtCom= 1.00D+00 WtEn= 0.00D+00
 Coeff-Com:  0.100D+01
 Coeff:      0.100D+01
 Gap=     0.214 Goal=   None    Shift=    0.000
 RMSDP=2.04D-09 MaxDP=1.20D-07              OVMax= 1.98D-07

 Error on total polarization charges =  0.01560
 SCF Done:  E(RCAM-B3LYP) =  -633.320835756     A.U. after    1 cycles
            NFock=  1  Conv=0.20D-08     -V/T= 2.0044
 KE= 6.305450037649D+02 PE=-3.271868841685D+03 EE= 1.109986912232D+03
 Leave Link  502 at Tue Jan 20 20:42:49 2026, MaxMem=  2147483648 cpu:             119.9 elap:               4.1
 (Enter /data/home/wyx/g16/l801.exe)
 DoSCS=F DFT=T ScalE2(SS,OS)=  1.000000  1.000000
 ExpMin= 9.52D-02 ExpMax= 2.70D+04 ExpMxC= 9.22D+02 IAcc=3 IRadAn=         5 AccDes= 0.00D+00
 HarFok:  IExCor=  205 AccDes= 0.00D+00 IRadAn=         5 IDoV=-2 UseB2=F ITyADJ=14
 ICtDFT= 12500011 ScaDFX=  1.000000  1.000000  1.000000  1.000000
 Largest valence mixing into a core orbital is  5.58D-05
 Largest core mixing into a valence orbital is  1.14D-05
 Range of M.O.s used for correlation:    15   356
 NBasis=   356 NAE=    52 NBE=    52 NFC=    14 NFV=     0
 NROrb=    342 NOA=    38 NOB=    38 NVA=   304 NVB=   304

 **** Warning!!: The largest alpha MO coefficient is  0.61612297D+02

 Leave Link  801 at Tue Jan 20 20:42:49 2026, MaxMem=  2147483648 cpu:               1.6 elap:               0.1
 (Enter /data/home/wyx/g16/l914.exe)
 RHF ground state
 Two-electron integral symmetry not used.
 MDV=  2147483648 DFT=T DoStab=F Mixed=T DoRPA=T DoScal=F NonHer=T
 NEqPCM:  Using non-equilibrium solvation (IEInf=1, Eps=  78.3553, EpsInf=   1.7778)
 Inv3:  Mode=1 IEnd=    13230000.
 Iteration    1 A*A^-1 deviation from unit magnitude is 3.77D-15 for   1120.
 Iteration    1 A*A^-1 deviation from orthogonality  is 1.97D-15 for   1389     63.
 Iteration    1 A^-1*A deviation from unit magnitude is 3.77D-15 for   1120.
 Iteration    1 A^-1*A deviation from orthogonality  is 1.73D-15 for    880    453.
 Making orbital integer symmetry assigments:
    24 initial guesses have been made.
 Convergence on wavefunction:    0.001000000000000
 Davidson Disk Diagonalization:  ConvIn= 1.00D-03 SkipCon=T Conv= 1.00D-03.
 Max sub-space:  2000 roots to seek:    24 dimension of matrix:        23104
 Iteration     1 Dimension    24 NMult     0 NNew     24
 CISAX will form    24 AO SS matrices at one time.
 NMat=    24 NSing=    24 JSym2X= 0.
 FoFJK:  IHMeth= 1 ICntrl=       0 DoSepK=T KAlg= 0 I1Cent=           0 FoldK=F
 IRaf=         1 NMat=      48 IRICut=       1 DoRegI=T DoRafI=F ISym2E= 0 IDoP0=3 IntGTp=3.
 New state      2 was old state      3
 New state      3 was old state      5
 New state      4 was old state      2
 New state      5 was old state      6
 New state      6 was old state      4
 Excitation Energies [eV] at current iteration:
 Root      1 :     3.364738537791268
 Root      2 :     4.142020439333904
 Root      3 :     4.365059464216343
 Root      4 :     5.213767088759318
 Root      5 :     5.883153313729292
 Root      6 :     6.105011953731402
 Root      7 :     6.512718441784850
 Root      8 :     6.705253465141948
 Root      9 :     6.825761038608403
 Root     10 :     6.937230435823241
 Root     11 :     7.020104229990240
 Root     12 :     7.194423466288526
 Root     13 :     7.230147763791384
 Root     14 :     7.304229157000862
 Root     15 :     7.569925771419748
 Root     16 :     7.866778423799549
 Root     17 :     7.934967651309096
 Root     18 :     8.075806799242383
 Root     19 :     8.125761905437903
 Root     20 :     8.314975129973890
 Root     21 :     8.373841829386011
 Root     22 :     8.451546050326709
 Root     23 :     8.673366805153544
 Root     24 :     8.893662441115834
 Iteration     2 Dimension    36 NMult    24 NNew     12
 CISAX will form    12 AO SS matrices at one time.
 NMat=    12 NSing=    12 JSym2X= 0.
 Root      1 not converged, maximum delta is    0.037543904322231
 Root      2 not converged, maximum delta is    0.076323583103377
 Root      3 not converged, maximum delta is    0.077812733037985
 Root      4 not converged, maximum delta is    0.198868474290899
 New state      5 was old state      6
 Root      5 not converged, maximum delta is    0.237096337385759
 New state      6 was old state      5
 Root      6 not converged, maximum delta is    0.092121136953221
 Excitation Energies [eV] at current iteration:
 Root      1 :     2.907611209703616   Change is   -0.457127328087652
 Root      2 :     3.934543523749003   Change is   -0.207476915584901
 Root      3 :     4.115443574029652   Change is   -0.249615890186690
 Root      4 :     4.880886390641048   Change is   -0.332880698118270
 Root      5 :     5.295194875698593   Change is   -0.809817078032809
 Root      6 :     5.780512821070114   Change is   -0.102640492659177
 Iteration     3 Dimension    48 NMult    36 NNew     12
 CISAX will form    12 AO SS matrices at one time.
 NMat=    12 NSing=    12 JSym2X= 0.
 Root      1 not converged, maximum delta is    0.006188878523574
 Root      2 not converged, maximum delta is    0.015624368978214
 Root      3 not converged, maximum delta is    0.011279751175303
 Root      4 not converged, maximum delta is    0.017757188636795
 Root      5 not converged, maximum delta is    0.022820426612271
 Root      6 not converged, maximum delta is    0.007878108284865
 Excitation Energies [eV] at current iteration:
 Root      1 :     2.890157429342470   Change is   -0.017453780361146
 Root      2 :     3.922507937534061   Change is   -0.012035586214942
 Root      3 :     4.101729789845036   Change is   -0.013713784184616
 Root      4 :     4.861206437859124   Change is   -0.019679952781923
 Root      5 :     5.266419751952792   Change is   -0.028775123745800
 Root      6 :     5.775851006130371   Change is   -0.004661814939743
 Iteration     4 Dimension    60 NMult    48 NNew     12
 CISAX will form    12 AO SS matrices at one time.
 NMat=    12 NSing=    12 JSym2X= 0.
 Root      1 not converged, maximum delta is    0.002077645118436
 Root      2 not converged, maximum delta is    0.001730490794790
 Root      3 not converged, maximum delta is    0.002105377733633
 Root      4 not converged, maximum delta is    0.002632248370846
 Root      5 not converged, maximum delta is    0.003350030756076
 Root      6 not converged, maximum delta is    0.002237935084777
 Excitation Energies [eV] at current iteration:
 Root      1 :     2.888921477597154   Change is   -0.001235951745316
 Root      2 :     3.921939631871194   Change is   -0.000568305662867
 Root      3 :     4.100723883497012   Change is   -0.001005906348024
 Root      4 :     4.859381835806600   Change is   -0.001824602052524
 Root      5 :     5.263535459351691   Change is   -0.002884292601101
 Root      6 :     5.775558731098919   Change is   -0.000292275031452
 Iteration     5 Dimension    72 NMult    60 NNew     12
 CISAX will form    12 AO SS matrices at one time.
 NMat=    12 NSing=    12 JSym2X= 0.
 Root      1 has converged.
 Root      2 has converged.
 Root      3 has converged.
 Root      4 has converged.
 Root      5 not converged, maximum delta is    0.001113068829537
 Root      6 has converged.
 Excitation Energies [eV] at current iteration:
 Root      1 :     2.888858842777217   Change is   -0.000062634819937
 Root      2 :     3.921894933072021   Change is   -0.000044698799173
 Root      3 :     4.100680740557003   Change is   -0.000043142940009
 Root      4 :     4.859250065465698   Change is   -0.000131770340902
 Root      5 :     5.263317891730053   Change is   -0.000217567621638
 Root      6 :     5.775534503407541   Change is   -0.000024227691378
 Iteration     6 Dimension    74 NMult    72 NNew      2
 CISAX will form     2 AO SS matrices at one time.
 NMat=     2 NSing=     2 JSym2X= 0.
 Root      1 has converged.
 Root      2 has converged.
 Root      3 has converged.
 Root      4 has converged.
 Root      5 has converged.
 Root      6 has converged.
 Excitation Energies [eV] at current iteration:
 Root      1 :     2.888858777750910   Change is   -0.000000065026307
 Root      2 :     3.921894903357149   Change is   -0.000000029714873
 Root      3 :     4.100680632431007   Change is   -0.000000108125996
 Root      4 :     4.859246897816235   Change is   -0.000003167649462
 Root      5 :     5.263297456161580   Change is   -0.000020435568473
 Root      6 :     5.775534230524266   Change is   -0.000000272883275
 Convergence achieved on expansion vectors.
 ***********************************************************************
 Excited states from <AA,BB:AA,BB> singles matrix:
 ***********************************************************************
 
 1PDM for each excited state written to RWF  633
 Ground to excited state transition densities written to RWF  633
 Ground to excited state transition electric dipole moments (Au):
       state          X           Y           Z        Dip. S.      Osc.
         1        -1.4167     -0.3784     -0.3182      2.2514      0.1593
         2        -0.0295      0.0330      0.0268      0.0027      0.0003
         3         0.0974     -0.0445     -0.0013      0.0115      0.0012
         4        -0.2750      1.1954     -0.0443      1.5065      0.1793
         5        -0.4222      1.4995     -0.1083      2.4383      0.3144
         6         0.0408     -0.1968      0.0733      0.0458      0.0065
 Ground to excited state transition velocity dipole moments (Au):
       state          X           Y           Z        Dip. S.      Osc.
         1         0.1440      0.0416      0.0326      0.0235      0.1478
         2         0.0037     -0.0049     -0.0005      0.0000      0.0002
         3        -0.0124      0.0046     -0.0026      0.0002      0.0008
         4         0.0395     -0.2037      0.0084      0.0431      0.1610
         5         0.0781     -0.2834      0.0195      0.0868      0.2992
         6        -0.0026      0.0399     -0.0347      0.0028      0.0088
 Ground to excited state transition magnetic dipole moments (Au):
       state          X           Y           Z
         1         0.9900      0.1072     -4.6098
         2         0.7329      0.1527      0.1419
         3         0.3779     -0.8422      0.5895
         4         0.3424      0.0292     -0.2494
         5         0.7884      0.0464     -1.0345
         6        -0.6252     -0.0797     -0.0881
 Ground to excited state transition velocity quadrupole moments (Au):
       state          XX          YY          ZZ          XY          XZ          YZ
         1        -0.6731      1.5275      0.0583      2.5318      0.0352      0.6202
         2        -0.0396     -0.1942     -0.0013      0.0732     -0.0176      0.0504
         3         0.0492      0.2322     -0.0021     -0.2160      0.0462     -0.0147
         4         0.7201     -8.6894      0.0517      1.8252      0.2446      0.1128
         5         0.1657    -12.3229      0.0410      2.6432      0.1862      0.2599
         6         0.1020      1.8163     -0.1723     -0.2412      0.1108     -0.5535
 <0|del|b> * <b|rxdel|0> + <0|del|b> * <b|delr+rdel|0>
 Rotatory Strengths (R) in cgs (10**-40 erg-esu-cm/Gauss)
       state          XX          YY          ZZ    R(velocity)    E-M Angle
         1      -215.6713     -3.1594    197.1015     -7.2431       90.26
         2        -2.2789      7.0506      4.5967      3.1228       65.91
         3       -11.8187    -15.5244    -19.9222    -15.7551      133.14
         4       113.2357      0.9326    -92.4846      7.2279       86.44
         5       129.8132     18.4070    -45.1335     34.3623       85.78
         6         6.3538     -3.6884      2.3800      1.6818       87.42
 1/2[<0|r|b>*<b|rxdel|0> + (<0|rxdel|b>*<b|r|0>)*]
 Rotatory Strengths (R) in cgs (10**-40 erg-esu-cm/Gauss)
       state          XX          YY          ZZ     R(length)
         1       991.7498     28.6929  -1037.4417     -5.6663
         2        15.2908     -3.5640     -2.6903      3.0122
         3       -26.0429    -26.4942      0.5331    -17.3347
         4        66.5683    -24.7037     -7.8183     11.3488
         5       235.3727    -49.2535    -79.2577     35.6205
         6        18.0261    -11.0945      4.5705      3.8341
  1/2[<0|del|b>*<b|r|0> + (<0|r|b>*<b|del|0>)*] (Au)
       state          X           Y           Z        Dip. S.   Osc.(frdel)
         1        -0.2040     -0.0158     -0.0104      0.2302      0.1534
         2        -0.0001     -0.0002     -0.0000      0.0003      0.0002
         3        -0.0012     -0.0002      0.0000      0.0014      0.0009
         4        -0.0109     -0.2435     -0.0004      0.2548      0.1698
         5        -0.0330     -0.4250     -0.0021      0.4601      0.3067
         6        -0.0001     -0.0079     -0.0025      0.0105      0.0070

 Excitation energies and oscillator strengths:
 
 Excited state symmetry could not be determined.
 Excited State   1:      Singlet-?Sym    2.8889 eV  429.18 nm  f=0.1593  <S**2>=0.000
      52 -> 53         0.70230
 This state for optimization and/or second-order correction.
 Total Energy, E(TD-HF/TD-DFT) =  -633.214672150    
 Copying the excited state density for this state as the 1-particle RhoCI density.
 
 Excited state symmetry could not be determined.
 Excited State   2:      Singlet-?Sym    3.9219 eV  316.13 nm  f=0.0003  <S**2>=0.000
      50 -> 54        -0.15143
      51 -> 53         0.59203
      51 -> 54        -0.30306
 
 Excited state symmetry could not be determined.
 Excited State   3:      Singlet-?Sym    4.1007 eV  302.35 nm  f=0.0012  <S**2>=0.000
      49 -> 53         0.41583
      49 -> 54         0.21900
      50 -> 53         0.42561
      50 -> 54         0.17965
      51 -> 54        -0.19453
 
 Excited state symmetry could not be determined.
 Excited State   4:      Singlet-?Sym    4.8592 eV  255.15 nm  f=0.1793  <S**2>=0.000
      52 -> 54         0.69907
 
 Excited state symmetry could not be determined.
 Excited State   5:      Singlet-?Sym    5.2633 eV  235.56 nm  f=0.3144  <S**2>=0.000
      49 -> 53         0.48962
      50 -> 53        -0.47808
      51 -> 53         0.10854
 
 Excited state symmetry could not be determined.
 Excited State   6:      Singlet-?Sym    5.7755 eV  214.67 nm  f=0.0065  <S**2>=0.000
      52 -> 55         0.65826
      52 -> 56         0.17068
      52 -> 62        -0.10970
 SavETr:  write IOETrn=   770 NScale= 10 NData=  16 NLR=1 NState=    6 LETran=     118.
 Leave Link  914 at Tue Jan 20 20:44:52 2026, MaxMem=  2147483648 cpu:            3894.4 elap:             122.5
 (Enter /data/home/wyx/g16/l601.exe)
 Copying SCF densities to generalized density rwf, IOpCl= 0 IROHF=0.

 **********************************************************************

            Population analysis using the SCF density.

 **********************************************************************

 Alpha  occ. eigenvalues --  -19.17915 -19.17070 -14.44910 -10.33456 -10.33041
 Alpha  occ. eigenvalues --  -10.33001 -10.32548 -10.25990 -10.25468 -10.25167
 Alpha  occ. eigenvalues --  -10.24867 -10.24529 -10.24136 -10.23884  -1.11264
 Alpha  occ. eigenvalues --   -1.10704  -1.08637  -0.91377  -0.90604  -0.83974
 Alpha  occ. eigenvalues --   -0.82604  -0.81630  -0.78510  -0.73747  -0.72323
 Alpha  occ. eigenvalues --   -0.68784  -0.61571  -0.58256  -0.57094  -0.55120
 Alpha  occ. eigenvalues --   -0.54546  -0.54032  -0.52470  -0.51699  -0.50862
 Alpha  occ. eigenvalues --   -0.49759  -0.49470  -0.49287  -0.48527  -0.48003
 Alpha  occ. eigenvalues --   -0.47257  -0.45238  -0.45206  -0.44043  -0.43336
 Alpha  occ. eigenvalues --   -0.42185  -0.42050  -0.41519  -0.32625  -0.32253
 Alpha  occ. eigenvalues --   -0.31356  -0.25003
 Alpha virt. eigenvalues --   -0.03636   0.02384   0.06460   0.08177   0.08632
 Alpha virt. eigenvalues --    0.09733   0.10730   0.11364   0.12569   0.13375
 Alpha virt. eigenvalues --    0.13883   0.15102   0.15615   0.16341   0.16920
 Alpha virt. eigenvalues --    0.17325   0.17850   0.18193   0.18488   0.19209
 Alpha virt. eigenvalues --    0.19970   0.21854   0.22780   0.23294   0.23854
 Alpha virt. eigenvalues --    0.24278   0.24641   0.25698   0.26382   0.26659
 Alpha virt. eigenvalues --    0.27510   0.28140   0.28541   0.29508   0.30171
 Alpha virt. eigenvalues --    0.31533   0.31918   0.32217   0.33408   0.34085
 Alpha virt. eigenvalues --    0.34780   0.35598   0.36618   0.37357   0.38442
 Alpha virt. eigenvalues --    0.39572   0.40836   0.41334   0.41803   0.42492
 Alpha virt. eigenvalues --    0.44006   0.44820   0.45424   0.46145   0.46452
 Alpha virt. eigenvalues --    0.47243   0.47552   0.47850   0.48454   0.49207
 Alpha virt. eigenvalues --    0.49729   0.50460   0.51094   0.51267   0.51470
 Alpha virt. eigenvalues --    0.52260   0.52537   0.53266   0.53474   0.54199
 Alpha virt. eigenvalues --    0.54240   0.55239   0.55767   0.56562   0.58242
 Alpha virt. eigenvalues --    0.58365   0.59912   0.60951   0.61859   0.63026
 Alpha virt. eigenvalues --    0.64191   0.64877   0.66117   0.66788   0.67278
 Alpha virt. eigenvalues --    0.68410   0.69036   0.70537   0.70808   0.71967
 Alpha virt. eigenvalues --    0.72924   0.74685   0.75170   0.75954   0.77194
 Alpha virt. eigenvalues --    0.78916   0.80717   0.83163   0.86720   0.87320
 Alpha virt. eigenvalues --    0.91532   0.95901   1.01994   1.03997   1.21822
 Alpha virt. eigenvalues --    1.24471   1.27324   1.28078   1.28828   1.30206
 Alpha virt. eigenvalues --    1.31875   1.33291   1.34512   1.35181   1.36463
 Alpha virt. eigenvalues --    1.36897   1.37727   1.38443   1.39052   1.39528
 Alpha virt. eigenvalues --    1.39948   1.40016   1.40740   1.41411   1.42106
 Alpha virt. eigenvalues --    1.43184   1.43441   1.44142   1.45499   1.47158
 Alpha virt. eigenvalues --    1.48127   1.49318   1.49555   1.50119   1.50811
 Alpha virt. eigenvalues --    1.51331   1.52105   1.52972   1.55463   1.58824
 Alpha virt. eigenvalues --    1.59500   1.59788   1.60952   1.61578   1.62136
 Alpha virt. eigenvalues --    1.62651   1.62747   1.63480   1.64534   1.65564
 Alpha virt. eigenvalues --    1.66323   1.66919   1.67557   1.68062   1.68650
 Alpha virt. eigenvalues --    1.69205   1.69910   1.70315   1.71030   1.72421
 Alpha virt. eigenvalues --    1.74140   1.74577   1.75418   1.76439   1.78356
 Alpha virt. eigenvalues --    1.81490   1.83113   1.83937   1.85787   1.86412
 Alpha virt. eigenvalues --    1.86577   1.87705   1.88575   1.89273   1.90180
 Alpha virt. eigenvalues --    1.91359   1.94437   1.95131   1.98760   1.99789
 Alpha virt. eigenvalues --    2.01687   2.03687   2.05842   2.06813   2.09292
 Alpha virt. eigenvalues --    2.09910   2.11344   2.15756   2.17533   2.19604
 Alpha virt. eigenvalues --    2.20627   2.21401   2.21977   2.22963   2.26205
 Alpha virt. eigenvalues --    2.26684   2.27401   2.29164   2.30761   2.32043
 Alpha virt. eigenvalues --    2.33221   2.34373   2.36897   2.37662   2.38931
 Alpha virt. eigenvalues --    2.39287   2.39915   2.41184   2.42579   2.45029
 Alpha virt. eigenvalues --    2.45435   2.47140   2.48571   2.49296   2.51136
 Alpha virt. eigenvalues --    2.52335   2.53812   2.54391   2.56220   2.57365
 Alpha virt. eigenvalues --    2.58735   2.60668   2.61655   2.62233   2.63348
 Alpha virt. eigenvalues --    2.64598   2.65444   2.66467   2.67432   2.68279
 Alpha virt. eigenvalues --    2.71565   2.71660   2.73885   2.74427   2.75288
 Alpha virt. eigenvalues --    2.76405   2.77225   2.77649   2.78084   2.78682
 Alpha virt. eigenvalues --    2.80496   2.81198   2.82980   2.83464   2.84905
 Alpha virt. eigenvalues --    2.85280   2.86448   2.88355   2.88848   2.91842
 Alpha virt. eigenvalues --    2.96902   2.98009   3.01209   3.07058   3.10579
 Alpha virt. eigenvalues --    3.12222   3.13489   3.18112   3.19290   3.21504
 Alpha virt. eigenvalues --    3.21960   3.22897   3.24553   3.25431   3.25925
 Alpha virt. eigenvalues --    3.29195   3.30067   3.31912   3.34436   3.36610
 Alpha virt. eigenvalues --    3.38120   3.38707   3.38945   3.39148   3.41371
 Alpha virt. eigenvalues --    3.41790   3.43688   3.44818   3.47354   3.47907
 Alpha virt. eigenvalues --    3.49637   3.50184   3.55771   3.58149   3.59341
 Alpha virt. eigenvalues --    3.61231   3.90810   4.00799   4.32089   4.35161
 Alpha virt. eigenvalues --   21.68618  21.80502  22.07511  22.09914  22.11136
 Alpha virt. eigenvalues --   22.14460  22.14636  22.17119  22.18602  22.24710
 Alpha virt. eigenvalues --   22.26637  31.91130  43.63948  43.66661
          Condensed to atoms (all electrons):
               1          2          3          4          5          6
     1  O    7.954666   0.000000  -0.000170   0.000018   0.019944   0.006495
     2  O    0.000000   8.000485   0.000284   0.000001  -0.197560   0.001443
     3  N   -0.000170   0.000284   6.341949   0.367081  -0.118012   0.334972
     4  H    0.000018   0.000001   0.367081   0.404019   0.015653  -0.043868
     5  C    0.019944  -0.197560  -0.118012   0.015653   7.222782  -0.079786
     6  C    0.006495   0.001443   0.334972  -0.043868  -0.079786   5.511854
     7  C    0.000003  -0.049596   0.399209  -0.034613   0.485216  -0.135863
     8  C   -0.000837   0.701464   0.003905  -0.000950  -0.408334   0.036516
     9  C   -0.002352   0.028475   0.015422   0.000201  -0.741735  -0.035295
    10  H    0.010041   0.000108   0.003178   0.000041  -0.081457  -0.018982
    11  H    0.008165   0.000044  -0.001099   0.000023  -0.100671   0.027678
    12  C   -0.233565  -0.003345  -0.088035   0.014275   0.191024  -0.004301
    13  C    0.710790  -0.000016   0.001397   0.000569   0.087252   0.097038
    14  C   -0.000007  -0.010230  -0.031860  -0.010555  -0.082823   0.009628
    15  H   -0.000000   0.003961   0.005444   0.002171   0.020948   0.006086
    16  H   -0.000000   0.004471  -0.001978   0.000898  -0.009945  -0.001046
    17  H    0.000000   0.002922  -0.000747   0.000790  -0.004104  -0.001486
    18  C    0.000332  -0.098398  -0.000482   0.000018  -0.242136  -0.000175
    19  H    0.000000   0.007116   0.000009  -0.000001   0.026111   0.000006
    20  H   -0.000012   0.000652   0.000010  -0.000001   0.001376   0.000167
    21  H    0.000192   0.004460   0.000106   0.000001   0.044003  -0.001233
    22  C   -0.104460   0.000000  -0.000154   0.000107   0.003229  -0.029294
    23  H    0.005364  -0.000000   0.000249  -0.000057  -0.000808  -0.021288
    24  H    0.001457   0.000000   0.000022  -0.000009  -0.000011   0.007321
    25  H    0.005767   0.000000   0.000020  -0.000002  -0.000117  -0.000861
    26  C    0.000671   0.000011  -0.025467  -0.006707   0.000613   0.206296
    27  H   -0.000217  -0.000000   0.000785   0.000692   0.000185  -0.051737
    28  H   -0.000058  -0.000000  -0.002225   0.000514   0.000330  -0.029216
    29  H    0.000022   0.000000   0.002088   0.002127  -0.000297  -0.045717
               7          8          9         10         11         12
     1  O    0.000003  -0.000837  -0.002352   0.010041   0.008165  -0.233565
     2  O   -0.049596   0.701464   0.028475   0.000108   0.000044  -0.003345
     3  N    0.399209   0.003905   0.015422   0.003178  -0.001099  -0.088035
     4  H   -0.034613  -0.000950   0.000201   0.000041   0.000023   0.014275
     5  C    0.485216  -0.408334  -0.741735  -0.081457  -0.100671   0.191024
     6  C   -0.135863   0.036516  -0.035295  -0.018982   0.027678  -0.004301
     7  C    5.412753  -0.251606  -0.237401  -0.005478   0.014253   0.033021
     8  C   -0.251606   5.468261   0.241863  -0.000205  -0.009801  -0.056492
     9  C   -0.237401   0.241863   6.442167   0.449210   0.515787  -0.152898
    10  H   -0.005478  -0.000205   0.449210   0.588871  -0.055800  -0.021626
    11  H    0.014253  -0.009801   0.515787  -0.055800   0.550998  -0.106966
    12  C    0.033021  -0.056492  -0.152898  -0.021626  -0.106966   7.329699
    13  C    0.022083  -0.010972  -0.236043  -0.008542   0.001692  -0.520886
    14  C    0.296509  -0.034853   0.002158  -0.000545   0.000335   0.002213
    15  H   -0.083535   0.005262   0.000931   0.000038  -0.000003  -0.001667
    16  H   -0.018923  -0.000598   0.001050  -0.000061   0.000065   0.000098
    17  H   -0.026887  -0.006545  -0.000149   0.000175  -0.000058   0.000334
    18  C   -0.002122   0.331511  -0.004203  -0.015716   0.007656   0.001287
    19  H    0.000249  -0.055656  -0.002632   0.000196   0.000538  -0.000146
    20  H   -0.000393  -0.025097  -0.009934   0.000676  -0.000169  -0.002193
    21  H    0.004329  -0.072278  -0.005278   0.003237  -0.008272   0.006725
    22  C    0.000275  -0.000061   0.011210   0.004079  -0.002054  -0.231919
    23  H    0.000003   0.000013   0.002489  -0.000264   0.000133   0.062665
    24  H   -0.000009   0.000001  -0.001923   0.000178  -0.000134  -0.012405
    25  H    0.000007   0.000002   0.000306  -0.000133   0.000013   0.019565
    26  C    0.002154   0.000908   0.021325  -0.000703   0.000151  -0.086494
    27  H   -0.000836   0.000001   0.000112  -0.000078   0.000008  -0.007052
    28  H   -0.000788  -0.000015  -0.000658  -0.000006   0.000040  -0.016883
    29  H    0.002851  -0.000002  -0.000434   0.000077  -0.000014   0.022345
              13         14         15         16         17         18
     1  O    0.710790  -0.000007  -0.000000  -0.000000   0.000000   0.000332
     2  O   -0.000016  -0.010230   0.003961   0.004471   0.002922  -0.098398
     3  N    0.001397  -0.031860   0.005444  -0.001978  -0.000747  -0.000482
     4  H    0.000569  -0.010555   0.002171   0.000898   0.000790   0.000018
     5  C    0.087252  -0.082823   0.020948  -0.009945  -0.004104  -0.242136
     6  C    0.097038   0.009628   0.006086  -0.001046  -0.001486  -0.000175
     7  C    0.022083   0.296509  -0.083535  -0.018923  -0.026887  -0.002122
     8  C   -0.010972  -0.034853   0.005262  -0.000598  -0.006545   0.331511
     9  C   -0.236043   0.002158   0.000931   0.001050  -0.000149  -0.004203
    10  H   -0.008542  -0.000545   0.000038  -0.000061   0.000175  -0.015716
    11  H    0.001692   0.000335  -0.000003   0.000065  -0.000058   0.007656
    12  C   -0.520886   0.002213  -0.001667   0.000098   0.000334   0.001287
    13  C    5.631596   0.000170  -0.000043  -0.000007  -0.000005   0.001533
    14  C    0.000170   5.027169   0.391644   0.405272   0.414639   0.000487
    15  H   -0.000043   0.391644   0.566814  -0.024001  -0.025953   0.000203
    16  H   -0.000007   0.405272  -0.024001   0.507882  -0.027456   0.000176
    17  H   -0.000005   0.414639  -0.025953  -0.027456   0.511713  -0.000134
    18  C    0.001533   0.000487   0.000203   0.000176  -0.000134   5.293129
    19  H   -0.000010   0.000049  -0.000004  -0.000042   0.000040   0.396659
    20  H   -0.000159  -0.000165  -0.000004  -0.000008   0.000007   0.403230
    21  H    0.001043   0.000136  -0.000014  -0.000004  -0.000028   0.378211
    22  C    0.269166  -0.000003   0.000001  -0.000000   0.000000   0.000028
    23  H   -0.100885   0.000004   0.000000   0.000000  -0.000000   0.000000
    24  H   -0.020729  -0.000001   0.000000   0.000000  -0.000000  -0.000001
    25  H   -0.032932   0.000000   0.000000  -0.000000   0.000000  -0.000000
    26  C   -0.055090   0.000359   0.000357  -0.000044  -0.000012   0.000001
    27  H   -0.001835   0.000033  -0.000006   0.000001  -0.000002   0.000000
    28  H    0.007019  -0.000079  -0.000007  -0.000004   0.000004  -0.000000
    29  H   -0.001363  -0.000075   0.000102  -0.000001  -0.000000  -0.000000
              19         20         21         22         23         24
     1  O    0.000000  -0.000012   0.000192  -0.104460   0.005364   0.001457
     2  O    0.007116   0.000652   0.004460   0.000000  -0.000000   0.000000
     3  N    0.000009   0.000010   0.000106  -0.000154   0.000249   0.000022
     4  H   -0.000001  -0.000001   0.000001   0.000107  -0.000057  -0.000009
     5  C    0.026111   0.001376   0.044003   0.003229  -0.000808  -0.000011
     6  C    0.000006   0.000167  -0.001233  -0.029294  -0.021288   0.007321
     7  C    0.000249  -0.000393   0.004329   0.000275   0.000003  -0.000009
     8  C   -0.055656  -0.025097  -0.072278  -0.000061   0.000013   0.000001
     9  C   -0.002632  -0.009934  -0.005278   0.011210   0.002489  -0.001923
    10  H    0.000196   0.000676   0.003237   0.004079  -0.000264   0.000178
    11  H    0.000538  -0.000169  -0.008272  -0.002054   0.000133  -0.000134
    12  C   -0.000146  -0.002193   0.006725  -0.231919   0.062665  -0.012405
    13  C   -0.000010  -0.000159   0.001043   0.269166  -0.100885  -0.020729
    14  C    0.000049  -0.000165   0.000136  -0.000003   0.000004  -0.000001
    15  H   -0.000004  -0.000004  -0.000014   0.000001   0.000000   0.000000
    16  H   -0.000042  -0.000008  -0.000004  -0.000000   0.000000   0.000000
    17  H    0.000040   0.000007  -0.000028   0.000000  -0.000000  -0.000000
    18  C    0.396659   0.403230   0.378211   0.000028   0.000000  -0.000001
    19  H    0.512328  -0.010478  -0.024845  -0.000000   0.000000   0.000000
    20  H   -0.010478   0.486820  -0.022087  -0.000011   0.000000   0.000000
    21  H   -0.024845  -0.022087   0.539604   0.000039  -0.000001  -0.000000
    22  C   -0.000000  -0.000011   0.000039   5.425957   0.397710   0.400706
    23  H    0.000000   0.000000  -0.000001   0.397710   0.543165  -0.026011
    24  H    0.000000   0.000000  -0.000000   0.400706  -0.026011   0.490591
    25  H   -0.000000   0.000000  -0.000001   0.379774  -0.022498  -0.009161
    26  C    0.000000   0.000002  -0.000017  -0.035214   0.015295  -0.008317
    27  H   -0.000000   0.000000  -0.000000   0.002747  -0.006572   0.000126
    28  H    0.000000  -0.000000   0.000000  -0.010628  -0.001751   0.000667
    29  H    0.000000  -0.000000   0.000000   0.002054   0.000556   0.000130
              25         26         27         28         29
     1  O    0.005767   0.000671  -0.000217  -0.000058   0.000022
     2  O    0.000000   0.000011  -0.000000  -0.000000   0.000000
     3  N    0.000020  -0.025467   0.000785  -0.002225   0.002088
     4  H   -0.000002  -0.006707   0.000692   0.000514   0.002127
     5  C   -0.000117   0.000613   0.000185   0.000330  -0.000297
     6  C   -0.000861   0.206296  -0.051737  -0.029216  -0.045717
     7  C    0.000007   0.002154  -0.000836  -0.000788   0.002851
     8  C    0.000002   0.000908   0.000001  -0.000015  -0.000002
     9  C    0.000306   0.021325   0.000112  -0.000658  -0.000434
    10  H   -0.000133  -0.000703  -0.000078  -0.000006   0.000077
    11  H    0.000013   0.000151   0.000008   0.000040  -0.000014
    12  C    0.019565  -0.086494  -0.007052  -0.016883   0.022345
    13  C   -0.032932  -0.055090  -0.001835   0.007019  -0.001363
    14  C    0.000000   0.000359   0.000033  -0.000079  -0.000075
    15  H    0.000000   0.000357  -0.000006  -0.000007   0.000102
    16  H   -0.000000  -0.000044   0.000001  -0.000004  -0.000001
    17  H    0.000000  -0.000012  -0.000002   0.000004  -0.000000
    18  C   -0.000000   0.000001   0.000000  -0.000000  -0.000000
    19  H   -0.000000   0.000000  -0.000000   0.000000   0.000000
    20  H    0.000000   0.000002   0.000000  -0.000000  -0.000000
    21  H   -0.000001  -0.000017  -0.000000   0.000000   0.000000
    22  C    0.379774  -0.035214   0.002747  -0.010628   0.002054
    23  H   -0.022498   0.015295  -0.006572  -0.001751   0.000556
    24  H   -0.009161  -0.008317   0.000126   0.000667   0.000130
    25  H    0.498407   0.002171   0.000502   0.000135  -0.000033
    26  C    0.002171   5.223912   0.436117   0.422251   0.385587
    27  H    0.000502   0.436117   0.501268  -0.028068  -0.023835
    28  H    0.000135   0.422251  -0.028068   0.477500  -0.015364
    29  H   -0.000033   0.385587  -0.023835  -0.015364   0.510919
 Mulliken charges:
               1
     1  O   -0.382248
     2  O   -0.396753
     3  N   -0.205902
     4  H    0.287560
     5  C   -0.050870
     6  C    0.254648
     7  C    0.175134
     8  C    0.144596
     9  C   -0.301770
    10  H    0.149492
    11  H    0.157459
    12  C   -0.136379
    13  C    0.158169
    14  C   -0.379609
    15  H    0.131276
    16  H    0.164205
    17  H    0.162942
    18  C   -0.451094
    19  H    0.150512
    20  H    0.177770
    21  H    0.151971
    22  C   -0.483286
    23  H    0.152486
    24  H    0.177510
    25  H    0.159069
    26  C   -0.500117
    27  H    0.177661
    28  H    0.197290
    29  H    0.158278
 Sum of Mulliken charges =  -0.00000
 Mulliken charges with hydrogens summed into heavy atoms:
               1
     1  O   -0.382248
     2  O   -0.396753
     3  N    0.081659
     5  C   -0.050870
     6  C    0.254648
     7  C    0.175134
     8  C    0.144596
     9  C    0.005180
    12  C   -0.136379
    13  C    0.158169
    14  C    0.078814
    18  C    0.029159
    22  C    0.005780
    26  C    0.033112
 Electronic spatial extent (au):  <R**2>=          50675.7831
 Charge=              0.0000 electrons
 Dipole moment (field-independent basis, Debye):
    X=              1.3444    Y=              9.2920    Z=             -0.2374  Tot=              9.3917
 Quadrupole moment (field-independent basis, Debye-Ang):
   XX=           -106.8104   YY=            136.3615   ZZ=            -87.7334
   XY=              3.3546   XZ=             -7.2835   YZ=              2.3822
 Traceless Quadrupole moment (field-independent basis, Debye-Ang):
   XX=            -87.4163   YY=            155.7556   ZZ=            -68.3393
   XY=              3.3546   XZ=             -7.2835   YZ=              2.3822
 Octapole moment (field-independent basis, Debye-Ang**2):
  XXX=            535.6113  YYY=           1125.5206  ZZZ=           -103.4626  XYY=              7.7618
  XXY=          -1104.2711  XXZ=            -10.1465  XZZ=            130.2676  YZZ=           -975.2474
  YYZ=             51.3912  XYZ=            -65.0571
 Hexadecapole moment (field-independent basis, Debye-Ang**3):
 XXXX=          -4568.0600 YYYY=          -1355.8930 ZZZZ=           -314.8895 XXXY=           5353.7666
 XXXZ=           -215.5995 YYYX=            619.2508 YYYZ=            493.1591 ZZZX=            -80.1666
 ZZZY=          -1179.4430 XXYY=         -12199.5130 XXZZ=           -688.1403 YYZZ=         -11148.7476
 XXYZ=           -161.0018 YYXZ=           -598.5707 ZZXY=           1393.7218
 N-N= 8.980160899312D+02 E-N=-3.271868841622D+03  KE= 6.305450037649D+02
 Leave Link  601 at Tue Jan 20 20:44:53 2026, MaxMem=  2147483648 cpu:               1.1 elap:               0.1
 (Enter /data/home/wyx/g16/l9999.exe)
 Electronic transition elements 
                 1             2             3             4             5 
      1  -0.633215D+03 -0.633177D+03 -0.633170D+03 -0.633142D+03 -0.633127D+03
      2  -0.141665D+01 -0.295028D-01  0.974437D-01 -0.274955D+00 -0.422179D+00
      3  -0.378427D+00  0.330154D-01 -0.444876D-01  0.119538D+01  0.149945D+01
      4  -0.318244D+00  0.268060D-01 -0.127878D-02 -0.443272D-01 -0.108343D+00
      5   0.144026D+00  0.370948D-02 -0.123748D-01  0.395365D-01  0.780693D-01
      6   0.416400D-01 -0.487033D-02  0.456271D-02 -0.203722D+00 -0.283422D+00
      7   0.326060D-01 -0.463998D-03 -0.263417D-02  0.844637D-02  0.195149D-01
      8   0.989962D+00  0.732901D+00  0.377933D+00  0.342362D+00  0.788384D+00
      9   0.107219D+00  0.152652D+00 -0.842154D+00  0.292238D-01  0.464497D-01
     10  -0.460980D+01  0.141920D+00  0.589530D+00 -0.249415D+00 -0.103447D+01
     11  -0.673056D+00 -0.395665D-01  0.492010D-01  0.720068D+00  0.165653D+00
     12   0.152754D+01 -0.194180D+00  0.232165D+00 -0.868941D+01 -0.123229D+02
     13   0.582696D-01 -0.132506D-02 -0.214472D-02  0.516686D-01  0.410128D-01
     14   0.253184D+01  0.732490D-01 -0.215997D+00  0.182523D+01  0.264322D+01
     15   0.352111D-01 -0.175834D-01  0.461773D-01  0.244610D+00  0.186234D+00
     16   0.620243D+00  0.504477D-01 -0.147253D-01  0.112768D+00  0.259907D+00
                 6 
      1  -0.633109D+03
      2   0.407735D-01
      3  -0.196848D+00
      4   0.733319D-01
      5  -0.262364D-02
      6   0.399183D-01
      7  -0.346683D-01
      8  -0.625177D+00
      9  -0.796995D-01
     10  -0.881362D-01
     11   0.101993D+00
     12   0.181634D+01
     13  -0.172314D+00
     14  -0.241203D+00
     15   0.110780D+00
     16  -0.553539D+00
 1\1\GINC-CN012\SP\RCAM-B3LYP TD-FC\TZVP\C11H15N1O2\WYX\20-Jan-2026\0\\
 #p CAM-B3LYP/TZVP em=gd3bj TD=NStates=6 SCRF=(Solvent=Water) Geom=Chec
 k Guess=Read NoSymm\\Title Card Required\\0,1\O,0,1.2615009389,9.83706
 5498,1.2932516823\O,0,-4.7745357232,9.727353672,-0.4491234194\N,0,-2.1
 201500642,12.9137798229,0.2746956904\H,0,-2.4285517001,13.8757693115,0
 .2031886512\C,0,-2.6998196861,10.6310106954,0.2067580492\C,0,-0.800980
 9025,12.7424314888,0.5652623084\C,0,-3.0770795512,11.982171729,0.07646
 4449\C,0,-3.6153652651,9.5408258738,-0.0499093799\C,0,-1.3180439892,10
 .323565953,0.6196091911\H,0,-1.3373788496,9.8512898282,1.621554937\H,0
 ,-0.9044354886,9.5064552436,0.0154451732\C,0,-0.3369155576,11.42386360
 36,0.6856649505\C,0,1.0296928645,10.9991612128,0.9206762005\C,0,-4.439
 4273977,12.5051329282,-0.2333447788\H,0,-4.4483218668,13.594498771,-0.
 1839832936\H,0,-4.7659083335,12.1993746905,-1.2260411257\H,0,-5.175794
 0645,12.118255847,0.4690298646\C,0,-3.1340528374,8.1191160074,0.136604
 7233\H,0,-4.0041225695,7.4756168188,0.2449632492\H,0,-2.5795467534,7.7
 923658319,-0.7471694862\H,0,-2.4838983152,7.9886379762,0.9995908046\C,
 0,2.2043848351,11.9155725205,0.6790246528\H,0,2.0301642392,12.64098186
 59,-0.110936623\H,0,2.4620676487,12.4591625955,1.5908539868\H,0,3.0582
 282669,11.2954181281,0.412397229\C,0,-0.0305856345,14.0067385111,0.763
 8430092\H,0,0.6551961759,13.9234404613,1.6036750973\H,0,0.5529327316,1
 4.2831694407,-0.1168342513\H,0,-0.708424181,14.8336081232,0.9767884578
 \\Version=ES64L-G16RevA.03\HF=-633.3208358\RMSD=2.038e-09\PG=C01 [X(C1
 1H15N1O2)]\\@


 HE THAT IS UNAWARE OF HIS IGNORANCE WILL BE MISLED BY HIS KNOWLEDGE.

                                        -- WHATLEY
 Job cpu time:       0 days  1 hours  7 minutes 24.4 seconds.
 Elapsed time:       0 days  0 hours  2 minutes  7.8 seconds.
 File lengths (MBytes):  RWF=    823 Int=      0 D2E=      0 Chk=     67 Scr=      1
 Normal termination of Gaussian 16 at Tue Jan 20 20:44:55 2026.
