 Entering Gaussian System, Link 0=g16
 Input=DDL-S2-cLR-gs-2.gjf
 Output=DDL-S2-cLR-gs-2.log
 Initial command:
 /data/home/wyx/g16/l1.exe "/scr/tmp/wyx/13117/Gau-2031536.inp" -scrdir="/scr/tmp/wyx/13117/"
 Entering Link 1 = /data/home/wyx/g16/l1.exe PID=   2031537.
  
 Copyright (c) 1988,1990,1992,1993,1995,1998,2003,2009,2016,
            Gaussian, Inc.  All Rights Reserved.
  
 This is part of the Gaussian(R) 16 program.  It is based on
 the Gaussian(R) 09 system (copyright 2009, Gaussian, Inc.),
 the Gaussian(R) 03 system (copyright 2003, Gaussian, Inc.),
 the Gaussian(R) 98 system (copyright 1998, Gaussian, Inc.),
 the Gaussian(R) 94 system (copyright 1995, Gaussian, Inc.),
 the Gaussian 92(TM) system (copyright 1992, Gaussian, Inc.),
 the Gaussian 90(TM) system (copyright 1990, Gaussian, Inc.),
 the Gaussian 88(TM) system (copyright 1988, Gaussian, Inc.),
 the Gaussian 86(TM) system (copyright 1986, Carnegie Mellon
 University), and the Gaussian 82(TM) system (copyright 1983,
 Carnegie Mellon University). Gaussian is a federally registered
 trademark of Gaussian, Inc.
  
 This software contains proprietary and confidential information,
 including trade secrets, belonging to Gaussian, Inc.
  
 This software is provided under written license and may be
 used, copied, transmitted, or stored only in accord with that
 written license.
  
 The following legend is applicable only to US Government
 contracts under FAR:
  
                    RESTRICTED RIGHTS LEGEND
  
 Use, reproduction and disclosure by the US Government is
 subject to restrictions as set forth in subparagraphs (a)
 and (c) of the Commercial Computer Software - Restricted
 Rights clause in FAR 52.227-19.
  
 Gaussian, Inc.
 340 Quinnipiac St., Bldg. 40, Wallingford CT 06492
  
  
 ---------------------------------------------------------------
 Warning -- This program may not be used in any manner that
 competes with the business of Gaussian, Inc. or will provide
 assistance to any competitor of Gaussian, Inc.  The licensee
 of this program is prohibited from giving any competitor of
 Gaussian, Inc. access to this program.  By using this program,
 the user acknowledges that Gaussian, Inc. is engaged in the
 business of creating and licensing software in the field of
 computational chemistry and represents and warrants to the
 licensee that it is not a competitor of Gaussian, Inc. and that
 it will not use this program in any manner prohibited above.
 ---------------------------------------------------------------
  

 Cite this work as:
 Gaussian 16, Revision A.03,
 M. J. Frisch, G. W. Trucks, H. B. Schlegel, G. E. Scuseria, 
 M. A. Robb, J. R. Cheeseman, G. Scalmani, V. Barone, 
 G. A. Petersson, H. Nakatsuji, X. Li, M. Caricato, A. V. Marenich, 
 J. Bloino, B. G. Janesko, R. Gomperts, B. Mennucci, H. P. Hratchian, 
 J. V. Ortiz, A. F. Izmaylov, J. L. Sonnenberg, D. Williams-Young, 
 F. Ding, F. Lipparini, F. Egidi, J. Goings, B. Peng, A. Petrone, 
 T. Henderson, D. Ranasinghe, V. G. Zakrzewski, J. Gao, N. Rega, 
 G. Zheng, W. Liang, M. Hada, M. Ehara, K. Toyota, R. Fukuda, 
 J. Hasegawa, M. Ishida, T. Nakajima, Y. Honda, O. Kitao, H. Nakai, 
 T. Vreven, K. Throssell, J. A. Montgomery, Jr., J. E. Peralta, 
 F. Ogliaro, M. J. Bearpark, J. J. Heyd, E. N. Brothers, K. N. Kudin, 
 V. N. Staroverov, T. A. Keith, R. Kobayashi, J. Normand, 
 K. Raghavachari, A. P. Rendell, J. C. Burant, S. S. Iyengar, 
 J. Tomasi, M. Cossi, J. M. Millam, M. Klene, C. Adamo, R. Cammi, 
 J. W. Ochterski, R. L. Martin, K. Morokuma, O. Farkas, 
 J. B. Foresman, and D. J. Fox, Gaussian, Inc., Wallingford CT, 2016.
 
 ******************************************
 Gaussian 16:  ES64L-G16RevA.03 25-Dec-2016
                24-Jan-2026 
 ******************************************
 %nprocshared=16
 Will use up to   16 processors via shared memory.
 %mem=16GB
 %oldchk=DDL-S2-cLR-2.chk
 %chk=DDL-S2-cLR-gs-2.chk
 Copying data from "DDL-S2-cLR-2.chk" to current chk file "DDL-S2-cLR-gs-2.chk"
 IOpt=  2 FromEx=T IUOpen= 4 IOptOp= 5 NList=   0 IFRang= 0 IUIn= 4 IUOut= 2.
 ----------------------------------------------------------------------
 #p CAM-B3LYP TZVP em=gd3bj scrf=(Solvent=Water,NonEquilibrium=Read) Ge
 om=Check Guess=Read
 ----------------------------------------------------------------------
 1/29=2,38=1,172=1/1;
 2/12=2,40=1/2;
 3/5=19,7=101,11=2,14=-4,25=1,30=1,70=6002201,72=1,74=-40,116=-2,124=41/1,2,3;
 4/5=1/1;
 5/5=2,38=6,53=1/2;
 6/7=2,8=2,9=2,10=2,28=1/1;
 99/5=1,9=1/99;
 Leave Link    1 at Sat Jan 24 22:50:17 2026, MaxMem=  2147483648 cpu:               0.8 elap:               0.1
 (Enter /data/home/wyx/g16/l101.exe)
 -------------------
 Title Card Required
 -------------------
 Structure from the checkpoint file:  "DDL-S2-cLR-gs-2.chk"
 Charge =  0 Multiplicity = 1
 Z-Matrix found in chk file.
 O,0,2.712851,-1.559613,0.883249
 O,0,-3.315314,-1.665408,-0.874337
 N,0,-0.679219,1.516753,-0.080517
 H,0,-0.987645,2.478065,-0.150077
 C,0,-1.25331,-0.764568,-0.176973
 C,0,0.644287,1.339372,0.192064
 C,0,-1.629445,0.579666,-0.299513
 C,0,-2.167058,-1.852857,-0.452815
 C,0,0.123602,-1.077451,0.259392
 H,0,0.091772,-1.529689,1.268376
 H,0,0.539325,-1.901117,-0.331821
 C,0,1.106781,0.026943,0.306498
 C,0,2.477968,-0.396554,0.522494
 C,0,-2.984978,1.105106,-0.625749
 H,0,-3.00737,2.19107,-0.544849
 H,0,-3.284356,0.829656,-1.634121
 H,0,-3.736338,0.692372,0.042023
 C,0,-1.694251,-3.272072,-0.251194
 H,0,-2.561012,-3.922619,-0.181563
 H,0,-1.099459,-3.596362,-1.106613
 H,0,-1.081859,-3.401998,0.637142
 C,0,3.64983,0.521608,0.275676
 H,0,3.472211,1.243224,-0.516983
 H,0,3.90604,1.069681,1.185031
 H,0,4.505025,-0.097319,0.011168
 C,0,1.415004,2.605383,0.372519
 H,0,2.123567,2.525312,1.191761
 H,0,1.971513,2.882941,-0.523947
 H,0,0.741838,3.430474,0.603681
 Recover connectivity data from disk.
 ITRead=  0  0  0  0  0  0  0  0  0  0  0  0  0  0  0  0  0  0  0  0
 ITRead=  0  0  0  0  0  0  0  0  0
 MicOpt= -1 -1 -1 -1 -1 -1 -1 -1 -1 -1 -1 -1 -1 -1 -1 -1 -1 -1 -1 -1
 MicOpt= -1 -1 -1 -1 -1 -1 -1 -1 -1
 NAtoms=     29 NQM=       29 NQMF=       0 NMMI=      0 NMMIF=      0
                NMic=       0 NMicF=      0.
                    Isotopes and Nuclear Properties:
 (Nuclear quadrupole moments (NQMom) in fm**2, nuclear magnetic moments (NMagM)
  in nuclear magnetons)

  Atom         1           2           3           4           5           6           7           8           9          10
 IAtWgt=          16          16          14           1          12          12          12          12          12           1
 AtmWgt=  15.9949146  15.9949146  14.0030740   1.0078250  12.0000000  12.0000000  12.0000000  12.0000000  12.0000000   1.0078250
 NucSpn=           0           0           2           1           0           0           0           0           0           1
 AtZEff=   5.6000000   5.6000000   4.5500000   1.0000000   3.6000000   3.6000000   3.6000000   3.6000000   3.6000000   1.0000000
 NQMom=    0.0000000   0.0000000   2.0440000   0.0000000   0.0000000   0.0000000   0.0000000   0.0000000   0.0000000   0.0000000
 NMagM=    0.0000000   0.0000000   0.4037610   2.7928460   0.0000000   0.0000000   0.0000000   0.0000000   0.0000000   2.7928460
 AtZNuc=   8.0000000   8.0000000   7.0000000   1.0000000   6.0000000   6.0000000   6.0000000   6.0000000   6.0000000   1.0000000

  Atom        11          12          13          14          15          16          17          18          19          20
 IAtWgt=           1          12          12          12           1           1           1          12           1           1
 AtmWgt=   1.0078250  12.0000000  12.0000000  12.0000000   1.0078250   1.0078250   1.0078250  12.0000000   1.0078250   1.0078250
 NucSpn=           1           0           0           0           1           1           1           0           1           1
 AtZEff=   1.0000000   3.6000000   3.6000000   3.6000000   1.0000000   1.0000000   1.0000000   3.6000000   1.0000000   1.0000000
 NQMom=    0.0000000   0.0000000   0.0000000   0.0000000   0.0000000   0.0000000   0.0000000   0.0000000   0.0000000   0.0000000
 NMagM=    2.7928460   0.0000000   0.0000000   0.0000000   2.7928460   2.7928460   2.7928460   0.0000000   2.7928460   2.7928460
 AtZNuc=   1.0000000   6.0000000   6.0000000   6.0000000   1.0000000   1.0000000   1.0000000   6.0000000   1.0000000   1.0000000

  Atom        21          22          23          24          25          26          27          28          29
 IAtWgt=           1          12           1           1           1          12           1           1           1
 AtmWgt=   1.0078250  12.0000000   1.0078250   1.0078250   1.0078250  12.0000000   1.0078250   1.0078250   1.0078250
 NucSpn=           1           0           1           1           1           0           1           1           1
 AtZEff=   1.0000000   3.6000000   1.0000000   1.0000000   1.0000000   3.6000000   1.0000000   1.0000000   1.0000000
 NQMom=    0.0000000   0.0000000   0.0000000   0.0000000   0.0000000   0.0000000   0.0000000   0.0000000   0.0000000
 NMagM=    2.7928460   0.0000000   2.7928460   2.7928460   2.7928460   0.0000000   2.7928460   2.7928460   2.7928460
 AtZNuc=   1.0000000   6.0000000   1.0000000   1.0000000   1.0000000   6.0000000   1.0000000   1.0000000   1.0000000
 Leave Link  101 at Sat Jan 24 22:50:20 2026, MaxMem=  2147483648 cpu:               0.9 elap:               0.1
 (Enter /data/home/wyx/g16/l202.exe)
                          Input orientation:                          
 ---------------------------------------------------------------------
 Center     Atomic      Atomic             Coordinates (Angstroms)
 Number     Number       Type             X           Y           Z
 ---------------------------------------------------------------------
      1          8           0        2.712851   -1.559613    0.883249
      2          8           0       -3.315314   -1.665408   -0.874337
      3          7           0       -0.679219    1.516753   -0.080517
      4          1           0       -0.987645    2.478065   -0.150077
      5          6           0       -1.253310   -0.764568   -0.176973
      6          6           0        0.644287    1.339372    0.192064
      7          6           0       -1.629445    0.579666   -0.299513
      8          6           0       -2.167058   -1.852857   -0.452815
      9          6           0        0.123602   -1.077451    0.259392
     10          1           0        0.091772   -1.529689    1.268376
     11          1           0        0.539325   -1.901117   -0.331821
     12          6           0        1.106781    0.026943    0.306498
     13          6           0        2.477968   -0.396554    0.522494
     14          6           0       -2.984978    1.105106   -0.625749
     15          1           0       -3.007370    2.191070   -0.544849
     16          1           0       -3.284356    0.829656   -1.634121
     17          1           0       -3.736338    0.692372    0.042023
     18          6           0       -1.694251   -3.272072   -0.251194
     19          1           0       -2.561012   -3.922619   -0.181563
     20          1           0       -1.099459   -3.596362   -1.106613
     21          1           0       -1.081859   -3.401998    0.637142
     22          6           0        3.649830    0.521608    0.275676
     23          1           0        3.472211    1.243224   -0.516983
     24          1           0        3.906040    1.069681    1.185031
     25          1           0        4.505025   -0.097319    0.011168
     26          6           0        1.415004    2.605383    0.372519
     27          1           0        2.123567    2.525312    1.191761
     28          1           0        1.971513    2.882941   -0.523947
     29          1           0        0.741838    3.430474    0.603681
 ---------------------------------------------------------------------
                    Distance matrix (angstroms):
                    1          2          3          4          5
     1  O    0.000000
     2  O    6.280054   0.000000
     3  N    4.679638   4.207766   0.000000
     4  H    5.573534   4.807386   1.011971   0.000000
     5  C    4.181698   2.355778   2.354423   3.253609   0.000000
     6  C    3.627783   5.083734   1.362877   2.019130   2.857206
     7  C    4.983069   2.865822   1.352413   2.009517   1.401235
     8  C    5.067995   1.237461   3.702235   4.498839   1.447549
     9  C    2.706638   3.668403   2.736778   3.747563   1.477903
    10  H    2.649391   4.027142   3.419759   4.386256   2.117472
    11  H    2.513411   3.899760   3.637284   4.641326   2.128206
    12  C    2.330078   4.879892   2.357777   3.256237   2.535796
    13  C    1.240170   6.092885   3.740614   4.552610   3.814069
    14  C    6.468621   2.801190   2.404840   2.469943   2.587616
    15  H    6.987705   3.882759   2.467913   2.077860   3.456567
    16  H    6.929087   2.608366   3.110069   3.192886   2.964790
    17  H    6.882669   2.564391   3.168690   3.283430   2.887224
    18  C    4.862307   2.365908   4.898190   5.794272   2.547060
    19  H    5.876330   2.478691   5.756572   6.591300   3.418098
    20  H    4.758320   2.948313   5.231961   6.150295   2.984453
    21  H    4.225491   3.207590   4.987110   5.933273   2.765541
    22  C    2.361897   7.390453   4.456215   5.051254   5.089197
    23  H    3.223844   7.393128   4.183263   4.642173   5.145618
    24  H    2.903095   7.991850   4.777665   5.264429   5.642554
    25  H    2.471986   8.025006   5.430471   6.068610   5.799917
    26  C    4.392316   6.493860   2.403357   2.462121   4.333406
    27  H    4.138725   7.170239   3.239057   3.388569   4.909179
    28  H    4.718694   6.982893   3.014876   3.010036   4.881004
    29  H    5.372524   6.679299   2.479891   2.113373   4.710458
                    6          7          8          9         10
     6  C    0.000000
     7  C    2.447174   0.000000
     8  C    4.302308   2.495936   0.000000
     9  C    2.473192   2.476204   2.521035   0.000000
    10  H    3.113717   3.141694   2.858190   1.106156   0.000000
    11  H    3.284241   3.295283   2.709516   1.095803   1.702614
    12  C    1.396233   2.856516   3.850744   1.479374   2.092500
    13  C    2.546568   4.301109   4.964707   2.464931   2.744862
    14  C    3.727635   1.489962   3.073832   3.900038   4.471716
    15  H    3.821391   2.134359   4.131336   4.597066   5.170736
    16  H    4.362224   2.140655   3.136832   4.340118   5.038773
    17  H    4.430688   2.137369   3.030791   4.251901   4.593030
    18  C    5.189475   3.852586   1.509427   2.895108   2.921450
    19  H    6.172689   4.599163   2.124310   3.936569   3.855606
    20  H    5.393392   4.286199   2.146399   3.115567   3.366117
    21  H    5.065399   4.126842   2.183003   2.645628   2.298131
    22  C    3.115930   5.310834   6.324948   3.871891   4.225287
    23  H    2.917044   5.149223   6.433599   4.147466   4.722703
    24  H    3.420197   5.752007   6.935870   4.446776   4.616526
    25  H    4.123361   6.179527   6.914759   4.496570   4.807188
    26  C    1.493102   3.718041   5.778257   3.904329   4.433094
    27  H    2.143389   4.482693   6.346846   4.224816   4.536198
    28  H    2.157963   4.280461   6.289723   4.439944   5.120269
    29  H    2.133460   3.816523   6.123026   4.563128   5.046546
                   11         12         13         14         15
    11  H    0.000000
    12  C    2.108761   0.000000
    13  C    2.598442   1.451261   0.000000
    14  C    4.641603   4.332899   5.780763   0.000000
    15  H    5.419448   4.725937   6.158243   1.089203   0.000000
    16  H    4.875822   4.867487   6.273672   1.087343   1.765413
    17  H    5.014702   4.895768   6.327259   1.086651   1.766892
    18  C    2.621999   4.363519   5.125876   4.578860   5.626405
    19  H    3.704205   5.412019   6.190327   5.065083   6.140717
    20  H    2.481889   4.471322   5.068604   5.088243   6.119646
    21  H    2.412420   4.081312   4.660280   5.052795   6.032172
    22  C    3.989222   2.590896   1.509040   6.721139   6.912212
    23  H    4.303834   2.784371   2.181262   6.459582   6.548600
    24  H    4.739330   3.113675   2.151323   7.125048   7.214238
    25  H    4.370138   3.413316   2.111861   7.612597   7.872862
    26  C    4.644508   2.597636   3.188105   4.754704   4.535484
    27  H    4.942105   2.838907   3.018413   5.605137   5.427158
    28  H    4.997528   3.097438   3.479457   5.266675   5.026768
    29  H    5.416829   3.435917   4.203199   4.561578   4.112396
                   16         17         18         19         20
    16  H    0.000000
    17  H    1.741434   0.000000
    18  C    4.611409   4.469106   0.000000
    19  H    5.021680   4.767549   1.085972   0.000000
    20  H    4.964038   5.163888   1.091184   1.760198   0.000000
    21  H    5.283609   4.915719   1.086759   1.768959   1.754642
    22  C    7.198969   7.391835   6.574861   7.650803   6.436159
    23  H    6.860775   7.251145   6.866649   7.949731   6.683519
    24  H    7.727032   7.736587   7.230271   8.283321   7.216551
    25  H    8.015031   8.279168   6.969857   8.037347   6.700968
    26  C    5.409602   5.505013   6.678395   7.663584   6.853612
    27  H    6.332968   6.246603   7.089959   8.087466   7.290083
    28  H    5.750880   6.139909   7.169129   8.183927   7.193868
    29  H    5.289825   5.278894   7.182581   8.098975   7.462701
                   21         22         23         24         25
    21  H    0.000000
    22  C    6.157453   0.000000
    23  H    6.606788   1.086548   0.000000
    24  H    6.721252   1.092224   1.764986   0.000000
    25  H    6.521198   1.088298   1.772767   1.760292   0.000000
    26  C    6.510989   3.057114   2.622745   3.037074   4.121092
    27  H    6.761314   2.680209   2.526341   2.301329   3.734078
    28  H    7.083196   3.005335   2.222794   3.154507   3.948035
    29  H    7.071751   4.126198   3.673539   3.990424   5.192107
                   26         27         28         29
    26  C    0.000000
    27  H    1.086108   0.000000
    28  H    1.091051   1.759168   0.000000
    29  H    1.089662   1.753377   1.755972   0.000000
 Stoichiometry    C11H15NO2
 Framework group  C1[X(C11H15NO2)]
 Deg. of freedom    81
 Full point group                 C1      NOp   1
 RotChk:  IX=0 Diff= 5.24D-16
 Largest Abelian subgroup         C1      NOp   1
 Largest concise Abelian subgroup C1      NOp   1
                         Standard orientation:                         
 ---------------------------------------------------------------------
 Center     Atomic      Atomic             Coordinates (Angstroms)
 Number     Number       Type             X           Y           Z
 ---------------------------------------------------------------------
      1          8           0       -2.288456   -2.286751   -0.279886
      2          8           0        3.632577   -0.262068    0.250295
      3          7           0       -0.020626    1.801236   -0.069362
      4          1           0       -0.047938    2.812764   -0.081641
      5          6           0        1.297814   -0.149229   -0.042688
      6          6           0       -1.232461    1.177627   -0.070696
      7          6           0        1.213219    1.249327   -0.024165
      8          6           0        2.559264   -0.850501    0.068485
      9          6           0        0.052961   -0.931838   -0.191218
     10          1           0        0.053688   -1.433253   -1.177202
     11          1           0        0.053482   -1.792469    0.487087
     12          6           0       -1.236937   -0.218586   -0.064805
     13          6           0       -2.399499   -1.084561    0.003711
     14          6           0        2.346706    2.215531    0.016402
     15          1           0        1.985966    3.237826   -0.089160
     16          1           0        2.897699    2.140601    0.950803
     17          1           0        3.060199    2.016079   -0.778555
     18          6           0        2.565656   -2.358032   -0.006873
     19          1           0        3.573680   -2.692323   -0.233750
     20          1           0        2.279551   -2.784797    0.955779
     21          1           0        1.884020   -2.756788   -0.753472
     22          6           0       -3.747937   -0.583199    0.459290
     23          1           0       -3.685073    0.221783    1.186365
     24          1           0       -4.333343   -0.229131   -0.392115
     25          1           0       -4.281354   -1.423018    0.900386
     26          6           0       -2.404656    2.101127   -0.120306
     27          1           0       -3.179557    1.723701   -0.781144
     28          1           0       -2.851336    2.256741    0.862879
     29          1           0       -2.103062    3.078190   -0.496807
 ---------------------------------------------------------------------
 Rotational constants (GHZ):           1.0722595           0.4896111           0.3426742
 Leave Link  202 at Sat Jan 24 22:50:20 2026, MaxMem=  2147483648 cpu:               0.0 elap:               0.0
 (Enter /data/home/wyx/g16/l301.exe)
 Standard basis: TZVP (5D, 7F)
 Ernie: Thresh=  0.10000D-02 Tol=  0.10000D-05 Strict=F.
 There are   370 symmetry adapted cartesian basis functions of A   symmetry.
 There are   356 symmetry adapted basis functions of A   symmetry.
   356 basis functions,   610 primitive gaussians,   370 cartesian basis functions
    52 alpha electrons       52 beta electrons
       nuclear repulsion energy       898.7963420986 Hartrees.
 IExCor=20419 DFT=T Ex+Corr=CAM-B3LYP ExCW=0 ScaHFX=  1.000000
 ScaDFX=  1.000000  1.000000  1.000000  0.810000 ScalE2=  1.000000  1.000000
 IRadAn=      5 IRanWt=     -1 IRanGd=            0 ICorTp=0 IEmpDi=141
 HFx  wShort=  0.000000 wLong=  0.330000 cFull=  0.190000 cShort=  0.000000 cLong=  0.460000
 DFx  wShort=  0.000000 wLong=  0.330000 cFull=  0.190000 cShort=  0.000000 cLong=  0.460000
 NAtoms=   29 NActive=   29 NUniq=   29 SFac= 1.00D+00 NAtFMM=   60 NAOKFM=F Big=F
 Integral buffers will be    131072 words long.
 Raffenetti 2 integral format.
 Two-electron integral symmetry is turned on.
 R6Disp:  Grimme-D3(BJ) Dispersion energy=       -0.0261188790 Hartrees.
 Nuclear repulsion after empirical dispersion term =      898.7702232196 Hartrees.
 ------------------------------------------------------------------------------
 Polarizable Continuum Model (PCM)
 =================================
 Model                : PCM.
 Atomic radii         : UFF (Universal Force Field).
 Polarization charges : Total charges.
 Charge compensation  : None.
 Solution method      : On-the-fly selection.
 Cavity type          : Scaled VdW (van der Waals Surface) (Alpha=1.100).
 Cavity algorithm     : GePol (No added spheres)
                        Default sphere list used, NSphG=   29.
                        Lebedev-Laikov grids with approx.  5.0 points / Ang**2.
                        Smoothing algorithm: York/Karplus (Gamma=1.0000).
                        Polarization charges: spherical gaussians, with
                                              point-specific exponents (IZeta= 3).
                        Self-potential: point-specific (ISelfS= 7).
                        Self-field    : sphere-specific E.n sum rule (ISelfD= 2).
 Solvent              : Water, Eps=  78.355300 Eps(inf)=   1.777849
 ------------------------------------------------------------------------------
 GePol: Number of generator spheres                  =      29
 GePol: Total number of spheres                      =      29
 GePol: Number of exposed spheres                    =      29 (100.00%)
 GePol: Number of points                             =    2103
 GePol: Average weight of points                     =       0.13
 GePol: Minimum weight of points                     =   0.10D-11
 GePol: Maximum weight of points                     =    0.20577
 GePol: Number of points with low weight             =     131
 GePol: Fraction of low-weight points (<1% of avg)   =       6.23%
 GePol: Cavity surface area                          =    269.626 Ang**2
 GePol: Cavity volume                                =    287.581 Ang**3
 Leave Link  301 at Sat Jan 24 22:50:20 2026, MaxMem=  2147483648 cpu:               0.6 elap:               0.0
 (Enter /data/home/wyx/g16/l302.exe)
 NPDir=0 NMtPBC=     1 NCelOv=     1 NCel=       1 NClECP=     1 NCelD=      1
         NCelK=      1 NCelE2=     1 NClLst=     1 CellRange=     0.0.
 One-electron integrals computed using PRISM.
 One-electron integral symmetry used in STVInt
 NBasis=   356 RedAO= T EigKep=  4.07D-05  NBF=   356
 NBsUse=   356 1.00D-06 EigRej= -1.00D+00 NBFU=   356
 Precomputing XC quadrature grid using
 IXCGrd= 4 IRadAn=           5 IRanWt=          -1 IRanGd=           0 AccXCQ= 0.00D+00.
 Generated NRdTot=       0 NPtTot=           0 NUsed=           0 NTot=          32
 NSgBfM=   366   366   366   366   366 MxSgAt=    29 MxSgA2=    29.
 Leave Link  302 at Sat Jan 24 22:50:20 2026, MaxMem=  2147483648 cpu:               3.2 elap:               0.2
 (Enter /data/home/wyx/g16/l303.exe)
 DipDrv:  MaxL=1.
 Leave Link  303 at Sat Jan 24 22:50:21 2026, MaxMem=  2147483648 cpu:               0.6 elap:               0.0
 (Enter /data/home/wyx/g16/l401.exe)
 Initial guess from the checkpoint file:  "DDL-S2-cLR-gs-2.chk"
 B after Tr=     0.000000   -0.000000   -0.000000
         Rot=    1.000000    0.000000   -0.000000   -0.000000 Ang=   0.00 deg.
 Guess basis will be translated and rotated to current coordinates.
 JPrj=2 DoOrth=T DoCkMO=T.
 Leave Link  401 at Sat Jan 24 22:50:21 2026, MaxMem=  2147483648 cpu:               2.2 elap:               0.2
 (Enter /data/home/wyx/g16/l502.exe)
 Integral symmetry usage will be decided dynamically.
 Closed shell SCF:
 Using DIIS extrapolation, IDIIS=  1040.
 NGot=  2147483648 LenX=  2147200095 LenY=  2147062754
 Requested convergence on RMS density matrix=1.00D-08 within 128 cycles.
 Requested convergence on MAX density matrix=1.00D-06.
 Requested convergence on             energy=1.00D-06.
 No special actions if energy rises.
 Fock matrices will be formed incrementally for  20 cycles.

 Cycle   1  Pass 1  IDiag  1:
 FoFJK:  IHMeth= 1 ICntrl=       0 DoSepK=T KAlg= 0 I1Cent=           0 FoldK=F
 IRaf=         1 NMat=       1 IRICut=       1 DoRegI=T DoRafI=F ISym2E= 0 IDoP0=0 IntGTp=1.
 FoFCou: FMM=F IPFlag=           0 FMFlag=      100000 FMFlg1=           0
         NFxFlg=           0 DoJE=T BraDBF=F KetDBF=F FulRan=T
         wScrn=  0.000000 ICntrl=       500 IOpCl=  0 I1Cent=           0 NGrid=           0
         NMat0=    1 NMatS0=      1 NMatT0=    0 NMatD0=    1 NMtDS0=    0 NMtDT0=    0
 Symmetry not used in FoFCou.
 Inv3:  Mode=1 IEnd=    13267827.
 Iteration    1 A*A^-1 deviation from unit magnitude is 3.11D-15 for    893.
 Iteration    1 A*A^-1 deviation from orthogonality  is 1.86D-15 for   1352      3.
 Iteration    1 A^-1*A deviation from unit magnitude is 2.89D-15 for    893.
 Iteration    1 A^-1*A deviation from orthogonality  is 1.50D-15 for   1477    943.
 NEqPCM:  Using non-equilibrium solvation (IEInf=1, Eps=  78.3553, EpsInf=   1.7778)
 Inv3:  Mode=1 IEnd=    13267827.
 Iteration    1 A*A^-1 deviation from unit magnitude is 3.66D-15 for    132.
 Iteration    1 A*A^-1 deviation from orthogonality  is 1.36D-15 for   1666    671.
 Iteration    1 A^-1*A deviation from unit magnitude is 3.33D-15 for    132.
 Iteration    1 A^-1*A deviation from orthogonality  is 2.46D-15 for   1419     50.
 E= -633.320699892738    
 DIIS: error= 8.87D-04 at cycle   1 NSaved=   1.
 NSaved= 1 IEnMin= 1 EnMin= -633.320699892738     IErMin= 1 ErrMin= 8.87D-04
 ErrMax= 8.87D-04  0.00D+00 EMaxC= 1.00D-01 BMatC= 1.45D-04 BMatP= 1.45D-04
 IDIUse=3 WtCom= 9.91D-01 WtEn= 8.87D-03
 Coeff-Com:  0.100D+01
 Coeff-En:   0.100D+01
 Coeff:      0.100D+01
 Gap=     0.217 Goal=   None    Shift=    0.000
 RMSDP=5.37D-04 MaxDP=3.98D-02              OVMax= 1.52D-02

 Cycle   2  Pass 1  IDiag  1:
 RMSU=  5.32D-04    CP:  1.01D+00
 E= -633.320967872867     Delta-E=       -0.000267980130 Rises=F Damp=F
 DIIS: error= 5.89D-04 at cycle   2 NSaved=   2.
 NSaved= 2 IEnMin= 2 EnMin= -633.320967872867     IErMin= 2 ErrMin= 5.89D-04
 ErrMax= 5.89D-04  0.00D+00 EMaxC= 1.00D-01 BMatC= 1.51D-04 BMatP= 1.45D-04
 IDIUse=3 WtCom= 9.94D-01 WtEn= 5.89D-03
 Coeff-Com:  0.506D+00 0.494D+00
 Coeff-En:   0.000D+00 0.100D+01
 Coeff:      0.503D+00 0.497D+00
 Gap=     0.217 Goal=   None    Shift=    0.000
 RMSDP=1.54D-04 MaxDP=8.93D-03 DE=-2.68D-04 OVMax= 3.14D-03

 Cycle   3  Pass 1  IDiag  1:
 RMSU=  1.39D-04    CP:  1.00D+00  9.63D-01
 E= -633.321087814414     Delta-E=       -0.000119941547 Rises=F Damp=F
 DIIS: error= 2.27D-04 at cycle   3 NSaved=   3.
 NSaved= 3 IEnMin= 3 EnMin= -633.321087814414     IErMin= 3 ErrMin= 2.27D-04
 ErrMax= 2.27D-04  0.00D+00 EMaxC= 1.00D-01 BMatC= 1.77D-05 BMatP= 1.45D-04
 IDIUse=3 WtCom= 9.98D-01 WtEn= 2.27D-03
 Coeff-Com:  0.725D-01 0.231D+00 0.696D+00
 Coeff-En:   0.000D+00 0.000D+00 0.100D+01
 Coeff:      0.724D-01 0.231D+00 0.697D+00
 Gap=     0.217 Goal=   None    Shift=    0.000
 RMSDP=3.93D-05 MaxDP=1.98D-03 DE=-1.20D-04 OVMax= 2.21D-03

 Cycle   4  Pass 1  IDiag  1:
 RMSU=  2.92D-05    CP:  1.00D+00  9.80D-01  1.18D+00
 E= -633.321103979740     Delta-E=       -0.000016165326 Rises=F Damp=F
 DIIS: error= 1.19D-04 at cycle   4 NSaved=   4.
 NSaved= 4 IEnMin= 4 EnMin= -633.321103979740     IErMin= 4 ErrMin= 1.19D-04
 ErrMax= 1.19D-04  0.00D+00 EMaxC= 1.00D-01 BMatC= 1.70D-06 BMatP= 1.77D-05
 IDIUse=3 WtCom= 9.99D-01 WtEn= 1.19D-03
 Coeff-Com: -0.113D-01 0.135D-01 0.219D+00 0.779D+00
 Coeff-En:   0.000D+00 0.000D+00 0.000D+00 0.100D+01
 Coeff:     -0.113D-01 0.135D-01 0.219D+00 0.779D+00
 Gap=     0.217 Goal=   None    Shift=    0.000
 RMSDP=2.82D-05 MaxDP=1.53D-03 DE=-1.62D-05 OVMax= 1.43D-03

 Cycle   5  Pass 1  IDiag  1:
 RMSU=  1.33D-05    CP:  1.00D+00  9.87D-01  1.34D+00  1.04D+00
 E= -633.321106589985     Delta-E=       -0.000002610245 Rises=F Damp=F
 DIIS: error= 4.17D-05 at cycle   5 NSaved=   5.
 NSaved= 5 IEnMin= 5 EnMin= -633.321106589985     IErMin= 5 ErrMin= 4.17D-05
 ErrMax= 4.17D-05  0.00D+00 EMaxC= 1.00D-01 BMatC= 4.87D-07 BMatP= 1.70D-06
 IDIUse=1 WtCom= 1.00D+00 WtEn= 0.00D+00
 Coeff-Com: -0.141D-01-0.365D-01-0.854D-02 0.362D+00 0.697D+00
 Coeff:     -0.141D-01-0.365D-01-0.854D-02 0.362D+00 0.697D+00
 Gap=     0.217 Goal=   None    Shift=    0.000
 RMSDP=1.15D-05 MaxDP=5.41D-04 DE=-2.61D-06 OVMax= 5.83D-04

 Cycle   6  Pass 1  IDiag  1:
 RMSU=  4.55D-06    CP:  1.00D+00  9.86D-01  1.40D+00  1.23D+00  1.07D+00
 E= -633.321107425149     Delta-E=       -0.000000835164 Rises=F Damp=F
 DIIS: error= 3.28D-05 at cycle   6 NSaved=   6.
 NSaved= 6 IEnMin= 6 EnMin= -633.321107425149     IErMin= 6 ErrMin= 3.28D-05
 ErrMax= 3.28D-05  0.00D+00 EMaxC= 1.00D-01 BMatC= 5.63D-08 BMatP= 4.87D-07
 IDIUse=1 WtCom= 1.00D+00 WtEn= 0.00D+00
 Coeff-Com: -0.817D-03-0.179D-01-0.288D-01-0.171D-02 0.174D+00 0.875D+00
 Coeff:     -0.817D-03-0.179D-01-0.288D-01-0.171D-02 0.174D+00 0.875D+00
 Gap=     0.217 Goal=   None    Shift=    0.000
 RMSDP=5.33D-06 MaxDP=2.34D-04 DE=-8.35D-07 OVMax= 4.76D-04

 Cycle   7  Pass 1  IDiag  1:
 RMSU=  2.04D-06    CP:  1.00D+00  9.83D-01  1.43D+00  1.31D+00  1.17D+00
                    CP:  1.31D+00
 E= -633.321107613072     Delta-E=       -0.000000187923 Rises=F Damp=F
 DIIS: error= 1.32D-05 at cycle   7 NSaved=   7.
 NSaved= 7 IEnMin= 7 EnMin= -633.321107613072     IErMin= 7 ErrMin= 1.32D-05
 ErrMax= 1.32D-05  0.00D+00 EMaxC= 1.00D-01 BMatC= 3.09D-08 BMatP= 5.63D-08
 IDIUse=1 WtCom= 1.00D+00 WtEn= 0.00D+00
 Coeff-Com:  0.278D-02-0.340D-02-0.881D-02-0.787D-01-0.116D+00 0.468D+00
 Coeff-Com:  0.736D+00
 Coeff:      0.278D-02-0.340D-02-0.881D-02-0.787D-01-0.116D+00 0.468D+00
 Coeff:      0.736D+00
 Gap=     0.217 Goal=   None    Shift=    0.000
 RMSDP=2.52D-06 MaxDP=9.24D-05 DE=-1.88D-07 OVMax= 2.53D-04

 Cycle   8  Pass 1  IDiag  1:
 RMSU=  7.96D-07    CP:  1.00D+00  9.81D-01  1.44D+00  1.35D+00  1.22D+00
                    CP:  1.57D+00  1.14D+00
 E= -633.321107675159     Delta-E=       -0.000000062088 Rises=F Damp=F
 DIIS: error= 4.28D-06 at cycle   8 NSaved=   8.
 NSaved= 8 IEnMin= 8 EnMin= -633.321107675159     IErMin= 8 ErrMin= 4.28D-06
 ErrMax= 4.28D-06  0.00D+00 EMaxC= 1.00D-01 BMatC= 2.99D-09 BMatP= 3.09D-08
 IDIUse=1 WtCom= 1.00D+00 WtEn= 0.00D+00
 Coeff-Com:  0.117D-02 0.881D-03 0.263D-02-0.251D-01-0.887D-01 0.209D-01
 Coeff-Com:  0.250D+00 0.838D+00
 Coeff:      0.117D-02 0.881D-03 0.263D-02-0.251D-01-0.887D-01 0.209D-01
 Coeff:      0.250D+00 0.838D+00
 Gap=     0.217 Goal=   None    Shift=    0.000
 RMSDP=1.01D-06 MaxDP=3.70D-05 DE=-6.21D-08 OVMax= 9.88D-05

 Cycle   9  Pass 1  IDiag  1:
 RMSU=  2.77D-07    CP:  1.00D+00  9.81D-01  1.44D+00  1.37D+00  1.22D+00
                    CP:  1.70D+00  1.34D+00  1.15D+00
 E= -633.321107682616     Delta-E=       -0.000000007456 Rises=F Damp=F
 DIIS: error= 1.44D-06 at cycle   9 NSaved=   9.
 NSaved= 9 IEnMin= 9 EnMin= -633.321107682616     IErMin= 9 ErrMin= 1.44D-06
 ErrMax= 1.44D-06  0.00D+00 EMaxC= 1.00D-01 BMatC= 3.77D-10 BMatP= 2.99D-09
 IDIUse=1 WtCom= 1.00D+00 WtEn= 0.00D+00
 Coeff-Com:  0.340D-04 0.713D-03 0.228D-02 0.443D-02-0.194D-01-0.600D-01
 Coeff-Com: -0.151D-02 0.335D+00 0.738D+00
 Coeff:      0.340D-04 0.713D-03 0.228D-02 0.443D-02-0.194D-01-0.600D-01
 Coeff:     -0.151D-02 0.335D+00 0.738D+00
 Gap=     0.217 Goal=   None    Shift=    0.000
 RMSDP=3.41D-07 MaxDP=1.95D-05 DE=-7.46D-09 OVMax= 2.89D-05

 Cycle  10  Pass 1  IDiag  1:
 RMSU=  1.25D-07    CP:  1.00D+00  9.81D-01  1.44D+00  1.37D+00  1.22D+00
                    CP:  1.74D+00  1.40D+00  1.26D+00  1.01D+00
 E= -633.321107683342     Delta-E=       -0.000000000726 Rises=F Damp=F
 DIIS: error= 4.31D-07 at cycle  10 NSaved=  10.
 NSaved=10 IEnMin=10 EnMin= -633.321107683342     IErMin=10 ErrMin= 4.31D-07
 ErrMax= 4.31D-07  0.00D+00 EMaxC= 1.00D-01 BMatC= 7.96D-11 BMatP= 3.77D-10
 IDIUse=1 WtCom= 1.00D+00 WtEn= 0.00D+00
 Coeff-Com: -0.106D-03 0.348D-03 0.248D-03 0.457D-02 0.250D-02-0.266D-01
 Coeff-Com: -0.278D-01 0.981D-02 0.300D+00 0.737D+00
 Coeff:     -0.106D-03 0.348D-03 0.248D-03 0.457D-02 0.250D-02-0.266D-01
 Coeff:     -0.278D-01 0.981D-02 0.300D+00 0.737D+00
 Gap=     0.217 Goal=   None    Shift=    0.000
 RMSDP=1.26D-07 MaxDP=8.78D-06 DE=-7.26D-10 OVMax= 8.19D-06

 Cycle  11  Pass 1  IDiag  1:
 RMSU=  3.63D-08    CP:  1.00D+00  9.81D-01  1.44D+00  1.37D+00  1.22D+00
                    CP:  1.75D+00  1.42D+00  1.29D+00  1.15D+00  1.13D+00
 E= -633.321107683431     Delta-E=       -0.000000000090 Rises=F Damp=F
 DIIS: error= 1.69D-07 at cycle  11 NSaved=  11.
 NSaved=11 IEnMin=11 EnMin= -633.321107683431     IErMin=11 ErrMin= 1.69D-07
 ErrMax= 1.69D-07  0.00D+00 EMaxC= 1.00D-01 BMatC= 1.28D-11 BMatP= 7.96D-11
 IDIUse=1 WtCom= 1.00D+00 WtEn= 0.00D+00
 Coeff-Com: -0.616D-04 0.986D-04-0.347D-03 0.157D-02 0.464D-02-0.134D-02
 Coeff-Com: -0.105D-01-0.583D-01 0.191D-01 0.311D+00 0.734D+00
 Coeff:     -0.616D-04 0.986D-04-0.347D-03 0.157D-02 0.464D-02-0.134D-02
 Coeff:     -0.105D-01-0.583D-01 0.191D-01 0.311D+00 0.734D+00
 Gap=     0.217 Goal=   None    Shift=    0.000
 RMSDP=5.87D-08 MaxDP=5.33D-06 DE=-8.96D-11 OVMax= 2.60D-06

 Cycle  12  Pass 1  IDiag  1:
 RMSU=  2.01D-08    CP:  1.00D+00  9.81D-01  1.44D+00  1.37D+00  1.21D+00
                    CP:  1.75D+00  1.43D+00  1.30D+00  1.19D+00  1.27D+00
                    CP:  1.04D+00
 E= -633.321107683447     Delta-E=       -0.000000000016 Rises=F Damp=F
 DIIS: error= 7.67D-08 at cycle  12 NSaved=  12.
 NSaved=12 IEnMin=12 EnMin= -633.321107683447     IErMin=12 ErrMin= 7.67D-08
 ErrMax= 7.67D-08  0.00D+00 EMaxC= 1.00D-01 BMatC= 2.02D-12 BMatP= 1.28D-11
 IDIUse=1 WtCom= 1.00D+00 WtEn= 0.00D+00
 Coeff-Com: -0.145D-04 0.234D-04-0.188D-03 0.106D-03 0.163D-02 0.257D-02
 Coeff-Com: -0.287D-03-0.265D-01-0.242D-01 0.303D-01 0.341D+00 0.675D+00
 Coeff:     -0.145D-04 0.234D-04-0.188D-03 0.106D-03 0.163D-02 0.257D-02
 Coeff:     -0.287D-03-0.265D-01-0.242D-01 0.303D-01 0.341D+00 0.675D+00
 Gap=     0.217 Goal=   None    Shift=    0.000
 RMSDP=1.27D-08 MaxDP=8.32D-07 DE=-1.60D-11 OVMax= 9.26D-07

 Cycle  13  Pass 1  IDiag  1:
 RMSU=  7.69D-09    CP:  1.00D+00  9.81D-01  1.44D+00  1.37D+00  1.21D+00
                    CP:  1.75D+00  1.43D+00  1.30D+00  1.21D+00  1.30D+00
                    CP:  1.16D+00  8.66D-01
 E= -633.321107683452     Delta-E=       -0.000000000005 Rises=F Damp=F
 DIIS: error= 2.58D-08 at cycle  13 NSaved=  13.
 NSaved=13 IEnMin=13 EnMin= -633.321107683452     IErMin=13 ErrMin= 2.58D-08
 ErrMax= 2.58D-08  0.00D+00 EMaxC= 1.00D-01 BMatC= 4.10D-13 BMatP= 2.02D-12
 IDIUse=1 WtCom= 1.00D+00 WtEn= 0.00D+00
 Coeff-Com: -0.267D-06 0.127D-06-0.451D-04-0.203D-03 0.155D-03 0.132D-02
 Coeff-Com:  0.142D-02-0.579D-02-0.180D-01-0.418D-01 0.555D-01 0.370D+00
 Coeff-Com:  0.638D+00
 Coeff:     -0.267D-06 0.127D-06-0.451D-04-0.203D-03 0.155D-03 0.132D-02
 Coeff:      0.142D-02-0.579D-02-0.180D-01-0.418D-01 0.555D-01 0.370D+00
 Coeff:      0.638D+00
 Gap=     0.217 Goal=   None    Shift=    0.000
 RMSDP=9.73D-09 MaxDP=5.90D-07 DE=-5.00D-12 OVMax= 4.52D-07

 Error on total polarization charges =  0.00828
 SCF Done:  E(RCAM-B3LYP) =  -633.321107683     A.U. after   13 cycles
            NFock= 13  Conv=0.97D-08     -V/T= 2.0043
 KE= 6.306136419430D+02 PE=-3.273569664706D+03 EE= 1.110864691860D+03
 Leave Link  502 at Sat Jan 24 22:51:12 2026, MaxMem=  2147483648 cpu:             812.9 elap:              51.5
 (Enter /data/home/wyx/g16/l601.exe)
 Copying SCF densities to generalized density rwf, IOpCl= 0 IROHF=0.

 **********************************************************************

            Population analysis using the SCF density.

 **********************************************************************

 Orbital symmetries:
       Occupied  (A) (A) (A) (A) (A) (A) (A) (A) (A) (A) (A) (A)
                 (A) (A) (A) (A) (A) (A) (A) (A) (A) (A) (A) (A)
                 (A) (A) (A) (A) (A) (A) (A) (A) (A) (A) (A) (A)
                 (A) (A) (A) (A) (A) (A) (A) (A) (A) (A) (A) (A)
                 (A) (A) (A) (A)
       Virtual   (A) (A) (A) (A) (A) (A) (A) (A) (A) (A) (A) (A)
                 (A) (A) (A) (A) (A) (A) (A) (A) (A) (A) (A) (A)
                 (A) (A) (A) (A) (A) (A) (A) (A) (A) (A) (A) (A)
                 (A) (A) (A) (A) (A) (A) (A) (A) (A) (A) (A) (A)
                 (A) (A) (A) (A) (A) (A) (A) (A) (A) (A) (A) (A)
                 (A) (A) (A) (A) (A) (A) (A) (A) (A) (A) (A) (A)
                 (A) (A) (A) (A) (A) (A) (A) (A) (A) (A) (A) (A)
                 (A) (A) (A) (A) (A) (A) (A) (A) (A) (A) (A) (A)
                 (A) (A) (A) (A) (A) (A) (A) (A) (A) (A) (A) (A)
                 (A) (A) (A) (A) (A) (A) (A) (A) (A) (A) (A) (A)
                 (A) (A) (A) (A) (A) (A) (A) (A) (A) (A) (A) (A)
                 (A) (A) (A) (A) (A) (A) (A) (A) (A) (A) (A) (A)
                 (A) (A) (A) (A) (A) (A) (A) (A) (A) (A) (A) (A)
                 (A) (A) (A) (A) (A) (A) (A) (A) (A) (A) (A) (A)
                 (A) (A) (A) (A) (A) (A) (A) (A) (A) (A) (A) (A)
                 (A) (A) (A) (A) (A) (A) (A) (A) (A) (A) (A) (A)
                 (A) (A) (A) (A) (A) (A) (A) (A) (A) (A) (A) (A)
                 (A) (A) (A) (A) (A) (A) (A) (A) (A) (A) (A) (A)
                 (A) (A) (A) (A) (A) (A) (A) (A) (A) (A) (A) (A)
                 (A) (A) (A) (A) (A) (A) (A) (A) (A) (A) (A) (A)
                 (A) (A) (A) (A) (A) (A) (A) (A) (A) (A) (A) (A)
                 (A) (A) (A) (A) (A) (A) (A) (A) (A) (A) (A) (A)
                 (A) (A) (A) (A) (A) (A) (A) (A) (A) (A) (A) (A)
                 (A) (A) (A) (A) (A) (A) (A) (A) (A) (A) (A) (A)
                 (A) (A) (A) (A) (A) (A) (A) (A) (A) (A) (A) (A)
                 (A) (A) (A) (A)
 The electronic state is 1-A.
 Alpha  occ. eigenvalues --  -19.18345 -19.16635 -14.45090 -10.33879 -10.33347
 Alpha  occ. eigenvalues --  -10.32579 -10.32382 -10.26477 -10.25775 -10.25017
 Alpha  occ. eigenvalues --  -10.24914 -10.24797 -10.24639 -10.23234  -1.11815
 Alpha  occ. eigenvalues --   -1.10362  -1.08820  -0.91726  -0.90773  -0.84150
 Alpha  occ. eigenvalues --   -0.82783  -0.81824  -0.78549  -0.74096  -0.72425
 Alpha  occ. eigenvalues --   -0.68937  -0.61749  -0.58470  -0.57297  -0.55439
 Alpha  occ. eigenvalues --   -0.54835  -0.54059  -0.52570  -0.51907  -0.51118
 Alpha  occ. eigenvalues --   -0.50134  -0.49484  -0.49181  -0.48752  -0.48181
 Alpha  occ. eigenvalues --   -0.47312  -0.45478  -0.44764  -0.44255  -0.43587
 Alpha  occ. eigenvalues --   -0.42393  -0.42259  -0.41346  -0.33004  -0.32562
 Alpha  occ. eigenvalues --   -0.30849  -0.25366
 Alpha virt. eigenvalues --   -0.03677   0.02312   0.06072   0.08027   0.08353
 Alpha virt. eigenvalues --    0.09477   0.10823   0.11448   0.12337   0.13235
 Alpha virt. eigenvalues --    0.13704   0.14757   0.15443   0.16377   0.16976
 Alpha virt. eigenvalues --    0.17554   0.17862   0.17908   0.18415   0.19265
 Alpha virt. eigenvalues --    0.19775   0.21929   0.22528   0.23199   0.23566
 Alpha virt. eigenvalues --    0.23782   0.24651   0.25500   0.26253   0.26712
 Alpha virt. eigenvalues --    0.27166   0.27938   0.28216   0.29234   0.30225
 Alpha virt. eigenvalues --    0.31418   0.31664   0.32112   0.33208   0.34041
 Alpha virt. eigenvalues --    0.34611   0.35723   0.36660   0.37386   0.38262
 Alpha virt. eigenvalues --    0.39483   0.40609   0.41191   0.41549   0.42131
 Alpha virt. eigenvalues --    0.43872   0.44648   0.45330   0.46023   0.46474
 Alpha virt. eigenvalues --    0.47050   0.47600   0.47780   0.48340   0.48866
 Alpha virt. eigenvalues --    0.49387   0.50519   0.51286   0.51352   0.51524
 Alpha virt. eigenvalues --    0.52354   0.52696   0.53132   0.53683   0.54141
 Alpha virt. eigenvalues --    0.54194   0.55055   0.55624   0.56448   0.58007
 Alpha virt. eigenvalues --    0.58219   0.59654   0.60873   0.61543   0.63004
 Alpha virt. eigenvalues --    0.63820   0.64889   0.66115   0.66783   0.67263
 Alpha virt. eigenvalues --    0.68544   0.69198   0.70357   0.70861   0.71737
 Alpha virt. eigenvalues --    0.72909   0.74430   0.74862   0.75602   0.77080
 Alpha virt. eigenvalues --    0.78717   0.80268   0.83025   0.86271   0.87392
 Alpha virt. eigenvalues --    0.90986   0.95724   1.01657   1.04348   1.22006
 Alpha virt. eigenvalues --    1.24146   1.26964   1.28384   1.28886   1.30077
 Alpha virt. eigenvalues --    1.31592   1.33088   1.34391   1.35128   1.36123
 Alpha virt. eigenvalues --    1.36700   1.37982   1.38259   1.38609   1.39347
 Alpha virt. eigenvalues --    1.39792   1.40099   1.40578   1.41170   1.41935
 Alpha virt. eigenvalues --    1.43169   1.43274   1.44218   1.45372   1.47126
 Alpha virt. eigenvalues --    1.47911   1.49272   1.49560   1.49915   1.50392
 Alpha virt. eigenvalues --    1.51003   1.51887   1.52623   1.55268   1.58532
 Alpha virt. eigenvalues --    1.59301   1.59744   1.60850   1.61401   1.62297
 Alpha virt. eigenvalues --    1.62326   1.62879   1.63603   1.64340   1.65731
 Alpha virt. eigenvalues --    1.66253   1.66957   1.67357   1.67731   1.68566
 Alpha virt. eigenvalues --    1.68986   1.69688   1.70135   1.70727   1.72075
 Alpha virt. eigenvalues --    1.74068   1.74527   1.75488   1.76547   1.78326
 Alpha virt. eigenvalues --    1.81360   1.82716   1.83635   1.85438   1.86543
 Alpha virt. eigenvalues --    1.86669   1.87991   1.88609   1.89124   1.90078
 Alpha virt. eigenvalues --    1.91041   1.94270   1.94954   1.98996   1.99561
 Alpha virt. eigenvalues --    2.01449   2.03562   2.05481   2.06711   2.09224
 Alpha virt. eigenvalues --    2.10081   2.11375   2.15624   2.17473   2.19477
 Alpha virt. eigenvalues --    2.20519   2.20976   2.21937   2.22632   2.26464
 Alpha virt. eigenvalues --    2.26986   2.27128   2.29024   2.30931   2.31878
 Alpha virt. eigenvalues --    2.33544   2.34154   2.36562   2.37688   2.39089
 Alpha virt. eigenvalues --    2.39181   2.40056   2.41091   2.42518   2.44831
 Alpha virt. eigenvalues --    2.45664   2.47305   2.48576   2.49613   2.50983
 Alpha virt. eigenvalues --    2.52285   2.53977   2.54325   2.56351   2.57231
 Alpha virt. eigenvalues --    2.58431   2.61083   2.61548   2.62248   2.63263
 Alpha virt. eigenvalues --    2.64731   2.65374   2.66352   2.67358   2.68291
 Alpha virt. eigenvalues --    2.71533   2.71651   2.73894   2.74536   2.75387
 Alpha virt. eigenvalues --    2.76597   2.76828   2.77169   2.77962   2.78581
 Alpha virt. eigenvalues --    2.80849   2.81497   2.82864   2.83588   2.84800
 Alpha virt. eigenvalues --    2.85432   2.86190   2.88601   2.88792   2.92016
 Alpha virt. eigenvalues --    2.96713   2.98607   3.00835   3.06931   3.10459
 Alpha virt. eigenvalues --    3.11886   3.14445   3.17618   3.19039   3.21257
 Alpha virt. eigenvalues --    3.22025   3.22807   3.24469   3.25379   3.26440
 Alpha virt. eigenvalues --    3.28434   3.30342   3.32176   3.34637   3.36225
 Alpha virt. eigenvalues --    3.37877   3.38542   3.39447   3.39708   3.41606
 Alpha virt. eigenvalues --    3.41820   3.43790   3.44778   3.47639   3.48287
 Alpha virt. eigenvalues --    3.49406   3.49871   3.55461   3.57946   3.59673
 Alpha virt. eigenvalues --    3.60915   3.90679   4.00541   4.32031   4.36032
 Alpha virt. eigenvalues --   21.67857  21.80396  22.07607  22.09991  22.11645
 Alpha virt. eigenvalues --   22.14534  22.14964  22.17563  22.18827  22.24490
 Alpha virt. eigenvalues --   22.27081  31.91080  43.63621  43.66969
          Condensed to atoms (all electrons):
               1          2          3          4          5          6
     1  O    7.952833   0.000000  -0.000186   0.000019   0.019472   0.007298
     2  O    0.000000   7.962211   0.000473   0.000013  -0.188954   0.001294
     3  N   -0.000186   0.000473   6.369016   0.368686  -0.123425   0.334412
     4  H    0.000019   0.000013   0.368686   0.404852   0.015135  -0.045395
     5  C    0.019472  -0.188954  -0.123425   0.015135   7.167477  -0.086103
     6  C    0.007298   0.001294   0.334412  -0.045395  -0.086103   5.560524
     7  C    0.000004  -0.048825   0.389077  -0.035097   0.468989  -0.129328
     8  C   -0.000794   0.694999   0.004392  -0.000845  -0.322565   0.032812
     9  C   -0.004893   0.027627   0.015563   0.000177  -0.749203  -0.034772
    10  H    0.009001   0.000106   0.003398   0.000037  -0.060717  -0.021295
    11  H    0.008802   0.000004  -0.001207   0.000023  -0.111784   0.029523
    12  C   -0.235623  -0.003205  -0.093059   0.014420   0.211097  -0.059950
    13  C    0.715373  -0.000010   0.001707   0.000562   0.085568   0.114832
    14  C   -0.000007   0.001262  -0.032874  -0.009961  -0.085776   0.011927
    15  H   -0.000000   0.004009   0.004998   0.001918   0.021201   0.006362
    16  H   -0.000000   0.002919  -0.002044   0.000931  -0.010071  -0.001258
    17  H    0.000000   0.001664  -0.000157   0.000816  -0.006921  -0.001402
    18  C    0.000303  -0.099304  -0.000449   0.000020  -0.248745  -0.000294
    19  H   -0.000000   0.007021   0.000006  -0.000001   0.020960   0.000018
    20  H   -0.000009   0.000696   0.000011  -0.000001   0.002379   0.000200
    21  H    0.000152   0.004298   0.000110   0.000001   0.044430  -0.001251
    22  C   -0.105000   0.000000  -0.000240   0.000110   0.003557  -0.029307
    23  H    0.005300  -0.000000   0.000210  -0.000057  -0.000784  -0.023707
    24  H    0.001480   0.000000   0.000013  -0.000010  -0.000006   0.007929
    25  H    0.006000   0.000000   0.000024  -0.000002  -0.000132  -0.000758
    26  C    0.000738   0.000010  -0.025252  -0.006621   0.000287   0.197175
    27  H   -0.000244  -0.000000   0.001151   0.000731   0.000131  -0.049606
    28  H   -0.000056  -0.000000  -0.002532   0.000500   0.000378  -0.030137
    29  H    0.000023   0.000000   0.001737   0.001932  -0.000346  -0.047208
               7          8          9         10         11         12
     1  O    0.000004  -0.000794  -0.004893   0.009001   0.008802  -0.235623
     2  O   -0.048825   0.694999   0.027627   0.000106   0.000004  -0.003205
     3  N    0.389077   0.004392   0.015563   0.003398  -0.001207  -0.093059
     4  H   -0.035097  -0.000845   0.000177   0.000037   0.000023   0.014420
     5  C    0.468989  -0.322565  -0.749203  -0.060717  -0.111784   0.211097
     6  C   -0.129328   0.032812  -0.034772  -0.021295   0.029523  -0.059950
     7  C    5.432588  -0.226487  -0.235121  -0.004964   0.015239   0.030877
     8  C   -0.226487   5.370293   0.221964  -0.003387  -0.007252  -0.055417
     9  C   -0.235121   0.221964   6.508977   0.430016   0.529731  -0.187689
    10  H   -0.004964  -0.003387   0.430016   0.587667  -0.051719  -0.023187
    11  H    0.015239  -0.007252   0.529731  -0.051719   0.540331  -0.109141
    12  C    0.030877  -0.055417  -0.187689  -0.023187  -0.109141   7.422201
    13  C    0.019533  -0.009449  -0.250277  -0.007127   0.000204  -0.511233
    14  C    0.283291  -0.022013   0.007038  -0.000693   0.000398  -0.000740
    15  H   -0.089776   0.005103   0.000900   0.000043  -0.000005  -0.001601
    16  H   -0.014619  -0.001562   0.000919  -0.000064   0.000064   0.000222
    17  H   -0.021293  -0.007115  -0.000517   0.000185  -0.000058   0.000312
    18  C   -0.000619   0.322601   0.000969  -0.012974   0.004768   0.000267
    19  H    0.000051  -0.048516  -0.002299   0.000179   0.000513  -0.000179
    20  H   -0.000451  -0.024177  -0.010220   0.000711  -0.000133  -0.002660
    21  H    0.003880  -0.073283  -0.005936   0.002213  -0.007300   0.007926
    22  C    0.000372  -0.000085   0.011041   0.003637  -0.001598  -0.240870
    23  H   -0.000014   0.000011   0.002836  -0.000243   0.000105   0.063799
    24  H   -0.000010   0.000001  -0.002020   0.000185  -0.000131  -0.012207
    25  H    0.000005   0.000003   0.000225  -0.000117  -0.000013   0.020507
    26  C    0.001994   0.000867   0.022608  -0.000730   0.000134  -0.085866
    27  H   -0.000772   0.000002  -0.000132  -0.000108   0.000016  -0.008570
    28  H   -0.000804  -0.000014  -0.000620  -0.000002   0.000035  -0.016854
    29  H    0.002927  -0.000005  -0.000402   0.000084  -0.000015   0.022964
              13         14         15         16         17         18
     1  O    0.715373  -0.000007  -0.000000  -0.000000   0.000000   0.000303
     2  O   -0.000010   0.001262   0.004009   0.002919   0.001664  -0.099304
     3  N    0.001707  -0.032874   0.004998  -0.002044  -0.000157  -0.000449
     4  H    0.000562  -0.009961   0.001918   0.000931   0.000816   0.000020
     5  C    0.085568  -0.085776   0.021201  -0.010071  -0.006921  -0.248745
     6  C    0.114832   0.011927   0.006362  -0.001258  -0.001402  -0.000294
     7  C    0.019533   0.283291  -0.089776  -0.014619  -0.021293  -0.000619
     8  C   -0.009449  -0.022013   0.005103  -0.001562  -0.007115   0.322601
     9  C   -0.250277   0.007038   0.000900   0.000919  -0.000517   0.000969
    10  H   -0.007127  -0.000693   0.000043  -0.000064   0.000185  -0.012974
    11  H    0.000204   0.000398  -0.000005   0.000064  -0.000058   0.004768
    12  C   -0.511233  -0.000740  -0.001601   0.000222   0.000312   0.000267
    13  C    5.617221   0.000083  -0.000041  -0.000007  -0.000003   0.001557
    14  C    0.000083   5.010310   0.396436   0.404682   0.414792   0.001561
    15  H   -0.000041   0.396436   0.576029  -0.026138  -0.028364   0.000226
    16  H   -0.000007   0.404682  -0.026138   0.501241  -0.023869   0.000059
    17  H   -0.000003   0.414792  -0.028364  -0.023869   0.505633  -0.000204
    18  C    0.001557   0.001561   0.000226   0.000059  -0.000204   5.302073
    19  H   -0.000015  -0.000023  -0.000004  -0.000031   0.000043   0.398082
    20  H   -0.000173  -0.000212  -0.000005  -0.000006   0.000011   0.401108
    21  H    0.000948   0.000076  -0.000015   0.000000  -0.000026   0.378916
    22  C    0.274869  -0.000005   0.000002  -0.000000  -0.000000   0.000041
    23  H   -0.100727   0.000003   0.000000   0.000000  -0.000000   0.000000
    24  H   -0.021118  -0.000001   0.000000   0.000000  -0.000000  -0.000001
    25  H   -0.034424   0.000000   0.000000  -0.000000  -0.000000  -0.000001
    26  C   -0.055882   0.000659   0.000301  -0.000062  -0.000001   0.000003
    27  H   -0.001801   0.000045  -0.000008   0.000001  -0.000002   0.000000
    28  H    0.006944  -0.000094  -0.000005  -0.000005   0.000004  -0.000000
    29  H   -0.001324  -0.000107   0.000102  -0.000001  -0.000000  -0.000000
              19         20         21         22         23         24
     1  O   -0.000000  -0.000009   0.000152  -0.105000   0.005300   0.001480
     2  O    0.007021   0.000696   0.004298   0.000000  -0.000000   0.000000
     3  N    0.000006   0.000011   0.000110  -0.000240   0.000210   0.000013
     4  H   -0.000001  -0.000001   0.000001   0.000110  -0.000057  -0.000010
     5  C    0.020960   0.002379   0.044430   0.003557  -0.000784  -0.000006
     6  C    0.000018   0.000200  -0.001251  -0.029307  -0.023707   0.007929
     7  C    0.000051  -0.000451   0.003880   0.000372  -0.000014  -0.000010
     8  C   -0.048516  -0.024177  -0.073283  -0.000085   0.000011   0.000001
     9  C   -0.002299  -0.010220  -0.005936   0.011041   0.002836  -0.002020
    10  H    0.000179   0.000711   0.002213   0.003637  -0.000243   0.000185
    11  H    0.000513  -0.000133  -0.007300  -0.001598   0.000105  -0.000131
    12  C   -0.000179  -0.002660   0.007926  -0.240870   0.063799  -0.012207
    13  C   -0.000015  -0.000173   0.000948   0.274869  -0.100727  -0.021118
    14  C   -0.000023  -0.000212   0.000076  -0.000005   0.000003  -0.000001
    15  H   -0.000004  -0.000005  -0.000015   0.000002   0.000000   0.000000
    16  H   -0.000031  -0.000006   0.000000  -0.000000   0.000000   0.000000
    17  H    0.000043   0.000011  -0.000026  -0.000000  -0.000000  -0.000000
    18  C    0.398082   0.401108   0.378916   0.000041   0.000000  -0.000001
    19  H    0.494902  -0.008069  -0.025404  -0.000000   0.000000   0.000000
    20  H   -0.008069   0.491733  -0.024405  -0.000012   0.000000   0.000000
    21  H   -0.025404  -0.024405   0.546725   0.000033  -0.000000  -0.000000
    22  C   -0.000000  -0.000012   0.000033   5.428854   0.397933   0.400777
    23  H    0.000000   0.000000  -0.000000   0.397933   0.544264  -0.026240
    24  H    0.000000   0.000000  -0.000000   0.400777  -0.026240   0.490482
    25  H   -0.000000   0.000000  -0.000000   0.380848  -0.022575  -0.008683
    26  C    0.000000   0.000003  -0.000018  -0.034911   0.015945  -0.009202
    27  H   -0.000000   0.000000  -0.000000   0.003226  -0.007087   0.000002
    28  H    0.000000  -0.000000   0.000000  -0.010767  -0.001722   0.000772
    29  H    0.000000  -0.000000   0.000000   0.002064   0.000578   0.000149
              25         26         27         28         29
     1  O    0.006000   0.000738  -0.000244  -0.000056   0.000023
     2  O    0.000000   0.000010  -0.000000  -0.000000   0.000000
     3  N    0.000024  -0.025252   0.001151  -0.002532   0.001737
     4  H   -0.000002  -0.006621   0.000731   0.000500   0.001932
     5  C   -0.000132   0.000287   0.000131   0.000378  -0.000346
     6  C   -0.000758   0.197175  -0.049606  -0.030137  -0.047208
     7  C    0.000005   0.001994  -0.000772  -0.000804   0.002927
     8  C    0.000003   0.000867   0.000002  -0.000014  -0.000005
     9  C    0.000225   0.022608  -0.000132  -0.000620  -0.000402
    10  H   -0.000117  -0.000730  -0.000108  -0.000002   0.000084
    11  H   -0.000013   0.000134   0.000016   0.000035  -0.000015
    12  C    0.020507  -0.085866  -0.008570  -0.016854   0.022964
    13  C   -0.034424  -0.055882  -0.001801   0.006944  -0.001324
    14  C    0.000000   0.000659   0.000045  -0.000094  -0.000107
    15  H    0.000000   0.000301  -0.000008  -0.000005   0.000102
    16  H   -0.000000  -0.000062   0.000001  -0.000005  -0.000001
    17  H   -0.000000  -0.000001  -0.000002   0.000004  -0.000000
    18  C   -0.000001   0.000003   0.000000  -0.000000  -0.000000
    19  H   -0.000000   0.000000  -0.000000   0.000000   0.000000
    20  H    0.000000   0.000003   0.000000  -0.000000  -0.000000
    21  H   -0.000000  -0.000018  -0.000000   0.000000   0.000000
    22  C    0.380848  -0.034911   0.003226  -0.010767   0.002064
    23  H   -0.022575   0.015945  -0.007087  -0.001722   0.000578
    24  H   -0.008683  -0.009202   0.000002   0.000772   0.000149
    25  H    0.495858   0.002090   0.000561   0.000125  -0.000035
    26  C    0.002090   5.234544   0.434984   0.423232   0.387694
    27  H    0.000561   0.434984   0.503726  -0.027768  -0.024678
    28  H    0.000125   0.423232  -0.027768   0.477470  -0.015514
    29  H   -0.000035   0.387694  -0.024678  -0.015514   0.510057
 Mulliken charges:
               1
     1  O   -0.379985
     2  O   -0.368309
     3  N   -0.213561
     4  H    0.287110
     5  C   -0.065528
     6  C    0.257467
     7  C    0.159353
     8  C    0.149917
     9  C   -0.296490
    10  H    0.149868
    11  H    0.160465
    12  C   -0.146542
    13  C    0.154210
    14  C   -0.380058
    15  H    0.128332
    16  H    0.168698
    17  H    0.166472
    18  C   -0.449962
    19  H    0.162766
    20  H    0.173680
    21  H    0.147928
    22  C   -0.484569
    23  H    0.152172
    24  H    0.177838
    25  H    0.160493
    26  C   -0.504725
    27  H    0.176201
    28  H    0.197435
    29  H    0.159323
 Sum of Mulliken charges =  -0.00000
 Mulliken charges with hydrogens summed into heavy atoms:
               1
     1  O   -0.379985
     2  O   -0.368309
     3  N    0.073549
     5  C   -0.065528
     6  C    0.257467
     7  C    0.159353
     8  C    0.149917
     9  C    0.013843
    12  C   -0.146542
    13  C    0.154210
    14  C    0.083444
    18  C    0.034412
    22  C    0.005934
    26  C    0.028235
 Electronic spatial extent (au):  <R**2>=           3206.7915
 Charge=             -0.0000 electrons
 Dipole moment (field-independent basis, Debye):
    X=             -3.5696    Y=              7.9552    Z=              0.2441  Tot=              8.7228
 Quadrupole moment (field-independent basis, Debye-Ang):
   XX=            -97.0574   YY=            -77.9197   ZZ=            -84.9808
   XY=            -13.2884   XZ=             -3.9870   YZ=             -2.4770
 Traceless Quadrupole moment (field-independent basis, Debye-Ang):
   XX=            -10.4048   YY=              8.7329   ZZ=              1.6718
   XY=            -13.2884   XZ=             -3.9870   YZ=             -2.4770
 Octapole moment (field-independent basis, Debye-Ang**2):
  XXX=           -105.1104  YYY=             67.8461  ZZZ=              1.2703  XYY=             37.1430
  XXY=             33.3129  XXZ=             -3.6801  XZZ=             -0.1527  YZZ=             -0.9012
  YYZ=              5.0716  XYZ=              5.5580
 Hexadecapole moment (field-independent basis, Debye-Ang**3):
 XXXX=          -3041.3052 YYYY=          -1292.4250 ZZZZ=           -143.0109 XXXY=            -43.5926
 XXXZ=            -42.9086 YYYX=            -95.1738 YYYZ=            -20.5139 ZZZX=              3.7872
 ZZZY=              1.6875 XXYY=           -688.2319 XXZZ=           -478.1314 YYZZ=           -245.5797
 XXYZ=            -10.8989 YYXZ=            -10.4185 ZZXY=             -0.6879
 N-N= 8.987702232196D+02 E-N=-3.273569662416D+03  KE= 6.306136419430D+02
 No NMR shielding tensors so no spin-rotation constants.
 Leave Link  601 at Sat Jan 24 22:51:13 2026, MaxMem=  2147483648 cpu:               1.8 elap:               0.1
 (Enter /data/home/wyx/g16/l9999.exe)
 1\1\GINC-CN012\SP\RCAM-B3LYP\TZVP\C11H15N1O2\WYX\24-Jan-2026\0\\#p CAM
 -B3LYP TZVP em=gd3bj scrf=(Solvent=Water,NonEquilibrium=Read) Geom=Che
 ck Guess=Read\\Title Card Required\\0,1\O,0,2.712851,-1.559613,0.88324
 9\O,0,-3.315314,-1.665408,-0.874337\N,0,-0.679219,1.516753,-0.080517\H
 ,0,-0.987645,2.478065,-0.150077\C,0,-1.25331,-0.764568,-0.176973\C,0,0
 .644287,1.339372,0.192064\C,0,-1.629445,0.579666,-0.299513\C,0,-2.1670
 58,-1.852857,-0.452815\C,0,0.123602,-1.077451,0.259392\H,0,0.091772,-1
 .529689,1.268376\H,0,0.539325,-1.901117,-0.331821\C,0,1.106781,0.02694
 3,0.306498\C,0,2.477968,-0.396554,0.522494\C,0,-2.984978,1.105106,-0.6
 25749\H,0,-3.00737,2.19107,-0.544849\H,0,-3.284356,0.829656,-1.634121\
 H,0,-3.736338,0.692372,0.042023\C,0,-1.694251,-3.272072,-0.251194\H,0,
 -2.561012,-3.922619,-0.181563\H,0,-1.099459,-3.596362,-1.106613\H,0,-1
 .081859,-3.401998,0.637142\C,0,3.64983,0.521608,0.275676\H,0,3.472211,
 1.243224,-0.516983\H,0,3.90604,1.069681,1.185031\H,0,4.505025,-0.09731
 9,0.011168\C,0,1.415004,2.605383,0.372519\H,0,2.123567,2.525312,1.1917
 61\H,0,1.971513,2.882941,-0.523947\H,0,0.741838,3.430474,0.603681\\Ver
 sion=ES64L-G16RevA.03\State=1-A\HF=-633.3211077\RMSD=9.734e-09\Dipole=
 0.2916199,3.4176434,-0.1091771\Quadrupole=-10.5110637,11.177528,-0.666
 4643,2.8637501,-5.8450155,1.1214662\PG=C01 [X(C11H15N1O2)]\\@


 IT IS WELL TO REMEMBER THAT MAN IS A PART OF NATURE AND THAT HIS WORKS,
 WHATEVER THEY MAY BE, ARE NO MORE "UNNATURAL" THAN 
 THE FLIGHT OF AN EAGLE OR THE PASSAGE OF A TORNADO.

                                    -- CHARLES MCCARRY IN "THE GREAT SOUTHWEST"
 Job cpu time:       0 days  0 hours 13 minutes 43.3 seconds.
 Elapsed time:       0 days  0 hours  0 minutes 52.4 seconds.
 File lengths (MBytes):  RWF=    340 Int=      0 D2E=      0 Chk=     67 Scr=      1
 Normal termination of Gaussian 16 at Sat Jan 24 22:51:13 2026.
