 Entering Gaussian System, Link 0=g16
 Input=DDL-S2-cLR-gs-1.gjf
 Output=DDL-S2-cLR-gs-1.log
 Initial command:
 /data/home/wyx/g16/l1.exe "/scr/tmp/wyx/13117/Gau-2031215.inp" -scrdir="/scr/tmp/wyx/13117/"
 Entering Link 1 = /data/home/wyx/g16/l1.exe PID=   2031216.
  
 Copyright (c) 1988,1990,1992,1993,1995,1998,2003,2009,2016,
            Gaussian, Inc.  All Rights Reserved.
  
 This is part of the Gaussian(R) 16 program.  It is based on
 the Gaussian(R) 09 system (copyright 2009, Gaussian, Inc.),
 the Gaussian(R) 03 system (copyright 2003, Gaussian, Inc.),
 the Gaussian(R) 98 system (copyright 1998, Gaussian, Inc.),
 the Gaussian(R) 94 system (copyright 1995, Gaussian, Inc.),
 the Gaussian 92(TM) system (copyright 1992, Gaussian, Inc.),
 the Gaussian 90(TM) system (copyright 1990, Gaussian, Inc.),
 the Gaussian 88(TM) system (copyright 1988, Gaussian, Inc.),
 the Gaussian 86(TM) system (copyright 1986, Carnegie Mellon
 University), and the Gaussian 82(TM) system (copyright 1983,
 Carnegie Mellon University). Gaussian is a federally registered
 trademark of Gaussian, Inc.
  
 This software contains proprietary and confidential information,
 including trade secrets, belonging to Gaussian, Inc.
  
 This software is provided under written license and may be
 used, copied, transmitted, or stored only in accord with that
 written license.
  
 The following legend is applicable only to US Government
 contracts under FAR:
  
                    RESTRICTED RIGHTS LEGEND
  
 Use, reproduction and disclosure by the US Government is
 subject to restrictions as set forth in subparagraphs (a)
 and (c) of the Commercial Computer Software - Restricted
 Rights clause in FAR 52.227-19.
  
 Gaussian, Inc.
 340 Quinnipiac St., Bldg. 40, Wallingford CT 06492
  
  
 ---------------------------------------------------------------
 Warning -- This program may not be used in any manner that
 competes with the business of Gaussian, Inc. or will provide
 assistance to any competitor of Gaussian, Inc.  The licensee
 of this program is prohibited from giving any competitor of
 Gaussian, Inc. access to this program.  By using this program,
 the user acknowledges that Gaussian, Inc. is engaged in the
 business of creating and licensing software in the field of
 computational chemistry and represents and warrants to the
 licensee that it is not a competitor of Gaussian, Inc. and that
 it will not use this program in any manner prohibited above.
 ---------------------------------------------------------------
  

 Cite this work as:
 Gaussian 16, Revision A.03,
 M. J. Frisch, G. W. Trucks, H. B. Schlegel, G. E. Scuseria, 
 M. A. Robb, J. R. Cheeseman, G. Scalmani, V. Barone, 
 G. A. Petersson, H. Nakatsuji, X. Li, M. Caricato, A. V. Marenich, 
 J. Bloino, B. G. Janesko, R. Gomperts, B. Mennucci, H. P. Hratchian, 
 J. V. Ortiz, A. F. Izmaylov, J. L. Sonnenberg, D. Williams-Young, 
 F. Ding, F. Lipparini, F. Egidi, J. Goings, B. Peng, A. Petrone, 
 T. Henderson, D. Ranasinghe, V. G. Zakrzewski, J. Gao, N. Rega, 
 G. Zheng, W. Liang, M. Hada, M. Ehara, K. Toyota, R. Fukuda, 
 J. Hasegawa, M. Ishida, T. Nakajima, Y. Honda, O. Kitao, H. Nakai, 
 T. Vreven, K. Throssell, J. A. Montgomery, Jr., J. E. Peralta, 
 F. Ogliaro, M. J. Bearpark, J. J. Heyd, E. N. Brothers, K. N. Kudin, 
 V. N. Staroverov, T. A. Keith, R. Kobayashi, J. Normand, 
 K. Raghavachari, A. P. Rendell, J. C. Burant, S. S. Iyengar, 
 J. Tomasi, M. Cossi, J. M. Millam, M. Klene, C. Adamo, R. Cammi, 
 J. W. Ochterski, R. L. Martin, K. Morokuma, O. Farkas, 
 J. B. Foresman, and D. J. Fox, Gaussian, Inc., Wallingford CT, 2016.
 
 ******************************************
 Gaussian 16:  ES64L-G16RevA.03 25-Dec-2016
                24-Jan-2026 
 ******************************************
 %nprocshared=16
 Will use up to   16 processors via shared memory.
 %mem=16GB
 %oldchk=DDL-S2-cLR-1.chk
 %chk=DDL-S2-cLR-gs-1.chk
 Copying data from "DDL-S2-cLR-1.chk" to current chk file "DDL-S2-cLR-gs-1.chk"
 IOpt=  2 FromEx=T IUOpen= 4 IOptOp= 5 NList=   0 IFRang= 0 IUIn= 4 IUOut= 2.
 ----------------------------------------------------------------------
 #p CAM-B3LYP TZVP em=gd3bj scrf=(Solvent=Water,NonEquilibrium=Read) Ge
 om=Check Guess=Read
 ----------------------------------------------------------------------
 1/29=2,38=1,172=1/1;
 2/12=2,40=1/2;
 3/5=19,7=101,11=2,14=-4,25=1,30=1,70=6002201,72=1,74=-40,116=-2,124=41/1,2,3;
 4/5=1/1;
 5/5=2,38=6,53=1/2;
 6/7=2,8=2,9=2,10=2,28=1/1;
 99/5=1,9=1/99;
 Leave Link    1 at Sat Jan 24 22:48:23 2026, MaxMem=  2147483648 cpu:               0.8 elap:               0.1
 (Enter /data/home/wyx/g16/l101.exe)
 -------------------
 Title Card Required
 -------------------
 Structure from the checkpoint file:  "DDL-S2-cLR-gs-1.chk"
 Charge =  0 Multiplicity = 1
 Z-Matrix found in chk file.
 O,0,2.710105,-1.559656,0.894419
 O,0,-3.32203,-1.667401,-0.855584
 N,0,-0.676769,1.516899,-0.096726
 H,0,-0.985185,2.478547,-0.167257
 C,0,-1.253653,-0.765147,-0.178936
 C,0,0.644569,1.342515,0.184843
 C,0,-1.630336,0.582533,-0.305347
 C,0,-2.168296,-1.854384,-0.445198
 C,0,0.125696,-1.07531,0.245672
 H,0,0.100105,-1.537583,1.251184
 H,0,0.540371,-1.895721,-0.352014
 C,0,1.107848,0.027034,0.302259
 C,0,2.476757,-0.39707,0.527756
 C,0,-2.989216,1.106744,-0.623377
 H,0,-3.004913,2.194493,-0.558246
 H,0,-3.30225,0.816092,-1.624024
 H,0,-3.73322,0.706899,0.061788
 C,0,-1.691276,-3.274788,-0.251111
 H,0,-2.559749,-3.921926,-0.162109
 H,0,-1.116536,-3.600406,-1.120849
 H,0,-1.059872,-3.40507,0.624637
 C,0,3.650026,0.520215,0.283519
 H,0,3.474105,1.243728,-0.507795
 H,0,3.906971,1.06605,1.194112
 H,0,4.504546,-0.099325,0.017952
 C,0,1.415097,2.607671,0.374351
 H,0,2.112335,2.525993,1.203936
 H,0,1.985169,2.884692,-0.514271
 H,0,0.739601,3.433684,0.596419
 Recover connectivity data from disk.
 ITRead=  0  0  0  0  0  0  0  0  0  0  0  0  0  0  0  0  0  0  0  0
 ITRead=  0  0  0  0  0  0  0  0  0
 MicOpt= -1 -1 -1 -1 -1 -1 -1 -1 -1 -1 -1 -1 -1 -1 -1 -1 -1 -1 -1 -1
 MicOpt= -1 -1 -1 -1 -1 -1 -1 -1 -1
 NAtoms=     29 NQM=       29 NQMF=       0 NMMI=      0 NMMIF=      0
                NMic=       0 NMicF=      0.
                    Isotopes and Nuclear Properties:
 (Nuclear quadrupole moments (NQMom) in fm**2, nuclear magnetic moments (NMagM)
  in nuclear magnetons)

  Atom         1           2           3           4           5           6           7           8           9          10
 IAtWgt=          16          16          14           1          12          12          12          12          12           1
 AtmWgt=  15.9949146  15.9949146  14.0030740   1.0078250  12.0000000  12.0000000  12.0000000  12.0000000  12.0000000   1.0078250
 NucSpn=           0           0           2           1           0           0           0           0           0           1
 AtZEff=   5.6000000   5.6000000   4.5500000   1.0000000   3.6000000   3.6000000   3.6000000   3.6000000   3.6000000   1.0000000
 NQMom=    0.0000000   0.0000000   2.0440000   0.0000000   0.0000000   0.0000000   0.0000000   0.0000000   0.0000000   0.0000000
 NMagM=    0.0000000   0.0000000   0.4037610   2.7928460   0.0000000   0.0000000   0.0000000   0.0000000   0.0000000   2.7928460
 AtZNuc=   8.0000000   8.0000000   7.0000000   1.0000000   6.0000000   6.0000000   6.0000000   6.0000000   6.0000000   1.0000000

  Atom        11          12          13          14          15          16          17          18          19          20
 IAtWgt=           1          12          12          12           1           1           1          12           1           1
 AtmWgt=   1.0078250  12.0000000  12.0000000  12.0000000   1.0078250   1.0078250   1.0078250  12.0000000   1.0078250   1.0078250
 NucSpn=           1           0           0           0           1           1           1           0           1           1
 AtZEff=   1.0000000   3.6000000   3.6000000   3.6000000   1.0000000   1.0000000   1.0000000   3.6000000   1.0000000   1.0000000
 NQMom=    0.0000000   0.0000000   0.0000000   0.0000000   0.0000000   0.0000000   0.0000000   0.0000000   0.0000000   0.0000000
 NMagM=    2.7928460   0.0000000   0.0000000   0.0000000   2.7928460   2.7928460   2.7928460   0.0000000   2.7928460   2.7928460
 AtZNuc=   1.0000000   6.0000000   6.0000000   6.0000000   1.0000000   1.0000000   1.0000000   6.0000000   1.0000000   1.0000000

  Atom        21          22          23          24          25          26          27          28          29
 IAtWgt=           1          12           1           1           1          12           1           1           1
 AtmWgt=   1.0078250  12.0000000   1.0078250   1.0078250   1.0078250  12.0000000   1.0078250   1.0078250   1.0078250
 NucSpn=           1           0           1           1           1           0           1           1           1
 AtZEff=   1.0000000   3.6000000   1.0000000   1.0000000   1.0000000   3.6000000   1.0000000   1.0000000   1.0000000
 NQMom=    0.0000000   0.0000000   0.0000000   0.0000000   0.0000000   0.0000000   0.0000000   0.0000000   0.0000000
 NMagM=    2.7928460   0.0000000   2.7928460   2.7928460   2.7928460   0.0000000   2.7928460   2.7928460   2.7928460
 AtZNuc=   1.0000000   6.0000000   1.0000000   1.0000000   1.0000000   6.0000000   1.0000000   1.0000000   1.0000000
 Leave Link  101 at Sat Jan 24 22:48:26 2026, MaxMem=  2147483648 cpu:               0.9 elap:               0.1
 (Enter /data/home/wyx/g16/l202.exe)
                          Input orientation:                          
 ---------------------------------------------------------------------
 Center     Atomic      Atomic             Coordinates (Angstroms)
 Number     Number       Type             X           Y           Z
 ---------------------------------------------------------------------
      1          8           0        2.710105   -1.559656    0.894419
      2          8           0       -3.322030   -1.667401   -0.855584
      3          7           0       -0.676769    1.516899   -0.096726
      4          1           0       -0.985185    2.478547   -0.167257
      5          6           0       -1.253653   -0.765147   -0.178936
      6          6           0        0.644569    1.342515    0.184843
      7          6           0       -1.630336    0.582533   -0.305347
      8          6           0       -2.168296   -1.854384   -0.445198
      9          6           0        0.125696   -1.075310    0.245672
     10          1           0        0.100105   -1.537583    1.251184
     11          1           0        0.540371   -1.895721   -0.352014
     12          6           0        1.107848    0.027034    0.302259
     13          6           0        2.476757   -0.397070    0.527756
     14          6           0       -2.989216    1.106744   -0.623377
     15          1           0       -3.004913    2.194493   -0.558246
     16          1           0       -3.302250    0.816092   -1.624024
     17          1           0       -3.733220    0.706899    0.061788
     18          6           0       -1.691276   -3.274788   -0.251111
     19          1           0       -2.559749   -3.921926   -0.162109
     20          1           0       -1.116536   -3.600406   -1.120849
     21          1           0       -1.059872   -3.405070    0.624637
     22          6           0        3.650026    0.520215    0.283519
     23          1           0        3.474105    1.243728   -0.507795
     24          1           0        3.906971    1.066050    1.194112
     25          1           0        4.504546   -0.099325    0.017952
     26          6           0        1.415097    2.607671    0.374351
     27          1           0        2.112335    2.525993    1.203936
     28          1           0        1.985169    2.884692   -0.514271
     29          1           0        0.739601    3.433684    0.596419
 ---------------------------------------------------------------------
                    Distance matrix (angstroms):
                    1          2          3          4          5
     1  O    0.000000
     2  O    6.281781   0.000000
     3  N    4.681717   4.208686   0.000000
     4  H    5.575788   4.808692   1.012355   0.000000
     5  C    4.182668   2.355865   2.355268   3.254806   0.000000
     6  C    3.632153   5.086845   1.362213   2.017583   2.859689
     7  C    4.986767   2.868239   1.351241   2.007525   1.405031
     8  C    5.067567   1.238742   3.702922   4.500144   1.447033
     9  C    2.708253   3.667445   2.735093   3.746260   1.476176
    10  H    2.634363   4.020738   3.427864   4.395353   2.115316
    11  H    2.524734   3.901776   3.632159   4.636343   2.127599
    12  C    2.331409   4.882164   2.358759   3.257476   2.536885
    13  C    1.241169   6.095351   3.741388   4.553818   3.814558
    14  C    6.472685   2.803670   2.406865   2.471038   2.591078
    15  H    6.990372   3.886283   2.468276   2.076743   3.459806
    16  H    6.937950   2.599736   3.117197   3.202299   2.964008
    17  H    6.880914   2.578362   3.165931   3.277636   2.893634
    18  C    4.860666   2.368214   4.900339   5.797108   2.548533
    19  H    5.870940   2.478883   5.755928   6.591307   3.416347
    20  H    4.782170   2.944669   5.237273   6.154694   2.990768
    21  H    4.206074   3.213706   4.989280   5.937139   2.766311
    22  C    2.362734   7.395457   4.456357   5.052073   5.090392
    23  H    3.226277   7.401559   4.180114   4.639613   5.147370
    24  H    2.901144   7.995715   4.783325   5.270831   5.645404
    25  H    2.474021   8.029771   5.428753   6.067691   5.799909
    26  C    4.394784   6.498412   2.405743   2.464014   4.336387
    27  H    4.140732   7.166484   3.238687   3.387780   4.906507
    28  H    4.718280   7.000315   3.021774   3.018009   4.891190
    29  H    5.376350   6.680286   2.482059   2.114326   4.712156
                    6          7          8          9         10
     6  C    0.000000
     7  C    2.448071   0.000000
     8  C    4.304570   2.499505   0.000000
     9  C    2.473622   2.477037   2.519257   0.000000
    10  H    3.119053   3.148350   2.850214   1.106980   0.000000
    11  H    3.284090   3.294828   2.710585   1.096475   1.700688
    12  C    1.399609   2.859268   3.851175   1.477493   2.089026
    13  C    2.549639   4.303707   4.964567   2.463142   2.733604
    14  C    3.730040   1.490804   3.077976   3.901190   4.477762
    15  H    3.820572   2.133503   4.135954   4.597674   5.181078
    16  H    4.373386   2.142138   3.131601   4.338661   5.038117
    17  H    4.425402   2.138312   3.044042   4.254564   4.598559
    18  C    5.192852   3.858184   1.510882   2.895839   2.912699
    19  H    6.172712   4.601573   2.123230   3.934606   3.841525
    20  H    5.407290   4.292553   2.147393   3.128359   3.370756
    21  H    5.063408   4.134160   2.185813   2.641395   2.285961
    22  C    3.117481   5.313461   6.326343   3.868854   4.215785
    23  H    2.914752   5.151066   6.437306   4.142160   4.713128
    24  H    3.426124   5.757077   6.937229   4.447809   4.612417
    25  H    4.123855   6.181119   6.915313   4.492074   4.794637
    26  C    1.493401   3.719924   5.781202   3.904288   4.436347
    27  H    2.143247   4.479125   6.342803   4.223078   4.534749
    28  H    2.159694   4.291324   6.301975   4.440357   5.121212
    29  H    2.133404   3.815605   6.124091   4.564091   5.054816
                   11         12         13         14         15
    11  H    0.000000
    12  C    2.108812   0.000000
    13  C    2.601834   1.450733   0.000000
    14  C    4.641812   4.336878   5.784758   0.000000
    15  H    5.416772   4.727912   6.159895   1.089810   0.000000
    16  H    4.872133   4.876694   6.284810   1.088009   1.767564
    17  H    5.020801   4.894485   6.324531   1.087598   1.768561
    18  C    2.625311   4.363868   5.124490   4.584872   5.633206
    19  H    3.708411   5.409361   6.186026   5.068011   6.145378
    20  H    2.498479   4.486807   5.088321   5.090351   6.120731
    21  H    2.406815   4.072134   4.643834   5.063237   6.044626
    22  C    3.988810   2.589642   1.509180   6.726516   6.913754
    23  H    4.299675   2.781313   2.181579   6.465806   6.548601
    24  H    4.743057   3.116095   2.151804   7.131782   7.219299
    25  H    4.367905   3.410917   2.111985   7.617242   7.873092
    26  C    4.644706   2.599863   3.190474   4.758804   4.536181
    27  H    4.944048   2.840213   3.022304   5.601711   5.422306
    28  H    4.996611   3.098810   3.478138   5.283702   5.037780
    29  H    5.416805   3.439099   4.206792   4.561428   4.109773
                   16         17         18         19         20
    16  H    0.000000
    17  H    1.743451   0.000000
    18  C    4.606021   4.485674   0.000000
    19  H    5.013713   4.780500   1.086717   0.000000
    20  H    4.953381   5.176731   1.092153   1.762221   0.000000
    21  H    5.282324   4.936788   1.087464   1.770802   1.757296
    22  C    7.215290   7.388933   6.573993   7.648039   6.455376
    23  H    6.880976   7.249700   6.867608   7.950527   6.701899
    24  H    7.744497   7.731990   7.229932   8.278750   7.236745
    25  H    8.029953   8.277240   6.967365   8.034237   6.719449
    26  C    5.427395   5.496890   6.681623   7.663082   6.869134
    27  H    6.343410   6.227690   7.087572   8.078992   7.304998
    28  H    5.785107   6.146104   7.178070   8.192090   7.214223
    29  H    5.302708   5.265673   7.185476   8.097288   7.474803
                   21         22         23         24         25
    21  H    0.000000
    22  C    6.140632   0.000000
    23  H    6.591712   1.086553   0.000000
    24  H    6.707067   1.092308   1.765058   0.000000
    25  H    6.500674   1.088375   1.772572   1.760269   0.000000
    26  C    6.507009   3.059515   2.622601   3.042703   4.123050
    27  H    6.750999   2.689760   2.535477   2.313493   3.744533
    28  H    7.080289   2.999828   2.215792   3.149501   3.941431
    29  H    7.071595   4.129986   3.673242   3.999395   5.195343
                   26         27         28         29
    26  C    0.000000
    27  H    1.086749   0.000000
    28  H    1.091500   1.759850   0.000000
    29  H    1.089911   1.754246   1.756834   0.000000
 Stoichiometry    C11H15NO2
 Framework group  C1[X(C11H15NO2)]
 Deg. of freedom    81
 Full point group                 C1      NOp   1
 RotChk:  IX=0 Diff= 5.97D-16
 Largest Abelian subgroup         C1      NOp   1
 Largest concise Abelian subgroup C1      NOp   1
                         Standard orientation:                         
 ---------------------------------------------------------------------
 Center     Atomic      Atomic             Coordinates (Angstroms)
 Number     Number       Type             X           Y           Z
 ---------------------------------------------------------------------
      1          8           0       -2.288401   -2.287326   -0.287605
      2          8           0        3.635649   -0.263588    0.232873
      3          7           0       -0.020171    1.801627   -0.055064
      4          1           0       -0.047327    2.813535   -0.068007
      5          6           0        1.298335   -0.149933   -0.039420
      6          6           0       -1.232691    1.180885   -0.065055
      7          6           0        1.213911    1.252418   -0.019529
      8          6           0        2.559110   -0.852586    0.063680
      9          6           0        0.052387   -0.929866   -0.175118
     10          1           0        0.051592   -1.444026   -1.155447
     11          1           0        0.053660   -1.785452    0.510615
     12          6           0       -1.237537   -0.218705   -0.059652
     13          6           0       -2.399602   -1.085108    0.000157
     14          6           0        2.349516    2.217797    0.011150
     15          1           0        1.984951    3.240822   -0.079394
     16          1           0        2.916601    2.133783    0.935877
     17          1           0        3.048943    2.025222   -0.799151
     18          6           0        2.563235   -2.362076   -0.001043
     19          1           0        3.568241   -2.694745   -0.246497
     20          1           0        2.298360   -2.780730    0.972285
     21          1           0        1.866585   -2.767405   -0.731088
     22          6           0       -3.749587   -0.584402    0.452327
     23          1           0       -3.689300    0.222838    1.177120
     24          1           0       -4.334861   -0.234080   -0.400823
     25          1           0       -4.282191   -1.423731    0.895519
     26          6           0       -2.405941    2.102889   -0.125353
     27          1           0       -3.171544    1.725784   -0.798159
     28          1           0       -2.866645    2.254483    0.852473
     29          1           0       -2.100669    3.081745   -0.494887
 ---------------------------------------------------------------------
 Rotational constants (GHZ):           1.0710050           0.4894008           0.3423074
 Leave Link  202 at Sat Jan 24 22:48:26 2026, MaxMem=  2147483648 cpu:               0.0 elap:               0.0
 (Enter /data/home/wyx/g16/l301.exe)
 Standard basis: TZVP (5D, 7F)
 Ernie: Thresh=  0.10000D-02 Tol=  0.10000D-05 Strict=F.
 There are   370 symmetry adapted cartesian basis functions of A   symmetry.
 There are   356 symmetry adapted basis functions of A   symmetry.
   356 basis functions,   610 primitive gaussians,   370 cartesian basis functions
    52 alpha electrons       52 beta electrons
       nuclear repulsion energy       898.4344008727 Hartrees.
 IExCor=20419 DFT=T Ex+Corr=CAM-B3LYP ExCW=0 ScaHFX=  1.000000
 ScaDFX=  1.000000  1.000000  1.000000  0.810000 ScalE2=  1.000000  1.000000
 IRadAn=      5 IRanWt=     -1 IRanGd=            0 ICorTp=0 IEmpDi=141
 HFx  wShort=  0.000000 wLong=  0.330000 cFull=  0.190000 cShort=  0.000000 cLong=  0.460000
 DFx  wShort=  0.000000 wLong=  0.330000 cFull=  0.190000 cShort=  0.000000 cLong=  0.460000
 NAtoms=   29 NActive=   29 NUniq=   29 SFac= 1.00D+00 NAtFMM=   60 NAOKFM=F Big=F
 Integral buffers will be    131072 words long.
 Raffenetti 2 integral format.
 Two-electron integral symmetry is turned on.
 R6Disp:  Grimme-D3(BJ) Dispersion energy=       -0.0261075165 Hartrees.
 Nuclear repulsion after empirical dispersion term =      898.4082933562 Hartrees.
 ------------------------------------------------------------------------------
 Polarizable Continuum Model (PCM)
 =================================
 Model                : PCM.
 Atomic radii         : UFF (Universal Force Field).
 Polarization charges : Total charges.
 Charge compensation  : None.
 Solution method      : On-the-fly selection.
 Cavity type          : Scaled VdW (van der Waals Surface) (Alpha=1.100).
 Cavity algorithm     : GePol (No added spheres)
                        Default sphere list used, NSphG=   29.
                        Lebedev-Laikov grids with approx.  5.0 points / Ang**2.
                        Smoothing algorithm: York/Karplus (Gamma=1.0000).
                        Polarization charges: spherical gaussians, with
                                              point-specific exponents (IZeta= 3).
                        Self-potential: point-specific (ISelfS= 7).
                        Self-field    : sphere-specific E.n sum rule (ISelfD= 2).
 Solvent              : Water, Eps=  78.355300 Eps(inf)=   1.777849
 ------------------------------------------------------------------------------
 GePol: Number of generator spheres                  =      29
 GePol: Total number of spheres                      =      29
 GePol: Number of exposed spheres                    =      29 (100.00%)
 GePol: Number of points                             =    2099
 GePol: Average weight of points                     =       0.13
 GePol: Minimum weight of points                     =   0.28D-10
 GePol: Maximum weight of points                     =    0.20577
 GePol: Number of points with low weight             =     132
 GePol: Fraction of low-weight points (<1% of avg)   =       6.29%
 GePol: Cavity surface area                          =    269.832 Ang**2
 GePol: Cavity volume                                =    287.783 Ang**3
 Leave Link  301 at Sat Jan 24 22:48:26 2026, MaxMem=  2147483648 cpu:               0.6 elap:               0.0
 (Enter /data/home/wyx/g16/l302.exe)
 NPDir=0 NMtPBC=     1 NCelOv=     1 NCel=       1 NClECP=     1 NCelD=      1
         NCelK=      1 NCelE2=     1 NClLst=     1 CellRange=     0.0.
 One-electron integrals computed using PRISM.
 One-electron integral symmetry used in STVInt
 NBasis=   356 RedAO= T EigKep=  3.98D-05  NBF=   356
 NBsUse=   356 1.00D-06 EigRej= -1.00D+00 NBFU=   356
 Precomputing XC quadrature grid using
 IXCGrd= 4 IRadAn=           5 IRanWt=          -1 IRanGd=           0 AccXCQ= 0.00D+00.
 Generated NRdTot=       0 NPtTot=           0 NUsed=           0 NTot=          32
 NSgBfM=   366   366   366   366   366 MxSgAt=    29 MxSgA2=    29.
 Leave Link  302 at Sat Jan 24 22:48:26 2026, MaxMem=  2147483648 cpu:               3.1 elap:               0.2
 (Enter /data/home/wyx/g16/l303.exe)
 DipDrv:  MaxL=1.
 Leave Link  303 at Sat Jan 24 22:48:26 2026, MaxMem=  2147483648 cpu:               0.6 elap:               0.0
 (Enter /data/home/wyx/g16/l401.exe)
 Initial guess from the checkpoint file:  "DDL-S2-cLR-gs-1.chk"
 B after Tr=     0.000000   -0.000000   -0.000000
         Rot=    1.000000    0.000000   -0.000000   -0.000000 Ang=   0.00 deg.
 Guess basis will be translated and rotated to current coordinates.
 JPrj=2 DoOrth=T DoCkMO=T.
 Leave Link  401 at Sat Jan 24 22:48:27 2026, MaxMem=  2147483648 cpu:               2.2 elap:               0.2
 (Enter /data/home/wyx/g16/l502.exe)
 Integral symmetry usage will be decided dynamically.
 Closed shell SCF:
 Using DIIS extrapolation, IDIIS=  1040.
 NGot=  2147483648 LenX=  2147200095 LenY=  2147062754
 Requested convergence on RMS density matrix=1.00D-08 within 128 cycles.
 Requested convergence on MAX density matrix=1.00D-06.
 Requested convergence on             energy=1.00D-06.
 No special actions if energy rises.
 Fock matrices will be formed incrementally for  20 cycles.

 Cycle   1  Pass 1  IDiag  1:
 FoFJK:  IHMeth= 1 ICntrl=       0 DoSepK=T KAlg= 0 I1Cent=           0 FoldK=F
 IRaf=         1 NMat=       1 IRICut=       1 DoRegI=T DoRafI=F ISym2E= 0 IDoP0=0 IntGTp=1.
 FoFCou: FMM=F IPFlag=           0 FMFlag=      100000 FMFlg1=           0
         NFxFlg=           0 DoJE=T BraDBF=F KetDBF=F FulRan=T
         wScrn=  0.000000 ICntrl=       500 IOpCl=  0 I1Cent=           0 NGrid=           0
         NMat0=    1 NMatS0=      1 NMatT0=    0 NMatD0=    1 NMtDS0=    0 NMtDT0=    0
 Symmetry not used in FoFCou.
 Inv3:  Mode=1 IEnd=    13217403.
 Iteration    1 A*A^-1 deviation from unit magnitude is 2.89D-15 for   1474.
 Iteration    1 A*A^-1 deviation from orthogonality  is 1.55D-15 for   1016     99.
 Iteration    1 A^-1*A deviation from unit magnitude is 3.00D-15 for   1099.
 Iteration    1 A^-1*A deviation from orthogonality  is 4.33D-15 for   1393   1341.
 NEqPCM:  Using non-equilibrium solvation (IEInf=1, Eps=  78.3553, EpsInf=   1.7778)
 Inv3:  Mode=1 IEnd=    13217403.
 Iteration    1 A*A^-1 deviation from unit magnitude is 4.00D-15 for   1462.
 Iteration    1 A*A^-1 deviation from orthogonality  is 2.78D-15 for   1820    207.
 Iteration    1 A^-1*A deviation from unit magnitude is 3.77D-15 for   1462.
 Iteration    1 A^-1*A deviation from orthogonality  is 3.98D-15 for   1371   1341.
 E= -633.319401357745    
 DIIS: error= 9.08D-04 at cycle   1 NSaved=   1.
 NSaved= 1 IEnMin= 1 EnMin= -633.319401357745     IErMin= 1 ErrMin= 9.08D-04
 ErrMax= 9.08D-04  0.00D+00 EMaxC= 1.00D-01 BMatC= 1.48D-04 BMatP= 1.48D-04
 IDIUse=3 WtCom= 9.91D-01 WtEn= 9.08D-03
 Coeff-Com:  0.100D+01
 Coeff-En:   0.100D+01
 Coeff:      0.100D+01
 Gap=     0.216 Goal=   None    Shift=    0.000
 RMSDP=5.45D-04 MaxDP=4.17D-02              OVMax= 1.55D-02

 Cycle   2  Pass 1  IDiag  1:
 RMSU=  5.41D-04    CP:  1.01D+00
 E= -633.319674162996     Delta-E=       -0.000272805251 Rises=F Damp=F
 DIIS: error= 6.09D-04 at cycle   2 NSaved=   2.
 NSaved= 2 IEnMin= 2 EnMin= -633.319674162996     IErMin= 2 ErrMin= 6.09D-04
 ErrMax= 6.09D-04  0.00D+00 EMaxC= 1.00D-01 BMatC= 1.54D-04 BMatP= 1.48D-04
 IDIUse=3 WtCom= 9.94D-01 WtEn= 6.09D-03
 Coeff-Com:  0.508D+00 0.492D+00
 Coeff-En:   0.000D+00 0.100D+01
 Coeff:      0.505D+00 0.495D+00
 Gap=     0.215 Goal=   None    Shift=    0.000
 RMSDP=1.57D-04 MaxDP=9.23D-03 DE=-2.73D-04 OVMax= 3.19D-03

 Cycle   3  Pass 1  IDiag  1:
 RMSU=  1.42D-04    CP:  1.00D+00  9.62D-01
 E= -633.319797136353     Delta-E=       -0.000122973358 Rises=F Damp=F
 DIIS: error= 2.33D-04 at cycle   3 NSaved=   3.
 NSaved= 3 IEnMin= 3 EnMin= -633.319797136353     IErMin= 3 ErrMin= 2.33D-04
 ErrMax= 2.33D-04  0.00D+00 EMaxC= 1.00D-01 BMatC= 1.80D-05 BMatP= 1.48D-04
 IDIUse=3 WtCom= 9.98D-01 WtEn= 2.33D-03
 Coeff-Com:  0.729D-01 0.230D+00 0.697D+00
 Coeff-En:   0.000D+00 0.000D+00 0.100D+01
 Coeff:      0.728D-01 0.229D+00 0.698D+00
 Gap=     0.215 Goal=   None    Shift=    0.000
 RMSDP=4.00D-05 MaxDP=2.05D-03 DE=-1.23D-04 OVMax= 2.27D-03

 Cycle   4  Pass 1  IDiag  1:
 RMSU=  2.95D-05    CP:  1.00D+00  9.79D-01  1.18D+00
 E= -633.319813656097     Delta-E=       -0.000016519744 Rises=F Damp=F
 DIIS: error= 1.23D-04 at cycle   4 NSaved=   4.
 NSaved= 4 IEnMin= 4 EnMin= -633.319813656097     IErMin= 4 ErrMin= 1.23D-04
 ErrMax= 1.23D-04  0.00D+00 EMaxC= 1.00D-01 BMatC= 1.76D-06 BMatP= 1.80D-05
 IDIUse=3 WtCom= 9.99D-01 WtEn= 1.23D-03
 Coeff-Com: -0.113D-01 0.127D-01 0.220D+00 0.778D+00
 Coeff-En:   0.000D+00 0.000D+00 0.000D+00 0.100D+01
 Coeff:     -0.113D-01 0.127D-01 0.220D+00 0.779D+00
 Gap=     0.215 Goal=   None    Shift=    0.000
 RMSDP=2.89D-05 MaxDP=1.58D-03 DE=-1.65D-05 OVMax= 1.47D-03

 Cycle   5  Pass 1  IDiag  1:
 RMSU=  1.35D-05    CP:  1.00D+00  9.86D-01  1.34D+00  1.03D+00
 E= -633.319816387953     Delta-E=       -0.000002731856 Rises=F Damp=F
 DIIS: error= 4.33D-05 at cycle   5 NSaved=   5.
 NSaved= 5 IEnMin= 5 EnMin= -633.319816387953     IErMin= 5 ErrMin= 4.33D-05
 ErrMax= 4.33D-05  0.00D+00 EMaxC= 1.00D-01 BMatC= 5.07D-07 BMatP= 1.76D-06
 IDIUse=1 WtCom= 1.00D+00 WtEn= 0.00D+00
 Coeff-Com: -0.142D-01-0.373D-01-0.916D-02 0.363D+00 0.698D+00
 Coeff:     -0.142D-01-0.373D-01-0.916D-02 0.363D+00 0.698D+00
 Gap=     0.215 Goal=   None    Shift=    0.000
 RMSDP=1.18D-05 MaxDP=5.56D-04 DE=-2.73D-06 OVMax= 6.06D-04

 Cycle   6  Pass 1  IDiag  1:
 RMSU=  4.66D-06    CP:  1.00D+00  9.84D-01  1.41D+00  1.23D+00  1.07D+00
 E= -633.319817269390     Delta-E=       -0.000000881437 Rises=F Damp=F
 DIIS: error= 3.39D-05 at cycle   6 NSaved=   6.
 NSaved= 6 IEnMin= 6 EnMin= -633.319817269390     IErMin= 6 ErrMin= 3.39D-05
 ErrMax= 3.39D-05  0.00D+00 EMaxC= 1.00D-01 BMatC= 5.92D-08 BMatP= 5.07D-07
 IDIUse=1 WtCom= 1.00D+00 WtEn= 0.00D+00
 Coeff-Com: -0.788D-03-0.182D-01-0.293D-01-0.227D-02 0.172D+00 0.878D+00
 Coeff:     -0.788D-03-0.182D-01-0.293D-01-0.227D-02 0.172D+00 0.878D+00
 Gap=     0.215 Goal=   None    Shift=    0.000
 RMSDP=5.49D-06 MaxDP=2.47D-04 DE=-8.81D-07 OVMax= 4.96D-04

 Cycle   7  Pass 1  IDiag  1:
 RMSU=  2.08D-06    CP:  9.99D-01  9.81D-01  1.43D+00  1.31D+00  1.18D+00
                    CP:  1.32D+00
 E= -633.319817470257     Delta-E=       -0.000000200867 Rises=F Damp=F
 DIIS: error= 1.37D-05 at cycle   7 NSaved=   7.
 NSaved= 7 IEnMin= 7 EnMin= -633.319817470257     IErMin= 7 ErrMin= 1.37D-05
 ErrMax= 1.37D-05  0.00D+00 EMaxC= 1.00D-01 BMatC= 3.29D-08 BMatP= 5.92D-08
 IDIUse=1 WtCom= 1.00D+00 WtEn= 0.00D+00
 Coeff-Com:  0.285D-02-0.340D-02-0.887D-02-0.797D-01-0.119D+00 0.472D+00
 Coeff-Com:  0.736D+00
 Coeff:      0.285D-02-0.340D-02-0.887D-02-0.797D-01-0.119D+00 0.472D+00
 Coeff:      0.736D+00
 Gap=     0.215 Goal=   None    Shift=    0.000
 RMSDP=2.61D-06 MaxDP=9.49D-05 DE=-2.01D-07 OVMax= 2.64D-04

 Cycle   8  Pass 1  IDiag  1:
 RMSU=  8.18D-07    CP:  9.99D-01  9.79D-01  1.44D+00  1.35D+00  1.23D+00
                    CP:  1.58D+00  1.14D+00
 E= -633.319817536824     Delta-E=       -0.000000066567 Rises=F Damp=F
 DIIS: error= 4.42D-06 at cycle   8 NSaved=   8.
 NSaved= 8 IEnMin= 8 EnMin= -633.319817536824     IErMin= 8 ErrMin= 4.42D-06
 ErrMax= 4.42D-06  0.00D+00 EMaxC= 1.00D-01 BMatC= 3.17D-09 BMatP= 3.29D-08
 IDIUse=1 WtCom= 1.00D+00 WtEn= 0.00D+00
 Coeff-Com:  0.119D-02 0.927D-03 0.269D-02-0.254D-01-0.902D-01 0.220D-01
 Coeff-Com:  0.251D+00 0.838D+00
 Coeff:      0.119D-02 0.927D-03 0.269D-02-0.254D-01-0.902D-01 0.220D-01
 Coeff:      0.251D+00 0.838D+00
 Gap=     0.215 Goal=   None    Shift=    0.000
 RMSDP=1.03D-06 MaxDP=3.75D-05 DE=-6.66D-08 OVMax= 1.03D-04

 Cycle   9  Pass 1  IDiag  1:
 RMSU=  2.84D-07    CP:  9.99D-01  9.79D-01  1.44D+00  1.37D+00  1.23D+00
                    CP:  1.72D+00  1.34D+00  1.15D+00
 E= -633.319817544800     Delta-E=       -0.000000007976 Rises=F Damp=F
 DIIS: error= 1.49D-06 at cycle   9 NSaved=   9.
 NSaved= 9 IEnMin= 9 EnMin= -633.319817544800     IErMin= 9 ErrMin= 1.49D-06
 ErrMax= 1.49D-06  0.00D+00 EMaxC= 1.00D-01 BMatC= 4.03D-10 BMatP= 3.17D-09
 IDIUse=1 WtCom= 1.00D+00 WtEn= 0.00D+00
 Coeff-Com:  0.320D-04 0.733D-03 0.232D-02 0.458D-02-0.195D-01-0.602D-01
 Coeff-Com: -0.134D-02 0.337D+00 0.737D+00
 Coeff:      0.320D-04 0.733D-03 0.232D-02 0.458D-02-0.195D-01-0.602D-01
 Coeff:     -0.134D-02 0.337D+00 0.737D+00
 Gap=     0.215 Goal=   None    Shift=    0.000
 RMSDP=3.53D-07 MaxDP=2.04D-05 DE=-7.98D-09 OVMax= 3.00D-05

 Cycle  10  Pass 1  IDiag  1:
 RMSU=  1.29D-07    CP:  9.99D-01  9.79D-01  1.44D+00  1.37D+00  1.22D+00
                    CP:  1.75D+00  1.40D+00  1.26D+00  1.01D+00
 E= -633.319817545568     Delta-E=       -0.000000000768 Rises=F Damp=F
 DIIS: error= 4.45D-07 at cycle  10 NSaved=  10.
 NSaved=10 IEnMin=10 EnMin= -633.319817545568     IErMin=10 ErrMin= 4.45D-07
 ErrMax= 4.45D-07  0.00D+00 EMaxC= 1.00D-01 BMatC= 8.57D-11 BMatP= 4.03D-10
 IDIUse=1 WtCom= 1.00D+00 WtEn= 0.00D+00
 Coeff-Com: -0.110D-03 0.356D-03 0.244D-03 0.468D-02 0.269D-02-0.269D-01
 Coeff-Com: -0.281D-01 0.889D-02 0.299D+00 0.739D+00
 Coeff:     -0.110D-03 0.356D-03 0.244D-03 0.468D-02 0.269D-02-0.269D-01
 Coeff:     -0.281D-01 0.889D-02 0.299D+00 0.739D+00
 Gap=     0.215 Goal=   None    Shift=    0.000
 RMSDP=1.32D-07 MaxDP=9.66D-06 DE=-7.68D-10 OVMax= 8.59D-06

 Cycle  11  Pass 1  IDiag  1:
 RMSU=  3.74D-08    CP:  9.99D-01  9.79D-01  1.44D+00  1.37D+00  1.22D+00
                    CP:  1.76D+00  1.43D+00  1.29D+00  1.16D+00  1.13D+00
 E= -633.319817545679     Delta-E=       -0.000000000111 Rises=F Damp=F
 DIIS: error= 1.65D-07 at cycle  11 NSaved=  11.
 NSaved=11 IEnMin=11 EnMin= -633.319817545679     IErMin=11 ErrMin= 1.65D-07
 ErrMax= 1.65D-07  0.00D+00 EMaxC= 1.00D-01 BMatC= 1.35D-11 BMatP= 8.57D-11
 IDIUse=1 WtCom= 1.00D+00 WtEn= 0.00D+00
 Coeff-Com: -0.627D-04 0.995D-04-0.358D-03 0.157D-02 0.473D-02-0.126D-02
 Coeff-Com: -0.104D-01-0.588D-01 0.185D-01 0.308D+00 0.739D+00
 Coeff:     -0.627D-04 0.995D-04-0.358D-03 0.157D-02 0.473D-02-0.126D-02
 Coeff:     -0.104D-01-0.588D-01 0.185D-01 0.308D+00 0.739D+00
 Gap=     0.215 Goal=   None    Shift=    0.000
 RMSDP=6.09D-08 MaxDP=5.72D-06 DE=-1.11D-10 OVMax= 2.71D-06

 Cycle  12  Pass 1  IDiag  1:
 RMSU=  2.06D-08    CP:  9.99D-01  9.79D-01  1.44D+00  1.37D+00  1.22D+00
                    CP:  1.76D+00  1.43D+00  1.30D+00  1.20D+00  1.27D+00
                    CP:  1.05D+00
 E= -633.319817545699     Delta-E=       -0.000000000020 Rises=F Damp=F
 DIIS: error= 7.82D-08 at cycle  12 NSaved=  12.
 NSaved=12 IEnMin=12 EnMin= -633.319817545699     IErMin=12 ErrMin= 7.82D-08
 ErrMax= 7.82D-08  0.00D+00 EMaxC= 1.00D-01 BMatC= 2.13D-12 BMatP= 1.35D-11
 IDIUse=1 WtCom= 1.00D+00 WtEn= 0.00D+00
 Coeff-Com: -0.147D-04 0.237D-04-0.192D-03 0.100D-03 0.164D-02 0.258D-02
 Coeff-Com: -0.296D-03-0.266D-01-0.241D-01 0.291D-01 0.343D+00 0.674D+00
 Coeff:     -0.147D-04 0.237D-04-0.192D-03 0.100D-03 0.164D-02 0.258D-02
 Coeff:     -0.296D-03-0.266D-01-0.241D-01 0.291D-01 0.343D+00 0.674D+00
 Gap=     0.215 Goal=   None    Shift=    0.000
 RMSDP=1.30D-08 MaxDP=8.83D-07 DE=-2.05D-11 OVMax= 9.58D-07

 Cycle  13  Pass 1  IDiag  1:
 RMSU=  8.00D-09    CP:  9.99D-01  9.79D-01  1.44D+00  1.37D+00  1.22D+00
                    CP:  1.76D+00  1.43D+00  1.30D+00  1.21D+00  1.30D+00
                    CP:  1.17D+00  8.62D-01
 E= -633.319817545707     Delta-E=       -0.000000000008 Rises=F Damp=F
 DIIS: error= 2.72D-08 at cycle  13 NSaved=  13.
 NSaved=13 IEnMin=13 EnMin= -633.319817545707     IErMin=13 ErrMin= 2.72D-08
 ErrMax= 2.72D-08  0.00D+00 EMaxC= 1.00D-01 BMatC= 4.40D-13 BMatP= 2.13D-12
 IDIUse=1 WtCom= 1.00D+00 WtEn= 0.00D+00
 Coeff-Com: -0.270D-06 0.144D-06-0.459D-04-0.207D-03 0.155D-03 0.133D-02
 Coeff-Com:  0.142D-02-0.585D-02-0.179D-01-0.418D-01 0.577D-01 0.373D+00
 Coeff-Com:  0.633D+00
 Coeff:     -0.270D-06 0.144D-06-0.459D-04-0.207D-03 0.155D-03 0.133D-02
 Coeff:      0.142D-02-0.585D-02-0.179D-01-0.418D-01 0.577D-01 0.373D+00
 Coeff:      0.633D+00
 Gap=     0.215 Goal=   None    Shift=    0.000
 RMSDP=1.00D-08 MaxDP=6.18D-07 DE=-8.07D-12 OVMax= 4.67D-07

 Cycle  14  Pass 1  IDiag  1:
 RMSU=  3.00D-09    CP:  9.99D-01  9.79D-01  1.44D+00  1.37D+00  1.22D+00
                    CP:  1.76D+00  1.43D+00  1.30D+00  1.22D+00  1.32D+00
                    CP:  1.22D+00  1.00D+00  9.16D-01
 E= -633.319817545704     Delta-E=        0.000000000003 Rises=F Damp=F
 DIIS: error= 7.89D-09 at cycle  14 NSaved=  14.
 NSaved=14 IEnMin=13 EnMin= -633.319817545707     IErMin=14 ErrMin= 7.89D-09
 ErrMax= 7.89D-09  0.00D+00 EMaxC= 1.00D-01 BMatC= 1.62D-14 BMatP= 4.40D-13
 IDIUse=1 WtCom= 1.00D+00 WtEn= 0.00D+00
 Coeff-Com:  0.197D-05-0.184D-05 0.752D-05-0.860D-04-0.143D-03 0.157D-03
 Coeff-Com:  0.722D-03 0.146D-02-0.249D-02-0.150D-01-0.188D-01 0.528D-01
 Coeff-Com:  0.181D+00 0.801D+00
 Coeff:      0.197D-05-0.184D-05 0.752D-05-0.860D-04-0.143D-03 0.157D-03
 Coeff:      0.722D-03 0.146D-02-0.249D-02-0.150D-01-0.188D-01 0.528D-01
 Coeff:      0.181D+00 0.801D+00
 Gap=     0.215 Goal=   None    Shift=    0.000
 RMSDP=1.61D-09 MaxDP=6.43D-08 DE= 3.07D-12 OVMax= 1.04D-07

 Error on total polarization charges =  0.00825
 SCF Done:  E(RCAM-B3LYP) =  -633.319817546     A.U. after   14 cycles
            NFock= 14  Conv=0.16D-08     -V/T= 2.0043
 KE= 6.305846384963D+02 PE=-3.272815475654D+03 EE= 1.110502726256D+03
 Leave Link  502 at Sat Jan 24 22:49:22 2026, MaxMem=  2147483648 cpu:             868.2 elap:              55.0
 (Enter /data/home/wyx/g16/l601.exe)
 Copying SCF densities to generalized density rwf, IOpCl= 0 IROHF=0.

 **********************************************************************

            Population analysis using the SCF density.

 **********************************************************************

 Orbital symmetries:
       Occupied  (A) (A) (A) (A) (A) (A) (A) (A) (A) (A) (A) (A)
                 (A) (A) (A) (A) (A) (A) (A) (A) (A) (A) (A) (A)
                 (A) (A) (A) (A) (A) (A) (A) (A) (A) (A) (A) (A)
                 (A) (A) (A) (A) (A) (A) (A) (A) (A) (A) (A) (A)
                 (A) (A) (A) (A)
       Virtual   (A) (A) (A) (A) (A) (A) (A) (A) (A) (A) (A) (A)
                 (A) (A) (A) (A) (A) (A) (A) (A) (A) (A) (A) (A)
                 (A) (A) (A) (A) (A) (A) (A) (A) (A) (A) (A) (A)
                 (A) (A) (A) (A) (A) (A) (A) (A) (A) (A) (A) (A)
                 (A) (A) (A) (A) (A) (A) (A) (A) (A) (A) (A) (A)
                 (A) (A) (A) (A) (A) (A) (A) (A) (A) (A) (A) (A)
                 (A) (A) (A) (A) (A) (A) (A) (A) (A) (A) (A) (A)
                 (A) (A) (A) (A) (A) (A) (A) (A) (A) (A) (A) (A)
                 (A) (A) (A) (A) (A) (A) (A) (A) (A) (A) (A) (A)
                 (A) (A) (A) (A) (A) (A) (A) (A) (A) (A) (A) (A)
                 (A) (A) (A) (A) (A) (A) (A) (A) (A) (A) (A) (A)
                 (A) (A) (A) (A) (A) (A) (A) (A) (A) (A) (A) (A)
                 (A) (A) (A) (A) (A) (A) (A) (A) (A) (A) (A) (A)
                 (A) (A) (A) (A) (A) (A) (A) (A) (A) (A) (A) (A)
                 (A) (A) (A) (A) (A) (A) (A) (A) (A) (A) (A) (A)
                 (A) (A) (A) (A) (A) (A) (A) (A) (A) (A) (A) (A)
                 (A) (A) (A) (A) (A) (A) (A) (A) (A) (A) (A) (A)
                 (A) (A) (A) (A) (A) (A) (A) (A) (A) (A) (A) (A)
                 (A) (A) (A) (A) (A) (A) (A) (A) (A) (A) (A) (A)
                 (A) (A) (A) (A) (A) (A) (A) (A) (A) (A) (A) (A)
                 (A) (A) (A) (A) (A) (A) (A) (A) (A) (A) (A) (A)
                 (A) (A) (A) (A) (A) (A) (A) (A) (A) (A) (A) (A)
                 (A) (A) (A) (A) (A) (A) (A) (A) (A) (A) (A) (A)
                 (A) (A) (A) (A) (A) (A) (A) (A) (A) (A) (A) (A)
                 (A) (A) (A) (A) (A) (A) (A) (A) (A) (A) (A) (A)
                 (A) (A) (A) (A)
 The electronic state is 1-A.
 Alpha  occ. eigenvalues --  -19.18348 -19.16613 -14.45153 -10.33887 -10.33425
 Alpha  occ. eigenvalues --  -10.32581 -10.32457 -10.26523 -10.25816 -10.25073
 Alpha  occ. eigenvalues --  -10.24948 -10.24786 -10.24644 -10.23264  -1.11763
 Alpha  occ. eigenvalues --   -1.10280  -1.08875  -0.91727  -0.90783  -0.84149
 Alpha  occ. eigenvalues --   -0.82786  -0.81811  -0.78529  -0.74077  -0.72487
 Alpha  occ. eigenvalues --   -0.68942  -0.61730  -0.58462  -0.57312  -0.55433
 Alpha  occ. eigenvalues --   -0.54830  -0.54056  -0.52546  -0.51888  -0.51117
 Alpha  occ. eigenvalues --   -0.50126  -0.49488  -0.49166  -0.48736  -0.48161
 Alpha  occ. eigenvalues --   -0.47344  -0.45491  -0.44738  -0.44298  -0.43610
 Alpha  occ. eigenvalues --   -0.42360  -0.42235  -0.41305  -0.32995  -0.32553
 Alpha  occ. eigenvalues --   -0.30839  -0.25297
 Alpha virt. eigenvalues --   -0.03764   0.02291   0.06062   0.08020   0.08341
 Alpha virt. eigenvalues --    0.09440   0.10818   0.11387   0.12311   0.13217
 Alpha virt. eigenvalues --    0.13686   0.14747   0.15421   0.16387   0.16976
 Alpha virt. eigenvalues --    0.17529   0.17848   0.17902   0.18465   0.19253
 Alpha virt. eigenvalues --    0.19748   0.21893   0.22492   0.23159   0.23565
 Alpha virt. eigenvalues --    0.23797   0.24638   0.25477   0.26240   0.26728
 Alpha virt. eigenvalues --    0.27209   0.27940   0.28193   0.29290   0.30232
 Alpha virt. eigenvalues --    0.31386   0.31638   0.32072   0.33185   0.33945
 Alpha virt. eigenvalues --    0.34589   0.35671   0.36656   0.37285   0.38257
 Alpha virt. eigenvalues --    0.39471   0.40566   0.41168   0.41517   0.42108
 Alpha virt. eigenvalues --    0.43842   0.44660   0.45328   0.46022   0.46462
 Alpha virt. eigenvalues --    0.47034   0.47564   0.47740   0.48335   0.48846
 Alpha virt. eigenvalues --    0.49400   0.50502   0.51249   0.51330   0.51508
 Alpha virt. eigenvalues --    0.52230   0.52653   0.53117   0.53652   0.54125
 Alpha virt. eigenvalues --    0.54141   0.55001   0.55566   0.56400   0.57984
 Alpha virt. eigenvalues --    0.58187   0.59645   0.60882   0.61624   0.63031
 Alpha virt. eigenvalues --    0.63846   0.64803   0.66051   0.66767   0.67223
 Alpha virt. eigenvalues --    0.68570   0.69077   0.70226   0.70712   0.71683
 Alpha virt. eigenvalues --    0.72850   0.74502   0.74899   0.75616   0.76998
 Alpha virt. eigenvalues --    0.78707   0.80361   0.83116   0.86335   0.87412
 Alpha virt. eigenvalues --    0.91176   0.95913   1.01722   1.04454   1.21868
 Alpha virt. eigenvalues --    1.24066   1.26957   1.28199   1.28889   1.29994
 Alpha virt. eigenvalues --    1.31536   1.33139   1.34453   1.35171   1.36143
 Alpha virt. eigenvalues --    1.36760   1.37964   1.38247   1.38598   1.39292
 Alpha virt. eigenvalues --    1.39775   1.40012   1.40505   1.41175   1.41989
 Alpha virt. eigenvalues --    1.43117   1.43207   1.44206   1.45414   1.47058
 Alpha virt. eigenvalues --    1.47935   1.49238   1.49371   1.49858   1.50470
 Alpha virt. eigenvalues --    1.51009   1.51840   1.52680   1.55360   1.58677
 Alpha virt. eigenvalues --    1.59422   1.59618   1.60881   1.61397   1.62198
 Alpha virt. eigenvalues --    1.62309   1.62847   1.63398   1.64309   1.65652
 Alpha virt. eigenvalues --    1.66184   1.66959   1.67320   1.67726   1.68581
 Alpha virt. eigenvalues --    1.68975   1.69679   1.70167   1.70672   1.72081
 Alpha virt. eigenvalues --    1.74047   1.74474   1.75400   1.76477   1.78314
 Alpha virt. eigenvalues --    1.81399   1.82719   1.83567   1.85354   1.86508
 Alpha virt. eigenvalues --    1.86606   1.87931   1.88575   1.89163   1.90062
 Alpha virt. eigenvalues --    1.91032   1.94208   1.94914   1.98953   1.99527
 Alpha virt. eigenvalues --    2.01450   2.03516   2.05532   2.06677   2.09148
 Alpha virt. eigenvalues --    2.09931   2.11228   2.15627   2.17446   2.19407
 Alpha virt. eigenvalues --    2.20562   2.20963   2.21933   2.22575   2.26423
 Alpha virt. eigenvalues --    2.26883   2.27044   2.28970   2.30784   2.31798
 Alpha virt. eigenvalues --    2.33393   2.34139   2.36554   2.37583   2.38943
 Alpha virt. eigenvalues --    2.39202   2.39999   2.41035   2.42445   2.44801
 Alpha virt. eigenvalues --    2.45539   2.47066   2.48423   2.49465   2.50943
 Alpha virt. eigenvalues --    2.52253   2.53844   2.54225   2.56291   2.57146
 Alpha virt. eigenvalues --    2.58390   2.61032   2.61536   2.62132   2.63225
 Alpha virt. eigenvalues --    2.64712   2.65238   2.66346   2.67298   2.68279
 Alpha virt. eigenvalues --    2.71399   2.71572   2.73953   2.74394   2.75435
 Alpha virt. eigenvalues --    2.76464   2.77006   2.77246   2.77980   2.78505
 Alpha virt. eigenvalues --    2.80846   2.81307   2.82834   2.83528   2.84804
 Alpha virt. eigenvalues --    2.85433   2.86115   2.88439   2.88776   2.92031
 Alpha virt. eigenvalues --    2.96612   2.98467   3.00886   3.06959   3.10383
 Alpha virt. eigenvalues --    3.11810   3.14196   3.17653   3.19104   3.21237
 Alpha virt. eigenvalues --    3.22042   3.22645   3.24354   3.25484   3.26283
 Alpha virt. eigenvalues --    3.28628   3.30354   3.32004   3.34653   3.36185
 Alpha virt. eigenvalues --    3.37892   3.38494   3.39258   3.39573   3.41453
 Alpha virt. eigenvalues --    3.41737   3.43619   3.44647   3.47591   3.48138
 Alpha virt. eigenvalues --    3.49426   3.49871   3.55487   3.57889   3.59569
 Alpha virt. eigenvalues --    3.60940   3.90615   4.00516   4.31844   4.35874
 Alpha virt. eigenvalues --   21.68124  21.80376  22.07451  22.09847  22.11493
 Alpha virt. eigenvalues --   22.14394  22.14815  22.17218  22.18633  22.24469
 Alpha virt. eigenvalues --   22.26819  31.90947  43.63648  43.67002
          Condensed to atoms (all electrons):
               1          2          3          4          5          6
     1  O    7.953174   0.000000  -0.000180   0.000019   0.019439   0.006853
     2  O    0.000000   7.963609   0.000463   0.000011  -0.188147   0.001322
     3  N   -0.000180   0.000463   6.365388   0.368284  -0.123426   0.334810
     4  H    0.000019   0.000011   0.368284   0.405205   0.015033  -0.045255
     5  C    0.019439  -0.188147  -0.123426   0.015033   7.178955  -0.085556
     6  C    0.006853   0.001322   0.334810  -0.045255  -0.085556   5.553860
     7  C    0.000024  -0.049503   0.389411  -0.034876   0.473010  -0.131459
     8  C   -0.000824   0.693009   0.004395  -0.000862  -0.329855   0.033280
     9  C   -0.003659   0.028295   0.016366   0.000222  -0.763112  -0.032896
    10  H    0.009508   0.000100   0.003289   0.000038  -0.067756  -0.020926
    11  H    0.008353   0.000009  -0.001161   0.000024  -0.108066   0.029530
    12  C   -0.235662  -0.003282  -0.092904   0.014359   0.212770  -0.047771
    13  C    0.714608  -0.000009   0.001720   0.000570   0.086016   0.110012
    14  C   -0.000007   0.001102  -0.032733  -0.010005  -0.085505   0.011691
    15  H   -0.000000   0.003981   0.004958   0.001988   0.021589   0.006333
    16  H   -0.000000   0.003129  -0.001913   0.000928  -0.010597  -0.001183
    17  H    0.000000   0.001690  -0.000293   0.000817  -0.006730  -0.001462
    18  C    0.000320  -0.098362  -0.000446   0.000020  -0.246164  -0.000336
    19  H    0.000000   0.006835   0.000007  -0.000001   0.020928   0.000016
    20  H   -0.000011   0.000672   0.000010  -0.000001   0.002306   0.000192
    21  H    0.000166   0.004334   0.000107   0.000001   0.044147  -0.001250
    22  C   -0.104860   0.000000  -0.000255   0.000109   0.003374  -0.029931
    23  H    0.005345  -0.000000   0.000233  -0.000057  -0.000790  -0.022720
    24  H    0.001492   0.000000   0.000016  -0.000009  -0.000005   0.007522
    25  H    0.005894   0.000000   0.000023  -0.000002  -0.000125  -0.000762
    26  C    0.000707   0.000011  -0.025166  -0.006662   0.000299   0.199663
    27  H   -0.000239  -0.000000   0.001016   0.000717   0.000155  -0.050330
    28  H   -0.000056  -0.000000  -0.002488   0.000505   0.000367  -0.029672
    29  H    0.000023   0.000000   0.001763   0.002014  -0.000337  -0.046739
               7          8          9         10         11         12
     1  O    0.000024  -0.000824  -0.003659   0.009508   0.008353  -0.235662
     2  O   -0.049503   0.693009   0.028295   0.000100   0.000009  -0.003282
     3  N    0.389411   0.004395   0.016366   0.003289  -0.001161  -0.092904
     4  H   -0.034876  -0.000862   0.000222   0.000038   0.000024   0.014359
     5  C    0.473010  -0.329855  -0.763112  -0.067756  -0.108066   0.212770
     6  C   -0.131459   0.033280  -0.032896  -0.020926   0.029530  -0.047771
     7  C    5.437225  -0.229865  -0.239391  -0.004859   0.014785   0.032467
     8  C   -0.229865   5.375982   0.231319  -0.002809  -0.007429  -0.056872
     9  C   -0.239391   0.231319   6.515680   0.438233   0.524587  -0.195779
    10  H   -0.004859  -0.002809   0.438233   0.589052  -0.053045  -0.024304
    11  H    0.014785  -0.007429   0.524587  -0.053045   0.543857  -0.108198
    12  C    0.032467  -0.056872  -0.195779  -0.024304  -0.108198   7.423839
    13  C    0.020127  -0.009722  -0.246482  -0.008024   0.000536  -0.522228
    14  C    0.285365  -0.021997   0.006453  -0.000599   0.000355  -0.000237
    15  H   -0.090130   0.005074   0.000970   0.000040  -0.000004  -0.001645
    16  H   -0.014552  -0.001527   0.000940  -0.000064   0.000066   0.000170
    17  H   -0.021140  -0.007008  -0.000486   0.000181  -0.000058   0.000348
    18  C   -0.000976   0.322997   0.000854  -0.013593   0.004773   0.000716
    19  H    0.000016  -0.048637  -0.002435   0.000200   0.000508  -0.000174
    20  H   -0.000499  -0.024289  -0.010335   0.000696  -0.000000  -0.002546
    21  H    0.004085  -0.073640  -0.005390   0.002251  -0.007512   0.007851
    22  C    0.000368  -0.000080   0.011227   0.003886  -0.001852  -0.238350
    23  H   -0.000015   0.000013   0.002689  -0.000256   0.000122   0.063621
    24  H   -0.000010   0.000001  -0.001952   0.000186  -0.000133  -0.012121
    25  H    0.000006   0.000002   0.000254  -0.000126   0.000000   0.020024
    26  C    0.001940   0.000886   0.022323  -0.000731   0.000146  -0.086146
    27  H   -0.000784   0.000002  -0.000053  -0.000104   0.000016  -0.008544
    28  H   -0.000790  -0.000015  -0.000653  -0.000000   0.000034  -0.016625
    29  H    0.002862  -0.000004  -0.000381   0.000081  -0.000015   0.022876
              13         14         15         16         17         18
     1  O    0.714608  -0.000007  -0.000000  -0.000000   0.000000   0.000320
     2  O   -0.000009   0.001102   0.003981   0.003129   0.001690  -0.098362
     3  N    0.001720  -0.032733   0.004958  -0.001913  -0.000293  -0.000446
     4  H    0.000570  -0.010005   0.001988   0.000928   0.000817   0.000020
     5  C    0.086016  -0.085505   0.021589  -0.010597  -0.006730  -0.246164
     6  C    0.110012   0.011691   0.006333  -0.001183  -0.001462  -0.000336
     7  C    0.020127   0.285365  -0.090130  -0.014552  -0.021140  -0.000976
     8  C   -0.009722  -0.021997   0.005074  -0.001527  -0.007008   0.322997
     9  C   -0.246482   0.006453   0.000970   0.000940  -0.000486   0.000854
    10  H   -0.008024  -0.000599   0.000040  -0.000064   0.000181  -0.013593
    11  H    0.000536   0.000355  -0.000004   0.000066  -0.000058   0.004773
    12  C   -0.522228  -0.000237  -0.001645   0.000170   0.000348   0.000716
    13  C    5.633405   0.000093  -0.000041  -0.000006  -0.000003   0.001621
    14  C    0.000093   5.007126   0.396213   0.404863   0.414214   0.001436
    15  H   -0.000041   0.396213   0.576237  -0.026041  -0.028225   0.000220
    16  H   -0.000006   0.404863  -0.026041   0.500637  -0.023789   0.000072
    17  H   -0.000003   0.414214  -0.028225  -0.023789   0.505685  -0.000196
    18  C    0.001621   0.001436   0.000220   0.000072  -0.000196   5.296724
    19  H   -0.000015  -0.000023  -0.000004  -0.000032   0.000043   0.398384
    20  H   -0.000175  -0.000202  -0.000004  -0.000006   0.000010   0.401513
    21  H    0.000997   0.000084  -0.000014  -0.000000  -0.000024   0.378765
    22  C    0.270355  -0.000003   0.000002  -0.000000   0.000000   0.000039
    23  H   -0.101278   0.000003   0.000000   0.000000  -0.000000   0.000000
    24  H   -0.020960  -0.000001   0.000000   0.000000  -0.000000  -0.000001
    25  H   -0.033474   0.000000   0.000000  -0.000000  -0.000000  -0.000001
    26  C   -0.055391   0.000582   0.000327  -0.000052  -0.000009   0.000001
    27  H   -0.001499   0.000038  -0.000007   0.000001  -0.000002   0.000000
    28  H    0.006939  -0.000088  -0.000006  -0.000005   0.000004  -0.000000
    29  H   -0.001401  -0.000089   0.000101  -0.000002  -0.000000  -0.000000
              19         20         21         22         23         24
     1  O    0.000000  -0.000011   0.000166  -0.104860   0.005345   0.001492
     2  O    0.006835   0.000672   0.004334   0.000000  -0.000000   0.000000
     3  N    0.000007   0.000010   0.000107  -0.000255   0.000233   0.000016
     4  H   -0.000001  -0.000001   0.000001   0.000109  -0.000057  -0.000009
     5  C    0.020928   0.002306   0.044147   0.003374  -0.000790  -0.000005
     6  C    0.000016   0.000192  -0.001250  -0.029931  -0.022720   0.007522
     7  C    0.000016  -0.000499   0.004085   0.000368  -0.000015  -0.000010
     8  C   -0.048637  -0.024289  -0.073640  -0.000080   0.000013   0.000001
     9  C   -0.002435  -0.010335  -0.005390   0.011227   0.002689  -0.001952
    10  H    0.000200   0.000696   0.002251   0.003886  -0.000256   0.000186
    11  H    0.000508  -0.000000  -0.007512  -0.001852   0.000122  -0.000133
    12  C   -0.000174  -0.002546   0.007851  -0.238350   0.063621  -0.012121
    13  C   -0.000015  -0.000175   0.000997   0.270355  -0.101278  -0.020960
    14  C   -0.000023  -0.000202   0.000084  -0.000003   0.000003  -0.000001
    15  H   -0.000004  -0.000004  -0.000014   0.000002   0.000000   0.000000
    16  H   -0.000032  -0.000006  -0.000000  -0.000000   0.000000   0.000000
    17  H    0.000043   0.000010  -0.000024   0.000000  -0.000000  -0.000000
    18  C    0.398384   0.401513   0.378765   0.000039   0.000000  -0.000001
    19  H    0.495599  -0.008127  -0.025564  -0.000000   0.000000   0.000000
    20  H   -0.008127   0.491045  -0.024067  -0.000012   0.000000   0.000000
    21  H   -0.025564  -0.024067   0.546863   0.000036  -0.000001  -0.000000
    22  C   -0.000000  -0.000012   0.000036   5.432130   0.397699   0.400563
    23  H    0.000000   0.000000  -0.000001   0.397699   0.544800  -0.026242
    24  H    0.000000   0.000000  -0.000000   0.400563  -0.026242   0.490795
    25  H   -0.000000   0.000000  -0.000000   0.380328  -0.022560  -0.008777
    26  C    0.000000   0.000003  -0.000018  -0.035622   0.015762  -0.008767
    27  H   -0.000000   0.000000  -0.000000   0.002727  -0.006828   0.000071
    28  H    0.000000  -0.000000   0.000000  -0.010655  -0.001760   0.000736
    29  H    0.000000  -0.000000   0.000000   0.002081   0.000566   0.000143
              25         26         27         28         29
     1  O    0.005894   0.000707  -0.000239  -0.000056   0.000023
     2  O    0.000000   0.000011  -0.000000  -0.000000   0.000000
     3  N    0.000023  -0.025166   0.001016  -0.002488   0.001763
     4  H   -0.000002  -0.006662   0.000717   0.000505   0.002014
     5  C   -0.000125   0.000299   0.000155   0.000367  -0.000337
     6  C   -0.000762   0.199663  -0.050330  -0.029672  -0.046739
     7  C    0.000006   0.001940  -0.000784  -0.000790   0.002862
     8  C    0.000002   0.000886   0.000002  -0.000015  -0.000004
     9  C    0.000254   0.022323  -0.000053  -0.000653  -0.000381
    10  H   -0.000126  -0.000731  -0.000104  -0.000000   0.000081
    11  H    0.000000   0.000146   0.000016   0.000034  -0.000015
    12  C    0.020024  -0.086146  -0.008544  -0.016625   0.022876
    13  C   -0.033474  -0.055391  -0.001499   0.006939  -0.001401
    14  C    0.000000   0.000582   0.000038  -0.000088  -0.000089
    15  H    0.000000   0.000327  -0.000007  -0.000006   0.000101
    16  H   -0.000000  -0.000052   0.000001  -0.000005  -0.000002
    17  H   -0.000000  -0.000009  -0.000002   0.000004  -0.000000
    18  C   -0.000001   0.000001   0.000000  -0.000000  -0.000000
    19  H   -0.000000   0.000000  -0.000000   0.000000   0.000000
    20  H    0.000000   0.000003   0.000000  -0.000000  -0.000000
    21  H   -0.000000  -0.000018  -0.000000   0.000000   0.000000
    22  C    0.380328  -0.035622   0.002727  -0.010655   0.002081
    23  H   -0.022560   0.015762  -0.006828  -0.001760   0.000566
    24  H   -0.008777  -0.008767   0.000071   0.000736   0.000143
    25  H    0.495996   0.002118   0.000536   0.000127  -0.000034
    26  C    0.002118   5.231107   0.435868   0.422462   0.387153
    27  H    0.000536   0.435868   0.503091  -0.027958  -0.024461
    28  H    0.000127   0.422462  -0.027958   0.477800  -0.015359
    29  H   -0.000034   0.387153  -0.024461  -0.015359   0.509866
 Mulliken charges:
               1
     1  O   -0.380426
     2  O   -0.369270
     3  N   -0.211296
     4  H    0.286865
     5  C   -0.062217
     6  C    0.253163
     7  C    0.157159
     8  C    0.148475
     9  C   -0.297407
    10  H    0.149454
    11  H    0.159773
    12  C   -0.145652
    13  C    0.153711
    14  C   -0.378129
    15  H    0.128088
    16  H    0.168964
    17  H    0.166434
    18  C   -0.448380
    19  H    0.162477
    20  H    0.173829
    21  H    0.147796
    22  C   -0.483303
    23  H    0.151653
    24  H    0.177456
    25  H    0.160554
    26  C   -0.502793
    27  H    0.176571
    28  H    0.197157
    29  H    0.159293
 Sum of Mulliken charges =  -0.00000
 Mulliken charges with hydrogens summed into heavy atoms:
               1
     1  O   -0.380426
     2  O   -0.369270
     3  N    0.075569
     5  C   -0.062217
     6  C    0.253163
     7  C    0.157159
     8  C    0.148475
     9  C    0.011820
    12  C   -0.145652
    13  C    0.153711
    14  C    0.085357
    18  C    0.035722
    22  C    0.006360
    26  C    0.030229
 Electronic spatial extent (au):  <R**2>=           3209.4495
 Charge=             -0.0000 electrons
 Dipole moment (field-independent basis, Debye):
    X=             -3.5822    Y=              8.0039    Z=              0.2897  Tot=              8.7738
 Quadrupole moment (field-independent basis, Debye-Ang):
   XX=            -97.1505   YY=            -77.8976   ZZ=            -84.9899
   XY=            -13.2821   XZ=             -3.8544   YZ=             -2.5479
 Traceless Quadrupole moment (field-independent basis, Debye-Ang):
   XX=            -10.4711   YY=              8.7817   ZZ=              1.6894
   XY=            -13.2821   XZ=             -3.8544   YZ=             -2.5479
 Octapole moment (field-independent basis, Debye-Ang**2):
  XXX=           -105.6179  YYY=             68.1632  ZZZ=              1.1701  XYY=             37.1400
  XXY=             33.6022  XXZ=             -3.1204  XZZ=             -0.0028  YZZ=             -0.8715
  YYZ=              5.2101  XYZ=              5.5885
 Hexadecapole moment (field-independent basis, Debye-Ang**3):
 XXXX=          -3045.9811 YYYY=          -1294.9642 ZZZZ=           -142.2947 XXXY=            -43.2578
 XXXZ=            -40.9696 YYYX=            -95.2204 YYYZ=            -20.3340 ZZZX=              3.8068
 ZZZY=              1.3627 XXYY=           -688.8930 XXZZ=           -477.8324 YYZZ=           -245.9710
 XXYZ=            -11.3286 YYXZ=            -10.7694 ZZXY=             -0.8543
 N-N= 8.984082933562D+02 E-N=-3.272815474357D+03  KE= 6.305846384963D+02
 No NMR shielding tensors so no spin-rotation constants.
 Leave Link  601 at Sat Jan 24 22:49:23 2026, MaxMem=  2147483648 cpu:               1.8 elap:               0.1
 (Enter /data/home/wyx/g16/l9999.exe)
 1\1\GINC-CN012\SP\RCAM-B3LYP\TZVP\C11H15N1O2\WYX\24-Jan-2026\0\\#p CAM
 -B3LYP TZVP em=gd3bj scrf=(Solvent=Water,NonEquilibrium=Read) Geom=Che
 ck Guess=Read\\Title Card Required\\0,1\O,0,2.710105,-1.559656,0.89441
 9\O,0,-3.32203,-1.667401,-0.855584\N,0,-0.676769,1.516899,-0.096726\H,
 0,-0.985185,2.478547,-0.167257\C,0,-1.253653,-0.765147,-0.178936\C,0,0
 .644569,1.342515,0.184843\C,0,-1.630336,0.582533,-0.305347\C,0,-2.1682
 96,-1.854384,-0.445198\C,0,0.125696,-1.07531,0.245672\H,0,0.100105,-1.
 537583,1.251184\H,0,0.540371,-1.895721,-0.352014\C,0,1.107848,0.027034
 ,0.302259\C,0,2.476757,-0.39707,0.527756\C,0,-2.989216,1.106744,-0.623
 377\H,0,-3.004913,2.194493,-0.558246\H,0,-3.30225,0.816092,-1.624024\H
 ,0,-3.73322,0.706899,0.061788\C,0,-1.691276,-3.274788,-0.251111\H,0,-2
 .559749,-3.921926,-0.162109\H,0,-1.116536,-3.600406,-1.120849\H,0,-1.0
 59872,-3.40507,0.624637\C,0,3.650026,0.520215,0.283519\H,0,3.474105,1.
 243728,-0.507795\H,0,3.906971,1.06605,1.194112\H,0,4.504546,-0.099325,
 0.017952\C,0,1.415097,2.607671,0.374351\H,0,2.112335,2.525993,1.203936
 \H,0,1.985169,2.884692,-0.514271\H,0,0.739601,3.433684,0.596419\\Versi
 on=ES64L-G16RevA.03\State=1-A\HF=-633.3198175\RMSD=1.613e-09\Dipole=0.
 294928,3.4366787,-0.1327216\Quadrupole=-10.5697803,11.2057536,-0.63597
 32,2.8182753,-5.7909239,1.1815896\PG=C01 [X(C11H15N1O2)]\\@


 REPARTEE - WHAT YOU THINK OF AFTER YOU BECOME A DEPARTEE.
 Job cpu time:       0 days  0 hours 14 minutes 38.5 seconds.
 Elapsed time:       0 days  0 hours  0 minutes 55.8 seconds.
 File lengths (MBytes):  RWF=    339 Int=      0 D2E=      0 Chk=     67 Scr=      1
 Normal termination of Gaussian 16 at Sat Jan 24 22:49:23 2026.
