 Entering Gaussian System, Link 0=g16
 Input=DDL-LR-12.gjf
 Output=DDL-LR-12.log
 Initial command:
 /data/home/wyx/g16/l1.exe "/scr/tmp/wyx/13117/Gau-2013818.inp" -scrdir="/scr/tmp/wyx/13117/"
 Entering Link 1 = /data/home/wyx/g16/l1.exe PID=   2013819.
  
 Copyright (c) 1988,1990,1992,1993,1995,1998,2003,2009,2016,
            Gaussian, Inc.  All Rights Reserved.
  
 This is part of the Gaussian(R) 16 program.  It is based on
 the Gaussian(R) 09 system (copyright 2009, Gaussian, Inc.),
 the Gaussian(R) 03 system (copyright 2003, Gaussian, Inc.),
 the Gaussian(R) 98 system (copyright 1998, Gaussian, Inc.),
 the Gaussian(R) 94 system (copyright 1995, Gaussian, Inc.),
 the Gaussian 92(TM) system (copyright 1992, Gaussian, Inc.),
 the Gaussian 90(TM) system (copyright 1990, Gaussian, Inc.),
 the Gaussian 88(TM) system (copyright 1988, Gaussian, Inc.),
 the Gaussian 86(TM) system (copyright 1986, Carnegie Mellon
 University), and the Gaussian 82(TM) system (copyright 1983,
 Carnegie Mellon University). Gaussian is a federally registered
 trademark of Gaussian, Inc.
  
 This software contains proprietary and confidential information,
 including trade secrets, belonging to Gaussian, Inc.
  
 This software is provided under written license and may be
 used, copied, transmitted, or stored only in accord with that
 written license.
  
 The following legend is applicable only to US Government
 contracts under FAR:
  
                    RESTRICTED RIGHTS LEGEND
  
 Use, reproduction and disclosure by the US Government is
 subject to restrictions as set forth in subparagraphs (a)
 and (c) of the Commercial Computer Software - Restricted
 Rights clause in FAR 52.227-19.
  
 Gaussian, Inc.
 340 Quinnipiac St., Bldg. 40, Wallingford CT 06492
  
  
 ---------------------------------------------------------------
 Warning -- This program may not be used in any manner that
 competes with the business of Gaussian, Inc. or will provide
 assistance to any competitor of Gaussian, Inc.  The licensee
 of this program is prohibited from giving any competitor of
 Gaussian, Inc. access to this program.  By using this program,
 the user acknowledges that Gaussian, Inc. is engaged in the
 business of creating and licensing software in the field of
 computational chemistry and represents and warrants to the
 licensee that it is not a competitor of Gaussian, Inc. and that
 it will not use this program in any manner prohibited above.
 ---------------------------------------------------------------
  

 Cite this work as:
 Gaussian 16, Revision A.03,
 M. J. Frisch, G. W. Trucks, H. B. Schlegel, G. E. Scuseria, 
 M. A. Robb, J. R. Cheeseman, G. Scalmani, V. Barone, 
 G. A. Petersson, H. Nakatsuji, X. Li, M. Caricato, A. V. Marenich, 
 J. Bloino, B. G. Janesko, R. Gomperts, B. Mennucci, H. P. Hratchian, 
 J. V. Ortiz, A. F. Izmaylov, J. L. Sonnenberg, D. Williams-Young, 
 F. Ding, F. Lipparini, F. Egidi, J. Goings, B. Peng, A. Petrone, 
 T. Henderson, D. Ranasinghe, V. G. Zakrzewski, J. Gao, N. Rega, 
 G. Zheng, W. Liang, M. Hada, M. Ehara, K. Toyota, R. Fukuda, 
 J. Hasegawa, M. Ishida, T. Nakajima, Y. Honda, O. Kitao, H. Nakai, 
 T. Vreven, K. Throssell, J. A. Montgomery, Jr., J. E. Peralta, 
 F. Ogliaro, M. J. Bearpark, J. J. Heyd, E. N. Brothers, K. N. Kudin, 
 V. N. Staroverov, T. A. Keith, R. Kobayashi, J. Normand, 
 K. Raghavachari, A. P. Rendell, J. C. Burant, S. S. Iyengar, 
 J. Tomasi, M. Cossi, J. M. Millam, M. Klene, C. Adamo, R. Cammi, 
 J. W. Ochterski, R. L. Martin, K. Morokuma, O. Farkas, 
 J. B. Foresman, and D. J. Fox, Gaussian, Inc., Wallingford CT, 2016.
 
 ******************************************
 Gaussian 16:  ES64L-G16RevA.03 25-Dec-2016
                24-Jan-2026 
 ******************************************
 %nprocshared=16
 Will use up to   16 processors via shared memory.
 %mem=16GB
 %chk=DDL-LR-12.chk
 --------------------------------------------------------------------
 #p CAM-B3LYP TZVP em=gd3bj td(nstates=6,root=1) scrf=(Solvent=Water)
 --------------------------------------------------------------------
 1/38=1,172=1/1;
 2/12=2,17=6,18=5,40=1/2;
 3/5=19,7=101,11=9,25=1,30=1,70=2201,72=1,74=-40,124=41/1,2,3,8;
 4//1;
 5/5=2,38=5,53=1/2;
 8/6=1,10=1,107=1,108=6/1;
 9/8=1,41=6,42=1,70=2/14;
 6/7=2,8=2,9=2,10=2/1;
 99/5=1,9=1/99;
 Leave Link    1 at Sat Jan 24 16:26:33 2026, MaxMem=  2147483648 cpu:               0.6 elap:               0.1
 (Enter /data/home/wyx/g16/l101.exe)
 -------------------
 Title Card Required
 -------------------
 Symbolic Z-matrix:
 Charge =  0 Multiplicity = 1
 O                     2.73909  -1.55862   0.77151 
 O                    -3.24535  -1.64577  -1.05983 
 N                    -0.70371   1.51423   0.08083 
 H                    -1.01197   2.47249   0.02098 
 C                    -1.24939  -0.75956  -0.15715 
 C                     0.64158   1.30891   0.26389 
 C                    -1.62169   0.55193  -0.24161 
 C                    -2.15449  -1.83853  -0.52858 
 C                     0.10247  -1.09982   0.39753 
 H                     0.00895  -1.4498    1.43594 
 H                     0.52794  -1.95359  -0.12918 
 C                     1.09614   0.02528   0.34873 
 C                     2.48904  -0.39169   0.46991 
 C                    -2.95042   1.0884   -0.6509 
 H                    -3.03335   2.14653  -0.41209 
 H                    -3.10252   0.96931  -1.72064 
 H                    -3.75777   0.55328  -0.16516 
 C                    -1.71863  -3.25257  -0.25215 
 H                    -2.56165  -3.92322  -0.3766 
 H                    -0.93794  -3.55217  -0.94991 
 H                    -1.31031  -3.36991   0.74819 
 C                     3.64759   0.53549   0.19744 
 H                     3.45307   1.23805  -0.60837 
 H                     3.89654   1.10574   1.09423 
 H                     4.50957  -0.07731  -0.05652 
 C                     1.41726   2.58399   0.35394 
 H                     2.23135   2.51907   1.06488 
 H                     1.83177   2.86383  -0.61438 
 H                     0.76682   3.39604   0.67506 
 
 ITRead=  0  0  0  0  0  0  0  0  0  0  0  0  0  0  0  0  0  0  0  0
 ITRead=  0  0  0  0  0  0  0  0  0
 MicOpt= -1 -1 -1 -1 -1 -1 -1 -1 -1 -1 -1 -1 -1 -1 -1 -1 -1 -1 -1 -1
 MicOpt= -1 -1 -1 -1 -1 -1 -1 -1 -1
 NAtoms=     29 NQM=       29 NQMF=       0 NMMI=      0 NMMIF=      0
                NMic=       0 NMicF=      0.
                    Isotopes and Nuclear Properties:
 (Nuclear quadrupole moments (NQMom) in fm**2, nuclear magnetic moments (NMagM)
  in nuclear magnetons)

  Atom         1           2           3           4           5           6           7           8           9          10
 IAtWgt=          16          16          14           1          12          12          12          12          12           1
 AtmWgt=  15.9949146  15.9949146  14.0030740   1.0078250  12.0000000  12.0000000  12.0000000  12.0000000  12.0000000   1.0078250
 NucSpn=           0           0           2           1           0           0           0           0           0           1
 AtZEff=  -0.0000000  -0.0000000  -0.0000000  -0.0000000  -0.0000000  -0.0000000  -0.0000000  -0.0000000  -0.0000000  -0.0000000
 NQMom=    0.0000000   0.0000000   2.0440000   0.0000000   0.0000000   0.0000000   0.0000000   0.0000000   0.0000000   0.0000000
 NMagM=    0.0000000   0.0000000   0.4037610   2.7928460   0.0000000   0.0000000   0.0000000   0.0000000   0.0000000   2.7928460
 AtZNuc=   8.0000000   8.0000000   7.0000000   1.0000000   6.0000000   6.0000000   6.0000000   6.0000000   6.0000000   1.0000000

  Atom        11          12          13          14          15          16          17          18          19          20
 IAtWgt=           1          12          12          12           1           1           1          12           1           1
 AtmWgt=   1.0078250  12.0000000  12.0000000  12.0000000   1.0078250   1.0078250   1.0078250  12.0000000   1.0078250   1.0078250
 NucSpn=           1           0           0           0           1           1           1           0           1           1
 AtZEff=  -0.0000000  -0.0000000  -0.0000000  -0.0000000  -0.0000000  -0.0000000  -0.0000000  -0.0000000  -0.0000000  -0.0000000
 NQMom=    0.0000000   0.0000000   0.0000000   0.0000000   0.0000000   0.0000000   0.0000000   0.0000000   0.0000000   0.0000000
 NMagM=    2.7928460   0.0000000   0.0000000   0.0000000   2.7928460   2.7928460   2.7928460   0.0000000   2.7928460   2.7928460
 AtZNuc=   1.0000000   6.0000000   6.0000000   6.0000000   1.0000000   1.0000000   1.0000000   6.0000000   1.0000000   1.0000000

  Atom        21          22          23          24          25          26          27          28          29
 IAtWgt=           1          12           1           1           1          12           1           1           1
 AtmWgt=   1.0078250  12.0000000   1.0078250   1.0078250   1.0078250  12.0000000   1.0078250   1.0078250   1.0078250
 NucSpn=           1           0           1           1           1           0           1           1           1
 AtZEff=  -0.0000000  -0.0000000  -0.0000000  -0.0000000  -0.0000000  -0.0000000  -0.0000000  -0.0000000  -0.0000000
 NQMom=    0.0000000   0.0000000   0.0000000   0.0000000   0.0000000   0.0000000   0.0000000   0.0000000   0.0000000
 NMagM=    2.7928460   0.0000000   2.7928460   2.7928460   2.7928460   0.0000000   2.7928460   2.7928460   2.7928460
 AtZNuc=   1.0000000   6.0000000   1.0000000   1.0000000   1.0000000   6.0000000   1.0000000   1.0000000   1.0000000
 Leave Link  101 at Sat Jan 24 16:26:33 2026, MaxMem=  2147483648 cpu:               0.8 elap:               0.1
 (Enter /data/home/wyx/g16/l202.exe)
                          Input orientation:                          
 ---------------------------------------------------------------------
 Center     Atomic      Atomic             Coordinates (Angstroms)
 Number     Number       Type             X           Y           Z
 ---------------------------------------------------------------------
      1          8           0        2.739089   -1.558620    0.771511
      2          8           0       -3.245355   -1.645769   -1.059826
      3          7           0       -0.703705    1.514226    0.080834
      4          1           0       -1.011972    2.472492    0.020982
      5          6           0       -1.249387   -0.759555   -0.157148
      6          6           0        0.641581    1.308914    0.263892
      7          6           0       -1.621687    0.551929   -0.241609
      8          6           0       -2.154488   -1.838532   -0.528575
      9          6           0        0.102470   -1.099823    0.397526
     10          1           0        0.008954   -1.449804    1.435936
     11          1           0        0.527941   -1.953591   -0.129178
     12          6           0        1.096136    0.025281    0.348733
     13          6           0        2.489041   -0.391686    0.469907
     14          6           0       -2.950424    1.088404   -0.650903
     15          1           0       -3.033347    2.146532   -0.412091
     16          1           0       -3.102525    0.969311   -1.720644
     17          1           0       -3.757771    0.553276   -0.165160
     18          6           0       -1.718625   -3.252570   -0.252146
     19          1           0       -2.561654   -3.923218   -0.376604
     20          1           0       -0.937936   -3.552174   -0.949910
     21          1           0       -1.310311   -3.369913    0.748190
     22          6           0        3.647592    0.535486    0.197444
     23          1           0        3.453072    1.238051   -0.608370
     24          1           0        3.896540    1.105737    1.094232
     25          1           0        4.509567   -0.077312   -0.056519
     26          6           0        1.417259    2.583987    0.353938
     27          1           0        2.231353    2.519066    1.064883
     28          1           0        1.831768    2.863832   -0.614382
     29          1           0        0.766824    3.396041    0.675055
 ---------------------------------------------------------------------
                    Distance matrix (angstroms):
                    1          2          3          4          5
     1  O    0.000000
     2  O    6.258990   0.000000
     3  N    4.666074   4.212678   0.000000
     4  H    5.557303   4.807933   1.008407   0.000000
     5  C    4.172392   2.363068   2.350422   3.245647   0.000000
     6  C    3.588867   5.058720   1.373120   2.036457   2.834008
     7  C    4.949464   2.852307   1.368458   2.032060   1.365918
     8  C    5.071062   1.228567   3.703665   4.493582   1.456488
     9  C    2.702243   3.691865   2.753809   3.761011   1.500321
    10  H    2.811928   4.105820   3.336114   4.292877   2.144244
    11  H    2.420004   3.898541   3.686029   4.688720   2.141355
    12  C    2.320943   4.860555   2.351203   3.246595   2.524552
    13  C    1.230944   6.065979   3.738650   4.545563   3.808460
    14  C    6.434326   2.780271   2.400939   2.474818   2.559741
    15  H    6.960609   3.853058   2.463741   2.092787   3.419481
    16  H    6.835622   2.701060   3.049031   3.108573   2.977855
    17  H    6.895408   2.428744   3.211115   3.355213   2.831180
    18  C    4.877351   2.359038   4.885006   5.774971   2.538569
    19  H    5.916702   2.474068   5.764288   6.592776   3.432050
    20  H    4.523059   2.995103   5.175491   6.102845   2.919622
    21  H    4.436098   3.160062   4.966704   5.895043   2.763570
    22  C    2.353765   7.338346   4.461537   5.049224   5.077723
    23  H    3.199252   7.306788   4.222567   4.675099   5.129050
    24  H    2.922779   7.950938   4.728223   5.207050   5.614787
    25  H    2.452448   7.975305   5.452528   6.082343   5.800098
    26  C    4.368386   6.452095   2.391122   2.454476   4.307143
    27  H    4.119634   7.201012   3.254631   3.407500   4.935409
    28  H    4.722501   6.805299   2.955230   2.940016   4.778233
    29  H    5.333648   6.672873   2.461053   2.108286   4.693255
                    6          7          8          9         10
     6  C    0.000000
     7  C    2.439455   0.000000
     8  C    4.283973   2.465873   0.000000
     9  C    2.471945   2.471739   2.548963   0.000000
    10  H    3.063402   3.078974   2.948032   1.099785   0.000000
    11  H    3.288063   3.303206   2.714440   1.089662   1.724161
    12  C    1.364380   2.830622   3.848379   1.501869   2.130693
    13  C    2.519443   4.277236   4.965148   2.490465   2.864203
    14  C    3.713216   1.490258   3.035693   3.899705   4.422139
    15  H    3.829315   2.136494   4.082487   4.585591   5.060082
    16  H    4.251123   2.134159   3.194336   4.363479   5.049497
    17  H    4.484347   2.137452   2.902298   4.236840   4.556759
    18  C    5.161783   3.805748   1.505288   2.893576   3.013987
    19  H    6.168157   4.574790   2.129506   3.958332   4.001388
    20  H    5.253415   4.220529   2.143383   2.985306   3.317954
    21  H    5.092725   4.056785   2.165154   2.696706   2.429048
    22  C    3.104627   5.287565   6.310879   3.909240   4.326075
    23  H    2.944545   5.134049   6.396597   4.207614   4.823453
    24  H    3.365339   5.704560   6.922222   4.443519   4.664855
    25  H    4.121359   6.166237   6.909006   4.546888   4.936261
    26  C    1.495191   3.703934   5.752815   3.911653   4.407438
    27  H    2.152540   4.519122   6.384620   4.251337   4.563843
    28  H    2.146085   4.172554   6.165211   4.441283   5.112134
    29  H    2.130925   3.825471   6.114208   4.553151   4.963418
                   11         12         13         14         15
    11  H    0.000000
    12  C    2.113570   0.000000
    13  C    2.577666   1.459016   0.000000
    14  C    4.650264   4.301645   5.747579   0.000000
    15  H    5.438182   4.704380   6.141436   1.087907   0.000000
    16  H    4.925079   4.775172   6.157632   1.087044   1.761518
    17  H    4.965179   4.909509   6.349718   1.083567   1.767549
    18  C    2.597985   4.362137   5.139112   4.529944   5.559171
    19  H    3.672363   5.431039   6.220757   5.034157   6.088154
    20  H    2.319022   4.315334   4.873267   5.066999   6.095510
    21  H    2.480910   4.180657   4.835530   4.952173   5.894597
    22  C    4.004299   2.606362   1.508683   6.675270   6.899417
    23  H    4.355754   2.818156   2.179009   6.405386   6.552671
    24  H    4.712078   3.092801   2.147815   7.065884   7.167677
    25  H    4.402164   3.438934   2.111511   7.573880   7.871942
    26  C    4.649075   2.578783   3.164932   4.724736   4.537186
    27  H    4.932753   2.832058   2.982093   5.642830   5.480630
    28  H    5.014275   3.086441   3.493721   5.101259   4.921868
    29  H    5.415018   3.402493   4.165932   4.571792   4.145414
                   16         17         18         19         20
    16  H    0.000000
    17  H    1.738379   0.000000
    18  C    4.679310   4.318582   0.000000
    19  H    5.102531   4.638362   1.084415   0.000000
    20  H    5.071815   5.042026   1.089088   1.761481   0.000000
    21  H    5.304341   4.713351   1.086813   1.771205   1.747978
    22  C    7.030743   7.414256   6.583903   7.665788   6.249196
    23  H    6.654715   7.256832   6.858500   7.929019   6.507216
    24  H    7.545134   7.776873   7.234477   8.316370   7.017607
    25  H    7.861849   8.292064   6.993633   8.055781   6.522891
    26  C    5.228720   5.583385   6.653308   7.662190   6.700704
    27  H    6.213788   6.422378   7.116788   8.158053   7.138889
    28  H    5.400025   6.064933   7.081446   8.088433   6.996354
    29  H    5.157543   5.409181   7.158295   8.109026   7.336512
                   21         22         23         24         25
    21  H    0.000000
    22  C    6.335319   0.000000
    23  H    6.764865   1.086633   0.000000
    24  H    6.874772   1.091508   1.764376   0.000000
    25  H    6.734965   1.087667   1.775078   1.760578   0.000000
    26  C    6.560792   3.032364   2.623379   2.979948   4.100409
    27  H    6.879226   2.587039   2.435851   2.184309   3.631664
    28  H    7.112583   3.062266   2.296046   3.205237   4.016484
    29  H    7.077992   4.087751   3.676959   3.900811   5.158246
                   26         27         28         29
    26  C    0.000000
    27  H    1.082777   0.000000
    28  H    1.089851   1.760245   0.000000
    29  H    1.088859   1.750970   1.754993   0.000000
 Stoichiometry    C11H15NO2
 Framework group  C1[X(C11H15NO2)]
 Deg. of freedom    81
 Full point group                 C1      NOp   1
 Largest Abelian subgroup         C1      NOp   1
 Largest concise Abelian subgroup C1      NOp   1
                         Standard orientation:                         
 ---------------------------------------------------------------------
 Center     Atomic      Atomic             Coordinates (Angstroms)
 Number     Number       Type             X           Y           Z
 ---------------------------------------------------------------------
      1          8           0       -2.287139   -2.281933   -0.203336
      2          8           0        3.599485   -0.249892    0.423906
      3          7           0       -0.025806    1.799557   -0.211459
      4          1           0       -0.055336    2.807516   -0.217003
      5          6           0        1.292247   -0.141742   -0.075141
      6          6           0       -1.231138    1.147214   -0.127305
      7          6           0        1.206526    1.221476   -0.070541
      8          6           0        2.561191   -0.830428    0.116823
      9          6           0        0.058832   -0.949279   -0.353589
     10          1           0        0.074412   -1.320303   -1.388783
     11          1           0        0.051746   -1.856693    0.249663
     12          6           0       -1.230843   -0.217121   -0.116325
     13          6           0       -2.397063   -1.080037    0.038711
     14          6           0        2.325553    2.195729    0.069024
     15          1           0        1.999714    3.201923   -0.185820
     16          1           0        2.701429    2.209167    1.088926
     17          1           0        3.163515    1.926128   -0.562839
     18          6           0        2.588011   -2.324672   -0.063196
     19          1           0        3.616159   -2.667138   -0.103025
     20          1           0        2.096379   -2.816627    0.774891
     21          1           0        2.068510   -2.640679   -0.963985
     22          6           0       -3.730995   -0.573106    0.528375
     23          1           0       -3.642733    0.208868    1.277707
     24          1           0       -4.317693   -0.182128   -0.304878
     25          1           0       -4.272391   -1.417784    0.948412
     26          6           0       -2.395810    2.083048   -0.069419
     27          1           0       -3.254797    1.702011   -0.607340
     28          1           0       -2.696636    2.276672    0.960041
     29          1           0       -2.129461    3.040277   -0.514822
 ---------------------------------------------------------------------
 Rotational constants (GHZ):           1.0786643           0.4907898           0.3461667
 Leave Link  202 at Sat Jan 24 16:26:33 2026, MaxMem=  2147483648 cpu:               0.0 elap:               0.0
 (Enter /data/home/wyx/g16/l301.exe)
 Standard basis: TZVP (5D, 7F)
 Ernie: Thresh=  0.10000D-02 Tol=  0.10000D-05 Strict=F.
 There are   370 symmetry adapted cartesian basis functions of A   symmetry.
 There are   356 symmetry adapted basis functions of A   symmetry.
   356 basis functions,   610 primitive gaussians,   370 cartesian basis functions
    52 alpha electrons       52 beta electrons
       nuclear repulsion energy       900.7854429471 Hartrees.
 IExCor=20419 DFT=T Ex+Corr=CAM-B3LYP ExCW=0 ScaHFX=  1.000000
 ScaDFX=  1.000000  1.000000  1.000000  0.810000 ScalE2=  1.000000  1.000000
 IRadAn=      5 IRanWt=     -1 IRanGd=            0 ICorTp=0 IEmpDi=141
 HFx  wShort=  0.000000 wLong=  0.330000 cFull=  0.190000 cShort=  0.000000 cLong=  0.460000
 DFx  wShort=  0.000000 wLong=  0.330000 cFull=  0.190000 cShort=  0.000000 cLong=  0.460000
 NAtoms=   29 NActive=   29 NUniq=   29 SFac= 1.00D+00 NAtFMM=   60 NAOKFM=F Big=F
 Integral buffers will be    131072 words long.
 Raffenetti 1 integral format.
 Two-electron integral symmetry is turned on.
 R6Disp:  Grimme-D3(BJ) Dispersion energy=       -0.0262018423 Hartrees.
 Nuclear repulsion after empirical dispersion term =      900.7592411048 Hartrees.
 ------------------------------------------------------------------------------
 Polarizable Continuum Model (PCM)
 =================================
 Model                : PCM.
 Atomic radii         : UFF (Universal Force Field).
 Polarization charges : Total charges.
 Charge compensation  : None.
 Solution method      : On-the-fly selection.
 Cavity type          : Scaled VdW (van der Waals Surface) (Alpha=1.100).
 Cavity algorithm     : GePol (No added spheres)
                        Default sphere list used, NSphG=   29.
                        Lebedev-Laikov grids with approx.  5.0 points / Ang**2.
                        Smoothing algorithm: York/Karplus (Gamma=1.0000).
                        Polarization charges: spherical gaussians, with
                                              point-specific exponents (IZeta= 3).
                        Self-potential: point-specific (ISelfS= 7).
                        Self-field    : sphere-specific E.n sum rule (ISelfD= 2).
 Solvent              : Water, Eps=  78.355300 Eps(inf)=   1.777849
 ------------------------------------------------------------------------------
 GePol: Number of generator spheres                  =      29
 GePol: Total number of spheres                      =      29
 GePol: Number of exposed spheres                    =      29 (100.00%)
 GePol: Number of points                             =    2111
 GePol: Average weight of points                     =       0.13
 GePol: Minimum weight of points                     =   0.25D-11
 GePol: Maximum weight of points                     =    0.20577
 GePol: Number of points with low weight             =     158
 GePol: Fraction of low-weight points (<1% of avg)   =       7.48%
 GePol: Cavity surface area                          =    268.533 Ang**2
 GePol: Cavity volume                                =    286.631 Ang**3
 Leave Link  301 at Sat Jan 24 16:26:34 2026, MaxMem=  2147483648 cpu:               0.6 elap:               0.0
 (Enter /data/home/wyx/g16/l302.exe)
 NPDir=0 NMtPBC=     1 NCelOv=     1 NCel=       1 NClECP=     1 NCelD=      1
         NCelK=      1 NCelE2=     1 NClLst=     1 CellRange=     0.0.
 One-electron integrals computed using PRISM.
 One-electron integral symmetry used in STVInt
 NBasis=   356 RedAO= T EigKep=  4.69D-05  NBF=   356
 NBsUse=   356 1.00D-06 EigRej= -1.00D+00 NBFU=   356
 Precomputing XC quadrature grid using
 IXCGrd= 4 IRadAn=           5 IRanWt=          -1 IRanGd=           0 AccXCQ= 0.00D+00.
 Generated NRdTot=       0 NPtTot=           0 NUsed=           0 NTot=          32
 NSgBfM=   366   366   366   366   366 MxSgAt=    29 MxSgA2=    29.
 Leave Link  302 at Sat Jan 24 16:26:37 2026, MaxMem=  2147483648 cpu:               3.1 elap:               0.2
 (Enter /data/home/wyx/g16/l303.exe)
 DipDrv:  MaxL=1.
 Leave Link  303 at Sat Jan 24 16:26:38 2026, MaxMem=  2147483648 cpu:               0.6 elap:               0.0
 (Enter /data/home/wyx/g16/l308.exe)
 Leave Link  308 at Sat Jan 24 16:26:39 2026, MaxMem=  2147483648 cpu:               0.7 elap:               0.1
 (Enter /data/home/wyx/g16/l401.exe)
 ExpMin= 9.52D-02 ExpMax= 2.70D+04 ExpMxC= 9.22D+02 IAcc=3 IRadAn=         5 AccDes= 0.00D+00
 Harris functional with IExCor=20419 and IRadAn=       5 diagonalized for initial guess.
 HarFok:  IExCor=20419 AccDes= 0.00D+00 IRadAn=         5 IDoV= 1 UseB2=F ITyADJ=14
 ICtDFT=  3500011 ScaDFX=  1.000000  1.000000  1.000000  1.000000
 FoFCou: FMM=F IPFlag=           0 FMFlag=      100000 FMFlg1=           0
         NFxFlg=           0 DoJE=T BraDBF=F KetDBF=T FulRan=T
         wScrn=  0.000000 ICntrl=       500 IOpCl=  0 I1Cent=   200000004 NGrid=           0
         NMat0=    1 NMatS0=      1 NMatT0=    0 NMatD0=    1 NMtDS0=    0 NMtDT0=    0
 Petite list used in FoFCou.
 Harris En= -608.712326047487    
 JPrj=0 DoOrth=F DoCkMO=F.
 Leave Link  401 at Sat Jan 24 16:26:40 2026, MaxMem=  2147483648 cpu:              11.8 elap:               0.8
 (Enter /data/home/wyx/g16/l502.exe)
 Integral symmetry usage will be decided dynamically.
 Closed shell SCF:
 Using DIIS extrapolation, IDIIS=  1040.
 NGot=  2147483648 LenX=  2147200095 LenY=  2147062754
 Requested convergence on RMS density matrix=1.00D-08 within 128 cycles.
 Requested convergence on MAX density matrix=1.00D-06.
 Requested convergence on             energy=1.00D-06.
 No special actions if energy rises.
 Fock matrices will be formed incrementally for  20 cycles.

 Cycle   1  Pass 1  IDiag  1:
 FoFJK:  IHMeth= 1 ICntrl=       0 DoSepK=T KAlg= 0 I1Cent=           0 FoldK=F
 IRaf=         1 NMat=       1 IRICut=       1 DoRegI=T DoRafI=F ISym2E= 0 IDoP0=0 IntGTp=1.
 FoFCou: FMM=F IPFlag=           0 FMFlag=      100000 FMFlg1=           0
         NFxFlg=           0 DoJE=T BraDBF=F KetDBF=F FulRan=T
         wScrn=  0.000000 ICntrl=       500 IOpCl=  0 I1Cent=           0 NGrid=           0
         NMat0=    1 NMatS0=      1 NMatT0=    0 NMatD0=    1 NMtDS0=    0 NMtDT0=    0
 Symmetry not used in FoFCou.
 Inv3:  Mode=1 IEnd=    13368963.
 Iteration    1 A*A^-1 deviation from unit magnitude is 3.22D-15 for   1651.
 Iteration    1 A*A^-1 deviation from orthogonality  is 2.18D-15 for   1798    252.
 Iteration    1 A^-1*A deviation from unit magnitude is 3.33D-15 for    507.
 Iteration    1 A^-1*A deviation from orthogonality  is 1.58D-15 for   1877   1494.
 E= -633.134195614554    
 DIIS: error= 4.16D-02 at cycle   1 NSaved=   1.
 NSaved= 1 IEnMin= 1 EnMin= -633.134195614554     IErMin= 1 ErrMin= 4.16D-02
 ErrMax= 4.16D-02  0.00D+00 EMaxC= 1.00D-01 BMatC= 1.09D+00 BMatP= 1.09D+00
 IDIUse=3 WtCom= 5.84D-01 WtEn= 4.16D-01
 Coeff-Com:  0.100D+01
 Coeff-En:   0.100D+01
 Coeff:      0.100D+01
 Gap=     0.224 Goal=   None    Shift=    0.000
 GapD=    0.224 DampG=1.000 DampE=0.500 DampFc=0.5000 IDamp=-1.
 Damping current iteration by 5.00D-01
 RMSDP=4.04D-03 MaxDP=1.92D-01              OVMax= 1.42D-01

 Cycle   2  Pass 1  IDiag  1:
 RMSU=  1.77D-03    CP:  9.29D-01
 E= -633.229713833814     Delta-E=       -0.095518219260 Rises=F Damp=T
 DIIS: error= 1.90D-02 at cycle   2 NSaved=   2.
 NSaved= 2 IEnMin= 2 EnMin= -633.229713833814     IErMin= 2 ErrMin= 1.90D-02
 ErrMax= 1.90D-02  0.00D+00 EMaxC= 1.00D-01 BMatC= 2.23D-01 BMatP= 1.09D+00
 IDIUse=3 WtCom= 8.10D-01 WtEn= 1.90D-01
 Coeff-Com: -0.593D+00 0.159D+01
 Coeff-En:   0.000D+00 0.100D+01
 Coeff:     -0.480D+00 0.148D+01
 Gap=     0.241 Goal=   None    Shift=    0.000
 RMSDP=1.44D-03 MaxDP=4.47D-02 DE=-9.55D-02 OVMax= 1.35D-01

 Cycle   3  Pass 1  IDiag  1:
 RMSU=  1.34D-03    CP:  9.05D-01  1.24D+00
 E= -633.278430768396     Delta-E=       -0.048716934582 Rises=F Damp=F
 DIIS: error= 1.12D-02 at cycle   3 NSaved=   3.
 NSaved= 3 IEnMin= 3 EnMin= -633.278430768396     IErMin= 3 ErrMin= 1.12D-02
 ErrMax= 1.12D-02  0.00D+00 EMaxC= 1.00D-01 BMatC= 6.39D-02 BMatP= 2.23D-01
 IDIUse=3 WtCom= 8.88D-01 WtEn= 1.12D-01
 Coeff-Com: -0.364D+00 0.797D+00 0.567D+00
 Coeff-En:   0.000D+00 0.000D+00 0.100D+01
 Coeff:     -0.323D+00 0.708D+00 0.615D+00
 Gap=     0.236 Goal=   None    Shift=    0.000
 RMSDP=1.34D-03 MaxDP=7.51D-02 DE=-4.87D-02 OVMax= 7.52D-02

 Cycle   4  Pass 1  IDiag  1:
 RMSU=  4.94D-04    CP:  8.57D-01  1.73D+00  5.46D-01
 E= -633.326699505453     Delta-E=       -0.048268737057 Rises=F Damp=F
 DIIS: error= 3.62D-03 at cycle   4 NSaved=   4.
 NSaved= 4 IEnMin= 4 EnMin= -633.326699505453     IErMin= 4 ErrMin= 3.62D-03
 ErrMax= 3.62D-03  0.00D+00 EMaxC= 1.00D-01 BMatC= 6.35D-03 BMatP= 6.39D-02
 IDIUse=3 WtCom= 9.64D-01 WtEn= 3.62D-02
 Coeff-Com: -0.168D+00 0.364D+00 0.355D+00 0.448D+00
 Coeff-En:   0.000D+00 0.000D+00 0.451D-03 0.100D+01
 Coeff:     -0.162D+00 0.351D+00 0.343D+00 0.468D+00
 Gap=     0.232 Goal=   None    Shift=    0.000
 RMSDP=3.16D-04 MaxDP=1.98D-02 DE=-4.83D-02 OVMax= 1.46D-02

 Cycle   5  Pass 1  IDiag  1:
 RMSU=  9.51D-05    CP:  8.68D-01  1.67D+00  6.74D-01  6.61D-01
 E= -633.331534402931     Delta-E=       -0.004834897478 Rises=F Damp=F
 DIIS: error= 4.17D-04 at cycle   5 NSaved=   5.
 NSaved= 5 IEnMin= 5 EnMin= -633.331534402931     IErMin= 5 ErrMin= 4.17D-04
 ErrMax= 4.17D-04  0.00D+00 EMaxC= 1.00D-01 BMatC= 6.27D-05 BMatP= 6.35D-03
 IDIUse=3 WtCom= 9.96D-01 WtEn= 4.17D-03
 Coeff-Com: -0.281D-01 0.600D-01 0.695D-01 0.143D+00 0.755D+00
 Coeff-En:   0.000D+00 0.000D+00 0.000D+00 0.000D+00 0.100D+01
 Coeff:     -0.280D-01 0.598D-01 0.692D-01 0.143D+00 0.756D+00
 Gap=     0.233 Goal=   None    Shift=    0.000
 RMSDP=1.12D-04 MaxDP=6.26D-03 DE=-4.83D-03 OVMax= 1.78D-03

 Cycle   6  Pass 1  IDiag  1:
 RMSU=  4.87D-05    CP:  8.63D-01  1.69D+00  6.80D-01  7.81D-01  1.13D+00
 E= -633.331572500084     Delta-E=       -0.000038097153 Rises=F Damp=F
 DIIS: error= 3.73D-04 at cycle   6 NSaved=   6.
 NSaved= 6 IEnMin= 6 EnMin= -633.331572500084     IErMin= 6 ErrMin= 3.73D-04
 ErrMax= 3.73D-04  0.00D+00 EMaxC= 1.00D-01 BMatC= 2.34D-05 BMatP= 6.27D-05
 IDIUse=3 WtCom= 9.96D-01 WtEn= 3.73D-03
 Coeff-Com:  0.173D-01-0.377D-01-0.297D-01-0.971D-02 0.441D+00 0.619D+00
 Coeff-En:   0.000D+00 0.000D+00 0.000D+00 0.000D+00 0.142D+00 0.858D+00
 Coeff:      0.172D-01-0.376D-01-0.296D-01-0.967D-02 0.440D+00 0.619D+00
 Gap=     0.233 Goal=   None    Shift=    0.000
 RMSDP=2.43D-05 MaxDP=9.26D-04 DE=-3.81D-05 OVMax= 2.75D-03

 Cycle   7  Pass 1  IDiag  1:
 RMSU=  1.71D-05    CP:  8.63D-01  1.70D+00  6.83D-01  7.79D-01  1.24D+00
                    CP:  7.82D-01
 E= -633.331594186278     Delta-E=       -0.000021686193 Rises=F Damp=F
 DIIS: error= 3.76D-05 at cycle   7 NSaved=   7.
 NSaved= 7 IEnMin= 7 EnMin= -633.331594186278     IErMin= 7 ErrMin= 3.76D-05
 ErrMax= 3.76D-05  0.00D+00 EMaxC= 1.00D-01 BMatC= 7.64D-07 BMatP= 2.34D-05
 IDIUse=1 WtCom= 1.00D+00 WtEn= 0.00D+00
 Coeff-Com:  0.362D-02-0.779D-02-0.691D-02-0.105D-01-0.871D-02 0.133D+00
 Coeff-Com:  0.897D+00
 Coeff:      0.362D-02-0.779D-02-0.691D-02-0.105D-01-0.871D-02 0.133D+00
 Coeff:      0.897D+00
 Gap=     0.233 Goal=   None    Shift=    0.000
 RMSDP=1.55D-05 MaxDP=8.36D-04 DE=-2.17D-05 OVMax= 6.36D-04

 Cycle   8  Pass 1  IDiag  1:
 RMSU=  4.62D-06    CP:  8.63D-01  1.70D+00  6.85D-01  7.96D-01  1.29D+00
                    CP:  9.16D-01  1.07D+00
 E= -633.331595409684     Delta-E=       -0.000001223406 Rises=F Damp=F
 DIIS: error= 2.28D-05 at cycle   8 NSaved=   8.
 NSaved= 8 IEnMin= 8 EnMin= -633.331595409684     IErMin= 8 ErrMin= 2.28D-05
 ErrMax= 2.28D-05  0.00D+00 EMaxC= 1.00D-01 BMatC= 1.01D-07 BMatP= 7.64D-07
 IDIUse=1 WtCom= 1.00D+00 WtEn= 0.00D+00
 Coeff-Com: -0.561D-03 0.128D-02 0.714D-03-0.374D-02-0.637D-01-0.150D-01
 Coeff-Com:  0.306D+00 0.775D+00
 Coeff:     -0.561D-03 0.128D-02 0.714D-03-0.374D-02-0.637D-01-0.150D-01
 Coeff:      0.306D+00 0.775D+00
 Gap=     0.233 Goal=   None    Shift=    0.000
 RMSDP=4.14D-06 MaxDP=2.35D-04 DE=-1.22D-06 OVMax= 3.75D-04

 Cycle   9  Pass 1  IDiag  1:
 RMSU=  1.29D-06    CP:  8.63D-01  1.70D+00  6.85D-01  8.00D-01  1.31D+00
                    CP:  9.47D-01  1.17D+00  1.23D+00
 E= -633.331595587183     Delta-E=       -0.000000177499 Rises=F Damp=F
 DIIS: error= 4.35D-06 at cycle   9 NSaved=   9.
 NSaved= 9 IEnMin= 9 EnMin= -633.331595587183     IErMin= 9 ErrMin= 4.35D-06
 ErrMax= 4.35D-06  0.00D+00 EMaxC= 1.00D-01 BMatC= 1.58D-08 BMatP= 1.01D-07
 IDIUse=1 WtCom= 1.00D+00 WtEn= 0.00D+00
 Coeff-Com: -0.846D-03 0.184D-02 0.157D-02 0.453D-03-0.218D-01-0.195D-01
 Coeff-Com: -0.395D-01 0.277D+00 0.801D+00
 Coeff:     -0.846D-03 0.184D-02 0.157D-02 0.453D-03-0.218D-01-0.195D-01
 Coeff:     -0.395D-01 0.277D+00 0.801D+00
 Gap=     0.233 Goal=   None    Shift=    0.000
 RMSDP=1.87D-06 MaxDP=1.11D-04 DE=-1.77D-07 OVMax= 1.12D-04

 Cycle  10  Pass 1  IDiag  1:
 RMSU=  7.54D-07    CP:  8.63D-01  1.70D+00  6.85D-01  8.01D-01  1.31D+00
                    CP:  9.66D-01  1.20D+00  1.36D+00  1.15D+00
 E= -633.331595611172     Delta-E=       -0.000000023990 Rises=F Damp=F
 DIIS: error= 1.66D-06 at cycle  10 NSaved=  10.
 NSaved=10 IEnMin=10 EnMin= -633.331595611172     IErMin=10 ErrMin= 1.66D-06
 ErrMax= 1.66D-06  0.00D+00 EMaxC= 1.00D-01 BMatC= 1.17D-09 BMatP= 1.58D-08
 IDIUse=1 WtCom= 1.00D+00 WtEn= 0.00D+00
 Coeff-Com: -0.213D-03 0.458D-03 0.427D-03 0.341D-03-0.254D-02-0.376D-02
 Coeff-Com: -0.394D-01 0.332D-01 0.251D+00 0.760D+00
 Coeff:     -0.213D-03 0.458D-03 0.427D-03 0.341D-03-0.254D-02-0.376D-02
 Coeff:     -0.394D-01 0.332D-01 0.251D+00 0.760D+00
 Gap=     0.233 Goal=   None    Shift=    0.000
 RMSDP=4.15D-07 MaxDP=2.05D-05 DE=-2.40D-08 OVMax= 2.94D-05

 Cycle  11  Pass 1  IDiag  1:
 RMSU=  2.52D-07    CP:  8.63D-01  1.70D+00  6.85D-01  8.02D-01  1.31D+00
                    CP:  9.68D-01  1.20D+00  1.40D+00  1.24D+00  8.75D-01
 E= -633.331595612608     Delta-E=       -0.000000001436 Rises=F Damp=F
 DIIS: error= 1.19D-06 at cycle  11 NSaved=  11.
 NSaved=11 IEnMin=11 EnMin= -633.331595612608     IErMin=11 ErrMin= 1.19D-06
 ErrMax= 1.19D-06  0.00D+00 EMaxC= 1.00D-01 BMatC= 4.20D-10 BMatP= 1.17D-09
 IDIUse=1 WtCom= 1.00D+00 WtEn= 0.00D+00
 Coeff-Com:  0.204D-04-0.475D-04-0.162D-04 0.112D-03 0.220D-02 0.147D-02
 Coeff-Com: -0.161D-01-0.264D-01-0.235D-02 0.429D+00 0.612D+00
 Coeff:      0.204D-04-0.475D-04-0.162D-04 0.112D-03 0.220D-02 0.147D-02
 Coeff:     -0.161D-01-0.264D-01-0.235D-02 0.429D+00 0.612D+00
 Gap=     0.233 Goal=   None    Shift=    0.000
 RMSDP=1.84D-07 MaxDP=1.10D-05 DE=-1.44D-09 OVMax= 9.25D-06

 Cycle  12  Pass 1  IDiag  1:
 RMSU=  8.62D-08    CP:  8.63D-01  1.70D+00  6.85D-01  8.02D-01  1.31D+00
                    CP:  9.69D-01  1.20D+00  1.41D+00  1.26D+00  1.00D+00
                    CP:  8.06D-01
 E= -633.331595612990     Delta-E=       -0.000000000382 Rises=F Damp=F
 DIIS: error= 2.41D-07 at cycle  12 NSaved=  12.
 NSaved=12 IEnMin=12 EnMin= -633.331595612990     IErMin=12 ErrMin= 2.41D-07
 ErrMax= 2.41D-07  0.00D+00 EMaxC= 1.00D-01 BMatC= 2.91D-11 BMatP= 4.20D-10
 IDIUse=1 WtCom= 1.00D+00 WtEn= 0.00D+00
 Coeff-Com:  0.244D-04-0.540D-04-0.373D-04 0.269D-04 0.120D-02 0.991D-03
 Coeff-Com: -0.403D-02-0.139D-01-0.271D-01 0.130D+00 0.277D+00 0.636D+00
 Coeff:      0.244D-04-0.540D-04-0.373D-04 0.269D-04 0.120D-02 0.991D-03
 Coeff:     -0.403D-02-0.139D-01-0.271D-01 0.130D+00 0.277D+00 0.636D+00
 Gap=     0.233 Goal=   None    Shift=    0.000
 RMSDP=3.79D-08 MaxDP=1.59D-06 DE=-3.82D-10 OVMax= 1.69D-06

 Cycle  13  Pass 1  IDiag  1:
 RMSU=  2.11D-08    CP:  8.63D-01  1.70D+00  6.85D-01  8.02D-01  1.31D+00
                    CP:  9.69D-01  1.20D+00  1.42D+00  1.27D+00  1.01D+00
                    CP:  8.94D-01  9.91D-01
 E= -633.331595613005     Delta-E=       -0.000000000015 Rises=F Damp=F
 DIIS: error= 6.10D-08 at cycle  13 NSaved=  13.
 NSaved=13 IEnMin=13 EnMin= -633.331595613005     IErMin=13 ErrMin= 6.10D-08
 ErrMax= 6.10D-08  0.00D+00 EMaxC= 1.00D-01 BMatC= 2.56D-12 BMatP= 2.91D-11
 IDIUse=1 WtCom= 1.00D+00 WtEn= 0.00D+00
 Coeff-Com:  0.555D-05-0.118D-04-0.115D-04-0.129D-04 0.254D-04 0.887D-04
 Coeff-Com:  0.136D-02 0.551D-03-0.106D-01-0.285D-01-0.134D-01 0.208D+00
 Coeff-Com:  0.842D+00
 Coeff:      0.555D-05-0.118D-04-0.115D-04-0.129D-04 0.254D-04 0.887D-04
 Coeff:      0.136D-02 0.551D-03-0.106D-01-0.285D-01-0.134D-01 0.208D+00
 Coeff:      0.842D+00
 Gap=     0.233 Goal=   None    Shift=    0.000
 RMSDP=1.70D-08 MaxDP=1.31D-06 DE=-1.51D-11 OVMax= 1.21D-06

 Cycle  14  Pass 1  IDiag  1:
 RMSU=  9.99D-09    CP:  8.63D-01  1.70D+00  6.85D-01  8.02D-01  1.31D+00
                    CP:  9.69D-01  1.20D+00  1.42D+00  1.27D+00  1.02D+00
                    CP:  9.20D-01  1.10D+00  1.04D+00
 E= -633.331595613019     Delta-E=       -0.000000000014 Rises=F Damp=F
 DIIS: error= 2.73D-08 at cycle  14 NSaved=  14.
 NSaved=14 IEnMin=14 EnMin= -633.331595613019     IErMin=14 ErrMin= 2.73D-08
 ErrMax= 2.73D-08  0.00D+00 EMaxC= 1.00D-01 BMatC= 1.87D-13 BMatP= 2.56D-12
 IDIUse=1 WtCom= 1.00D+00 WtEn= 0.00D+00
 Coeff-Com: -0.585D-06 0.141D-05 0.517D-06-0.436D-05-0.776D-04-0.401D-04
 Coeff-Com:  0.522D-03 0.130D-02-0.265D-03-0.139D-01-0.221D-01-0.149D-01
 Coeff-Com:  0.146D+00 0.904D+00
 Coeff:     -0.585D-06 0.141D-05 0.517D-06-0.436D-05-0.776D-04-0.401D-04
 Coeff:      0.522D-03 0.130D-02-0.265D-03-0.139D-01-0.221D-01-0.149D-01
 Coeff:      0.146D+00 0.904D+00
 Gap=     0.233 Goal=   None    Shift=    0.000
 RMSDP=5.03D-09 MaxDP=2.38D-07 DE=-1.36D-11 OVMax= 6.10D-07

 Error on total polarization charges =  0.01548
 SCF Done:  E(RCAM-B3LYP) =  -633.331595613     A.U. after   14 cycles
            NFock= 14  Conv=0.50D-08     -V/T= 2.0041
 KE= 6.307309667097D+02 PE=-3.277595896758D+03 EE= 1.112774093331D+03
 Leave Link  502 at Sat Jan 24 16:27:36 2026, MaxMem=  2147483648 cpu:             875.6 elap:              55.2
 (Enter /data/home/wyx/g16/l801.exe)
 DoSCS=F DFT=T ScalE2(SS,OS)=  1.000000  1.000000
 ExpMin= 9.52D-02 ExpMax= 2.70D+04 ExpMxC= 9.22D+02 IAcc=3 IRadAn=         5 AccDes= 0.00D+00
 HarFok:  IExCor=  205 AccDes= 0.00D+00 IRadAn=         5 IDoV=-2 UseB2=F ITyADJ=14
 ICtDFT= 12500011 ScaDFX=  1.000000  1.000000  1.000000  1.000000
 Largest valence mixing into a core orbital is  5.63D-05
 Largest core mixing into a valence orbital is  1.19D-05
 Range of M.O.s used for correlation:    15   356
 NBasis=   356 NAE=    52 NBE=    52 NFC=    14 NFV=     0
 NROrb=    342 NOA=    38 NOB=    38 NVA=   304 NVB=   304

 **** Warning!!: The largest alpha MO coefficient is  0.56311029D+02

 Leave Link  801 at Sat Jan 24 16:27:36 2026, MaxMem=  2147483648 cpu:               1.0 elap:               0.1
 (Enter /data/home/wyx/g16/l914.exe)
 RHF ground state
 Two-electron integrals replicated using symmetry.
 MDV=  2147483648 DFT=T DoStab=F Mixed=T DoRPA=T DoScal=F NonHer=T
 NEqPCM:  Using non-equilibrium solvation (IEInf=1, Eps=  78.3553, EpsInf=   1.7778)
 Inv3:  Mode=1 IEnd=    13368963.
 Iteration    1 A*A^-1 deviation from unit magnitude is 3.77D-15 for    690.
 Iteration    1 A*A^-1 deviation from orthogonality  is 3.99D-15 for   1712    514.
 Iteration    1 A^-1*A deviation from unit magnitude is 3.33D-15 for    690.
 Iteration    1 A^-1*A deviation from orthogonality  is 1.59D-15 for   1331    405.
 Making orbital integer symmetry assigments:
 Orbital symmetries:
       Occupied  (A) (A) (A) (A) (A) (A) (A) (A) (A) (A) (A) (A)
                 (A) (A) (A) (A) (A) (A) (A) (A) (A) (A) (A) (A)
                 (A) (A) (A) (A) (A) (A) (A) (A) (A) (A) (A) (A)
                 (A) (A) (A) (A) (A) (A) (A) (A) (A) (A) (A) (A)
                 (A) (A) (A) (A)
       Virtual   (A) (A) (A) (A) (A) (A) (A) (A) (A) (A) (A) (A)
                 (A) (A) (A) (A) (A) (A) (A) (A) (A) (A) (A) (A)
                 (A) (A) (A) (A) (A) (A) (A) (A) (A) (A) (A) (A)
                 (A) (A) (A) (A) (A) (A) (A) (A) (A) (A) (A) (A)
                 (A) (A) (A) (A) (A) (A) (A) (A) (A) (A) (A) (A)
                 (A) (A) (A) (A) (A) (A) (A) (A) (A) (A) (A) (A)
                 (A) (A) (A) (A) (A) (A) (A) (A) (A) (A) (A) (A)
                 (A) (A) (A) (A) (A) (A) (A) (A) (A) (A) (A) (A)
                 (A) (A) (A) (A) (A) (A) (A) (A) (A) (A) (A) (A)
                 (A) (A) (A) (A) (A) (A) (A) (A) (A) (A) (A) (A)
                 (A) (A) (A) (A) (A) (A) (A) (A) (A) (A) (A) (A)
                 (A) (A) (A) (A) (A) (A) (A) (A) (A) (A) (A) (A)
                 (A) (A) (A) (A) (A) (A) (A) (A) (A) (A) (A) (A)
                 (A) (A) (A) (A) (A) (A) (A) (A) (A) (A) (A) (A)
                 (A) (A) (A) (A) (A) (A) (A) (A) (A) (A) (A) (A)
                 (A) (A) (A) (A) (A) (A) (A) (A) (A) (A) (A) (A)
                 (A) (A) (A) (A) (A) (A) (A) (A) (A) (A) (A) (A)
                 (A) (A) (A) (A) (A) (A) (A) (A) (A) (A) (A) (A)
                 (A) (A) (A) (A) (A) (A) (A) (A) (A) (A) (A) (A)
                 (A) (A) (A) (A) (A) (A) (A) (A) (A) (A) (A) (A)
                 (A) (A) (A) (A) (A) (A) (A) (A) (A) (A) (A) (A)
                 (A) (A) (A) (A) (A) (A) (A) (A) (A) (A) (A) (A)
                 (A) (A) (A) (A) (A) (A) (A) (A) (A) (A) (A) (A)
                 (A) (A) (A) (A) (A) (A) (A) (A) (A) (A) (A) (A)
                 (A) (A) (A) (A) (A) (A) (A) (A) (A) (A) (A) (A)
                 (A) (A) (A) (A)
    24 initial guesses have been made.
 Convergence on wavefunction:    0.001000000000000
 Davidson Disk Diagonalization:  ConvIn= 1.00D-03 SkipCon=T Conv= 1.00D-03.
 Max sub-space:  2000 roots to seek:    24 dimension of matrix:        23104
 Iteration     1 Dimension    24 NMult     0 NNew     24
 CISAX will form    24 AO SS matrices at one time.
 NMat=    24 NSing=    24 JSym2X= 0.
 FoFJK:  IHMeth= 1 ICntrl=       0 DoSepK=T KAlg= 0 I1Cent=           0 FoldK=F
 IRaf=         1 NMat=      48 IRICut=       1 DoRegI=T DoRafI=F ISym2E= 0 IDoP0=3 IntGTp=3.
 New state      2 was old state      3
 New state      3 was old state      4
 New state      4 was old state      2
 New state      5 was old state      6
 New state      6 was old state      5
 Excitation Energies [eV] at current iteration:
 Root      1 :     3.849290448007857
 Root      2 :     4.327477878363230
 Root      3 :     4.521631264235890
 Root      4 :     5.492606141968547
 Root      5 :     6.151114623695555
 Root      6 :     6.387403734890280
 Root      7 :     6.781045000681369
 Root      8 :     6.818593429992306
 Root      9 :     7.024143255732733
 Root     10 :     7.074733680113185
 Root     11 :     7.248505054856373
 Root     12 :     7.387012045734565
 Root     13 :     7.550163632465327
 Root     14 :     7.605048184673937
 Root     15 :     7.872379821728681
 Root     16 :     7.932428674538353
 Root     17 :     8.171742239025701
 Root     18 :     8.262290135016180
 Root     19 :     8.335941451738810
 Root     20 :     8.427279089495554
 Root     21 :     8.649229376257654
 Root     22 :     8.881438314768403
 Root     23 :     8.906516068288223
 Root     24 :     9.069569777320185
 Iteration     2 Dimension    36 NMult    24 NNew     12
 CISAX will form    12 AO SS matrices at one time.
 NMat=    12 NSing=    12 JSym2X= 0.
 Root      1 not converged, maximum delta is    0.042118205594826
 Root      2 not converged, maximum delta is    0.073784631764448
 Root      3 not converged, maximum delta is    0.086855618163646
 Root      4 not converged, maximum delta is    0.256203429372456
 New state      5 was old state      6
 Root      5 not converged, maximum delta is    0.252282085156629
 New state      6 was old state      5
 Root      6 not converged, maximum delta is    0.132987458098496
 Excitation Energies [eV] at current iteration:
 Root      1 :     3.401959898352362   Change is   -0.447330549655495
 Root      2 :     4.095848891549197   Change is   -0.231628986814033
 Root      3 :     4.253890744846157   Change is   -0.267740519389733
 Root      4 :     5.146032687511862   Change is   -0.346573454456686
 Root      5 :     5.587320199060807   Change is   -0.800083535829473
 Root      6 :     6.042706111903520   Change is   -0.108408511792034
 Iteration     3 Dimension    48 NMult    36 NNew     12
 CISAX will form    12 AO SS matrices at one time.
 NMat=    12 NSing=    12 JSym2X= 0.
 Root      1 not converged, maximum delta is    0.008126286677075
 Root      2 not converged, maximum delta is    0.012726288566518
 Root      3 not converged, maximum delta is    0.012438914362436
 Root      4 not converged, maximum delta is    0.019361765359774
 Root      5 not converged, maximum delta is    0.021202591948775
 Root      6 not converged, maximum delta is    0.007358051389506
 Excitation Energies [eV] at current iteration:
 Root      1 :     3.384352193864694   Change is   -0.017607704487668
 Root      2 :     4.082599734628084   Change is   -0.013249156921114
 Root      3 :     4.240165333512212   Change is   -0.013725411333945
 Root      4 :     5.124761410760629   Change is   -0.021271276751232
 Root      5 :     5.560952757593316   Change is   -0.026367441467491
 Root      6 :     6.037084258148072   Change is   -0.005621853755449
 Iteration     4 Dimension    60 NMult    48 NNew     12
 CISAX will form    12 AO SS matrices at one time.
 NMat=    12 NSing=    12 JSym2X= 0.
 Root      1 not converged, maximum delta is    0.002103436095251
 Root      2 not converged, maximum delta is    0.002073807360296
 Root      3 not converged, maximum delta is    0.002057255207403
 Root      4 not converged, maximum delta is    0.002566642319751
 Root      5 not converged, maximum delta is    0.003147030425949
 Root      6 not converged, maximum delta is    0.001986865467205
 Excitation Energies [eV] at current iteration:
 Root      1 :     3.382937015917447   Change is   -0.001415177947247
 Root      2 :     4.081772804467010   Change is   -0.000826930161073
 Root      3 :     4.239324329941199   Change is   -0.000841003571014
 Root      4 :     5.123017531283599   Change is   -0.001743879477031
 Root      5 :     5.558474533420690   Change is   -0.002478224172625
 Root      6 :     6.036699961487905   Change is   -0.000384296660167
 Iteration     5 Dimension    72 NMult    60 NNew     12
 CISAX will form    12 AO SS matrices at one time.
 NMat=    12 NSing=    12 JSym2X= 0.
 Root      1 has converged.
 Root      2 has converged.
 Root      3 has converged.
 Root      4 has converged.
 Root      5 has converged.
 Root      6 has converged.
 Excitation Energies [eV] at current iteration:
 Root      1 :     3.382863411429062   Change is   -0.000073604488386
 Root      2 :     4.081722524268354   Change is   -0.000050280198656
 Root      3 :     4.239277573185484   Change is   -0.000046756755714
 Root      4 :     5.122880201622231   Change is   -0.000137329661367
 Root      5 :     5.558270159365123   Change is   -0.000204374055568
 Root      6 :     6.036666567232075   Change is   -0.000033394255830
 Convergence achieved on expansion vectors.
 ***********************************************************************
 Excited states from <AA,BB:AA,BB> singles matrix:
 ***********************************************************************
 
 1PDM for each excited state written to RWF  633
 Ground to excited state transition densities written to RWF  633
 Ground to excited state transition electric dipole moments (Au):
       state          X           Y           Z        Dip. S.      Osc.
         1         1.4838      0.1455      0.0404      2.2244      0.1844
         2         0.1256     -0.0114      0.0407      0.0176      0.0018
         3        -0.0252     -0.1128      0.0323      0.0144      0.0015
         4         0.1434     -1.2868      0.1075      1.6880      0.2119
         5         0.0835     -1.4921      0.0473      2.2356      0.3044
         6        -0.0281      0.2378      0.0788      0.0636      0.0094
 Ground to excited state transition velocity dipole moments (Au):
       state          X           Y           Z        Dip. S.      Osc.
         1        -0.1769     -0.0138     -0.0058      0.0315      0.1690
         2        -0.0181      0.0020     -0.0031      0.0003      0.0015
         3         0.0038      0.0161     -0.0016      0.0003      0.0012
         4        -0.0298      0.2301     -0.0157      0.0541      0.1916
         5        -0.0179      0.2982     -0.0099      0.0893      0.2915
         6         0.0071     -0.0490     -0.0370      0.0038      0.0115
 Ground to excited state transition magnetic dipole moments (Au):
       state          X           Y           Z
         1        -0.0750     -0.0320      1.4397
         2         0.7961      0.1332      0.3300
         3        -0.1638     -0.9877     -0.1931
         4         0.0396      0.0765     -0.0302
         5         0.1968      0.1120     -0.2546
         6         0.0402      0.0101     -0.0203
 Ground to excited state transition velocity quadrupole moments (Au):
       state          XX          YY          ZZ          XY          XZ          YZ
         1        -0.1445      0.0833      0.0011      0.5063     -0.0571      0.0117
         2         0.0087     -0.0071      0.0011      0.0526     -0.0162      0.0776
         3         0.0015      0.0045     -0.0252     -0.0504      0.0609     -0.0066
         4        -1.1212      0.2210     -0.0065     -0.0423     -0.0716     -0.0413
         5        -0.6967      0.2898      0.0469     -0.1803     -0.0739      0.0296
         6        -0.1752     -0.2025      0.1875     -0.0149     -0.0306      0.0932
 <0|del|b> * <b|rxdel|0> + <0|del|b> * <b|delr+rdel|0>
 Rotatory Strengths (R) in cgs (10**-40 erg-esu-cm/Gauss)
       state          XX          YY          ZZ    R(velocity)    E-M Angle
         1       -32.8520     16.5809     47.0908     10.2733       88.79
         2        -2.0523    -39.3309    -30.1408    -23.8413      160.19
         3       -37.4852     -0.9574    -35.2927    -24.5784      163.04
         4        66.1469     -0.2660     -2.3752     21.1686       37.24
         5       103.3536     -5.7338     14.4866     37.3688       71.46
         6        -1.1014      1.8151      1.0036      0.5725       79.10
 1/2[<0|r|b>*<b|rxdel|0> + (<0|rxdel|b>*<b|r|0>)*]
 Rotatory Strengths (R) in cgs (10**-40 erg-esu-cm/Gauss)
       state          XX          YY          ZZ     R(length)
         1        78.6951      3.2931    -41.1357     13.6175
         2       -70.7358      1.0698     -9.4932    -26.3864
         3        -2.9213    -78.8035      4.4117    -25.7710
         4        -4.0191     69.6451      2.2932     22.6397
         5       -11.6181    118.1500      8.5223     38.3514
         6         0.7996     -1.6942      1.1288      0.0781
  1/2[<0|del|b>*<b|r|0> + (<0|r|b>*<b|del|0>)*] (Au)
       state          X           Y           Z        Dip. S.   Osc.(frdel)
         1        -0.2624     -0.0020     -0.0002      0.2647      0.1765
         2        -0.0023     -0.0000     -0.0001      0.0024      0.0016
         3        -0.0001     -0.0018     -0.0001      0.0020      0.0013
         4        -0.0043     -0.2962     -0.0017      0.3021      0.2014
         5        -0.0015     -0.4449     -0.0005      0.4469      0.2979
         6        -0.0002     -0.0116     -0.0029      0.0148      0.0098

 Excitation energies and oscillator strengths:
 
 Excited State   1:      Singlet-A      3.3829 eV  366.51 nm  f=0.1844  <S**2>=0.000
      52 -> 53         0.69959
 This state for optimization and/or second-order correction.
 Total Energy, E(TD-HF/TD-DFT) =  -633.207277670    
 Copying the excited state density for this state as the 1-particle RhoCI density.
 
 Excited State   2:      Singlet-A      4.0817 eV  303.75 nm  f=0.0018  <S**2>=0.000
      50 -> 53        -0.10552
      50 -> 54        -0.19547
      51 -> 53         0.56626
      51 -> 54         0.31561
 
 Excited State   3:      Singlet-A      4.2393 eV  292.47 nm  f=0.0015  <S**2>=0.000
      49 -> 53        -0.28145
      49 -> 54         0.17944
      50 -> 53         0.50131
      50 -> 54        -0.23520
      50 -> 58         0.10624
      51 -> 54        -0.21294
 
 Excited State   4:      Singlet-A      5.1229 eV  242.02 nm  f=0.2119  <S**2>=0.000
      52 -> 54         0.69763
 
 Excited State   5:      Singlet-A      5.5583 eV  223.06 nm  f=0.3044  <S**2>=0.000
      49 -> 53         0.59162
      50 -> 53         0.31823
      51 -> 53         0.15601
 
 Excited State   6:      Singlet-A      6.0367 eV  205.39 nm  f=0.0094  <S**2>=0.000
      52 -> 55         0.66687
      52 -> 56        -0.13026
 SavETr:  write IOETrn=   770 NScale= 10 NData=  16 NLR=1 NState=    6 LETran=     118.
 Leave Link  914 at Sat Jan 24 16:29:29 2026, MaxMem=  2147483648 cpu:            1789.7 elap:             112.5
 (Enter /data/home/wyx/g16/l601.exe)
 Copying SCF densities to generalized density rwf, IOpCl= 0 IROHF=0.

 **********************************************************************

            Population analysis using the SCF density.

 **********************************************************************

 Orbital symmetries:
       Occupied  (A) (A) (A) (A) (A) (A) (A) (A) (A) (A) (A) (A)
                 (A) (A) (A) (A) (A) (A) (A) (A) (A) (A) (A) (A)
                 (A) (A) (A) (A) (A) (A) (A) (A) (A) (A) (A) (A)
                 (A) (A) (A) (A) (A) (A) (A) (A) (A) (A) (A) (A)
                 (A) (A) (A) (A)
       Virtual   (A) (A) (A) (A) (A) (A) (A) (A) (A) (A) (A) (A)
                 (A) (A) (A) (A) (A) (A) (A) (A) (A) (A) (A) (A)
                 (A) (A) (A) (A) (A) (A) (A) (A) (A) (A) (A) (A)
                 (A) (A) (A) (A) (A) (A) (A) (A) (A) (A) (A) (A)
                 (A) (A) (A) (A) (A) (A) (A) (A) (A) (A) (A) (A)
                 (A) (A) (A) (A) (A) (A) (A) (A) (A) (A) (A) (A)
                 (A) (A) (A) (A) (A) (A) (A) (A) (A) (A) (A) (A)
                 (A) (A) (A) (A) (A) (A) (A) (A) (A) (A) (A) (A)
                 (A) (A) (A) (A) (A) (A) (A) (A) (A) (A) (A) (A)
                 (A) (A) (A) (A) (A) (A) (A) (A) (A) (A) (A) (A)
                 (A) (A) (A) (A) (A) (A) (A) (A) (A) (A) (A) (A)
                 (A) (A) (A) (A) (A) (A) (A) (A) (A) (A) (A) (A)
                 (A) (A) (A) (A) (A) (A) (A) (A) (A) (A) (A) (A)
                 (A) (A) (A) (A) (A) (A) (A) (A) (A) (A) (A) (A)
                 (A) (A) (A) (A) (A) (A) (A) (A) (A) (A) (A) (A)
                 (A) (A) (A) (A) (A) (A) (A) (A) (A) (A) (A) (A)
                 (A) (A) (A) (A) (A) (A) (A) (A) (A) (A) (A) (A)
                 (A) (A) (A) (A) (A) (A) (A) (A) (A) (A) (A) (A)
                 (A) (A) (A) (A) (A) (A) (A) (A) (A) (A) (A) (A)
                 (A) (A) (A) (A) (A) (A) (A) (A) (A) (A) (A) (A)
                 (A) (A) (A) (A) (A) (A) (A) (A) (A) (A) (A) (A)
                 (A) (A) (A) (A) (A) (A) (A) (A) (A) (A) (A) (A)
                 (A) (A) (A) (A) (A) (A) (A) (A) (A) (A) (A) (A)
                 (A) (A) (A) (A) (A) (A) (A) (A) (A) (A) (A) (A)
                 (A) (A) (A) (A) (A) (A) (A) (A) (A) (A) (A) (A)
                 (A) (A) (A) (A)
 The electronic state is 1-A.
 Alpha  occ. eigenvalues --  -19.17958 -19.17433 -14.44192 -10.33489 -10.33125
 Alpha  occ. eigenvalues --  -10.32186 -10.31688 -10.25627 -10.25084 -10.24769
 Alpha  occ. eigenvalues --  -10.24737 -10.24580 -10.24165 -10.23752  -1.11925
 Alpha  occ. eigenvalues --   -1.11566  -1.07745  -0.91262  -0.90368  -0.83917
 Alpha  occ. eigenvalues --   -0.82554  -0.81560  -0.78550  -0.73945  -0.71398
 Alpha  occ. eigenvalues --   -0.68672  -0.61645  -0.58230  -0.56873  -0.55184
 Alpha  occ. eigenvalues --   -0.54519  -0.54036  -0.52602  -0.51895  -0.50763
 Alpha  occ. eigenvalues --   -0.50045  -0.49553  -0.49158  -0.48484  -0.48154
 Alpha  occ. eigenvalues --   -0.46893  -0.45445  -0.45048  -0.43491  -0.43089
 Alpha  occ. eigenvalues --   -0.42438  -0.42152  -0.42010  -0.32797  -0.32342
 Alpha  occ. eigenvalues --   -0.31421  -0.25922
 Alpha virt. eigenvalues --   -0.02596   0.02461   0.06523   0.08241   0.08787
 Alpha virt. eigenvalues --    0.10068   0.10757   0.11944   0.12712   0.13631
 Alpha virt. eigenvalues --    0.14121   0.15097   0.15741   0.16245   0.16996
 Alpha virt. eigenvalues --    0.17518   0.17875   0.18017   0.18265   0.19211
 Alpha virt. eigenvalues --    0.20063   0.22151   0.22943   0.23422   0.23679
 Alpha virt. eigenvalues --    0.24219   0.24839   0.25731   0.25919   0.26620
 Alpha virt. eigenvalues --    0.26904   0.27525   0.28817   0.29105   0.30227
 Alpha virt. eigenvalues --    0.31698   0.32025   0.32619   0.33630   0.34496
 Alpha virt. eigenvalues --    0.35277   0.35979   0.36703   0.38159   0.38742
 Alpha virt. eigenvalues --    0.39829   0.40978   0.41716   0.42193   0.42662
 Alpha virt. eigenvalues --    0.44129   0.44369   0.45421   0.46130   0.46184
 Alpha virt. eigenvalues --    0.47356   0.47854   0.48092   0.48269   0.49079
 Alpha virt. eigenvalues --    0.49584   0.50301   0.50820   0.51406   0.51627
 Alpha virt. eigenvalues --    0.52763   0.53172   0.53486   0.54118   0.54367
 Alpha virt. eigenvalues --    0.54676   0.55927   0.56122   0.56552   0.58398
 Alpha virt. eigenvalues --    0.58748   0.59106   0.60795   0.61006   0.62770
 Alpha virt. eigenvalues --    0.63308   0.65738   0.66110   0.66347   0.67895
 Alpha virt. eigenvalues --    0.68725   0.70183   0.71333   0.72202   0.73045
 Alpha virt. eigenvalues --    0.73262   0.73963   0.74753   0.76086   0.77807
 Alpha virt. eigenvalues --    0.78235   0.79687   0.82178   0.84769   0.85401
 Alpha virt. eigenvalues --    0.89398   0.93371   0.99672   1.00461   1.24263
 Alpha virt. eigenvalues --    1.25517   1.27232   1.27771   1.29463   1.31410
 Alpha virt. eigenvalues --    1.32558   1.32995   1.34100   1.34962   1.36110
 Alpha virt. eigenvalues --    1.36503   1.37244   1.38398   1.39230   1.39862
 Alpha virt. eigenvalues --    1.40123   1.40527   1.41039   1.41539   1.41779
 Alpha virt. eigenvalues --    1.43401   1.44204   1.44411   1.45141   1.47153
 Alpha virt. eigenvalues --    1.48077   1.49258   1.49713   1.50416   1.51137
 Alpha virt. eigenvalues --    1.51904   1.52409   1.53429   1.54435   1.57755
 Alpha virt. eigenvalues --    1.58207   1.60467   1.60747   1.61319   1.62310
 Alpha virt. eigenvalues --    1.62751   1.63340   1.64262   1.65383   1.65658
 Alpha virt. eigenvalues --    1.67112   1.67416   1.67935   1.68279   1.68730
 Alpha virt. eigenvalues --    1.68855   1.69990   1.70490   1.71921   1.72337
 Alpha virt. eigenvalues --    1.73582   1.75167   1.76217   1.76605   1.78745
 Alpha virt. eigenvalues --    1.80327   1.83321   1.84534   1.86272   1.86660
 Alpha virt. eigenvalues --    1.87006   1.87462   1.88510   1.89326   1.90868
 Alpha virt. eigenvalues --    1.91397   1.94619   1.95407   1.98500   1.99709
 Alpha virt. eigenvalues --    2.01126   2.03873   2.04836   2.06755   2.09616
 Alpha virt. eigenvalues --    2.11240   2.12814   2.14884   2.17067   2.19715
 Alpha virt. eigenvalues --    2.20428   2.21448   2.21920   2.23026   2.25978
 Alpha virt. eigenvalues --    2.27131   2.27815   2.29228   2.30938   2.31859
 Alpha virt. eigenvalues --    2.33354   2.34556   2.36474   2.37285   2.38060
 Alpha virt. eigenvalues --    2.39552   2.40243   2.41649   2.43727   2.44956
 Alpha virt. eigenvalues --    2.46055   2.47675   2.50154   2.50618   2.51889
 Alpha virt. eigenvalues --    2.52659   2.53616   2.54948   2.56945   2.58573
 Alpha virt. eigenvalues --    2.59110   2.60279   2.61308   2.62281   2.62824
 Alpha virt. eigenvalues --    2.64528   2.65761   2.67089   2.67559   2.69060
 Alpha virt. eigenvalues --    2.71220   2.72171   2.72991   2.73796   2.75110
 Alpha virt. eigenvalues --    2.76175   2.76704   2.77404   2.77973   2.79343
 Alpha virt. eigenvalues --    2.80663   2.81586   2.83191   2.83524   2.84438
 Alpha virt. eigenvalues --    2.85539   2.86314   2.88071   2.90093   2.91783
 Alpha virt. eigenvalues --    2.97539   2.99617   3.00871   3.04835   3.10533
 Alpha virt. eigenvalues --    3.12478   3.15640   3.17061   3.17542   3.20240
 Alpha virt. eigenvalues --    3.21209   3.22215   3.24685   3.26050   3.27012
 Alpha virt. eigenvalues --    3.27311   3.29608   3.33413   3.34466   3.36736
 Alpha virt. eigenvalues --    3.37217   3.38974   3.39901   3.40525   3.41740
 Alpha virt. eigenvalues --    3.42721   3.45024   3.45556   3.46714   3.47994
 Alpha virt. eigenvalues --    3.49093   3.49911   3.55297   3.58369   3.59662
 Alpha virt. eigenvalues --    3.60366   3.90231   4.00000   4.33771   4.35859
 Alpha virt. eigenvalues --   21.64445  21.79674  22.08306  22.11029  22.11887
 Alpha virt. eigenvalues --   22.14848  22.15490  22.18430  22.20807  22.24627
 Alpha virt. eigenvalues --   22.29728  31.92828  43.63021  43.65481
          Condensed to atoms (all electrons):
               1          2          3          4          5          6
     1  O    7.955349   0.000000  -0.000235   0.000018   0.017449   0.014345
     2  O    0.000000   7.983610   0.000380   0.000024  -0.203586   0.001028
     3  N   -0.000235   0.000380   6.385583   0.372620  -0.113954   0.332517
     4  H    0.000018   0.000024   0.372620   0.402640   0.016731  -0.045386
     5  C    0.017449  -0.203586  -0.113954   0.016731   7.020942  -0.064935
     6  C    0.014345   0.001028   0.332517  -0.045386  -0.064935   5.594224
     7  C   -0.000377  -0.034615   0.382063  -0.038698   0.392460  -0.099130
     8  C   -0.000294   0.715753   0.004550  -0.000682  -0.277373   0.028413
     9  C   -0.024487   0.019827   0.013566  -0.000220  -0.515440  -0.107811
    10  H    0.004516   0.000091   0.003915   0.000020  -0.030923  -0.017550
    11  H    0.015638   0.000007  -0.001371   0.000018  -0.112590   0.025623
    12  C   -0.223472  -0.002377  -0.091919   0.014820   0.150379  -0.132371
    13  C    0.711821  -0.000030   0.000506   0.000413   0.077384   0.161398
    14  C   -0.000006  -0.012452  -0.034902  -0.009120  -0.072481   0.009575
    15  H   -0.000000   0.004159   0.004353   0.001350   0.016992   0.006285
    16  H   -0.000000   0.002092  -0.003181   0.000903  -0.004631  -0.001842
    17  H   -0.000000   0.002348   0.001259   0.000775  -0.007729  -0.000876
    18  C   -0.000008  -0.106154  -0.000560   0.000018  -0.269618   0.000454
    19  H   -0.000004   0.009105   0.000004  -0.000001   0.026312   0.000023
    20  H    0.000008   0.001017   0.000012  -0.000000   0.003132   0.000240
    21  H    0.000082   0.003737   0.000123   0.000001   0.042426  -0.001125
    22  C   -0.106475   0.000000   0.000017   0.000110   0.004033  -0.014735
    23  H    0.004846  -0.000000  -0.000023  -0.000053  -0.000633  -0.031947
    24  H    0.001277  -0.000000  -0.000026  -0.000015  -0.000075   0.010956
    25  H    0.007279   0.000000   0.000031  -0.000002  -0.000144  -0.001178
    26  C    0.000893   0.000004  -0.028676  -0.006201  -0.000180   0.181681
    27  H   -0.000240  -0.000000   0.002614   0.000850   0.000070  -0.045550
    28  H   -0.000049  -0.000000  -0.002490   0.000452   0.000402  -0.034161
    29  H    0.000025  -0.000000   0.000781   0.001123  -0.000501  -0.048505
               7          8          9         10         11         12
     1  O   -0.000377  -0.000294  -0.024487   0.004516   0.015638  -0.223472
     2  O   -0.034615   0.715753   0.019827   0.000091   0.000007  -0.002377
     3  N    0.382063   0.004550   0.013566   0.003915  -0.001371  -0.091919
     4  H   -0.038698  -0.000682  -0.000220   0.000020   0.000018   0.014820
     5  C    0.392460  -0.277373  -0.515440  -0.030923  -0.112590   0.150379
     6  C   -0.099130   0.028413  -0.107811  -0.017550   0.025623  -0.132371
     7  C    5.410164  -0.190316  -0.178463  -0.005055   0.018092   0.002842
     8  C   -0.190316   5.366591   0.106465  -0.004851  -0.008149  -0.033903
     9  C   -0.178463   0.106465   6.294683   0.395422   0.530700  -0.003982
    10  H   -0.005055  -0.004851   0.395422   0.560836  -0.039040  -0.021004
    11  H    0.018092  -0.008149   0.530700  -0.039040   0.513237  -0.108275
    12  C    0.002842  -0.033903  -0.003982  -0.021004  -0.108275   7.245279
    13  C    0.013128  -0.006695  -0.263852   0.000947  -0.000847  -0.394663
    14  C    0.261751  -0.039943   0.009561  -0.001306   0.000557  -0.003372
    15  H   -0.073929   0.005457   0.000033   0.000069  -0.000003  -0.001187
    16  H   -0.023661  -0.000988   0.000655  -0.000067   0.000053   0.000744
    17  H   -0.030544  -0.007952  -0.000470   0.000199  -0.000058  -0.000014
    18  C    0.002242   0.322229  -0.000810  -0.009751   0.008378  -0.003044
    19  H    0.000413  -0.054163  -0.000510  -0.000019   0.000514  -0.000204
    20  H    0.000843  -0.025030  -0.009368   0.000947  -0.001982  -0.003408
    21  H    0.000944  -0.064445  -0.008810   0.002406  -0.005613   0.006710
    22  C    0.000090  -0.000064   0.005075   0.001821   0.000675  -0.248600
    23  H    0.000018  -0.000007   0.003504  -0.000138  -0.000058   0.063911
    24  H    0.000023   0.000003  -0.002089   0.000148  -0.000114  -0.012480
    25  H    0.000004   0.000004   0.000189  -0.000048  -0.000125   0.023951
    26  C    0.002599   0.000516   0.020437  -0.000743   0.000039  -0.079349
    27  H   -0.000790   0.000004  -0.000764  -0.000087   0.000004  -0.007501
    28  H   -0.000858  -0.000011  -0.000251  -0.000022   0.000047  -0.019331
    29  H    0.003630  -0.000007  -0.000521   0.000096  -0.000010   0.023489
              13         14         15         16         17         18
     1  O    0.711821  -0.000006  -0.000000  -0.000000  -0.000000  -0.000008
     2  O   -0.000030  -0.012452   0.004159   0.002092   0.002348  -0.106154
     3  N    0.000506  -0.034902   0.004353  -0.003181   0.001259  -0.000560
     4  H    0.000413  -0.009120   0.001350   0.000903   0.000775   0.000018
     5  C    0.077384  -0.072481   0.016992  -0.004631  -0.007729  -0.269618
     6  C    0.161398   0.009575   0.006285  -0.001842  -0.000876   0.000454
     7  C    0.013128   0.261751  -0.073929  -0.023661  -0.030544   0.002242
     8  C   -0.006695  -0.039943   0.005457  -0.000988  -0.007952   0.322229
     9  C   -0.263852   0.009561   0.000033   0.000655  -0.000470  -0.000810
    10  H    0.000947  -0.001306   0.000069  -0.000067   0.000199  -0.009751
    11  H   -0.000847   0.000557  -0.000003   0.000053  -0.000058   0.008378
    12  C   -0.394663  -0.003372  -0.001187   0.000744  -0.000014  -0.003044
    13  C    5.455916  -0.000021  -0.000022  -0.000019  -0.000001   0.000577
    14  C   -0.000021   5.068908   0.388284   0.407545   0.423680   0.001348
    15  H   -0.000022   0.388284   0.568139  -0.024815  -0.027354   0.000267
    16  H   -0.000019   0.407545  -0.024815   0.510488  -0.027735  -0.000001
    17  H   -0.000001   0.423680  -0.027354  -0.027735   0.511679  -0.000206
    18  C    0.000577   0.001348   0.000267  -0.000001  -0.000206   5.346195
    19  H   -0.000011   0.000074  -0.000005  -0.000024   0.000032   0.391041
    20  H   -0.000086  -0.000265  -0.000006  -0.000007   0.000024   0.398279
    21  H    0.000547   0.000078  -0.000016   0.000003  -0.000040   0.380519
    22  C    0.289147  -0.000021   0.000002   0.000000  -0.000000   0.000028
    23  H   -0.091905   0.000000   0.000000   0.000000   0.000000   0.000003
    24  H   -0.021911  -0.000001   0.000000   0.000000  -0.000000  -0.000002
    25  H   -0.041140   0.000000   0.000000  -0.000000   0.000000  -0.000001
    26  C   -0.055487   0.001298   0.000070  -0.000166   0.000053   0.000022
    27  H   -0.004989   0.000089  -0.000012   0.000001  -0.000001  -0.000000
    28  H    0.006533  -0.000115   0.000002  -0.000011   0.000004  -0.000001
    29  H   -0.000530  -0.000225   0.000123   0.000002  -0.000004   0.000000
              19         20         21         22         23         24
     1  O   -0.000004   0.000008   0.000082  -0.106475   0.004846   0.001277
     2  O    0.009105   0.001017   0.003737   0.000000  -0.000000  -0.000000
     3  N    0.000004   0.000012   0.000123   0.000017  -0.000023  -0.000026
     4  H   -0.000001  -0.000000   0.000001   0.000110  -0.000053  -0.000015
     5  C    0.026312   0.003132   0.042426   0.004033  -0.000633  -0.000075
     6  C    0.000023   0.000240  -0.001125  -0.014735  -0.031947   0.010956
     7  C    0.000413   0.000843   0.000944   0.000090   0.000018   0.000023
     8  C   -0.054163  -0.025030  -0.064445  -0.000064  -0.000007   0.000003
     9  C   -0.000510  -0.009368  -0.008810   0.005075   0.003504  -0.002089
    10  H   -0.000019   0.000947   0.002406   0.001821  -0.000138   0.000148
    11  H    0.000514  -0.001982  -0.005613   0.000675  -0.000058  -0.000114
    12  C   -0.000204  -0.003408   0.006710  -0.248600   0.063911  -0.012480
    13  C   -0.000011  -0.000086   0.000547   0.289147  -0.091905  -0.021911
    14  C    0.000074  -0.000265   0.000078  -0.000021   0.000000  -0.000001
    15  H   -0.000005  -0.000006  -0.000016   0.000002   0.000000   0.000000
    16  H   -0.000024  -0.000007   0.000003   0.000000   0.000000   0.000000
    17  H    0.000032   0.000024  -0.000040  -0.000000   0.000000  -0.000000
    18  C    0.391041   0.398279   0.380519   0.000028   0.000003  -0.000002
    19  H    0.507346  -0.009812  -0.021823  -0.000000   0.000000   0.000000
    20  H   -0.009812   0.496565  -0.025609  -0.000013  -0.000000   0.000000
    21  H   -0.021823  -0.025609   0.535980   0.000017  -0.000000  -0.000000
    22  C   -0.000000  -0.000013   0.000017   5.410679   0.399312   0.401820
    23  H    0.000000  -0.000000  -0.000000   0.399312   0.536585  -0.026048
    24  H    0.000000   0.000000  -0.000000   0.401820  -0.026048   0.489169
    25  H   -0.000000   0.000000  -0.000000   0.383360  -0.022088  -0.008310
    26  C    0.000000   0.000005  -0.000015  -0.029292   0.015983  -0.013755
    27  H   -0.000000   0.000000  -0.000000   0.008144  -0.009645  -0.000663
    28  H    0.000000  -0.000000  -0.000000  -0.011281  -0.001353   0.001060
    29  H    0.000000  -0.000000   0.000000   0.001925   0.000694   0.000191
              25         26         27         28         29
     1  O    0.007279   0.000893  -0.000240  -0.000049   0.000025
     2  O    0.000000   0.000004  -0.000000  -0.000000  -0.000000
     3  N    0.000031  -0.028676   0.002614  -0.002490   0.000781
     4  H   -0.000002  -0.006201   0.000850   0.000452   0.001123
     5  C   -0.000144  -0.000180   0.000070   0.000402  -0.000501
     6  C   -0.001178   0.181681  -0.045550  -0.034161  -0.048505
     7  C    0.000004   0.002599  -0.000790  -0.000858   0.003630
     8  C    0.000004   0.000516   0.000004  -0.000011  -0.000007
     9  C    0.000189   0.020437  -0.000764  -0.000251  -0.000521
    10  H   -0.000048  -0.000743  -0.000087  -0.000022   0.000096
    11  H   -0.000125   0.000039   0.000004   0.000047  -0.000010
    12  C    0.023951  -0.079349  -0.007501  -0.019331   0.023489
    13  C   -0.041140  -0.055487  -0.004989   0.006533  -0.000530
    14  C    0.000000   0.001298   0.000089  -0.000115  -0.000225
    15  H    0.000000   0.000070  -0.000012   0.000002   0.000123
    16  H   -0.000000  -0.000166   0.000001  -0.000011   0.000002
    17  H    0.000000   0.000053  -0.000001   0.000004  -0.000004
    18  C   -0.000001   0.000022  -0.000000  -0.000001   0.000000
    19  H   -0.000000   0.000000  -0.000000   0.000000   0.000000
    20  H    0.000000   0.000005   0.000000  -0.000000  -0.000000
    21  H   -0.000000  -0.000015  -0.000000  -0.000000   0.000000
    22  C    0.383360  -0.029292   0.008144  -0.011281   0.001925
    23  H   -0.022088   0.015983  -0.009645  -0.001353   0.000694
    24  H   -0.008310  -0.013755  -0.000663   0.001060   0.000191
    25  H    0.497162   0.001976   0.000802   0.000108  -0.000042
    26  C    0.001976   5.252629   0.427772   0.429296   0.389166
    27  H    0.000802   0.427772   0.507920  -0.025603  -0.025961
    28  H    0.000108   0.429296  -0.025603   0.475984  -0.017420
    29  H   -0.000042   0.389166  -0.025961  -0.017420   0.514663
 Mulliken charges:
               1
     1  O   -0.377902
     2  O   -0.383972
     3  N   -0.227555
     4  H    0.287494
     5  C   -0.093917
     6  C    0.280338
     7  C    0.185130
     8  C    0.164890
     9  C   -0.282269
    10  H    0.159169
    11  H    0.164654
    12  C   -0.141668
    13  C    0.163893
    14  C   -0.398518
    15  H    0.131764
    16  H    0.164661
    17  H    0.162934
    18  C   -0.461443
    19  H    0.151712
    20  H    0.174513
    21  H    0.153925
    22  C   -0.495773
    23  H    0.159042
    24  H    0.180842
    25  H    0.158211
    26  C   -0.510577
    27  H    0.173536
    28  H    0.199068
    29  H    0.157817
 Sum of Mulliken charges =  -0.00000
 Mulliken charges with hydrogens summed into heavy atoms:
               1
     1  O   -0.377902
     2  O   -0.383972
     3  N    0.059939
     5  C   -0.093917
     6  C    0.280338
     7  C    0.185130
     8  C    0.164890
     9  C    0.041554
    12  C   -0.141668
    13  C    0.163893
    14  C    0.060840
    18  C    0.018707
    22  C    0.002322
    26  C    0.019845
 Electronic spatial extent (au):  <R**2>=           3187.1134
 Charge=             -0.0000 electrons
 Dipole moment (field-independent basis, Debye):
    X=             -4.0769    Y=              7.6628    Z=             -0.2927  Tot=              8.6847
 Quadrupole moment (field-independent basis, Debye-Ang):
   XX=            -98.1473   YY=            -78.2832   ZZ=            -84.9465
   XY=            -12.8692   XZ=             -5.5272   YZ=             -1.7422
 Traceless Quadrupole moment (field-independent basis, Debye-Ang):
   XX=            -11.0216   YY=              8.8425   ZZ=              2.1791
   XY=            -12.8692   XZ=             -5.5272   YZ=             -1.7422
 Octapole moment (field-independent basis, Debye-Ang**2):
  XXX=           -110.7124  YYY=             66.2868  ZZZ=              1.8670  XYY=             35.0363
  XXY=             32.1433  XXZ=             -9.9283  XZZ=             -2.3654  YZZ=             -0.9996
  YYZ=              3.4051  XYZ=              5.2522
 Hexadecapole moment (field-independent basis, Debye-Ang**3):
 XXXX=          -3034.2908 YYYY=          -1273.6271 ZZZZ=           -154.5736 XXXY=            -39.6300
 XXXZ=            -64.1098 YYYX=            -89.8575 YYYZ=            -22.1968 ZZZX=              2.5352
 ZZZY=              4.9874 XXYY=           -690.5447 XXZZ=           -484.7934 YYZZ=           -242.7208
 XXYZ=             -6.8415 YYXZ=             -7.4169 ZZXY=              0.8024
 N-N= 9.007592411048D+02 E-N=-3.277595896753D+03  KE= 6.307309667097D+02
 Leave Link  601 at Sat Jan 24 16:29:29 2026, MaxMem=  2147483648 cpu:               0.7 elap:               0.1
 (Enter /data/home/wyx/g16/l9999.exe)
 Electronic transition elements 
                 1             2             3             4             5 
      1  -0.633207D+03 -0.633182D+03 -0.633176D+03 -0.633143D+03 -0.633127D+03
      2  -0.140977D+01 -0.104245D+00  0.670263D-01  0.315603D+00  0.427281D+00
      3  -0.366439D+00 -0.534604D-01 -0.977210D-01 -0.125965D+01 -0.143219D+01
      4  -0.320469D+00 -0.620229D-01 -0.191774D-01 -0.413827D-01  0.429715D-01
      5   0.166691D+00  0.154591D-01 -0.920495D-02 -0.519431D-01 -0.843729D-01
      6   0.470201D-01  0.805821D-02  0.138791D-01  0.226671D+00  0.286598D+00
      7   0.388757D-01  0.616992D-02 -0.241190D-03  0.465707D-02 -0.797954D-02
      8   0.361095D+00 -0.714450D+00  0.441140D+00 -0.678572D-01 -0.268522D+00
      9  -0.107111D-01 -0.146001D+00 -0.872815D+00  0.586876D-01  0.396683D-01
     10  -0.139598D+01 -0.478138D+00  0.288476D+00  0.169830D-01  0.205931D+00
     11   0.215252D+00  0.346305D-01 -0.511290D-01 -0.925676D+00 -0.647333D+00
     12  -0.266146D+00 -0.394543D-01  0.365795D-01  0.937553D-01  0.290986D+00
     13  -0.923916D-02  0.750054D-02 -0.456662D-02 -0.748366D-01 -0.362071D-02
     14  -0.448108D+00 -0.194078D-01  0.321883D-01 -0.391026D+00 -0.162180D+00
     15  -0.523723D-02  0.178150D-01  0.497422D-01 -0.262741D+00 -0.197109D+00
     16  -0.119056D+00 -0.836953D-01  0.334953D-01 -0.634668D-01 -0.873291D-01
                 6 
      1  -0.633110D+03
      2  -0.375680D-01
      3   0.232943D+00
      4  -0.888457D-01
      5   0.252004D-02
      6  -0.483001D-01
      7   0.383907D-01
      8  -0.444179D-01
      9  -0.407754D-02
     10   0.118191D-01
     11  -0.174497D+00
     12  -0.190642D+00
     13   0.174983D+00
     14   0.386370D-01
     15  -0.695023D-01
     16  -0.906316D-01
 1\1\GINC-CN012\SP\RCAM-B3LYP TD-FC\TZVP\C11H15N1O2\WYX\24-Jan-2026\0\\
 #p CAM-B3LYP TZVP em=gd3bj td(nstates=6,root=1) scrf=(Solvent=Water)\\
 Title Card Required\\0,1\O,0,2.739089,-1.55862,0.771511\O,0,-3.245355,
 -1.645769,-1.059826\N,0,-0.703705,1.514226,0.080834\H,0,-1.011972,2.47
 2492,0.020982\C,0,-1.249387,-0.759555,-0.157148\C,0,0.641581,1.308914,
 0.263892\C,0,-1.621687,0.551929,-0.241609\C,0,-2.154488,-1.838532,-0.5
 28575\C,0,0.10247,-1.099823,0.397526\H,0,0.008954,-1.449804,1.435936\H
 ,0,0.527941,-1.953591,-0.129178\C,0,1.096136,0.025281,0.348733\C,0,2.4
 89041,-0.391686,0.469907\C,0,-2.950424,1.088404,-0.650903\H,0,-3.03334
 7,2.146532,-0.412091\H,0,-3.102525,0.969311,-1.720644\H,0,-3.757771,0.
 553276,-0.16516\C,0,-1.718625,-3.25257,-0.252146\H,0,-2.561654,-3.9232
 18,-0.376604\H,0,-0.937936,-3.552174,-0.94991\H,0,-1.310311,-3.369913,
 0.74819\C,0,3.647592,0.535486,0.197444\H,0,3.453072,1.238051,-0.60837\
 H,0,3.89654,1.105737,1.094232\H,0,4.509567,-0.077312,-0.056519\C,0,1.4
 17259,2.583987,0.353938\H,0,2.231353,2.519066,1.064883\H,0,1.831768,2.
 863832,-0.614382\H,0,0.766824,3.396041,0.675055\\Version=ES64L-G16RevA
 .03\State=1-A\HF=-633.3315956\RMSD=5.029e-09\PG=C01 [X(C11H15N1O2)]\\@


 BE CAREFUL NOT TO BECOME TOO GOOD OF A SONGBIRD OR 
 THEY'LL THROW YOU INTO A CAGE.

                                    -- SNOOPY TO WOODSTOCK
 Job cpu time:       0 days  0 hours 44 minutes 45.8 seconds.
 Elapsed time:       0 days  0 hours  2 minutes 49.2 seconds.
 File lengths (MBytes):  RWF=    833 Int=      0 D2E=      0 Chk=     34 Scr=      1
 Normal termination of Gaussian 16 at Sat Jan 24 16:29:31 2026.
