 Entering Gaussian System, Link 0=g16
 Input=DDL-S1-cLR-6.gjf
 Output=DDL-S1-cLR-6.log
 Initial command:
 /data/home/wyx/g16/l1.exe "/scr/tmp/wyx/13117/Gau-2022194.inp" -scrdir="/scr/tmp/wyx/13117/"
 Entering Link 1 = /data/home/wyx/g16/l1.exe PID=   2022195.
  
 Copyright (c) 1988,1990,1992,1993,1995,1998,2003,2009,2016,
            Gaussian, Inc.  All Rights Reserved.
  
 This is part of the Gaussian(R) 16 program.  It is based on
 the Gaussian(R) 09 system (copyright 2009, Gaussian, Inc.),
 the Gaussian(R) 03 system (copyright 2003, Gaussian, Inc.),
 the Gaussian(R) 98 system (copyright 1998, Gaussian, Inc.),
 the Gaussian(R) 94 system (copyright 1995, Gaussian, Inc.),
 the Gaussian 92(TM) system (copyright 1992, Gaussian, Inc.),
 the Gaussian 90(TM) system (copyright 1990, Gaussian, Inc.),
 the Gaussian 88(TM) system (copyright 1988, Gaussian, Inc.),
 the Gaussian 86(TM) system (copyright 1986, Carnegie Mellon
 University), and the Gaussian 82(TM) system (copyright 1983,
 Carnegie Mellon University). Gaussian is a federally registered
 trademark of Gaussian, Inc.
  
 This software contains proprietary and confidential information,
 including trade secrets, belonging to Gaussian, Inc.
  
 This software is provided under written license and may be
 used, copied, transmitted, or stored only in accord with that
 written license.
  
 The following legend is applicable only to US Government
 contracts under FAR:
  
                    RESTRICTED RIGHTS LEGEND
  
 Use, reproduction and disclosure by the US Government is
 subject to restrictions as set forth in subparagraphs (a)
 and (c) of the Commercial Computer Software - Restricted
 Rights clause in FAR 52.227-19.
  
 Gaussian, Inc.
 340 Quinnipiac St., Bldg. 40, Wallingford CT 06492
  
  
 ---------------------------------------------------------------
 Warning -- This program may not be used in any manner that
 competes with the business of Gaussian, Inc. or will provide
 assistance to any competitor of Gaussian, Inc.  The licensee
 of this program is prohibited from giving any competitor of
 Gaussian, Inc. access to this program.  By using this program,
 the user acknowledges that Gaussian, Inc. is engaged in the
 business of creating and licensing software in the field of
 computational chemistry and represents and warrants to the
 licensee that it is not a competitor of Gaussian, Inc. and that
 it will not use this program in any manner prohibited above.
 ---------------------------------------------------------------
  

 Cite this work as:
 Gaussian 16, Revision A.03,
 M. J. Frisch, G. W. Trucks, H. B. Schlegel, G. E. Scuseria, 
 M. A. Robb, J. R. Cheeseman, G. Scalmani, V. Barone, 
 G. A. Petersson, H. Nakatsuji, X. Li, M. Caricato, A. V. Marenich, 
 J. Bloino, B. G. Janesko, R. Gomperts, B. Mennucci, H. P. Hratchian, 
 J. V. Ortiz, A. F. Izmaylov, J. L. Sonnenberg, D. Williams-Young, 
 F. Ding, F. Lipparini, F. Egidi, J. Goings, B. Peng, A. Petrone, 
 T. Henderson, D. Ranasinghe, V. G. Zakrzewski, J. Gao, N. Rega, 
 G. Zheng, W. Liang, M. Hada, M. Ehara, K. Toyota, R. Fukuda, 
 J. Hasegawa, M. Ishida, T. Nakajima, Y. Honda, O. Kitao, H. Nakai, 
 T. Vreven, K. Throssell, J. A. Montgomery, Jr., J. E. Peralta, 
 F. Ogliaro, M. J. Bearpark, J. J. Heyd, E. N. Brothers, K. N. Kudin, 
 V. N. Staroverov, T. A. Keith, R. Kobayashi, J. Normand, 
 K. Raghavachari, A. P. Rendell, J. C. Burant, S. S. Iyengar, 
 J. Tomasi, M. Cossi, J. M. Millam, M. Klene, C. Adamo, R. Cammi, 
 J. W. Ochterski, R. L. Martin, K. Morokuma, O. Farkas, 
 J. B. Foresman, and D. J. Fox, Gaussian, Inc., Wallingford CT, 2016.
 
 ******************************************
 Gaussian 16:  ES64L-G16RevA.03 25-Dec-2016
                24-Jan-2026 
 ******************************************
 %nprocshared=16
 Will use up to   16 processors via shared memory.
 %mem=16GB
 %oldchk=DDL-LR-6.chk
 %chk=DDL-S1-cLR-6.chk
 Copying data from "DDL-LR-6.chk" to current chk file "DDL-S1-cLR-6.chk"
 IOpt=  2 FromEx=T IUOpen= 4 IOptOp= 5 NList=   0 IFRang= 0 IUIn= 4 IUOut= 2.
 ----------------------------------------------------------------------
 #p CAM-B3LYP TZVP em=gd3bj td(nstates=6,root=1) scrf=(Solvent=Water,Co
 rrectedLR,NonEquilibrium=Save) Geom=Check Guess=Read
 ----------------------------------------------------------------------
 1/29=2,30=1,38=1,172=1/1;
 2/12=2,40=1/2;
 3/5=19,7=101,11=9,14=-4,25=1,30=1,70=9002201,71=1,72=1,74=-40,116=-2,124=41/1,2,3,8;
 4/5=1/1;
 5/5=2,38=6,53=1/2;
 8/6=1,10=1,107=1,108=6/1;
 9/8=1,15=1,41=6,42=1,70=2,73=22/14;
 10/5=4,13=10,28=1,74=20/2;
 6/7=2,8=2,9=2,10=2,22=-1/1;
 99/5=1,9=1/99;
 Leave Link    1 at Sat Jan 24 19:08:52 2026, MaxMem=  2147483648 cpu:               0.9 elap:               0.1
 (Enter /data/home/wyx/g16/l101.exe)
 -------------------
 Title Card Required
 -------------------
 Structure from the checkpoint file:  "DDL-S1-cLR-6.chk"
 Charge =  0 Multiplicity = 1
 Z-Matrix found in chk file.
 O,0,2.723612,-1.559339,0.838605
 O,0,-3.287981,-1.657495,-0.948903
 N,0,-0.689013,1.515977,-0.015866
 H,0,-0.997426,2.476004,-0.081568
 C,0,-1.251839,-0.762398,-0.169093
 C,0,0.64318,1.326988,0.220841
 C,0,-1.626085,0.568383,-0.276262
 C,0,-2.162079,-1.846914,-0.483168
 C,0,0.115209,-1.086195,0.314371
 H,0,0.058564,-1.497952,1.336283
 H,0,0.534969,-1.922424,-0.250996
 C,0,1.10252,0.026437,0.323397
 C,0,2.482619,-0.394545,0.50146
 C,0,-2.969463,1.098512,-0.63534
 H,0,-3.017506,2.175553,-0.491334
 H,0,-3.212144,0.884777,-1.671995
 H,0,-3.747187,0.63523,-0.038845
 C,0,-1.705223,-3.262587,-0.251651
 H,0,-2.563938,-3.924306,-0.259636
 H,0,-1.032521,-3.579516,-1.046975
 H,0,-1.171543,-3.389446,0.684856
 C,0,3.648997,0.527161,0.24436
 H,0,3.464605,1.241184,-0.55362
 H,0,3.902295,1.084138,1.148732
 H,0,4.506894,-0.08932,-0.015928
 C,0,1.415218,2.596504,0.365194
 H,0,2.167711,2.522705,1.142124
 H,0,1.916293,2.875658,-0.561537
 H,0,0.751262,3.417227,0.632495
 Recover connectivity data from disk.
 ITRead=  0  0  0  0  0  0  0  0  0  0  0  0  0  0  0  0  0  0  0  0
 ITRead=  0  0  0  0  0  0  0  0  0
 MicOpt= -1 -1 -1 -1 -1 -1 -1 -1 -1 -1 -1 -1 -1 -1 -1 -1 -1 -1 -1 -1
 MicOpt= -1 -1 -1 -1 -1 -1 -1 -1 -1
 NAtoms=     29 NQM=       29 NQMF=       0 NMMI=      0 NMMIF=      0
                NMic=       0 NMicF=      0.
                    Isotopes and Nuclear Properties:
 (Nuclear quadrupole moments (NQMom) in fm**2, nuclear magnetic moments (NMagM)
  in nuclear magnetons)

  Atom         1           2           3           4           5           6           7           8           9          10
 IAtWgt=          16          16          14           1          12          12          12          12          12           1
 AtmWgt=  15.9949146  15.9949146  14.0030740   1.0078250  12.0000000  12.0000000  12.0000000  12.0000000  12.0000000   1.0078250
 NucSpn=           0           0           2           1           0           0           0           0           0           1
 AtZEff=   5.6000000   5.6000000   4.5500000   1.0000000   3.6000000   3.6000000   3.6000000   3.6000000   3.6000000   1.0000000
 NQMom=    0.0000000   0.0000000   2.0440000   0.0000000   0.0000000   0.0000000   0.0000000   0.0000000   0.0000000   0.0000000
 NMagM=    0.0000000   0.0000000   0.4037610   2.7928460   0.0000000   0.0000000   0.0000000   0.0000000   0.0000000   2.7928460
 AtZNuc=   8.0000000   8.0000000   7.0000000   1.0000000   6.0000000   6.0000000   6.0000000   6.0000000   6.0000000   1.0000000

  Atom        11          12          13          14          15          16          17          18          19          20
 IAtWgt=           1          12          12          12           1           1           1          12           1           1
 AtmWgt=   1.0078250  12.0000000  12.0000000  12.0000000   1.0078250   1.0078250   1.0078250  12.0000000   1.0078250   1.0078250
 NucSpn=           1           0           0           0           1           1           1           0           1           1
 AtZEff=   1.0000000   3.6000000   3.6000000   3.6000000   1.0000000   1.0000000   1.0000000   3.6000000   1.0000000   1.0000000
 NQMom=    0.0000000   0.0000000   0.0000000   0.0000000   0.0000000   0.0000000   0.0000000   0.0000000   0.0000000   0.0000000
 NMagM=    2.7928460   0.0000000   0.0000000   0.0000000   2.7928460   2.7928460   2.7928460   0.0000000   2.7928460   2.7928460
 AtZNuc=   1.0000000   6.0000000   6.0000000   6.0000000   1.0000000   1.0000000   1.0000000   6.0000000   1.0000000   1.0000000

  Atom        21          22          23          24          25          26          27          28          29
 IAtWgt=           1          12           1           1           1          12           1           1           1
 AtmWgt=   1.0078250  12.0000000   1.0078250   1.0078250   1.0078250  12.0000000   1.0078250   1.0078250   1.0078250
 NucSpn=           1           0           1           1           1           0           1           1           1
 AtZEff=   1.0000000   3.6000000   1.0000000   1.0000000   1.0000000   3.6000000   1.0000000   1.0000000   1.0000000
 NQMom=    0.0000000   0.0000000   0.0000000   0.0000000   0.0000000   0.0000000   0.0000000   0.0000000   0.0000000
 NMagM=    2.7928460   0.0000000   2.7928460   2.7928460   2.7928460   0.0000000   2.7928460   2.7928460   2.7928460
 AtZNuc=   1.0000000   6.0000000   1.0000000   1.0000000   1.0000000   6.0000000   1.0000000   1.0000000   1.0000000
 Leave Link  101 at Sat Jan 24 19:08:54 2026, MaxMem=  2147483648 cpu:               0.9 elap:               0.1
 (Enter /data/home/wyx/g16/l202.exe)
                          Input orientation:                          
 ---------------------------------------------------------------------
 Center     Atomic      Atomic             Coordinates (Angstroms)
 Number     Number       Type             X           Y           Z
 ---------------------------------------------------------------------
      1          8           0        2.723612   -1.559339    0.838605
      2          8           0       -3.287981   -1.657495   -0.948903
      3          7           0       -0.689013    1.515977   -0.015866
      4          1           0       -0.997426    2.476004   -0.081568
      5          6           0       -1.251839   -0.762398   -0.169093
      6          6           0        0.643180    1.326988    0.220841
      7          6           0       -1.626085    0.568383   -0.276262
      8          6           0       -2.162079   -1.846914   -0.483168
      9          6           0        0.115209   -1.086195    0.314371
     10          1           0        0.058564   -1.497952    1.336283
     11          1           0        0.534969   -1.922424   -0.250996
     12          6           0        1.102520    0.026437    0.323397
     13          6           0        2.482619   -0.394545    0.501460
     14          6           0       -2.969463    1.098512   -0.635340
     15          1           0       -3.017506    2.175553   -0.491334
     16          1           0       -3.212144    0.884777   -1.671995
     17          1           0       -3.747187    0.635230   -0.038845
     18          6           0       -1.705223   -3.262587   -0.251651
     19          1           0       -2.563938   -3.924306   -0.259636
     20          1           0       -1.032521   -3.579516   -1.046975
     21          1           0       -1.171543   -3.389446    0.684856
     22          6           0        3.648997    0.527161    0.244360
     23          1           0        3.464605    1.241184   -0.553620
     24          1           0        3.902295    1.084138    1.148732
     25          1           0        4.506894   -0.089320   -0.015928
     26          6           0        1.415218    2.596504    0.365194
     27          1           0        2.167711    2.522705    1.142124
     28          1           0        1.916293    2.875658   -0.561537
     29          1           0        0.751262    3.417227    0.632495
 ---------------------------------------------------------------------
                    Distance matrix (angstroms):
                    1          2          3          4          5
     1  O    0.000000
     2  O    6.272485   0.000000
     3  N    4.672654   4.206675   0.000000
     4  H    5.565684   4.804657   1.010489   0.000000
     5  C    4.177892   2.356942   2.351860   3.249559   0.000000
     6  C    3.611193   5.072422   1.366194   2.025655   2.847574
     7  C    4.968903   2.858125   1.357882   2.017953   1.386551
     8  C    5.069493   1.233063   3.700990   4.495033   1.450295
     9  C    2.702305   3.674772   2.743561   3.752864   1.485733
    10  H    2.711814   4.055477   3.386879   4.349453   2.127053
    11  H    2.471683   3.895152   3.657324   4.660806   2.131913
    12  C    2.325524   4.871434   2.354447   3.251792   2.531366
    13  C    1.236321   6.082633   3.738579   4.548702   3.811972
    14  C    6.453510   2.792015   2.399683   2.468416   2.574996
    15  H    6.977005   3.869726   2.466372   2.083003   3.442815
    16  H    6.892751   2.644194   3.083402   3.156966   2.968955
    17  H    6.888925   2.509116   3.182557   3.309299   2.863056
    18  C    4.868705   2.359577   4.891109   5.784577   2.542306
    19  H    5.895540   2.477450   5.759466   6.591634   3.424539
    20  H    4.663160   2.964942   5.210109   6.132093   2.958873
    21  H    4.306410   3.185613   4.978657   5.917873   2.763523
    22  C    2.358590   7.370092   4.456883   5.049105   5.084496
    23  H    3.214077   7.359076   4.197289   4.653744   5.138779
    24  H    2.910918   7.976007   4.756352   5.240057   5.631292
    25  H    2.463996   8.005604   5.438238   6.073116   5.799957
    26  C    4.382584   6.476375   2.395941   2.456617   4.322138
    27  H    4.130888   7.184082   3.242733   3.393773   4.919808
    28  H    4.720314   6.912597   2.988998   2.979908   4.840095
    29  H    5.357131   6.676010   2.471743   2.110378   4.703639
                    6          7          8          9         10
     6  C    0.000000
     7  C    2.443800   0.000000
     8  C    4.294038   2.482692   0.000000
     9  C    2.472034   2.473576   2.529981   0.000000
    10  H    3.092939   3.115780   2.891960   1.103203   0.000000
    11  H    3.285273   3.297713   2.708076   1.093214   1.710729
    12  C    1.383092   2.845801   3.849363   1.487553   2.107023
    13  C    2.534947   4.291099   4.965087   2.473462   2.791143
    14  C    3.719736   1.488166   3.057868   3.897447   4.449480
    15  H    3.824641   2.136657   4.112428   4.593698   5.128063
    16  H    4.317627   2.136296   3.158810   4.347604   5.042288
    17  H    4.452111   2.135394   2.978427   4.243368   4.574405
    18  C    5.177108   3.831866   1.505473   2.893274   2.957434
    19  H    6.171916   4.589564   2.127678   3.944894   3.913013
    20  H    5.337519   4.260444   2.143756   3.063853   3.347132
    21  H    5.074769   4.098142   2.173671   2.664199   2.348461
    22  C    3.110500   5.300871   6.319346   3.885290   4.264339
    23  H    2.927045   5.142442   6.418792   4.169959   4.761902
    24  H    3.397321   5.732329   6.930425   4.443931   4.634289
    25  H    4.121926   6.173636   6.912500   4.515502   4.858020
    26  C    1.492833   3.711370   5.767212   3.905749   4.421323
    27  H    2.145390   4.497119   6.362564   4.233450   4.544434
    28  H    2.152048   4.237138   6.240348   4.439301   5.116771
    29  H    2.133129   3.820148   6.119105   4.559230   5.013395
                   11         12         13         14         15
    11  H    0.000000
    12  C    2.109526   0.000000
    13  C    2.587266   1.453824   0.000000
    14  C    4.642717   4.318514   5.765998   0.000000
    15  H    5.428744   4.717743   6.151619   1.087687   0.000000
    16  H    4.892900   4.830596   6.228234   1.085924   1.760099
    17  H    4.992340   4.901174   6.337417   1.084108   1.763456
    18  C    2.610459   4.362543   5.131361   4.556831   5.599366
    19  H    3.689286   5.421366   6.205338   5.053148   6.121086
    20  H    2.415898   4.408993   4.989780   5.079875   6.113078
    21  H    2.437243   4.119499   4.728210   5.011706   5.979985
    22  C    3.992870   2.596443   1.508668   6.701069   6.906570
    23  H    4.322356   2.797180   2.180160   6.436168   6.549404
    24  H    4.726260   3.104617   2.149638   7.099590   7.194765
    25  H    4.380835   3.423201   2.111526   7.595428   7.872246
    26  C    4.644915   2.589357   3.178724   4.740303   4.534301
    27  H    4.936173   2.834837   3.003326   5.619454   5.447493
    28  H    5.002608   3.092474   3.484956   5.199453   4.983718
    29  H    5.416568   3.422920   4.188600   4.563731   4.124119
                   16         17         18         19         20
    16  H    0.000000
    17  H    1.736584   0.000000
    18  C    4.635603   4.405438   0.000000
    19  H    5.053930   4.715739   1.084125   0.000000
    20  H    5.007127   5.113690   1.088812   1.756138   0.000000
    21  H    5.290348   4.832774   1.085335   1.765476   1.747768
    22  C    7.132711   7.402393   6.578441   7.659643   6.359949
    23  H    6.779142   7.255489   6.863109   7.944309   6.611104
    24  H    7.655814   7.754124   7.231829   8.299408   7.136050
    25  H    7.954557   8.285852   6.979655   8.047557   6.627944
    26  C    5.337849   5.537172   6.666828   7.664532   6.791824
    27  H    6.288475   6.320069   7.100129   8.118952   7.229851
    28  H    5.612271   6.112915   7.133685   8.148811   7.113398
    29  H    5.237611   5.331627   7.171886   8.104601   7.413293
                   21         22         23         24         25
    21  H    0.000000
    22  C    6.226673   0.000000
    23  H    6.668615   1.086555   0.000000
    24  H    6.780263   1.091912   1.764720   0.000000
    25  H    6.605042   1.088019   1.773618   1.760391   0.000000
    26  C    6.528791   3.047384   2.623185   3.014421   4.113072
    27  H    6.805383   2.642420   2.489935   2.253508   3.692633
    28  H    7.095051   3.027734   2.251408   3.174708   3.974921
    29  H    7.073240   4.110961   3.674815   3.954594   5.178909
                   26         27         28         29
    26  C    0.000000
    27  H    1.084118   0.000000
    28  H    1.089878   1.757910   0.000000
    29  H    1.088978   1.751062   1.753940   0.000000
 Stoichiometry    C11H15NO2
 Framework group  C1[X(C11H15NO2)]
 Deg. of freedom    81
 Full point group                 C1      NOp   1
 RotChk:  IX=0 Diff= 6.60D-16
 Largest Abelian subgroup         C1      NOp   1
 Largest concise Abelian subgroup C1      NOp   1
                         Standard orientation:                         
 ---------------------------------------------------------------------
 Center     Atomic      Atomic             Coordinates (Angstroms)
 Number     Number       Type             X           Y           Z
 ---------------------------------------------------------------------
      1          8           0       -2.288347   -2.284625   -0.249177
      2          8           0        3.619884   -0.256541    0.319817
      3          7           0       -0.022557    1.800079   -0.126336
      4          1           0       -0.050614    2.810132   -0.135910
      5          6           0        1.295659   -0.146343   -0.055698
      6          6           0       -1.231719    1.165004   -0.093257
      7          6           0        1.210481    1.237528   -0.042695
      8          6           0        2.559947   -0.842302    0.087735
      9          6           0        0.055276   -0.939321   -0.255792
     10          1           0        0.062018   -1.389222   -1.263066
     11          1           0        0.052782   -1.819450    0.392655
     12          6           0       -1.234516   -0.218063   -0.085386
     13          6           0       -2.398831   -1.082544    0.017812
     14          6           0        2.336707    2.206990    0.037290
     15          1           0        1.990681    3.224809   -0.128161
     16          1           0        2.820649    2.168024    1.008635
     17          1           0        3.103748    1.979697   -0.694336
     18          6           0        2.575059   -2.343109   -0.029719
     19          1           0        3.593369   -2.682490   -0.182007
     20          1           0        2.204903   -2.799606    0.886855
     21          1           0        1.955713   -2.712451   -0.840861
     22          6           0       -3.741263   -0.578752    0.487013
     23          1           0       -3.668168    0.217124    1.223111
     24          1           0       -4.327194   -0.209810   -0.357285
     25          1           0       -4.277898   -1.420526    0.919709
     26          6           0       -2.400258    2.093992   -0.100091
     27          1           0       -3.210759    1.715225   -0.712411
     28          1           0       -2.789790    2.265293    0.903280
     29          1           0       -2.113087    3.063559   -0.504253
 ---------------------------------------------------------------------
 Rotational constants (GHZ):           1.0761672           0.4902817           0.3441075
 Leave Link  202 at Sat Jan 24 19:08:55 2026, MaxMem=  2147483648 cpu:               0.0 elap:               0.0
 (Enter /data/home/wyx/g16/l301.exe)
 Standard basis: TZVP (5D, 7F)
 Ernie: Thresh=  0.10000D-02 Tol=  0.10000D-05 Strict=F.
 There are   370 symmetry adapted cartesian basis functions of A   symmetry.
 There are   356 symmetry adapted basis functions of A   symmetry.
   356 basis functions,   610 primitive gaussians,   370 cartesian basis functions
    52 alpha electrons       52 beta electrons
       nuclear repulsion energy       899.9447102557 Hartrees.
 IExCor=20419 DFT=T Ex+Corr=CAM-B3LYP ExCW=0 ScaHFX=  1.000000
 ScaDFX=  1.000000  1.000000  1.000000  0.810000 ScalE2=  1.000000  1.000000
 IRadAn=      5 IRanWt=     -1 IRanGd=            0 ICorTp=0 IEmpDi=141
 HFx  wShort=  0.000000 wLong=  0.330000 cFull=  0.190000 cShort=  0.000000 cLong=  0.460000
 DFx  wShort=  0.000000 wLong=  0.330000 cFull=  0.190000 cShort=  0.000000 cLong=  0.460000
 NAtoms=   29 NActive=   29 NUniq=   29 SFac= 1.00D+00 NAtFMM=   60 NAOKFM=F Big=F
 Integral buffers will be    131072 words long.
 Raffenetti 1 integral format.
 Two-electron integral symmetry is turned on.
 R6Disp:  Grimme-D3(BJ) Dispersion energy=       -0.0261585830 Hartrees.
 Nuclear repulsion after empirical dispersion term =      899.9185516727 Hartrees.
 ------------------------------------------------------------------------------
 Polarizable Continuum Model (PCM)
 =================================
 Model                : PCM.
 Atomic radii         : UFF (Universal Force Field).
 Polarization charges : Total charges.
 Charge compensation  : None.
 Solution method      : On-the-fly selection.
 Cavity type          : Scaled VdW (van der Waals Surface) (Alpha=1.100).
 Cavity algorithm     : GePol (No added spheres)
                        Default sphere list used, NSphG=   29.
                        Lebedev-Laikov grids with approx.  5.0 points / Ang**2.
                        Smoothing algorithm: York/Karplus (Gamma=1.0000).
                        Polarization charges: spherical gaussians, with
                                              point-specific exponents (IZeta= 3).
                        Self-potential: point-specific (ISelfS= 7).
                        Self-field    : sphere-specific E.n sum rule (ISelfD= 2).
 1st derivatives      : Analytical E(r).r(x)/FMM algorithm (CHGder, D1EAlg=3).
                        Cavity 1st derivative terms included.
 Solvent              : Water, Eps=  78.355300 Eps(inf)=   1.777849
 ------------------------------------------------------------------------------
 GePol: Number of generator spheres                  =      29
 GePol: Total number of spheres                      =      29
 GePol: Number of exposed spheres                    =      29 (100.00%)
 GePol: Number of points                             =    2126
 GePol: Average weight of points                     =       0.13
 GePol: Minimum weight of points                     =   0.18D-11
 GePol: Maximum weight of points                     =    0.20577
 GePol: Number of points with low weight             =     138
 GePol: Fraction of low-weight points (<1% of avg)   =       6.49%
 GePol: Cavity surface area                          =    268.919 Ang**2
 GePol: Cavity volume                                =    286.938 Ang**3
 Leave Link  301 at Sat Jan 24 19:08:55 2026, MaxMem=  2147483648 cpu:               0.6 elap:               0.0
 (Enter /data/home/wyx/g16/l302.exe)
 NPDir=0 NMtPBC=     1 NCelOv=     1 NCel=       1 NClECP=     1 NCelD=      1
         NCelK=      1 NCelE2=     1 NClLst=     1 CellRange=     0.0.
 One-electron integrals computed using PRISM.
 One-electron integral symmetry used in STVInt
 NBasis=   356 RedAO= T EigKep=  4.46D-05  NBF=   356
 NBsUse=   356 1.00D-06 EigRej= -1.00D+00 NBFU=   356
 Precomputing XC quadrature grid using
 IXCGrd= 4 IRadAn=           5 IRanWt=          -1 IRanGd=           0 AccXCQ= 0.00D+00.
 Generated NRdTot=       0 NPtTot=           0 NUsed=           0 NTot=          32
 NSgBfM=   366   366   366   366   366 MxSgAt=    29 MxSgA2=    29.
 Leave Link  302 at Sat Jan 24 19:08:55 2026, MaxMem=  2147483648 cpu:               3.2 elap:               0.2
 (Enter /data/home/wyx/g16/l303.exe)
 DipDrv:  MaxL=1.
 Leave Link  303 at Sat Jan 24 19:08:55 2026, MaxMem=  2147483648 cpu:               0.6 elap:               0.0
 (Enter /data/home/wyx/g16/l308.exe)
 Leave Link  308 at Sat Jan 24 19:08:55 2026, MaxMem=  2147483648 cpu:               0.7 elap:               0.1
 (Enter /data/home/wyx/g16/l401.exe)
 Initial guess from the checkpoint file:  "DDL-S1-cLR-6.chk"
 B after Tr=     0.000000    0.000000    0.000000
         Rot=    1.000000    0.000000   -0.000000    0.000000 Ang=   0.00 deg.
 Guess basis will be translated and rotated to current coordinates.
 JPrj=2 DoOrth=T DoCkMO=T.
 Leave Link  401 at Sat Jan 24 19:08:56 2026, MaxMem=  2147483648 cpu:               2.2 elap:               0.2
 (Enter /data/home/wyx/g16/l502.exe)
 Integral symmetry usage will be decided dynamically.
 Closed shell SCF:
 Using DIIS extrapolation, IDIIS=  1040.
 NGot=  2147483648 LenX=  2147200095 LenY=  2147062754
 Requested convergence on RMS density matrix=1.00D-08 within 128 cycles.
 Requested convergence on MAX density matrix=1.00D-06.
 Requested convergence on             energy=1.00D-06.
 No special actions if energy rises.
 Fock matrices will be formed incrementally for  20 cycles.

 Cycle   1  Pass 1  IDiag  1:
 FoFJK:  IHMeth= 1 ICntrl=       0 DoSepK=T KAlg= 0 I1Cent=           0 FoldK=F
 IRaf=         1 NMat=       1 IRICut=       1 DoRegI=T DoRafI=F ISym2E= 0 IDoP0=0 IntGTp=1.
 FoFCou: FMM=F IPFlag=           0 FMFlag=      100000 FMFlg1=           0
         NFxFlg=           0 DoJE=T BraDBF=F KetDBF=F FulRan=T
         wScrn=  0.000000 ICntrl=       500 IOpCl=  0 I1Cent=           0 NGrid=           0
         NMat0=    1 NMatS0=      1 NMatT0=    0 NMatD0=    1 NMtDS0=    0 NMtDT0=    0
 Symmetry not used in FoFCou.
 Inv3:  Mode=1 IEnd=    13559628.
 Iteration    1 A*A^-1 deviation from unit magnitude is 3.33D-15 for   1966.
 Iteration    1 A*A^-1 deviation from orthogonality  is 2.00D-15 for   2063   1891.
 Iteration    1 A^-1*A deviation from unit magnitude is 3.55D-15 for   1966.
 Iteration    1 A^-1*A deviation from orthogonality  is 1.87D-15 for   1431     25.
 E= -633.327626040153    
 DIIS: error= 1.25D-08 at cycle   1 NSaved=   1.
 NSaved= 1 IEnMin= 1 EnMin= -633.327626040153     IErMin= 1 ErrMin= 1.25D-08
 ErrMax= 1.25D-08  0.00D+00 EMaxC= 1.00D-01 BMatC= 5.06D-14 BMatP= 5.06D-14
 IDIUse=1 WtCom= 1.00D+00 WtEn= 0.00D+00
 Coeff-Com:  0.100D+01
 Coeff:      0.100D+01
 Gap=     0.223 Goal=   None    Shift=    0.000
 RMSDP=2.77D-09 MaxDP=9.42D-08              OVMax= 2.40D-07

 Error on total polarization charges =  0.01551
 SCF Done:  E(RCAM-B3LYP) =  -633.327626040     A.U. after    1 cycles
            NFock=  1  Conv=0.28D-08     -V/T= 2.0042
 KE= 6.306916460203D+02 PE=-3.275838261392D+03 EE= 1.111900437659D+03
 Leave Link  502 at Sat Jan 24 19:09:01 2026, MaxMem=  2147483648 cpu:              85.6 elap:               5.6
 (Enter /data/home/wyx/g16/l801.exe)
 DoSCS=F DFT=T ScalE2(SS,OS)=  1.000000  1.000000
 ExpMin= 9.52D-02 ExpMax= 2.70D+04 ExpMxC= 9.22D+02 IAcc=3 IRadAn=         5 AccDes= 0.00D+00
 HarFok:  IExCor=  205 AccDes= 0.00D+00 IRadAn=         5 IDoV=-2 UseB2=F ITyADJ=14
 ICtDFT= 12500011 ScaDFX=  1.000000  1.000000  1.000000  1.000000
 Largest valence mixing into a core orbital is  5.60D-05
 Largest core mixing into a valence orbital is  1.17D-05
 Range of M.O.s used for correlation:    15   356
 NBasis=   356 NAE=    52 NBE=    52 NFC=    14 NFV=     0
 NROrb=    342 NOA=    38 NOB=    38 NVA=   304 NVB=   304

 **** Warning!!: The largest alpha MO coefficient is  0.60805496D+02

 Leave Link  801 at Sat Jan 24 19:09:02 2026, MaxMem=  2147483648 cpu:               1.0 elap:               0.1
 (Enter /data/home/wyx/g16/l914.exe)
 RHF ground state
 Two-electron integrals replicated using symmetry.
 MDV=  2147483648 DFT=T DoStab=F Mixed=T DoRPA=T DoScal=F NonHer=T
 NEqPCM:  Using equilibrium solvation (IEInf=0, Eps=  78.3553, EpsInf=   1.7778)
 Making orbital integer symmetry assigments:
 Orbital symmetries:
       Occupied  (A) (A) (A) (A) (A) (A) (A) (A) (A) (A) (A) (A)
                 (A) (A) (A) (A) (A) (A) (A) (A) (A) (A) (A) (A)
                 (A) (A) (A) (A) (A) (A) (A) (A) (A) (A) (A) (A)
                 (A) (A) (A) (A) (A) (A) (A) (A) (A) (A) (A) (A)
                 (A) (A) (A) (A)
       Virtual   (A) (A) (A) (A) (A) (A) (A) (A) (A) (A) (A) (A)
                 (A) (A) (A) (A) (A) (A) (A) (A) (A) (A) (A) (A)
                 (A) (A) (A) (A) (A) (A) (A) (A) (A) (A) (A) (A)
                 (A) (A) (A) (A) (A) (A) (A) (A) (A) (A) (A) (A)
                 (A) (A) (A) (A) (A) (A) (A) (A) (A) (A) (A) (A)
                 (A) (A) (A) (A) (A) (A) (A) (A) (A) (A) (A) (A)
                 (A) (A) (A) (A) (A) (A) (A) (A) (A) (A) (A) (A)
                 (A) (A) (A) (A) (A) (A) (A) (A) (A) (A) (A) (A)
                 (A) (A) (A) (A) (A) (A) (A) (A) (A) (A) (A) (A)
                 (A) (A) (A) (A) (A) (A) (A) (A) (A) (A) (A) (A)
                 (A) (A) (A) (A) (A) (A) (A) (A) (A) (A) (A) (A)
                 (A) (A) (A) (A) (A) (A) (A) (A) (A) (A) (A) (A)
                 (A) (A) (A) (A) (A) (A) (A) (A) (A) (A) (A) (A)
                 (A) (A) (A) (A) (A) (A) (A) (A) (A) (A) (A) (A)
                 (A) (A) (A) (A) (A) (A) (A) (A) (A) (A) (A) (A)
                 (A) (A) (A) (A) (A) (A) (A) (A) (A) (A) (A) (A)
                 (A) (A) (A) (A) (A) (A) (A) (A) (A) (A) (A) (A)
                 (A) (A) (A) (A) (A) (A) (A) (A) (A) (A) (A) (A)
                 (A) (A) (A) (A) (A) (A) (A) (A) (A) (A) (A) (A)
                 (A) (A) (A) (A) (A) (A) (A) (A) (A) (A) (A) (A)
                 (A) (A) (A) (A) (A) (A) (A) (A) (A) (A) (A) (A)
                 (A) (A) (A) (A) (A) (A) (A) (A) (A) (A) (A) (A)
                 (A) (A) (A) (A) (A) (A) (A) (A) (A) (A) (A) (A)
                 (A) (A) (A) (A) (A) (A) (A) (A) (A) (A) (A) (A)
                 (A) (A) (A) (A) (A) (A) (A) (A) (A) (A) (A) (A)
                 (A) (A) (A) (A)
 PCM Corrected Linear-Response:
 Compute the excitation energies in the ground state reaction field.
    24 initial guesses have been made.
 Convergence on wavefunction:    0.000001000000000
 Davidson Disk Diagonalization:  ConvIn= 1.00D-06 SkipCon=T Conv= 1.00D-06.
 Max sub-space:  2000 roots to seek:    24 dimension of matrix:        23104
 Iteration     1 Dimension    24 NMult     0 NNew     24
 CISAX will form    24 AO SS matrices at one time.
 NMat=    24 NSing=    24 JSym2X= 0.
 FoFJK:  IHMeth= 1 ICntrl=       0 DoSepK=T KAlg= 0 I1Cent=           0 FoldK=F
 IRaf=         1 NMat=      48 IRICut=       1 DoRegI=T DoRafI=F ISym2E= 0 IDoP0=3 IntGTp=3.
 FoFCou: FMM=F IPFlag=           0 FMFlag=      100000 FMFlg1=           0
         NFxFlg=           0 DoJE=F BraDBF=F KetDBF=F FulRan=T
         wScrn=  0.000000 ICntrl=       500 IOpCl=  0 I1Cent=           0 NGrid=           0
         NMat0=   24 NMatS0=     24 NMatT0=    0 NMatD0=   24 NMtDS0=    0 NMtDT0=    0
 Symmetry not used in FoFCou.
 New state      2 was old state      3
 New state      3 was old state      4
 New state      4 was old state      2
 New state      5 was old state      6
 New state      6 was old state      5
 Excitation Energies [eV] at current iteration:
 Root      1 :     3.670793233952625
 Root      2 :     4.237855445664465
 Root      3 :     4.448735564100290
 Root      4 :     5.375080519900974
 Root      5 :     6.026048720291818
 Root      6 :     6.367003762814600
 Root      7 :     6.655925897122303
 Root      8 :     6.770127179014102
 Root      9 :     6.950533369359917
 Root     10 :     6.992442342086775
 Root     11 :     7.186353535019576
 Root     12 :     7.321511925520749
 Root     13 :     7.415030717897728
 Root     14 :     7.442238223041299
 Root     15 :     7.820885391081793
 Root     16 :     7.867385030041305
 Root     17 :     8.083573476542053
 Root     18 :     8.165091534351749
 Root     19 :     8.257306974926106
 Root     20 :     8.327417384592501
 Root     21 :     8.511251227215704
 Root     22 :     8.722201434335696
 Root     23 :     8.858929579592131
 Root     24 :     8.997902912779766
 Iteration     2 Dimension    36 NMult    24 NNew     12
 CISAX will form    12 AO SS matrices at one time.
 NMat=    12 NSing=    12 JSym2X= 0.
 Root      1 not converged, maximum delta is    0.035690218267820
 Root      2 not converged, maximum delta is    0.075122608475700
 Root      3 not converged, maximum delta is    0.082384988827380
 Root      4 not converged, maximum delta is    0.188688868547907
 New state      5 was old state      6
 Root      5 not converged, maximum delta is    0.186995247584724
 New state      6 was old state      5
 Root      6 not converged, maximum delta is    0.090699802162994
 Excitation Energies [eV] at current iteration:
 Root      1 :     3.199607274223157   Change is   -0.471185959729468
 Root      2 :     4.019148428450037   Change is   -0.218707017214428
 Root      3 :     4.189635829410204   Change is   -0.259099734690087
 Root      4 :     5.061626600815334   Change is   -0.313453919085640
 Root      5 :     5.521457249850300   Change is   -0.845546512964300
 Root      6 :     5.920209635100969   Change is   -0.105839085190849
 Iteration     3 Dimension    48 NMult    36 NNew     12
 CISAX will form    12 AO SS matrices at one time.
 NMat=    12 NSing=    12 JSym2X= 0.
 Root      1 not converged, maximum delta is    0.008122459988184
 Root      2 not converged, maximum delta is    0.014153108831950
 Root      3 not converged, maximum delta is    0.012038737022752
 Root      4 not converged, maximum delta is    0.020871473452722
 Root      5 not converged, maximum delta is    0.023912152183977
 Root      6 not converged, maximum delta is    0.007502429373176
 Excitation Energies [eV] at current iteration:
 Root      1 :     3.179562359724329   Change is   -0.020044914498829
 Root      2 :     4.006382977445737   Change is   -0.012765451004300
 Root      3 :     4.175873891201494   Change is   -0.013761938208710
 Root      4 :     5.041835293395453   Change is   -0.019791307419882
 Root      5 :     5.483858714681889   Change is   -0.037598535168411
 Root      6 :     5.914855465373555   Change is   -0.005354169727414
 Iteration     4 Dimension    60 NMult    48 NNew     12
 CISAX will form    12 AO SS matrices at one time.
 NMat=    12 NSing=    12 JSym2X= 0.
 Root      1 not converged, maximum delta is    0.002196275184989
 Root      2 not converged, maximum delta is    0.001909217828995
 Root      3 not converged, maximum delta is    0.002151181300987
 Root      4 not converged, maximum delta is    0.002464112189688
 Root      5 not converged, maximum delta is    0.003973426522002
 Root      6 not converged, maximum delta is    0.002223167208433
 Excitation Energies [eV] at current iteration:
 Root      1 :     3.178051923087410   Change is   -0.001510436636919
 Root      2 :     4.005699023970019   Change is   -0.000683953475719
 Root      3 :     4.174934042539435   Change is   -0.000939848662059
 Root      4 :     5.040024058655146   Change is   -0.001811234740306
 Root      5 :     5.480049400200741   Change is   -0.003809314481148
 Root      6 :     5.914503608953403   Change is   -0.000351856420152
 Iteration     5 Dimension    72 NMult    60 NNew     12
 CISAX will form    12 AO SS matrices at one time.
 NMat=    12 NSing=    12 JSym2X= 0.
 Root      1 not converged, maximum delta is    0.000747398175552
 Root      2 not converged, maximum delta is    0.000355207890782
 Root      3 not converged, maximum delta is    0.000511745688609
 Root      4 not converged, maximum delta is    0.000535037708759
 Root      5 not converged, maximum delta is    0.001239733704253
 Root      6 not converged, maximum delta is    0.000387109234814
 Excitation Energies [eV] at current iteration:
 Root      1 :     3.177964381895833   Change is   -0.000087541191577
 Root      2 :     4.005644934306125   Change is   -0.000054089663894
 Root      3 :     4.174885864400446   Change is   -0.000048178138989
 Root      4 :     5.039896664798918   Change is   -0.000127393856228
 Root      5 :     5.479748842412399   Change is   -0.000300557788342
 Root      6 :     5.914475727135480   Change is   -0.000027881817923
 Iteration     6 Dimension    84 NMult    72 NNew     12
 CISAX will form    12 AO SS matrices at one time.
 NMat=    12 NSing=    12 JSym2X= 0.
 Root      1 not converged, maximum delta is    0.000157545631442
 Root      2 not converged, maximum delta is    0.000107040032177
 Root      3 not converged, maximum delta is    0.000109087797020
 Root      4 not converged, maximum delta is    0.000219556479077
 Root      5 not converged, maximum delta is    0.000696588529303
 Root      6 not converged, maximum delta is    0.000183612502170
 Excitation Energies [eV] at current iteration:
 Root      1 :     3.177960176397003   Change is   -0.000004205498830
 Root      2 :     4.005641877830806   Change is   -0.000003056475319
 Root      3 :     4.174883220527223   Change is   -0.000002643873223
 Root      4 :     5.039887292908461   Change is   -0.000009371890456
 Root      5 :     5.479720621202997   Change is   -0.000028221209402
 Root      6 :     5.914473078521060   Change is   -0.000002648614420
 Iteration     7 Dimension    96 NMult    84 NNew     12
 CISAX will form    12 AO SS matrices at one time.
 NMat=    12 NSing=    12 JSym2X= 0.
 Root      1 not converged, maximum delta is    0.000017103378728
 Root      2 not converged, maximum delta is    0.000023380687871
 Root      3 not converged, maximum delta is    0.000027816959219
 Root      4 not converged, maximum delta is    0.000064996519784
 Root      5 not converged, maximum delta is    0.000249596680375
 Root      6 not converged, maximum delta is    0.000072267333036
 Excitation Energies [eV] at current iteration:
 Root      1 :     3.177959949435057   Change is   -0.000000226961947
 Root      2 :     4.005641715701445   Change is   -0.000000162129360
 Root      3 :     4.174883069422350   Change is   -0.000000151104873
 Root      4 :     5.039886575872714   Change is   -0.000000717035748
 Root      5 :     5.479717310162773   Change is   -0.000003311040224
 Root      6 :     5.914472834065911   Change is   -0.000000244455149
 Iteration     8 Dimension   108 NMult    96 NNew     12
 CISAX will form    12 AO SS matrices at one time.
 NMat=    12 NSing=    12 JSym2X= 0.
 Root      1 not converged, maximum delta is    0.000002200061595
 Root      2 not converged, maximum delta is    0.000002957982549
 Root      3 not converged, maximum delta is    0.000002720949787
 Root      4 not converged, maximum delta is    0.000018494901401
 Root      5 not converged, maximum delta is    0.000033682255149
 Root      6 not converged, maximum delta is    0.000017312161937
 Excitation Energies [eV] at current iteration:
 Root      1 :     3.177959942205619   Change is   -0.000000007229437
 Root      2 :     4.005641707673614   Change is   -0.000000008027832
 Root      3 :     4.174883060858942   Change is   -0.000000008563408
 Root      4 :     5.039886524063425   Change is   -0.000000051809289
 Root      5 :     5.479717076706117   Change is   -0.000000233456656
 Root      6 :     5.914472809693776   Change is   -0.000000024372135
 Iteration     9 Dimension   120 NMult   108 NNew     12
 CISAX will form    12 AO SS matrices at one time.
 NMat=    12 NSing=    12 JSym2X= 0.
 Root      1 has converged.
 Root      2 has converged.
 Root      3 has converged.
 Root      4 not converged, maximum delta is    0.000003273468253
 Root      5 not converged, maximum delta is    0.000006435606695
 Root      6 not converged, maximum delta is    0.000004940636339
 Excitation Energies [eV] at current iteration:
 Root      1 :     3.177959942007884   Change is   -0.000000000197735
 Root      2 :     4.005641707365749   Change is   -0.000000000307864
 Root      3 :     4.174883060592307   Change is   -0.000000000266635
 Root      4 :     5.039886521400249   Change is   -0.000000002663176
 Root      5 :     5.479717064518673   Change is   -0.000000012187444
 Root      6 :     5.914472807660796   Change is   -0.000000002032980
 Iteration    10 Dimension   126 NMult   120 NNew      6
 CISAX will form     6 AO SS matrices at one time.
 NMat=     6 NSing=     6 JSym2X= 0.
 Root      1 has converged.
 Root      2 has converged.
 Root      3 has converged.
 Root      4 has converged.
 Root      5 not converged, maximum delta is    0.000001092493400
 Root      6 not converged, maximum delta is    0.000001299191332
 Excitation Energies [eV] at current iteration:
 Root      1 :     3.177959942007574   Change is   -0.000000000000310
 Root      2 :     4.005641707364374   Change is   -0.000000000001375
 Root      3 :     4.174883060591775   Change is   -0.000000000000532
 Root      4 :     5.039886521289805   Change is   -0.000000000110444
 Root      5 :     5.479717063919998   Change is   -0.000000000598675
 Root      6 :     5.914472807521094   Change is   -0.000000000139703
 Iteration    11 Dimension   130 NMult   126 NNew      4
 CISAX will form     4 AO SS matrices at one time.
 NMat=     4 NSing=     4 JSym2X= 0.
 Root      1 has converged.
 Root      2 has converged.
 Root      3 has converged.
 Root      4 has converged.
 Root      5 has converged.
 Root      6 has converged.
 Excitation Energies [eV] at current iteration:
 Root      1 :     3.177959942007599   Change is    0.000000000000026
 Root      2 :     4.005641707364271   Change is   -0.000000000000103
 Root      3 :     4.174883060591676   Change is   -0.000000000000099
 Root      4 :     5.039886521288256   Change is   -0.000000000001549
 Root      5 :     5.479717063892214   Change is   -0.000000000027784
 Root      6 :     5.914472807511726   Change is   -0.000000000009368
 Convergence achieved on expansion vectors.
 PCM Corrected Linear-Response:
 The state of interest is root number   1
 Excitation energy =    3.1780 eV, Total energy =  -633.210838161    
 Recompute the excitation energies using the linear response reaction field.
 Convergence on wavefunction:    0.000001000000000
 Davidson Disk Diagonalization:  ConvIn= 1.00D-06 SkipCon=T Conv= 1.00D-06.
 Max sub-space:  2000 roots to seek:     6 dimension of matrix:        23104
 Iteration     1 Dimension     6 NMult     0 NNew      6
 CISAX will form     6 AO SS matrices at one time.
 NMat=     6 NSing=     6 JSym2X= 0.
 Excitation Energies [eV] at current iteration:
 Root      1 :     3.264740056285885
 Root      2 :     4.030649328699236
 Root      3 :     4.200155014366013
 Root      4 :     5.103142777515469
 Root      5 :     5.625859862515970
 Root      6 :     5.874176078281272
 Iteration     2 Dimension    18 NMult     6 NNew     12
 CISAX will form    12 AO SS matrices at one time.
 NMat=    12 NSing=    12 JSym2X= 0.
 Root      1 not converged, maximum delta is    0.019575028121100
 Root      2 not converged, maximum delta is    0.007470520174632
 Root      3 not converged, maximum delta is    0.008889245215222
 Root      4 not converged, maximum delta is    0.225472021859106
 Root      5 not converged, maximum delta is    0.291579480277555
 Root      6 not converged, maximum delta is    0.062853062174172
 Excitation Energies [eV] at current iteration:
 Root      1 :     3.032964238890971   Change is   -0.231775817394915
 Root      2 :     4.000410431750829   Change is   -0.030238896948407
 Root      3 :     4.168411888095540   Change is   -0.031743126270473
 Root      4 :     4.871808964669800   Change is   -0.231333812845669
 Root      5 :     5.328102099925490   Change is   -0.297757762590481
 Root      6 :     5.850712704598707   Change is   -0.023463373682566
 Iteration     3 Dimension    30 NMult    18 NNew     12
 CISAX will form    12 AO SS matrices at one time.
 NMat=    12 NSing=    12 JSym2X= 0.
 Root      1 not converged, maximum delta is    0.002714787374779
 Root      2 not converged, maximum delta is    0.001097128239872
 Root      3 not converged, maximum delta is    0.001422651708040
 Root      4 not converged, maximum delta is    0.012185203556205
 Root      5 not converged, maximum delta is    0.014677262513525
 Root      6 not converged, maximum delta is    0.008762042762243
 Excitation Energies [eV] at current iteration:
 Root      1 :     3.029513062093932   Change is   -0.003451176797039
 Root      2 :     4.000085943313378   Change is   -0.000324488437451
 Root      3 :     4.168033054001850   Change is   -0.000378834093690
 Root      4 :     4.861778187513859   Change is   -0.010030777155941
 Root      5 :     5.319181404636640   Change is   -0.008920695288850
 Root      6 :     5.848839784143569   Change is   -0.001872920455138
 Iteration     4 Dimension    42 NMult    30 NNew     12
 CISAX will form    12 AO SS matrices at one time.
 NMat=    12 NSing=    12 JSym2X= 0.
 Root      1 not converged, maximum delta is    0.001726889422967
 Root      2 not converged, maximum delta is    0.000209204458092
 Root      3 not converged, maximum delta is    0.000249549144950
 Root      4 not converged, maximum delta is    0.002889027825773
 Root      5 not converged, maximum delta is    0.004514647103412
 Root      6 not converged, maximum delta is    0.009035825490767
 Excitation Energies [eV] at current iteration:
 Root      1 :     3.029097102274818   Change is   -0.000415959819114
 Root      2 :     4.000070559045659   Change is   -0.000015384267719
 Root      3 :     4.168009887299315   Change is   -0.000023166702535
 Root      4 :     4.860034670973669   Change is   -0.001743516540190
 Root      5 :     5.317661584479090   Change is   -0.001519820157550
 Root      6 :     5.848263655233418   Change is   -0.000576128910150
 Iteration     5 Dimension    54 NMult    42 NNew     12
 CISAX will form    12 AO SS matrices at one time.
 NMat=    12 NSing=    12 JSym2X= 0.
 Root      1 not converged, maximum delta is    0.000375982445232
 Root      2 not converged, maximum delta is    0.000085761279242
 Root      3 not converged, maximum delta is    0.000085746474535
 Root      4 not converged, maximum delta is    0.000677186082169
 Root      5 not converged, maximum delta is    0.000685867180374
 Root      6 not converged, maximum delta is    0.003356180527326
 Excitation Energies [eV] at current iteration:
 Root      1 :     3.029069075864448   Change is   -0.000028026410370
 Root      2 :     4.000069520545605   Change is   -0.000001038500054
 Root      3 :     4.168007953214250   Change is   -0.000001934085065
 Root      4 :     4.859881298622946   Change is   -0.000153372350722
 Root      5 :     5.317520986150104   Change is   -0.000140598328986
 Root      6 :     5.848158412387053   Change is   -0.000105242846365
 Iteration     6 Dimension    66 NMult    54 NNew     12
 CISAX will form    12 AO SS matrices at one time.
 NMat=    12 NSing=    12 JSym2X= 0.
 Root      1 not converged, maximum delta is    0.000067264139682
 Root      2 not converged, maximum delta is    0.000025032847482
 Root      3 not converged, maximum delta is    0.000032867768858
 Root      4 not converged, maximum delta is    0.000250745617972
 Root      5 not converged, maximum delta is    0.000264525133335
 Root      6 not converged, maximum delta is    0.000820026339567
 Excitation Energies [eV] at current iteration:
 Root      1 :     3.029067484754360   Change is   -0.000001591110088
 Root      2 :     4.000069419251119   Change is   -0.000000101294486
 Root      3 :     4.168007780722715   Change is   -0.000000172491535
 Root      4 :     4.859866983482514   Change is   -0.000014315140432
 Root      5 :     5.317507402258652   Change is   -0.000013583891451
 Root      6 :     5.848144525692029   Change is   -0.000013886695024
 Iteration     7 Dimension    78 NMult    66 NNew     12
 CISAX will form    12 AO SS matrices at one time.
 NMat=    12 NSing=    12 JSym2X= 0.
 Root      1 not converged, maximum delta is    0.000011325860712
 Root      2 not converged, maximum delta is    0.000006147046898
 Root      3 not converged, maximum delta is    0.000006446779949
 Root      4 not converged, maximum delta is    0.000107853799522
 Root      5 not converged, maximum delta is    0.000094284166811
 Root      6 not converged, maximum delta is    0.000141470626896
 Excitation Energies [eV] at current iteration:
 Root      1 :     3.029067425158657   Change is   -0.000000059595702
 Root      2 :     4.000069414137325   Change is   -0.000000005113794
 Root      3 :     4.168007772383342   Change is   -0.000000008339372
 Root      4 :     4.859865914141252   Change is   -0.000001069341262
 Root      5 :     5.317506341511888   Change is   -0.000001060746764
 Root      6 :     5.848143107938994   Change is   -0.000001417753035
 Iteration     8 Dimension    90 NMult    78 NNew     12
 CISAX will form    12 AO SS matrices at one time.
 NMat=    12 NSing=    12 JSym2X= 0.
 Root      1 not converged, maximum delta is    0.000002713563066
 Root      2 not converged, maximum delta is    0.000001383606464
 Root      3 not converged, maximum delta is    0.000001018219474
 Root      4 not converged, maximum delta is    0.000025256154426
 Root      5 not converged, maximum delta is    0.000031869121644
 Root      6 not converged, maximum delta is    0.000044689768421
 Excitation Energies [eV] at current iteration:
 Root      1 :     3.029067422400764   Change is   -0.000000002757893
 Root      2 :     4.000069413965309   Change is   -0.000000000172016
 Root      3 :     4.168007771906883   Change is   -0.000000000476460
 Root      4 :     4.859865831135453   Change is   -0.000000083005799
 Root      5 :     5.317506227021836   Change is   -0.000000114490052
 Root      6 :     5.848142938622487   Change is   -0.000000169316506
 Iteration     9 Dimension   102 NMult    90 NNew     12
 CISAX will form    12 AO SS matrices at one time.
 NMat=    12 NSing=    12 JSym2X= 0.
 Root      1 has converged.
 Root      2 has converged.
 Root      3 has converged.
 Root      4 not converged, maximum delta is    0.000006146100123
 Root      5 not converged, maximum delta is    0.000009549263734
 Root      6 not converged, maximum delta is    0.000022721837137
 Excitation Energies [eV] at current iteration:
 Root      1 :     3.029067422284145   Change is   -0.000000000116619
 Root      2 :     4.000069413957540   Change is   -0.000000000007769
 Root      3 :     4.168007771874812   Change is   -0.000000000032070
 Root      4 :     4.859865826386654   Change is   -0.000000004748799
 Root      5 :     5.317506217685826   Change is   -0.000000009336011
 Root      6 :     5.848142919209955   Change is   -0.000000019412533
 Iteration    10 Dimension   108 NMult   102 NNew      6
 CISAX will form     6 AO SS matrices at one time.
 NMat=     6 NSing=     6 JSym2X= 0.
 Root      1 has converged.
 Root      2 has converged.
 Root      3 has converged.
 Root      4 not converged, maximum delta is    0.000001436542616
 Root      5 not converged, maximum delta is    0.000002726252389
 Root      6 not converged, maximum delta is    0.000007576166093
 Excitation Energies [eV] at current iteration:
 Root      1 :     3.029067422283629   Change is   -0.000000000000516
 Root      2 :     4.000069413957355   Change is   -0.000000000000185
 Root      3 :     4.168007771874261   Change is   -0.000000000000552
 Root      4 :     4.859865826140329   Change is   -0.000000000246325
 Root      5 :     5.317506217037117   Change is   -0.000000000648708
 Root      6 :     5.848142917210231   Change is   -0.000000001999724
 Iteration    11 Dimension   114 NMult   108 NNew      6
 CISAX will form     6 AO SS matrices at one time.
 NMat=     6 NSing=     6 JSym2X= 0.
 Root      1 has converged.
 Root      2 has converged.
 Root      3 has converged.
 Root      4 has converged.
 Root      5 has converged.
 Root      6 not converged, maximum delta is    0.000001249459395
 Excitation Energies [eV] at current iteration:
 Root      1 :     3.029067422283521   Change is   -0.000000000000108
 Root      2 :     4.000069413957335   Change is   -0.000000000000020
 Root      3 :     4.168007771874161   Change is   -0.000000000000099
 Root      4 :     4.859865826125240   Change is   -0.000000000015089
 Root      5 :     5.317506216988759   Change is   -0.000000000048358
 Root      6 :     5.848142917036668   Change is   -0.000000000173562
 Iteration    12 Dimension   116 NMult   114 NNew      2
 CISAX will form     2 AO SS matrices at one time.
 NMat=     2 NSing=     2 JSym2X= 0.
 Root      1 has converged.
 Root      2 has converged.
 Root      3 has converged.
 Root      4 has converged.
 Root      5 has converged.
 Root      6 has converged.
 Excitation Energies [eV] at current iteration:
 Root      1 :     3.029067422283548   Change is    0.000000000000027
 Root      2 :     4.000069413957294   Change is   -0.000000000000041
 Root      3 :     4.168007771874181   Change is    0.000000000000020
 Root      4 :     4.859865826125190   Change is   -0.000000000000051
 Root      5 :     5.317506216988728   Change is   -0.000000000000031
 Root      6 :     5.848142917023553   Change is   -0.000000000013115
 Convergence achieved on expansion vectors.
 ***********************************************************************
 Excited states from <AA,BB:AA,BB> singles matrix:
 ***********************************************************************
 
 1PDM for each excited state written to RWF  633
 Ground to excited state transition densities written to RWF  633
 Ground to excited state transition electric dipole moments (Au):
       state          X           Y           Z        Dip. S.      Osc.
         1         1.7227      0.2104      0.0558      3.0152      0.2238
         2         0.0545     -0.0334      0.0384      0.0056      0.0005
         3        -0.0460     -0.1484      0.0289      0.0250      0.0026
         4         0.2056     -1.9640      0.0806      3.9060      0.4651
         5         0.0740     -1.4698     -0.0004      2.1658      0.2822
         6        -0.0264      0.2584      0.0394      0.0690      0.0099
 Ground to excited state transition velocity dipole moments (Au):
       state          X           Y           Z        Dip. S.      Osc.
         1        -0.1845     -0.0192     -0.0066      0.0344      0.2062
         2        -0.0076      0.0052     -0.0024      0.0001      0.0004
         3         0.0065      0.0205     -0.0010      0.0005      0.0020
         4        -0.0408      0.3363     -0.0110      0.1149      0.4289
         5        -0.0144      0.2823     -0.0011      0.0799      0.2726
         6         0.0068     -0.0526     -0.0285      0.0036      0.0112
 Ground to excited state transition magnetic dipole moments (Au):
       state          X           Y           Z
         1        -0.0354     -0.0424      1.4590
         2         0.7964      0.1211      0.1830
         3        -0.1809     -0.9772     -0.2152
         4         0.0476      0.1004     -0.1108
         5         0.1351      0.1037     -0.2617
         6         0.1293      0.0279     -0.0509
 Ground to excited state transition velocity quadrupole moments (Au):
       state          XX          YY          ZZ          XY          XZ          YZ
         1        -0.1860      0.1017      0.0046      0.5120     -0.0400      0.0177
         2         0.0172     -0.0091     -0.0052      0.0266     -0.0086      0.0841
         3         0.0060      0.0015     -0.0228     -0.0673      0.0652     -0.0102
         4        -1.4094      0.3001      0.0120     -0.1186     -0.0880     -0.0333
         5        -0.3474      0.2624      0.0347     -0.2194     -0.0577      0.0167
         6        -0.2374     -0.2002      0.1668     -0.0246     -0.0389      0.1732
 <0|del|b> * <b|rxdel|0> + <0|del|b> * <b|delr+rdel|0>
 Rotatory Strengths (R) in cgs (10**-40 erg-esu-cm/Gauss)
       state          XX          YY          ZZ    R(velocity)    E-M Angle
         1       -41.3495     -9.5558     36.0967     -4.9362       90.49
         2         0.4068    -17.0599    -11.6465     -9.4332      138.15
         3       -48.6754     -2.5403    -45.7480    -32.3212      163.44
         4       130.4800     -1.3240      1.7249     43.6270       51.59
         5        83.4635     -3.8674     20.4003     33.3321       71.76
         6        -2.2358      4.6206      0.4672      0.9507       84.17
 1/2[<0|r|b>*<b|rxdel|0> + (<0|rxdel|b>*<b|r|0>)*]
 Rotatory Strengths (R) in cgs (10**-40 erg-esu-cm/Gauss)
       state          XX          YY          ZZ     R(length)
         1        43.0942      6.3073    -57.5716     -2.7234
         2       -30.6876      2.8630     -4.9705    -10.9317
         3        -5.8833   -102.5811      4.3961    -34.6894
         4        -6.9168    139.4643      6.3179     46.2884
         5        -7.0726    107.8058     -0.0694     33.5546
         6         2.4149     -5.0897      1.4178     -0.4190
  1/2[<0|del|b>*<b|r|0> + (<0|r|b>*<b|del|0>)*] (Au)
       state          X           Y           Z        Dip. S.   Osc.(frdel)
         1        -0.3178     -0.0040     -0.0004      0.3222      0.2148
         2        -0.0004     -0.0002     -0.0001      0.0007      0.0005
         3        -0.0003     -0.0030     -0.0000      0.0034      0.0022
         4        -0.0084     -0.6605     -0.0009      0.6698      0.4465
         5        -0.0011     -0.4149      0.0000      0.4160      0.2773
         6        -0.0002     -0.0136     -0.0011      0.0149      0.0099

 Excitation energies and oscillator strengths:
 
 Excited State   1:      Singlet-A      3.0291 eV  409.31 nm  f=0.2238  <S**2>=0.000
      52 -> 53         0.70091
 This state for optimization and/or second-order correction.
 Total Energy, E(TD-HF/TD-DFT) =  -633.216309861    
 Copying the excited state density for this state as the 1-particle RhoCI density.
 
 Excited State   2:      Singlet-A      4.0001 eV  309.96 nm  f=0.0005  <S**2>=0.000
      50 -> 54        -0.17771
      51 -> 53         0.58100
      51 -> 54         0.30901
 
 Excited State   3:      Singlet-A      4.1680 eV  297.47 nm  f=0.0026  <S**2>=0.000
      49 -> 53        -0.32545
      49 -> 54         0.19043
      50 -> 53         0.48782
      50 -> 54        -0.21623
      50 -> 58         0.10217
      51 -> 54        -0.20448
 
 Excited State   4:      Singlet-A      4.8599 eV  255.12 nm  f=0.4651  <S**2>=0.000
      49 -> 53         0.12073
      52 -> 54         0.68634
 
 Excited State   5:      Singlet-A      5.3175 eV  233.16 nm  f=0.2822  <S**2>=0.000
      49 -> 53         0.55737
      50 -> 53         0.37544
      51 -> 53         0.12008
      52 -> 54        -0.13708
 
 Excited State   6:      Singlet-A      5.8481 eV  212.01 nm  f=0.0099  <S**2>=0.000
      52 -> 55         0.65682
      52 -> 56         0.17081
 SavETr:  write IOETrn=   770 NScale= 10 NData=  16 NLR=1 NState=    6 LETran=     118.
 The selected state is a singlet.
 CISGrd: IGrad=1 NXY=2 DFT=T
 CISAX will form     1 AO SS matrices at one time.
 NMat=     1 NSing=     1 JSym2X= 0.
 Leave Link  914 at Sat Jan 24 19:17:04 2026, MaxMem=  2147483648 cpu:            7691.1 elap:             482.1
 (Enter /data/home/wyx/g16/l1002.exe)
 Minotr:  Closed shell wavefunction.
          Computing CIS/TDA/TD derivatives.
          Using Z-Vector for PSCF gradient.
          Skipping F1 and S1 gradient terms here.
 NEqPCM:  Using equilibrium solvation (IEInf=0, Eps=  78.3553, EpsInf=   1.7778)
          Frozen-core window.
          Direct CPHF calculation.
          Differentiating once with respect to electric field.
                with respect to dipole field.
          Electric field/nuclear overlap derivatives assumed to be zero.
          Requested convergence is 1.0D-10 RMS, and 1.0D-09 maximum.
          NewPWx=F KeepS1=T KeepF1=T KeepIn=T MapXYZ=F SortEE=F KeepMc=T.
 Two-electron integral symmetry used by symmetrizing perturbed Fock matrices.
          MDV=    2147483648 using IRadAn=       5.
          Solving linear equations separately, MaxMat=     384.
          There are     1 degrees of freedom in the 1st order CPHF.  IDoFFX=0 NUNeed=     1.
 FoFJK:  IHMeth= 1 ICntrl=       0 DoSepK=T KAlg= 0 I1Cent=           0 FoldK=F
 IRaf=         1 NMat=       1 IRICut=       1 DoRegI=T DoRafI=F ISym2E=-1 IDoP0=0 IntGTp=1.
 FoFCou: FMM=F IPFlag=           0 FMFlag=      100000 FMFlg1=           0
         NFxFlg=           0 DoJE=T BraDBF=F KetDBF=F FulRan=T
         wScrn=  0.000000 ICntrl=       500 IOpCl=  0 I1Cent=           0 NGrid=           0
         NMat0=    1 NMatS0=      1 NMatT0=    0 NMatD0=    1 NMtDS0=    0 NMtDT0=    0
 Petite list used in FoFCou.
 LinEq1:  Iter=  0 NonCon=     1 RMS=3.48D-03 Max=1.32D-01 NDo=     1
 AX will form     1 AO Fock derivatives at one time.
 LinEq1:  Iter=  1 NonCon=     1 RMS=1.36D-03 Max=5.91D-02 NDo=     1
 LinEq1:  Iter=  2 NonCon=     1 RMS=6.37D-04 Max=2.08D-02 NDo=     1
 LinEq1:  Iter=  3 NonCon=     1 RMS=3.81D-04 Max=1.53D-02 NDo=     1
 LinEq1:  Iter=  4 NonCon=     1 RMS=1.68D-04 Max=8.01D-03 NDo=     1
 LinEq1:  Iter=  5 NonCon=     1 RMS=7.25D-05 Max=3.36D-03 NDo=     1
 LinEq1:  Iter=  6 NonCon=     1 RMS=2.93D-05 Max=1.89D-03 NDo=     1
 LinEq1:  Iter=  7 NonCon=     1 RMS=1.39D-05 Max=4.69D-04 NDo=     1
 LinEq1:  Iter=  8 NonCon=     1 RMS=9.39D-06 Max=3.47D-04 NDo=     1
 LinEq1:  Iter=  9 NonCon=     1 RMS=5.58D-06 Max=1.57D-04 NDo=     1
 LinEq1:  Iter= 10 NonCon=     1 RMS=2.45D-06 Max=4.49D-05 NDo=     1
 LinEq1:  Iter= 11 NonCon=     1 RMS=1.29D-06 Max=4.45D-05 NDo=     1
 LinEq1:  Iter= 12 NonCon=     1 RMS=6.16D-07 Max=2.14D-05 NDo=     1
 LinEq1:  Iter= 13 NonCon=     1 RMS=3.01D-07 Max=8.92D-06 NDo=     1
 LinEq1:  Iter= 14 NonCon=     1 RMS=1.32D-07 Max=5.21D-06 NDo=     1
 LinEq1:  Iter= 15 NonCon=     1 RMS=8.17D-08 Max=2.63D-06 NDo=     1
 LinEq1:  Iter= 16 NonCon=     1 RMS=2.97D-08 Max=1.08D-06 NDo=     1
 LinEq1:  Iter= 17 NonCon=     1 RMS=8.96D-09 Max=2.32D-07 NDo=     1
 LinEq1:  Iter= 18 NonCon=     1 RMS=4.29D-09 Max=7.95D-08 NDo=     1
 LinEq1:  Iter= 19 NonCon=     1 RMS=1.40D-09 Max=3.15D-08 NDo=     1
 LinEq1:  Iter= 20 NonCon=     1 RMS=4.54D-10 Max=7.62D-09 NDo=     1
 LinEq1:  Iter= 21 NonCon=     1 RMS=1.97D-10 Max=4.25D-09 NDo=     1
 LinEq1:  Iter= 22 NonCon=     1 RMS=5.92D-11 Max=2.13D-09 NDo=     1
 LinEq1:  Iter= 23 NonCon=     0 RMS=1.65D-11 Max=7.65D-10 NDo=     1
 Linear equations converged to 1.000D-10 1.000D-09 after    23 iterations.
 PCM Corrected Linear-Response - Equilibrium solvation:
 Corrected transition energy               =    3.1544          eV
 Total energy after correction             = -633.211705091     a.u.
 NEqPCM:  Using non-equilibrium solvation (IEInf=1, Eps=  78.3553, EpsInf=   1.7778)
 Inv3:  Mode=1 IEnd=    13559628.
 Iteration    1 A*A^-1 deviation from unit magnitude is 3.77D-15 for    990.
 Iteration    1 A*A^-1 deviation from orthogonality  is 1.83D-15 for    743    251.
 Iteration    1 A^-1*A deviation from unit magnitude is 3.33D-15 for    990.
 Iteration    1 A^-1*A deviation from orthogonality  is 2.15D-15 for   1052    945.
 NEqSol: Computing the dynamic-inertial partition of the PCM polarization charges.
 End of Minotr F.D. properties file   721 does not exist.
 End of Minotr F.D. properties file   722 does not exist.
 End of Minotr F.D. properties file   788 does not exist.
 Leave Link 1002 at Sat Jan 24 19:19:04 2026, MaxMem=  2147483648 cpu:            1896.1 elap:             119.3
 (Enter /data/home/wyx/g16/l601.exe)
 Copying SCF densities to generalized density rwf, IOpCl= 0 IROHF=0.

 **********************************************************************

            Population analysis using the CI density.

 **********************************************************************

 Orbital symmetries:
       Occupied  (A) (A) (A) (A) (A) (A) (A) (A) (A) (A) (A) (A)
                 (A) (A) (A) (A) (A) (A) (A) (A) (A) (A) (A) (A)
                 (A) (A) (A) (A) (A) (A) (A) (A) (A) (A) (A) (A)
                 (A) (A) (A) (A) (A) (A) (A) (A) (A) (A) (A) (A)
                 (A) (A) (A) (A)
       Virtual   (A) (A) (A) (A) (A) (A) (A) (A) (A) (A) (A) (A)
                 (A) (A) (A) (A) (A) (A) (A) (A) (A) (A) (A) (A)
                 (A) (A) (A) (A) (A) (A) (A) (A) (A) (A) (A) (A)
                 (A) (A) (A) (A) (A) (A) (A) (A) (A) (A) (A) (A)
                 (A) (A) (A) (A) (A) (A) (A) (A) (A) (A) (A) (A)
                 (A) (A) (A) (A) (A) (A) (A) (A) (A) (A) (A) (A)
                 (A) (A) (A) (A) (A) (A) (A) (A) (A) (A) (A) (A)
                 (A) (A) (A) (A) (A) (A) (A) (A) (A) (A) (A) (A)
                 (A) (A) (A) (A) (A) (A) (A) (A) (A) (A) (A) (A)
                 (A) (A) (A) (A) (A) (A) (A) (A) (A) (A) (A) (A)
                 (A) (A) (A) (A) (A) (A) (A) (A) (A) (A) (A) (A)
                 (A) (A) (A) (A) (A) (A) (A) (A) (A) (A) (A) (A)
                 (A) (A) (A) (A) (A) (A) (A) (A) (A) (A) (A) (A)
                 (A) (A) (A) (A) (A) (A) (A) (A) (A) (A) (A) (A)
                 (A) (A) (A) (A) (A) (A) (A) (A) (A) (A) (A) (A)
                 (A) (A) (A) (A) (A) (A) (A) (A) (A) (A) (A) (A)
                 (A) (A) (A) (A) (A) (A) (A) (A) (A) (A) (A) (A)
                 (A) (A) (A) (A) (A) (A) (A) (A) (A) (A) (A) (A)
                 (A) (A) (A) (A) (A) (A) (A) (A) (A) (A) (A) (A)
                 (A) (A) (A) (A) (A) (A) (A) (A) (A) (A) (A) (A)
                 (A) (A) (A) (A) (A) (A) (A) (A) (A) (A) (A) (A)
                 (A) (A) (A) (A) (A) (A) (A) (A) (A) (A) (A) (A)
                 (A) (A) (A) (A) (A) (A) (A) (A) (A) (A) (A) (A)
                 (A) (A) (A) (A) (A) (A) (A) (A) (A) (A) (A) (A)
                 (A) (A) (A) (A) (A) (A) (A) (A) (A) (A) (A) (A)
                 (A) (A) (A) (A)
 The electronic state is 1-A.
 Alpha  occ. eigenvalues --  -19.17921 -19.17214 -14.44539 -10.33442 -10.33007
 Alpha  occ. eigenvalues --  -10.32597 -10.32091 -10.25765 -10.25244 -10.24871
 Alpha  occ. eigenvalues --  -10.24691 -10.24615 -10.24138 -10.23718  -1.11596
 Alpha  occ. eigenvalues --   -1.11187  -1.08251  -0.91368  -0.90523  -0.83989
 Alpha  occ. eigenvalues --   -0.82616  -0.81635  -0.78583  -0.73870  -0.71920
 Alpha  occ. eigenvalues --   -0.68749  -0.61670  -0.58285  -0.57001  -0.55173
 Alpha  occ. eigenvalues --   -0.54570  -0.54058  -0.52573  -0.51823  -0.50847
 Alpha  occ. eigenvalues --   -0.49889  -0.49553  -0.49273  -0.48499  -0.48110
 Alpha  occ. eigenvalues --   -0.47059  -0.45359  -0.45145  -0.43776  -0.43198
 Alpha  occ. eigenvalues --   -0.42327  -0.42200  -0.41758  -0.32716  -0.32303
 Alpha  occ. eigenvalues --   -0.31383  -0.25431
 Alpha virt. eigenvalues --   -0.03118   0.02475   0.06496   0.08211   0.08710
 Alpha virt. eigenvalues --    0.09922   0.10753   0.11719   0.12647   0.13550
 Alpha virt. eigenvalues --    0.13946   0.15110   0.15709   0.16306   0.16977
 Alpha virt. eigenvalues --    0.17467   0.17953   0.18133   0.18315   0.19208
 Alpha virt. eigenvalues --    0.20067   0.22050   0.22970   0.23483   0.23807
 Alpha virt. eigenvalues --    0.24211   0.24747   0.25745   0.26218   0.26700
 Alpha virt. eigenvalues --    0.27182   0.27951   0.28808   0.29143   0.30193
 Alpha virt. eigenvalues --    0.31745   0.31981   0.32423   0.33546   0.34473
 Alpha virt. eigenvalues --    0.34995   0.35930   0.36630   0.37970   0.38462
 Alpha virt. eigenvalues --    0.39649   0.41014   0.41490   0.41996   0.42572
 Alpha virt. eigenvalues --    0.44133   0.44681   0.45475   0.46218   0.46350
 Alpha virt. eigenvalues --    0.47348   0.47861   0.47958   0.48392   0.49240
 Alpha virt. eigenvalues --    0.49648   0.50540   0.50990   0.51473   0.51602
 Alpha virt. eigenvalues --    0.52678   0.52927   0.53491   0.53693   0.54310
 Alpha virt. eigenvalues --    0.54530   0.55559   0.56018   0.56662   0.58437
 Alpha virt. eigenvalues --    0.58575   0.59745   0.60870   0.61356   0.62946
 Alpha virt. eigenvalues --    0.63883   0.65425   0.66425   0.66511   0.67695
 Alpha virt. eigenvalues --    0.68501   0.69654   0.71235   0.71639   0.72333
 Alpha virt. eigenvalues --    0.73237   0.74248   0.74901   0.75907   0.77617
 Alpha virt. eigenvalues --    0.78833   0.80088   0.82715   0.85984   0.87063
 Alpha virt. eigenvalues --    0.90313   0.94644   1.01311   1.02861   1.22827
 Alpha virt. eigenvalues --    1.24953   1.27291   1.28190   1.29478   1.30826
 Alpha virt. eigenvalues --    1.32268   1.32952   1.34238   1.34997   1.36324
 Alpha virt. eigenvalues --    1.36578   1.37587   1.38544   1.39127   1.39877
 Alpha virt. eigenvalues --    1.39983   1.40508   1.40917   1.41393   1.41906
 Alpha virt. eigenvalues --    1.43491   1.43790   1.44275   1.45236   1.47376
 Alpha virt. eigenvalues --    1.48064   1.49617   1.50063   1.50342   1.50752
 Alpha virt. eigenvalues --    1.51280   1.52461   1.52674   1.54934   1.58081
 Alpha virt. eigenvalues --    1.58825   1.60403   1.60798   1.61403   1.62641
 Alpha virt. eigenvalues --    1.62777   1.63110   1.64319   1.64656   1.65843
 Alpha virt. eigenvalues --    1.66759   1.67159   1.67754   1.68163   1.68524
 Alpha virt. eigenvalues --    1.69126   1.70022   1.70142   1.71392   1.72390
 Alpha virt. eigenvalues --    1.74103   1.74937   1.75946   1.76638   1.78524
 Alpha virt. eigenvalues --    1.81143   1.83138   1.84298   1.86187   1.86691
 Alpha virt. eigenvalues --    1.86790   1.87885   1.88525   1.89225   1.90395
 Alpha virt. eigenvalues --    1.91428   1.94684   1.95348   1.99052   1.99739
 Alpha virt. eigenvalues --    2.01544   2.03907   2.05450   2.06992   2.09642
 Alpha virt. eigenvalues --    2.10748   2.12171   2.15583   2.17533   2.19880
 Alpha virt. eigenvalues --    2.20388   2.21474   2.22096   2.23152   2.26218
 Alpha virt. eigenvalues --    2.27263   2.27756   2.29433   2.31366   2.32331
 Alpha virt. eigenvalues --    2.33882   2.34372   2.36870   2.38046   2.38725
 Alpha virt. eigenvalues --    2.39680   2.40276   2.41471   2.43086   2.45123
 Alpha virt. eigenvalues --    2.46082   2.47869   2.49785   2.50208   2.51320
 Alpha virt. eigenvalues --    2.52467   2.54084   2.54928   2.56707   2.57846
 Alpha virt. eigenvalues --    2.58975   2.60772   2.61740   2.62625   2.63466
 Alpha virt. eigenvalues --    2.64698   2.65940   2.66670   2.67644   2.68551
 Alpha virt. eigenvalues --    2.72026   2.72135   2.73572   2.74513   2.75251
 Alpha virt. eigenvalues --    2.76103   2.77031   2.77360   2.78062   2.79055
 Alpha virt. eigenvalues --    2.80606   2.81967   2.83022   2.84000   2.84526
 Alpha virt. eigenvalues --    2.85454   2.86649   2.88737   2.89303   2.91807
 Alpha virt. eigenvalues --    2.97335   2.98942   3.00892   3.06500   3.10862
 Alpha virt. eigenvalues --    3.12557   3.14933   3.17791   3.18733   3.21448
 Alpha virt. eigenvalues --    3.21682   3.23620   3.24281   3.25614   3.26526
 Alpha virt. eigenvalues --    3.27971   3.29935   3.32954   3.34344   3.36780
 Alpha virt. eigenvalues --    3.37760   3.39076   3.39613   3.40241   3.41966
 Alpha virt. eigenvalues --    3.42339   3.44650   3.45416   3.47474   3.48395
 Alpha virt. eigenvalues --    3.49526   3.50120   3.55532   3.58425   3.59833
 Alpha virt. eigenvalues --    3.60901   3.90925   4.00738   4.33090   4.35900
 Alpha virt. eigenvalues --   21.66804  21.80452  22.08207  22.10792  22.11798
 Alpha virt. eigenvalues --   22.15137  22.15299  22.18651  22.19726  22.24712
 Alpha virt. eigenvalues --   22.28233  31.91942  43.63631  43.66336
          Condensed to atoms (all electrons):
               1          2          3          4          5          6
     1  O    8.010474   0.000000  -0.000261   0.000019   0.024862   0.017103
     2  O    0.000000   8.022194   0.000120   0.000016  -0.212130   0.001169
     3  N   -0.000261   0.000120   6.168975   0.364089  -0.084551   0.357103
     4  H    0.000019   0.000016   0.364089   0.394089   0.016274  -0.041826
     5  C    0.024862  -0.212130  -0.084551   0.016274   7.310689  -0.022357
     6  C    0.017103   0.001169   0.357103  -0.041826  -0.022357   5.947596
     7  C   -0.000402  -0.035263   0.429262  -0.035450   0.240783  -0.219251
     8  C   -0.000606   0.695739   0.003605  -0.000664  -0.388092   0.037171
     9  C   -0.013850   0.024610   0.001120  -0.000952  -0.657412  -0.113292
    10  H    0.006066  -0.000023   0.001075   0.000053  -0.020749  -0.011993
    11  H    0.011018  -0.000169  -0.001405   0.000018  -0.088558   0.019549
    12  C   -0.257632  -0.002453  -0.048228   0.014804   0.054734  -0.273442
    13  C    0.701280  -0.000019  -0.000048   0.000673   0.095902   0.095908
    14  C   -0.000008  -0.013419  -0.037544  -0.010776  -0.077667   0.013423
    15  H   -0.000000   0.004287   0.005660   0.001898   0.020495   0.006239
    16  H    0.000000   0.001788  -0.002862   0.000917  -0.007355  -0.001010
    17  H   -0.000000   0.000023  -0.000156   0.000808   0.002217  -0.000898
    18  C    0.000347  -0.105484  -0.000537   0.000019  -0.277137  -0.000590
    19  H    0.000002   0.009560   0.000007  -0.000001   0.029576   0.000012
    20  H   -0.000127   0.002260   0.000008  -0.000001   0.000565   0.000168
    21  H    0.000157   0.004227   0.000102   0.000001   0.046742  -0.001180
    22  C   -0.110191   0.000000   0.000299   0.000118   0.004669  -0.022027
    23  H    0.005333  -0.000000   0.000015  -0.000059  -0.000883  -0.026678
    24  H    0.002158   0.000000   0.000022  -0.000011  -0.000073   0.014534
    25  H    0.008778  -0.000000   0.000018  -0.000003  -0.000135  -0.001640
    26  C    0.000650   0.000008  -0.033431  -0.007704  -0.001178   0.177200
    27  H   -0.000400  -0.000000   0.001932   0.000739  -0.000114  -0.067473
    28  H   -0.000064   0.000000  -0.003186   0.000574   0.000401  -0.042027
    29  H    0.000017   0.000000   0.002985   0.001786  -0.000413  -0.054420
               7          8          9         10         11         12
     1  O   -0.000402  -0.000606  -0.013850   0.006066   0.011018  -0.257632
     2  O   -0.035263   0.695739   0.024610  -0.000023  -0.000169  -0.002453
     3  N    0.429262   0.003605   0.001120   0.001075  -0.001405  -0.048228
     4  H   -0.035450  -0.000664  -0.000952   0.000053   0.000018   0.014804
     5  C    0.240783  -0.388092  -0.657412  -0.020749  -0.088558   0.054734
     6  C   -0.219251   0.037171  -0.113292  -0.011993   0.019549  -0.273442
     7  C    5.795806  -0.280905  -0.232226  -0.006588   0.012652   0.053514
     8  C   -0.280905   5.535725   0.212798  -0.000544  -0.005375  -0.048854
     9  C   -0.232226   0.212798   6.668222   0.349221   0.502004  -0.147083
    10  H   -0.006588  -0.000544   0.349221   0.491004  -0.028558   0.012291
    11  H    0.012652  -0.005375   0.502004  -0.028558   0.471700  -0.102670
    12  C    0.053514  -0.048854  -0.147083   0.012291  -0.102670   7.575111
    13  C    0.018232  -0.009844  -0.277328   0.000156   0.006057  -0.467302
    14  C    0.278724  -0.036612   0.006140  -0.000518   0.000233  -0.000327
    15  H   -0.081866   0.006477   0.000401   0.000032   0.000001  -0.001582
    16  H   -0.032135   0.000530   0.001301  -0.000059   0.000062  -0.000175
    17  H   -0.039395  -0.006381  -0.000590   0.000157  -0.000054   0.000399
    18  C    0.004575   0.322051  -0.006867  -0.009984   0.004583  -0.006282
    19  H    0.001551  -0.055656  -0.003808  -0.000121   0.000687  -0.000637
    20  H   -0.000652  -0.033996  -0.009177   0.001161  -0.001615  -0.000062
    21  H    0.003689  -0.071895  -0.005468  -0.000541  -0.005440   0.007307
    22  C    0.000124  -0.000064   0.004434   0.002248   0.000061  -0.275557
    23  H    0.000046   0.000002   0.003305  -0.000174  -0.000055   0.070431
    24  H   -0.000024   0.000004  -0.003908   0.000079  -0.000093  -0.014633
    25  H    0.000011   0.000004   0.001908  -0.000082  -0.000096   0.025067
    26  C    0.005737   0.000639   0.028567  -0.000629   0.000001  -0.075265
    27  H   -0.000478  -0.000001   0.002037  -0.000027   0.000002   0.000585
    28  H   -0.000270  -0.000021  -0.002115  -0.000002   0.000027  -0.014432
    29  H    0.003600   0.000004  -0.000661   0.000036   0.000001   0.022253
              13         14         15         16         17         18
     1  O    0.701280  -0.000008  -0.000000   0.000000  -0.000000   0.000347
     2  O   -0.000019  -0.013419   0.004287   0.001788   0.000023  -0.105484
     3  N   -0.000048  -0.037544   0.005660  -0.002862  -0.000156  -0.000537
     4  H    0.000673  -0.010776   0.001898   0.000917   0.000808   0.000019
     5  C    0.095902  -0.077667   0.020495  -0.007355   0.002217  -0.277137
     6  C    0.095908   0.013423   0.006239  -0.001010  -0.000898  -0.000590
     7  C    0.018232   0.278724  -0.081866  -0.032135  -0.039395   0.004575
     8  C   -0.009844  -0.036612   0.006477   0.000530  -0.006381   0.322051
     9  C   -0.277328   0.006140   0.000401   0.001301  -0.000590  -0.006867
    10  H    0.000156  -0.000518   0.000032  -0.000059   0.000157  -0.009984
    11  H    0.006057   0.000233   0.000001   0.000062  -0.000054   0.004583
    12  C   -0.467302  -0.000327  -0.001582  -0.000175   0.000399  -0.006282
    13  C    5.620304  -0.000002  -0.000035  -0.000034   0.000007   0.000946
    14  C   -0.000002   5.037662   0.387399   0.413281   0.421617   0.001071
    15  H   -0.000035   0.387399   0.573802  -0.024746  -0.026769   0.000280
    16  H   -0.000034   0.413281  -0.024746   0.526458  -0.032758  -0.000002
    17  H    0.000007   0.421617  -0.026769  -0.032758   0.525489   0.000020
    18  C    0.000946   0.001071   0.000280  -0.000002   0.000020   5.372725
    19  H   -0.000031   0.000057  -0.000007   0.000001  -0.000024   0.385110
    20  H    0.000100  -0.000302  -0.000006  -0.000053   0.000043   0.399959
    21  H    0.000779   0.000145  -0.000019   0.000004  -0.000057   0.374820
    22  C    0.304877  -0.000004   0.000001  -0.000000  -0.000000   0.000018
    23  H   -0.101289   0.000001   0.000000   0.000000   0.000000   0.000001
    24  H   -0.026769  -0.000001   0.000000  -0.000000   0.000000  -0.000003
    25  H   -0.039120   0.000001   0.000000   0.000000  -0.000000   0.000002
    26  C   -0.053944   0.000332   0.000346  -0.000046  -0.000013   0.000029
    27  H   -0.001994   0.000054  -0.000008   0.000005  -0.000005   0.000001
    28  H    0.006390  -0.000190  -0.000001  -0.000025   0.000009  -0.000002
    29  H   -0.000345   0.000025   0.000065   0.000006  -0.000008   0.000000
              19         20         21         22         23         24
     1  O    0.000002  -0.000127   0.000157  -0.110191   0.005333   0.002158
     2  O    0.009560   0.002260   0.004227   0.000000  -0.000000   0.000000
     3  N    0.000007   0.000008   0.000102   0.000299   0.000015   0.000022
     4  H   -0.000001  -0.000001   0.000001   0.000118  -0.000059  -0.000011
     5  C    0.029576   0.000565   0.046742   0.004669  -0.000883  -0.000073
     6  C    0.000012   0.000168  -0.001180  -0.022027  -0.026678   0.014534
     7  C    0.001551  -0.000652   0.003689   0.000124   0.000046  -0.000024
     8  C   -0.055656  -0.033996  -0.071895  -0.000064   0.000002   0.000004
     9  C   -0.003808  -0.009177  -0.005468   0.004434   0.003305  -0.003908
    10  H   -0.000121   0.001161  -0.000541   0.002248  -0.000174   0.000079
    11  H    0.000687  -0.001615  -0.005440   0.000061  -0.000055  -0.000093
    12  C   -0.000637  -0.000062   0.007307  -0.275557   0.070431  -0.014633
    13  C   -0.000031   0.000100   0.000779   0.304877  -0.101289  -0.026769
    14  C    0.000057  -0.000302   0.000145  -0.000004   0.000001  -0.000001
    15  H   -0.000007  -0.000006  -0.000019   0.000001   0.000000   0.000000
    16  H    0.000001  -0.000053   0.000004  -0.000000   0.000000  -0.000000
    17  H   -0.000024   0.000043  -0.000057  -0.000000   0.000000   0.000000
    18  C    0.385110   0.399959   0.374820   0.000018   0.000001  -0.000003
    19  H    0.521350  -0.014901  -0.021448  -0.000001   0.000000  -0.000000
    20  H   -0.014901   0.510235  -0.026005  -0.000002   0.000000   0.000001
    21  H   -0.021448  -0.026005   0.545027   0.000022  -0.000000  -0.000000
    22  C   -0.000001  -0.000002   0.000022   5.447501   0.394086   0.403187
    23  H    0.000000   0.000000  -0.000000   0.394086   0.547124  -0.026006
    24  H   -0.000000   0.000001  -0.000000   0.403187  -0.026006   0.504206
    25  H    0.000000  -0.000002   0.000000   0.369538  -0.021750  -0.013381
    26  C    0.000001  -0.000000  -0.000017  -0.034147   0.015134  -0.011249
    27  H    0.000000  -0.000000   0.000000   0.004882  -0.008007  -0.003370
    28  H   -0.000000   0.000001  -0.000000  -0.011314  -0.002195   0.002267
    29  H    0.000000  -0.000000  -0.000000   0.001858   0.000715  -0.000004
              25         26         27         28         29
     1  O    0.008778   0.000650  -0.000400  -0.000064   0.000017
     2  O   -0.000000   0.000008  -0.000000   0.000000   0.000000
     3  N    0.000018  -0.033431   0.001932  -0.003186   0.002985
     4  H   -0.000003  -0.007704   0.000739   0.000574   0.001786
     5  C   -0.000135  -0.001178  -0.000114   0.000401  -0.000413
     6  C   -0.001640   0.177200  -0.067473  -0.042027  -0.054420
     7  C    0.000011   0.005737  -0.000478  -0.000270   0.003600
     8  C    0.000004   0.000639  -0.000001  -0.000021   0.000004
     9  C    0.001908   0.028567   0.002037  -0.002115  -0.000661
    10  H   -0.000082  -0.000629  -0.000027  -0.000002   0.000036
    11  H   -0.000096   0.000001   0.000002   0.000027   0.000001
    12  C    0.025067  -0.075265   0.000585  -0.014432   0.022253
    13  C   -0.039120  -0.053944  -0.001994   0.006390  -0.000345
    14  C    0.000001   0.000332   0.000054  -0.000190   0.000025
    15  H    0.000000   0.000346  -0.000008  -0.000001   0.000065
    16  H    0.000000  -0.000046   0.000005  -0.000025   0.000006
    17  H   -0.000000  -0.000013  -0.000005   0.000009  -0.000008
    18  C    0.000002   0.000029   0.000001  -0.000002   0.000000
    19  H    0.000000   0.000001   0.000000  -0.000000   0.000000
    20  H   -0.000002  -0.000000  -0.000000   0.000001  -0.000000
    21  H    0.000000  -0.000017   0.000000  -0.000000  -0.000000
    22  C    0.369538  -0.034147   0.004882  -0.011314   0.001858
    23  H   -0.021750   0.015134  -0.008007  -0.002195   0.000715
    24  H   -0.013381  -0.011249  -0.003370   0.002267  -0.000004
    25  H    0.516455   0.002084   0.001251  -0.000368  -0.000026
    26  C    0.002084   5.234474   0.436732   0.426702   0.393472
    27  H    0.001251   0.436732   0.523819  -0.036565  -0.022162
    28  H   -0.000368   0.426702  -0.036565   0.509012  -0.019386
    29  H   -0.000026   0.393472  -0.022162  -0.019386   0.518396
 Mulliken charges:
               1
     1  O   -0.404723
     2  O   -0.397040
     3  N   -0.124187
     4  H    0.300552
     5  C   -0.009106
     6  C    0.212929
     7  C    0.116603
     8  C    0.124761
     9  C   -0.331329
    10  H    0.217012
    11  H    0.205433
    12  C   -0.099882
    13  C    0.126492
    14  C   -0.382797
    15  H    0.127653
    16  H    0.156908
    17  H    0.156318
    18  C   -0.459671
    19  H    0.148722
    20  H    0.172401
    21  H    0.149049
    22  C   -0.484616
    23  H    0.150902
    24  H    0.173068
    25  H    0.151485
    26  C   -0.504487
    27  H    0.168563
    28  H    0.186781
    29  H    0.152206
 Sum of Mulliken charges =  -0.00000
 Mulliken charges with hydrogens summed into heavy atoms:
               1
     1  O   -0.404723
     2  O   -0.397040
     3  N    0.176365
     5  C   -0.009106
     6  C    0.212929
     7  C    0.116603
     8  C    0.124761
     9  C    0.091116
    12  C   -0.099882
    13  C    0.126492
    14  C    0.058082
    18  C    0.010501
    22  C   -0.009161
    26  C    0.003063
 Electronic spatial extent (au):  <R**2>=           3204.2317
 Charge=              0.0000 electrons
 Dipole moment (field-independent basis, Debye):
    X=             -3.6508    Y=              8.1507    Z=             -0.3665  Tot=              8.9384
 Quadrupole moment (field-independent basis, Debye-Ang):
   XX=           -105.8565   YY=            -78.5800   ZZ=            -84.7479
   XY=            -13.3517   XZ=             -4.7871   YZ=             -1.8718
 Traceless Quadrupole moment (field-independent basis, Debye-Ang):
   XX=            -16.1284   YY=             11.1482   ZZ=              4.9802
   XY=            -13.3517   XZ=             -4.7871   YZ=             -1.8718
 Octapole moment (field-independent basis, Debye-Ang**2):
  XXX=           -109.6083  YYY=             71.9501  ZZZ=              0.2260  XYY=             38.0187
  XXY=             35.2227  XXZ=             -7.3843  XZZ=             -0.7799  YZZ=             -1.4557
  YYZ=              3.1454  XYZ=              5.6999
 Hexadecapole moment (field-independent basis, Debye-Ang**3):
 XXXX=          -3153.7229 YYYY=          -1289.9909 ZZZZ=           -145.7140 XXXY=            -42.0889
 XXXZ=            -52.9864 YYYX=            -93.7060 YYYZ=            -21.3860 ZZZX=              3.3180
 ZZZY=              4.4946 XXYY=           -718.0574 XXZZ=           -489.6491 YYZZ=           -244.7064
 XXYZ=             -9.4637 YYXZ=             -9.8531 ZZXY=             -0.0068
 N-N= 8.999185516727D+02 E-N=-3.275395037630D+03  KE= 6.307522635412D+02
 No NMR shielding tensors so no spin-rotation constants.
 Leave Link  601 at Sat Jan 24 19:19:05 2026, MaxMem=  2147483648 cpu:               1.8 elap:               0.1
 (Enter /data/home/wyx/g16/l9999.exe)
 Electronic transition elements 
                 1             2             3             4             5 
      1  -0.633216D+03 -0.633181D+03 -0.633174D+03 -0.633149D+03 -0.633132D+03
      2  -0.164921D+01 -0.317475D-01  0.970105D-01  0.472433D+00  0.415321D+00
      3  -0.385526D+00 -0.504258D-01 -0.124525D+00 -0.191866D+01 -0.140804D+01
      4  -0.383035D+00 -0.448645D-01 -0.821323D-02  0.396666D-01  0.103628D+00
      5   0.175362D+00  0.484033D-02 -0.129958D-01 -0.752215D-01 -0.798462D-01
      6   0.444104D-01  0.753513D-02  0.170932D-01  0.330407D+00  0.270521D+00
      7   0.413892D-01  0.334578D-02 -0.181282D-02 -0.851874D-02 -0.186910D-01
      8   0.334132D+00 -0.739224D+00  0.446300D+00 -0.988287D-01 -0.210482D+00
      9  -0.479837D-01 -0.157980D+00 -0.855298D+00  0.799158D-01  0.554875D-01
     10  -0.142051D+01 -0.333017D+00  0.321290D+00  0.920783D-01  0.223861D+00
     11   0.176081D+00  0.219157D-01 -0.589575D-01 -0.120478D+01 -0.381060D+00
     12  -0.257967D+00 -0.252677D-01  0.457505D-01  0.179959D+00  0.331251D+00
     13   0.222210D-02  0.632555D-02 -0.209369D-02 -0.725278D-01 -0.571929D-03
     14  -0.471990D+00  0.444472D-02  0.469754D-01 -0.444992D+00 -0.173921D-01
     15   0.933980D-02  0.255253D-01  0.500904D-01 -0.332444D+00 -0.132115D+00
     16  -0.121945D+00 -0.825103D-01  0.407402D-01 -0.902535D-01 -0.436275D-01
                 6 
      1  -0.633113D+03
      2  -0.528950D-01
      3   0.251550D+00
      4  -0.543613D-01
      5   0.540152D-02
      6  -0.513902D-01
      7   0.309136D-01
      8  -0.138592D+00
      9  -0.168304D-01
     10   0.242754D-01
     11  -0.240896D+00
     12  -0.193588D+00
     13   0.163658D+00
     14   0.410394D-01
     15  -0.610377D-01
     16  -0.166424D+00
 1\1\GINC-CN012\SP\RCAM-B3LYP TD-FC\TZVP\C11H15N1O2\WYX\24-Jan-2026\0\\
 #p CAM-B3LYP TZVP em=gd3bj td(nstates=6,root=1) scrf=(Solvent=Water,Co
 rrectedLR,NonEquilibrium=Save) Geom=Check Guess=Read\\Title Card Requi
 red\\0,1\O,0,2.723612,-1.559339,0.838605\O,0,-3.287981,-1.657495,-0.94
 8903\N,0,-0.689013,1.515977,-0.015866\H,0,-0.997426,2.476004,-0.081568
 \C,0,-1.251839,-0.762398,-0.169093\C,0,0.64318,1.326988,0.220841\C,0,-
 1.626085,0.568383,-0.276262\C,0,-2.162079,-1.846914,-0.483168\C,0,0.11
 5209,-1.086195,0.314371\H,0,0.058564,-1.497952,1.336283\H,0,0.534969,-
 1.922424,-0.250996\C,0,1.10252,0.026437,0.323397\C,0,2.482619,-0.39454
 5,0.50146\C,0,-2.969463,1.098512,-0.63534\H,0,-3.017506,2.175553,-0.49
 1334\H,0,-3.212144,0.884777,-1.671995\H,0,-3.747187,0.63523,-0.038845\
 C,0,-1.705223,-3.262587,-0.251651\H,0,-2.563938,-3.924306,-0.259636\H,
 0,-1.032521,-3.579516,-1.046975\H,0,-1.171543,-3.389446,0.684856\C,0,3
 .648997,0.527161,0.24436\H,0,3.464605,1.241184,-0.55362\H,0,3.902295,1
 .084138,1.148732\H,0,4.506894,-0.08932,-0.015928\C,0,1.415218,2.596504
 ,0.365194\H,0,2.167711,2.522705,1.142124\H,0,1.916293,2.875658,-0.5615
 37\H,0,0.751262,3.417227,0.632495\\Version=ES64L-G16RevA.03\State=1-A\
 HF=-633.327626\RMSD=2.770e-09\Dipole=0.242603,3.5052098,0.1466822\Quad
 rupole=-13.7433264,12.2891704,1.454156,1.1254546,-7.3429171,0.2133424\
 PG=C01 [X(C11H15N1O2)]\\@


 TO ERR IS HUMAN - AND TO BLAME IT ON A COMPUTER IS EVEN MORE SO.
 Job cpu time:       0 days  2 hours 41 minutes 25.2 seconds.
 Elapsed time:       0 days  0 hours 10 minutes  8.1 seconds.
 File lengths (MBytes):  RWF=    736 Int=      0 D2E=      0 Chk=     67 Scr=      1
 Normal termination of Gaussian 16 at Sat Jan 24 19:19:07 2026.
