 Entering Gaussian System, Link 0=g16
 Input=DDL-S1-cLR-gs-13.gjf
 Output=DDL-S1-cLR-gs-13.log
 Initial command:
 /data/home/wyx/g16/l1.exe "/scr/tmp/wyx/13117/Gau-2035366.inp" -scrdir="/scr/tmp/wyx/13117/"
 Entering Link 1 = /data/home/wyx/g16/l1.exe PID=   2035367.
  
 Copyright (c) 1988,1990,1992,1993,1995,1998,2003,2009,2016,
            Gaussian, Inc.  All Rights Reserved.
  
 This is part of the Gaussian(R) 16 program.  It is based on
 the Gaussian(R) 09 system (copyright 2009, Gaussian, Inc.),
 the Gaussian(R) 03 system (copyright 2003, Gaussian, Inc.),
 the Gaussian(R) 98 system (copyright 1998, Gaussian, Inc.),
 the Gaussian(R) 94 system (copyright 1995, Gaussian, Inc.),
 the Gaussian 92(TM) system (copyright 1992, Gaussian, Inc.),
 the Gaussian 90(TM) system (copyright 1990, Gaussian, Inc.),
 the Gaussian 88(TM) system (copyright 1988, Gaussian, Inc.),
 the Gaussian 86(TM) system (copyright 1986, Carnegie Mellon
 University), and the Gaussian 82(TM) system (copyright 1983,
 Carnegie Mellon University). Gaussian is a federally registered
 trademark of Gaussian, Inc.
  
 This software contains proprietary and confidential information,
 including trade secrets, belonging to Gaussian, Inc.
  
 This software is provided under written license and may be
 used, copied, transmitted, or stored only in accord with that
 written license.
  
 The following legend is applicable only to US Government
 contracts under FAR:
  
                    RESTRICTED RIGHTS LEGEND
  
 Use, reproduction and disclosure by the US Government is
 subject to restrictions as set forth in subparagraphs (a)
 and (c) of the Commercial Computer Software - Restricted
 Rights clause in FAR 52.227-19.
  
 Gaussian, Inc.
 340 Quinnipiac St., Bldg. 40, Wallingford CT 06492
  
  
 ---------------------------------------------------------------
 Warning -- This program may not be used in any manner that
 competes with the business of Gaussian, Inc. or will provide
 assistance to any competitor of Gaussian, Inc.  The licensee
 of this program is prohibited from giving any competitor of
 Gaussian, Inc. access to this program.  By using this program,
 the user acknowledges that Gaussian, Inc. is engaged in the
 business of creating and licensing software in the field of
 computational chemistry and represents and warrants to the
 licensee that it is not a competitor of Gaussian, Inc. and that
 it will not use this program in any manner prohibited above.
 ---------------------------------------------------------------
  

 Cite this work as:
 Gaussian 16, Revision A.03,
 M. J. Frisch, G. W. Trucks, H. B. Schlegel, G. E. Scuseria, 
 M. A. Robb, J. R. Cheeseman, G. Scalmani, V. Barone, 
 G. A. Petersson, H. Nakatsuji, X. Li, M. Caricato, A. V. Marenich, 
 J. Bloino, B. G. Janesko, R. Gomperts, B. Mennucci, H. P. Hratchian, 
 J. V. Ortiz, A. F. Izmaylov, J. L. Sonnenberg, D. Williams-Young, 
 F. Ding, F. Lipparini, F. Egidi, J. Goings, B. Peng, A. Petrone, 
 T. Henderson, D. Ranasinghe, V. G. Zakrzewski, J. Gao, N. Rega, 
 G. Zheng, W. Liang, M. Hada, M. Ehara, K. Toyota, R. Fukuda, 
 J. Hasegawa, M. Ishida, T. Nakajima, Y. Honda, O. Kitao, H. Nakai, 
 T. Vreven, K. Throssell, J. A. Montgomery, Jr., J. E. Peralta, 
 F. Ogliaro, M. J. Bearpark, J. J. Heyd, E. N. Brothers, K. N. Kudin, 
 V. N. Staroverov, T. A. Keith, R. Kobayashi, J. Normand, 
 K. Raghavachari, A. P. Rendell, J. C. Burant, S. S. Iyengar, 
 J. Tomasi, M. Cossi, J. M. Millam, M. Klene, C. Adamo, R. Cammi, 
 J. W. Ochterski, R. L. Martin, K. Morokuma, O. Farkas, 
 J. B. Foresman, and D. J. Fox, Gaussian, Inc., Wallingford CT, 2016.
 
 ******************************************
 Gaussian 16:  ES64L-G16RevA.03 25-Dec-2016
                24-Jan-2026 
 ******************************************
 %nprocshared=16
 Will use up to   16 processors via shared memory.
 %mem=16GB
 %oldchk=DDL-S1-cLR-13.chk
 %chk=DDL-S1-cLR-gs-13.chk
 Copying data from "DDL-S1-cLR-13.chk" to current chk file "DDL-S1-cLR-gs-13.chk"
 IOpt=  2 FromEx=T IUOpen= 4 IOptOp= 5 NList=   0 IFRang= 0 IUIn= 4 IUOut= 2.
 ----------------------------------------------------------------------
 #p CAM-B3LYP TZVP em=gd3bj scrf=(Solvent=Water,NonEquilibrium=Read) Ge
 om=Check Guess=Read
 ----------------------------------------------------------------------
 1/29=2,38=1,172=1/1;
 2/12=2,40=1/2;
 3/5=19,7=101,11=2,14=-4,25=1,30=1,70=6002201,72=1,74=-40,116=-2,124=41/1,2,3;
 4/5=1/1;
 5/5=2,38=6,53=1/2;
 6/7=2,8=2,9=2,10=2,28=1/1;
 99/5=1,9=1/99;
 Leave Link    1 at Sat Jan 24 23:09:34 2026, MaxMem=  2147483648 cpu:               0.8 elap:               0.1
 (Enter /data/home/wyx/g16/l101.exe)
 -------------------
 Title Card Required
 -------------------
 Structure from the checkpoint file:  "DDL-S1-cLR-gs-13.chk"
 Charge =  0 Multiplicity = 1
 Z-Matrix found in chk file.
 O,0,2.741595,-1.558465,0.760281
 O,0,-3.238037,-1.643825,-1.078266
 N,0,-0.706159,1.513866,0.096963
 H,0,-1.014389,2.471855,0.038108
 C,0,-1.248955,-0.759125,-0.155137
 C,0,0.64132,1.305949,0.271082
 C,0,-1.621025,0.549228,-0.23585
 C,0,-2.153207,-1.837192,-0.536163
 C,0,0.100317,-1.102153,0.411519
 H,0,0.000684,-1.441704,1.452344
 H,0,0.526714,-1.958701,-0.108748
 C,0,1.095069,0.025045,0.352977
 C,0,2.490051,-0.391226,0.464639
 C,0,-2.9477,1.086696,-0.653728
 H,0,-3.036023,2.141031,-0.399083
 H,0,-3.084171,0.983518,-1.727801
 H,0,-3.75882,0.540117,-0.186713
 C,0,-1.720508,-3.251368,-0.252136
 H,0,-2.56052,-3.922597,-0.395986
 H,0,-0.922986,-3.54738,-0.932973
 H,0,-1.333788,-3.366582,0.757715
 C,0,3.647338,0.536881,0.189614
 H,0,3.45113,1.237521,-0.617493
 H,0,3.895556,1.109342,1.085122
 H,0,4.51,-0.075299,-0.06329
 C,0,1.41779,2.58199,0.352
 H,0,2.241648,2.518481,1.05169
 H,0,1.817491,2.86175,-0.622772
 H,0,0.769583,3.392345,0.682082
 Recover connectivity data from disk.
 ITRead=  0  0  0  0  0  0  0  0  0  0  0  0  0  0  0  0  0  0  0  0
 ITRead=  0  0  0  0  0  0  0  0  0
 MicOpt= -1 -1 -1 -1 -1 -1 -1 -1 -1 -1 -1 -1 -1 -1 -1 -1 -1 -1 -1 -1
 MicOpt= -1 -1 -1 -1 -1 -1 -1 -1 -1
 NAtoms=     29 NQM=       29 NQMF=       0 NMMI=      0 NMMIF=      0
                NMic=       0 NMicF=      0.
                    Isotopes and Nuclear Properties:
 (Nuclear quadrupole moments (NQMom) in fm**2, nuclear magnetic moments (NMagM)
  in nuclear magnetons)

  Atom         1           2           3           4           5           6           7           8           9          10
 IAtWgt=          16          16          14           1          12          12          12          12          12           1
 AtmWgt=  15.9949146  15.9949146  14.0030740   1.0078250  12.0000000  12.0000000  12.0000000  12.0000000  12.0000000   1.0078250
 NucSpn=           0           0           2           1           0           0           0           0           0           1
 AtZEff=   5.6000000   5.6000000   4.5500000   1.0000000   3.6000000   3.6000000   3.6000000   3.6000000   3.6000000   1.0000000
 NQMom=    0.0000000   0.0000000   2.0440000   0.0000000   0.0000000   0.0000000   0.0000000   0.0000000   0.0000000   0.0000000
 NMagM=    0.0000000   0.0000000   0.4037610   2.7928460   0.0000000   0.0000000   0.0000000   0.0000000   0.0000000   2.7928460
 AtZNuc=   8.0000000   8.0000000   7.0000000   1.0000000   6.0000000   6.0000000   6.0000000   6.0000000   6.0000000   1.0000000

  Atom        11          12          13          14          15          16          17          18          19          20
 IAtWgt=           1          12          12          12           1           1           1          12           1           1
 AtmWgt=   1.0078250  12.0000000  12.0000000  12.0000000   1.0078250   1.0078250   1.0078250  12.0000000   1.0078250   1.0078250
 NucSpn=           1           0           0           0           1           1           1           0           1           1
 AtZEff=   1.0000000   3.6000000   3.6000000   3.6000000   1.0000000   1.0000000   1.0000000   3.6000000   1.0000000   1.0000000
 NQMom=    0.0000000   0.0000000   0.0000000   0.0000000   0.0000000   0.0000000   0.0000000   0.0000000   0.0000000   0.0000000
 NMagM=    2.7928460   0.0000000   0.0000000   0.0000000   2.7928460   2.7928460   2.7928460   0.0000000   2.7928460   2.7928460
 AtZNuc=   1.0000000   6.0000000   6.0000000   6.0000000   1.0000000   1.0000000   1.0000000   6.0000000   1.0000000   1.0000000

  Atom        21          22          23          24          25          26          27          28          29
 IAtWgt=           1          12           1           1           1          12           1           1           1
 AtmWgt=   1.0078250  12.0000000   1.0078250   1.0078250   1.0078250  12.0000000   1.0078250   1.0078250   1.0078250
 NucSpn=           1           0           1           1           1           0           1           1           1
 AtZEff=   1.0000000   3.6000000   1.0000000   1.0000000   1.0000000   3.6000000   1.0000000   1.0000000   1.0000000
 NQMom=    0.0000000   0.0000000   0.0000000   0.0000000   0.0000000   0.0000000   0.0000000   0.0000000   0.0000000
 NMagM=    2.7928460   0.0000000   2.7928460   2.7928460   2.7928460   0.0000000   2.7928460   2.7928460   2.7928460
 AtZNuc=   1.0000000   6.0000000   1.0000000   1.0000000   1.0000000   6.0000000   1.0000000   1.0000000   1.0000000
 Leave Link  101 at Sat Jan 24 23:09:37 2026, MaxMem=  2147483648 cpu:               0.8 elap:               0.1
 (Enter /data/home/wyx/g16/l202.exe)
                          Input orientation:                          
 ---------------------------------------------------------------------
 Center     Atomic      Atomic             Coordinates (Angstroms)
 Number     Number       Type             X           Y           Z
 ---------------------------------------------------------------------
      1          8           0        2.741595   -1.558465    0.760281
      2          8           0       -3.238037   -1.643825   -1.078266
      3          7           0       -0.706159    1.513866    0.096963
      4          1           0       -1.014389    2.471855    0.038108
      5          6           0       -1.248955   -0.759125   -0.155137
      6          6           0        0.641320    1.305949    0.271082
      7          6           0       -1.621025    0.549228   -0.235850
      8          6           0       -2.153207   -1.837192   -0.536163
      9          6           0        0.100317   -1.102153    0.411519
     10          1           0        0.000684   -1.441704    1.452344
     11          1           0        0.526714   -1.958701   -0.108748
     12          6           0        1.095069    0.025045    0.352977
     13          6           0        2.490051   -0.391226    0.464639
     14          6           0       -2.947700    1.086696   -0.653728
     15          1           0       -3.036023    2.141031   -0.399083
     16          1           0       -3.084171    0.983518   -1.727801
     17          1           0       -3.758820    0.540117   -0.186713
     18          6           0       -1.720508   -3.251368   -0.252136
     19          1           0       -2.560520   -3.922597   -0.395986
     20          1           0       -0.922986   -3.547380   -0.932973
     21          1           0       -1.333788   -3.366582    0.757715
     22          6           0        3.647338    0.536881    0.189614
     23          1           0        3.451130    1.237521   -0.617493
     24          1           0        3.895556    1.109342    1.085122
     25          1           0        4.510000   -0.075299   -0.063290
     26          6           0        1.417790    2.581990    0.352000
     27          1           0        2.241648    2.518481    1.051690
     28          1           0        1.817491    2.861750   -0.622772
     29          1           0        0.769583    3.392345    0.682082
 ---------------------------------------------------------------------
                    Distance matrix (angstroms):
                    1          2          3          4          5
     1  O    0.000000
     2  O    6.256480   0.000000
     3  N    4.665428   4.214568   0.000000
     4  H    5.556296   4.809337   1.008074   0.000000
     5  C    4.171501   2.364595   2.350462   3.245242   0.000000
     6  C    3.585434   5.056809   1.374499   2.038378   2.831843
     7  C    4.946423   2.851995   1.370500   2.034590   1.362622
     8  C    5.071247   1.228056   3.704644   4.493838   1.457766
     9  C    2.702999   3.695602   2.755523   3.762385   1.503098
    10  H    2.829342   4.115113   3.327473   4.283268   2.147442
    11  H    2.412695   3.900316   3.690666   4.693228   2.143393
    12  C    2.320441   4.858950   2.350862   3.245895   2.523401
    13  C    1.230092   6.063048   3.739027   4.545356   3.807839
    14  C    6.431514   2.778538   2.402190   2.476892   2.557613
    15  H    6.957820   3.850615   2.463263   2.094656   3.415264
    16  H    6.825817   2.710812   3.044006   3.101222   2.979613
    17  H    6.896103   2.415716   3.216737   3.363638   2.826384
    18  C    4.878655   2.359996   4.884489   5.773918   2.538316
    19  H    5.919332   2.473325   5.765135   6.593025   3.433040
    20  H    4.500227   3.000682   5.169525   6.097749   2.913014
    21  H    4.458480   3.156720   4.964805   5.891281   2.763933
    22  C    2.352978   7.332898   4.462737   5.049631   5.076630
    23  H    3.196754   7.297905   4.227276   4.679130   5.127491
    24  H    2.924781   7.946592   4.723969   5.201946   5.612077
    25  H    2.450573   7.970102   5.455221   6.084172   5.800139
    26  C    4.366065   6.448248   2.391044   2.454822   4.304854
    27  H    4.117809   7.203364   3.257349   3.410469   4.937959
    28  H    4.722828   6.787197   2.950190   2.933995   4.767862
    29  H    5.329678   6.672545   2.459443   2.108213   4.691496
                    6          7          8          9         10
     6  C    0.000000
     7  C    2.438814   0.000000
     8  C    4.282565   2.463413   0.000000
     9  C    2.472117   2.471672   2.552793   0.000000
    10  H    3.058658   3.073068   2.958009   1.099335   0.000000
    11  H    3.288669   3.304337   2.716510   1.089113   1.726558
    12  C    1.361363   2.828189   3.848349   1.504505   2.134863
    13  C    2.517076   4.275054   4.965105   2.493806   2.876806
    14  C    3.712736   1.491161   3.032188   3.900797   4.418293
    15  H    3.830057   2.136048   4.077305   4.583879   5.048303
    16  H    4.240139   2.134320   3.200484   4.366655   5.050877
    17  H    4.489689   2.138379   2.889932   4.236493   4.554996
    18  C    5.159567   3.801933   1.505919   2.893953   3.023680
    19  H    6.167208   4.572255   2.129429   3.960685   4.016332
    20  H    5.239428   4.213720   2.143746   2.972195   3.313122
    21  H    5.096117   4.050092   2.164394   2.702619   2.443047
    22  C    3.103908   5.285529   6.309461   3.913698   4.336747
    23  H    2.947758   5.132851   6.392892   4.214367   4.834051
    24  H    3.360263   5.700119   6.920850   4.443905   4.670409
    25  H    4.121448   6.165167   6.908415   4.552491   4.949560
    26  C    1.495906   3.702983   5.750654   3.913079   4.405571
    27  H    2.154213   4.522826   6.388107   4.254892   4.567878
    28  H    2.145430   4.161834   6.152560   4.441956   5.111420
    29  H    2.130357   3.826346   6.113500   4.552102   4.955052
                   11         12         13         14         15
    11  H    0.000000
    12  C    2.114584   0.000000
    13  C    2.576906   1.460043   0.000000
    14  C    4.652204   4.299365   5.744922   0.000000
    15  H    5.439227   4.702011   6.139693   1.088240   0.000000
    16  H    4.931174   4.765958   6.145622   1.087613   1.762852
    17  H    4.961449   4.910886   6.351382   1.083867   1.769311
    18  C    2.596450   4.362169   5.140329   4.526155   5.552490
    19  H    3.670205   5.432141   6.222501   5.030840   6.082244
    20  H    2.303232   4.299818   4.854220   5.064791   6.091632
    21  H    2.488846   4.191216   4.853904   4.942527   5.879591
    22  C    4.006899   2.608206   1.508753   6.671435   6.898346
    23  H    4.361980   2.821867   2.178876   6.400710   6.553410
    24  H    4.710341   3.091030   2.147591   7.060755   7.163381
    25  H    4.406341   3.441671   2.111566   7.570742   7.871934
    26  C    4.650181   2.577231   3.162664   4.722806   4.538174
    27  H    4.932826   2.831972   2.978712   5.646928   5.486440
    28  H    5.016680   3.085592   3.495233   5.085157   4.911830
    29  H    5.414618   3.398965   4.162055   4.573685   4.149378
                   16         17         18         19         20
    16  H    0.000000
    17  H    1.739744   0.000000
    18  C    4.687368   4.305154   0.000000
    19  H    5.110568   4.625531   1.084832   0.000000
    20  H    5.082471   5.030556   1.089589   1.763706   0.000000
    21  H    5.307071   4.694148   1.087486   1.773429   1.749249
    22  C    7.013500   7.415714   6.584812   7.665988   6.231312
    23  H    6.633812   7.256399   6.857802   7.925643   6.490585
    24  H    7.526284   7.780171   7.234931   8.318354   6.998294
    25  H    7.846217   8.292608   6.995878   8.056342   6.506077
    26  C    5.210407   5.590773   6.651463   7.661337   6.685773
    27  H    6.200486   6.438415   7.119677   8.163582   7.123796
    28  H    5.364246   6.056019   7.072837   8.077486   6.977348
    29  H    5.144065   5.421849   7.156273   8.109266   7.323454
                   21         22         23         24         25
    21  H    0.000000
    22  C    6.353848   0.000000
    23  H    6.781180   1.086653   0.000000
    24  H    6.891091   1.091448   1.764325   0.000000
    25  H    6.756956   1.087617   1.775343   1.760615   0.000000
    26  C    6.566681   3.029806   2.623354   2.974136   4.098221
    27  H    6.892324   2.577960   2.426907   2.173063   3.621643
    28  H    7.115365   3.068115   2.303676   3.210326   4.023541
    29  H    7.079052   4.083831   3.677344   3.891818   5.154692
                   26         27         28         29
    26  C    0.000000
    27  H    1.082747   0.000000
    28  H    1.090049   1.761126   0.000000
    29  H    1.088945   1.751349   1.755644   0.000000
 Stoichiometry    C11H15NO2
 Framework group  C1[X(C11H15NO2)]
 Deg. of freedom    81
 Full point group                 C1      NOp   1
 RotChk:  IX=0 Diff= 2.32D-16
 Largest Abelian subgroup         C1      NOp   1
 Largest concise Abelian subgroup C1      NOp   1
                         Standard orientation:                         
 ---------------------------------------------------------------------
 Center     Atomic      Atomic             Coordinates (Angstroms)
 Number     Number       Type             X           Y           Z
 ---------------------------------------------------------------------
      1          8           0       -2.286812   -2.281543   -0.195685
      2          8           0        3.595915   -0.248973    0.441281
      3          7           0       -0.026390    1.799609   -0.225656
      4          1           0       -0.056207    2.807230   -0.230546
      5          6           0        1.291661   -0.140938   -0.078387
      6          6           0       -1.231101    1.144371   -0.133031
      7          6           0        1.205885    1.218978   -0.075202
      8          6           0        2.561429   -0.828492    0.121719
      9          6           0        0.059438   -0.950788   -0.370055
     10          1           0        0.076473   -1.308471   -1.409435
     11          1           0        0.051570   -1.862533    0.225617
     12          6           0       -1.230226   -0.216944   -0.121513
     13          6           0       -2.396680   -1.079680    0.042177
     14          6           0        2.324119    2.194026    0.074451
     15          1           0        2.001428    3.197714   -0.195267
     16          1           0        2.681229    2.215965    1.101531
     17          1           0        3.172747    1.917340   -0.540401
     18          6           0        2.590023   -2.322041   -0.068772
     19          1           0        3.619171   -2.664494   -0.089809
     20          1           0        2.078847   -2.818793    0.755328
     21          1           0        2.087805   -2.628163   -0.983480
     22          6           0       -3.729250   -0.572277    0.535266
     23          1           0       -3.638471    0.207348    1.286771
     24          1           0       -4.316071   -0.177650   -0.296099
     25          1           0       -4.271435   -1.417435    0.953183
     26          6           0       -2.395302    2.081193   -0.064236
     27          1           0       -3.261801    1.699735   -0.589603
     28          1           0       -2.681018    2.278401    0.969051
     29          1           0       -2.132342    3.036225   -0.516527
 ---------------------------------------------------------------------
 Rotational constants (GHZ):           1.0786873           0.4908173           0.3465011
 Leave Link  202 at Sat Jan 24 23:09:37 2026, MaxMem=  2147483648 cpu:               0.1 elap:               0.0
 (Enter /data/home/wyx/g16/l301.exe)
 Standard basis: TZVP (5D, 7F)
 Ernie: Thresh=  0.10000D-02 Tol=  0.10000D-05 Strict=F.
 There are   370 symmetry adapted cartesian basis functions of A   symmetry.
 There are   356 symmetry adapted basis functions of A   symmetry.
   356 basis functions,   610 primitive gaussians,   370 cartesian basis functions
    52 alpha electrons       52 beta electrons
       nuclear repulsion energy       900.8238931682 Hartrees.
 IExCor=20419 DFT=T Ex+Corr=CAM-B3LYP ExCW=0 ScaHFX=  1.000000
 ScaDFX=  1.000000  1.000000  1.000000  0.810000 ScalE2=  1.000000  1.000000
 IRadAn=      5 IRanWt=     -1 IRanGd=            0 ICorTp=0 IEmpDi=141
 HFx  wShort=  0.000000 wLong=  0.330000 cFull=  0.190000 cShort=  0.000000 cLong=  0.460000
 DFx  wShort=  0.000000 wLong=  0.330000 cFull=  0.190000 cShort=  0.000000 cLong=  0.460000
 NAtoms=   29 NActive=   29 NUniq=   29 SFac= 1.00D+00 NAtFMM=   60 NAOKFM=F Big=F
 Integral buffers will be    131072 words long.
 Raffenetti 2 integral format.
 Two-electron integral symmetry is turned on.
 R6Disp:  Grimme-D3(BJ) Dispersion energy=       -0.0262072292 Hartrees.
 Nuclear repulsion after empirical dispersion term =      900.7976859391 Hartrees.
 ------------------------------------------------------------------------------
 Polarizable Continuum Model (PCM)
 =================================
 Model                : PCM.
 Atomic radii         : UFF (Universal Force Field).
 Polarization charges : Total charges.
 Charge compensation  : None.
 Solution method      : On-the-fly selection.
 Cavity type          : Scaled VdW (van der Waals Surface) (Alpha=1.100).
 Cavity algorithm     : GePol (No added spheres)
                        Default sphere list used, NSphG=   29.
                        Lebedev-Laikov grids with approx.  5.0 points / Ang**2.
                        Smoothing algorithm: York/Karplus (Gamma=1.0000).
                        Polarization charges: spherical gaussians, with
                                              point-specific exponents (IZeta= 3).
                        Self-potential: point-specific (ISelfS= 7).
                        Self-field    : sphere-specific E.n sum rule (ISelfD= 2).
 Solvent              : Water, Eps=  78.355300 Eps(inf)=   1.777849
 ------------------------------------------------------------------------------
 GePol: Number of generator spheres                  =      29
 GePol: Total number of spheres                      =      29
 GePol: Number of exposed spheres                    =      29 (100.00%)
 GePol: Number of points                             =    2104
 GePol: Average weight of points                     =       0.13
 GePol: Minimum weight of points                     =   0.84D-11
 GePol: Maximum weight of points                     =    0.20577
 GePol: Number of points with low weight             =     157
 GePol: Fraction of low-weight points (<1% of avg)   =       7.46%
 GePol: Cavity surface area                          =    268.542 Ang**2
 GePol: Cavity volume                                =    286.646 Ang**3
 Leave Link  301 at Sat Jan 24 23:09:37 2026, MaxMem=  2147483648 cpu:               0.6 elap:               0.0
 (Enter /data/home/wyx/g16/l302.exe)
 NPDir=0 NMtPBC=     1 NCelOv=     1 NCel=       1 NClECP=     1 NCelD=      1
         NCelK=      1 NCelE2=     1 NClLst=     1 CellRange=     0.0.
 One-electron integrals computed using PRISM.
 One-electron integral symmetry used in STVInt
 NBasis=   356 RedAO= T EigKep=  4.70D-05  NBF=   356
 NBsUse=   356 1.00D-06 EigRej= -1.00D+00 NBFU=   356
 Precomputing XC quadrature grid using
 IXCGrd= 4 IRadAn=           5 IRanWt=          -1 IRanGd=           0 AccXCQ= 0.00D+00.
 Generated NRdTot=       0 NPtTot=           0 NUsed=           0 NTot=          32
 NSgBfM=   366   366   366   366   366 MxSgAt=    29 MxSgA2=    29.
 Leave Link  302 at Sat Jan 24 23:09:38 2026, MaxMem=  2147483648 cpu:               3.1 elap:               0.2
 (Enter /data/home/wyx/g16/l303.exe)
 DipDrv:  MaxL=1.
 Leave Link  303 at Sat Jan 24 23:09:38 2026, MaxMem=  2147483648 cpu:               0.6 elap:               0.0
 (Enter /data/home/wyx/g16/l401.exe)
 Initial guess from the checkpoint file:  "DDL-S1-cLR-gs-13.chk"
 B after Tr=    -0.000000   -0.000000    0.000000
         Rot=    1.000000   -0.000000    0.000000   -0.000000 Ang=   0.00 deg.
 Guess basis will be translated and rotated to current coordinates.
 JPrj=2 DoOrth=T DoCkMO=T.
 Leave Link  401 at Sat Jan 24 23:09:38 2026, MaxMem=  2147483648 cpu:               2.2 elap:               0.2
 (Enter /data/home/wyx/g16/l502.exe)
 Integral symmetry usage will be decided dynamically.
 Closed shell SCF:
 Using DIIS extrapolation, IDIIS=  1040.
 NGot=  2147483648 LenX=  2147200095 LenY=  2147062754
 Requested convergence on RMS density matrix=1.00D-08 within 128 cycles.
 Requested convergence on MAX density matrix=1.00D-06.
 Requested convergence on             energy=1.00D-06.
 No special actions if energy rises.
 Fock matrices will be formed incrementally for  20 cycles.

 Cycle   1  Pass 1  IDiag  1:
 FoFJK:  IHMeth= 1 ICntrl=       0 DoSepK=T KAlg= 0 I1Cent=           0 FoldK=F
 IRaf=         1 NMat=       1 IRICut=       1 DoRegI=T DoRafI=F ISym2E= 0 IDoP0=0 IntGTp=1.
 FoFCou: FMM=F IPFlag=           0 FMFlag=      100000 FMFlg1=           0
         NFxFlg=           0 DoJE=T BraDBF=F KetDBF=F FulRan=T
         wScrn=  0.000000 ICntrl=       500 IOpCl=  0 I1Cent=           0 NGrid=           0
         NMat0=    1 NMatS0=      1 NMatT0=    0 NMatD0=    1 NMtDS0=    0 NMtDT0=    0
 Symmetry not used in FoFCou.
 Inv3:  Mode=1 IEnd=    13280448.
 Iteration    1 A*A^-1 deviation from unit magnitude is 3.33D-15 for   1766.
 Iteration    1 A*A^-1 deviation from orthogonality  is 2.71D-15 for   1910    136.
 Iteration    1 A^-1*A deviation from unit magnitude is 3.33D-15 for   1766.
 Iteration    1 A^-1*A deviation from orthogonality  is 2.61D-15 for   1137    479.
 NEqPCM:  Using non-equilibrium solvation (IEInf=1, Eps=  78.3553, EpsInf=   1.7778)
 Inv3:  Mode=1 IEnd=    13280448.
 Iteration    1 A*A^-1 deviation from unit magnitude is 3.22D-15 for   1206.
 Iteration    1 A*A^-1 deviation from orthogonality  is 2.42D-15 for   1790    236.
 Iteration    1 A^-1*A deviation from unit magnitude is 3.00D-15 for    867.
 Iteration    1 A^-1*A deviation from orthogonality  is 1.57D-15 for   1773    216.
 E= -633.331323459369    
 DIIS: error= 3.98D-04 at cycle   1 NSaved=   1.
 NSaved= 1 IEnMin= 1 EnMin= -633.331323459369     IErMin= 1 ErrMin= 3.98D-04
 ErrMax= 3.98D-04  0.00D+00 EMaxC= 1.00D-01 BMatC= 3.19D-05 BMatP= 3.19D-05
 IDIUse=3 WtCom= 9.96D-01 WtEn= 3.98D-03
 Coeff-Com:  0.100D+01
 Coeff-En:   0.100D+01
 Coeff:      0.100D+01
 Gap=     0.233 Goal=   None    Shift=    0.000
 RMSDP=2.34D-04 MaxDP=1.27D-02              OVMax= 5.57D-03

 Cycle   2  Pass 1  IDiag  1:
 RMSU=  2.33D-04    CP:  9.98D-01
 E= -633.331377093648     Delta-E=       -0.000053634279 Rises=F Damp=F
 DIIS: error= 2.34D-04 at cycle   2 NSaved=   2.
 NSaved= 2 IEnMin= 2 EnMin= -633.331377093648     IErMin= 2 ErrMin= 2.34D-04
 ErrMax= 2.34D-04  0.00D+00 EMaxC= 1.00D-01 BMatC= 2.38D-05 BMatP= 3.19D-05
 IDIUse=3 WtCom= 9.98D-01 WtEn= 2.34D-03
 Coeff-Com:  0.451D+00 0.549D+00
 Coeff-En:   0.000D+00 0.100D+01
 Coeff:      0.450D+00 0.550D+00
 Gap=     0.234 Goal=   None    Shift=    0.000
 RMSDP=4.73D-05 MaxDP=3.18D-03 DE=-5.36D-05 OVMax= 1.73D-03

 Cycle   3  Pass 1  IDiag  1:
 RMSU=  3.83D-05    CP:  1.00D+00  9.08D-01
 E= -633.331397507030     Delta-E=       -0.000020413382 Rises=F Damp=F
 DIIS: error= 1.37D-04 at cycle   3 NSaved=   3.
 NSaved= 3 IEnMin= 3 EnMin= -633.331397507030     IErMin= 3 ErrMin= 1.37D-04
 ErrMax= 1.37D-04  0.00D+00 EMaxC= 1.00D-01 BMatC= 4.02D-06 BMatP= 2.38D-05
 IDIUse=3 WtCom= 9.99D-01 WtEn= 1.37D-03
 Coeff-Com:  0.850D-01 0.276D+00 0.639D+00
 Coeff-En:   0.000D+00 0.364D-01 0.964D+00
 Coeff:      0.849D-01 0.276D+00 0.640D+00
 Gap=     0.234 Goal=   None    Shift=    0.000
 RMSDP=1.60D-05 MaxDP=6.47D-04 DE=-2.04D-05 OVMax= 8.29D-04

 Cycle   4  Pass 1  IDiag  1:
 RMSU=  1.49D-05    CP:  9.99D-01  9.02D-01  9.00D-01
 E= -633.331400705586     Delta-E=       -0.000003198556 Rises=F Damp=F
 DIIS: error= 2.82D-05 at cycle   4 NSaved=   4.
 NSaved= 4 IEnMin= 4 EnMin= -633.331400705586     IErMin= 4 ErrMin= 2.82D-05
 ErrMax= 2.82D-05  0.00D+00 EMaxC= 1.00D-01 BMatC= 3.52D-07 BMatP= 4.02D-06
 IDIUse=1 WtCom= 1.00D+00 WtEn= 0.00D+00
 Coeff-Com: -0.625D-02 0.466D-01 0.248D+00 0.712D+00
 Coeff:     -0.625D-02 0.466D-01 0.248D+00 0.712D+00
 Gap=     0.234 Goal=   None    Shift=    0.000
 RMSDP=8.38D-06 MaxDP=5.35D-04 DE=-3.20D-06 OVMax= 2.43D-04

 Cycle   5  Pass 1  IDiag  1:
 RMSU=  4.83D-06    CP:  1.00D+00  9.08D-01  1.05D+00  1.16D+00
 E= -633.331401003853     Delta-E=       -0.000000298267 Rises=F Damp=F
 DIIS: error= 1.00D-05 at cycle   5 NSaved=   5.
 NSaved= 5 IEnMin= 5 EnMin= -633.331401003853     IErMin= 5 ErrMin= 1.00D-05
 ErrMax= 1.00D-05  0.00D+00 EMaxC= 1.00D-01 BMatC= 6.31D-08 BMatP= 3.52D-07
 IDIUse=1 WtCom= 1.00D+00 WtEn= 0.00D+00
 Coeff-Com: -0.118D-01-0.181D-01 0.261D-01 0.323D+00 0.681D+00
 Coeff:     -0.118D-01-0.181D-01 0.261D-01 0.323D+00 0.681D+00
 Gap=     0.234 Goal=   None    Shift=    0.000
 RMSDP=2.22D-06 MaxDP=1.16D-04 DE=-2.98D-07 OVMax= 1.08D-04

 Cycle   6  Pass 1  IDiag  1:
 RMSU=  1.42D-06    CP:  1.00D+00  9.07D-01  1.07D+00  1.26D+00  1.07D+00
 E= -633.331401071181     Delta-E=       -0.000000067327 Rises=F Damp=F
 DIIS: error= 4.85D-06 at cycle   6 NSaved=   6.
 NSaved= 6 IEnMin= 6 EnMin= -633.331401071181     IErMin= 6 ErrMin= 4.85D-06
 ErrMax= 4.85D-06  0.00D+00 EMaxC= 1.00D-01 BMatC= 6.37D-09 BMatP= 6.31D-08
 IDIUse=1 WtCom= 1.00D+00 WtEn= 0.00D+00
 Coeff-Com: -0.283D-02-0.121D-01-0.111D-01 0.292D-01 0.241D+00 0.756D+00
 Coeff:     -0.283D-02-0.121D-01-0.111D-01 0.292D-01 0.241D+00 0.756D+00
 Gap=     0.234 Goal=   None    Shift=    0.000
 RMSDP=1.39D-06 MaxDP=9.57D-05 DE=-6.73D-08 OVMax= 6.94D-05

 Cycle   7  Pass 1  IDiag  1:
 RMSU=  5.55D-07    CP:  1.00D+00  9.06D-01  1.09D+00  1.30D+00  1.21D+00
                    CP:  1.16D+00
 E= -633.331401079178     Delta-E=       -0.000000007998 Rises=F Damp=F
 DIIS: error= 2.02D-06 at cycle   7 NSaved=   7.
 NSaved= 7 IEnMin= 7 EnMin= -633.331401079178     IErMin= 7 ErrMin= 2.02D-06
 ErrMax= 2.02D-06  0.00D+00 EMaxC= 1.00D-01 BMatC= 2.11D-09 BMatP= 6.37D-09
 IDIUse=1 WtCom= 1.00D+00 WtEn= 0.00D+00
 Coeff-Com:  0.589D-03-0.405D-02-0.723D-02-0.416D-01 0.154D-02 0.401D+00
 Coeff-Com:  0.650D+00
 Coeff:      0.589D-03-0.405D-02-0.723D-02-0.416D-01 0.154D-02 0.401D+00
 Coeff:      0.650D+00
 Gap=     0.234 Goal=   None    Shift=    0.000
 RMSDP=4.75D-07 MaxDP=3.03D-05 DE=-8.00D-09 OVMax= 2.96D-05

 Cycle   8  Pass 1  IDiag  1:
 RMSU=  2.16D-07    CP:  1.00D+00  9.05D-01  1.09D+00  1.32D+00  1.26D+00
                    CP:  1.29D+00  9.94D-01
 E= -633.331401081794     Delta-E=       -0.000000002615 Rises=F Damp=F
 DIIS: error= 6.64D-07 at cycle   8 NSaved=   8.
 NSaved= 8 IEnMin= 8 EnMin= -633.331401081794     IErMin= 8 ErrMin= 6.64D-07
 ErrMax= 6.64D-07  0.00D+00 EMaxC= 1.00D-01 BMatC= 1.60D-10 BMatP= 2.11D-09
 IDIUse=1 WtCom= 1.00D+00 WtEn= 0.00D+00
 Coeff-Com:  0.616D-03-0.278D-03 0.647D-03-0.173D-01-0.376D-01 0.997D-02
 Coeff-Com:  0.178D+00 0.866D+00
 Coeff:      0.616D-03-0.278D-03 0.647D-03-0.173D-01-0.376D-01 0.997D-02
 Coeff:      0.178D+00 0.866D+00
 Gap=     0.234 Goal=   None    Shift=    0.000
 RMSDP=2.34D-07 MaxDP=1.34D-05 DE=-2.62D-09 OVMax= 1.46D-05

 Cycle   9  Pass 1  IDiag  1:
 RMSU=  9.03D-08    CP:  1.00D+00  9.05D-01  1.09D+00  1.32D+00  1.28D+00
                    CP:  1.36D+00  1.14D+00  1.07D+00
 E= -633.331401082105     Delta-E=       -0.000000000311 Rises=F Damp=F
 DIIS: error= 2.76D-07 at cycle   9 NSaved=   9.
 NSaved= 9 IEnMin= 9 EnMin= -633.331401082105     IErMin= 9 ErrMin= 2.76D-07
 ErrMax= 2.76D-07  0.00D+00 EMaxC= 1.00D-01 BMatC= 1.78D-11 BMatP= 1.60D-10
 IDIUse=1 WtCom= 1.00D+00 WtEn= 0.00D+00
 Coeff-Com:  0.132D-03 0.202D-03 0.130D-02 0.179D-04-0.123D-01-0.485D-01
 Coeff-Com: -0.280D-01 0.271D+00 0.816D+00
 Coeff:      0.132D-03 0.202D-03 0.130D-02 0.179D-04-0.123D-01-0.485D-01
 Coeff:     -0.280D-01 0.271D+00 0.816D+00
 Gap=     0.234 Goal=   None    Shift=    0.000
 RMSDP=5.96D-08 MaxDP=2.11D-06 DE=-3.11D-10 OVMax= 5.44D-06

 Cycle  10  Pass 1  IDiag  1:
 RMSU=  2.70D-08    CP:  1.00D+00  9.05D-01  1.09D+00  1.32D+00  1.28D+00
                    CP:  1.38D+00  1.19D+00  1.16D+00  1.17D+00
 E= -633.331401082143     Delta-E=       -0.000000000038 Rises=F Damp=F
 DIIS: error= 1.11D-07 at cycle  10 NSaved=  10.
 NSaved=10 IEnMin=10 EnMin= -633.331401082143     IErMin=10 ErrMin= 1.11D-07
 ErrMax= 1.11D-07  0.00D+00 EMaxC= 1.00D-01 BMatC= 2.91D-12 BMatP= 1.78D-11
 IDIUse=1 WtCom= 1.00D+00 WtEn= 0.00D+00
 Coeff-Com: -0.963D-05 0.114D-03 0.432D-03 0.202D-02-0.973D-03-0.217D-01
 Coeff-Com: -0.310D-01 0.170D-01 0.326D+00 0.708D+00
 Coeff:     -0.963D-05 0.114D-03 0.432D-03 0.202D-02-0.973D-03-0.217D-01
 Coeff:     -0.310D-01 0.170D-01 0.326D+00 0.708D+00
 Gap=     0.234 Goal=   None    Shift=    0.000
 RMSDP=2.62D-08 MaxDP=1.43D-06 DE=-3.79D-11 OVMax= 1.93D-06

 Cycle  11  Pass 1  IDiag  1:
 RMSU=  1.42D-08    CP:  1.00D+00  9.05D-01  1.09D+00  1.32D+00  1.29D+00
                    CP:  1.38D+00  1.21D+00  1.18D+00  1.31D+00  1.22D+00
 E= -633.331401082147     Delta-E=       -0.000000000005 Rises=F Damp=F
 DIIS: error= 6.19D-08 at cycle  11 NSaved=  11.
 NSaved=11 IEnMin=11 EnMin= -633.331401082147     IErMin=11 ErrMin= 6.19D-08
 ErrMax= 6.19D-08  0.00D+00 EMaxC= 1.00D-01 BMatC= 9.21D-13 BMatP= 2.91D-12
 IDIUse=1 WtCom= 1.00D+00 WtEn= 0.00D+00
 Coeff-Com: -0.307D-04 0.287D-04-0.859D-04 0.103D-02 0.224D-02 0.234D-03
 Coeff-Com: -0.831D-02-0.492D-01-0.201D-01 0.374D+00 0.701D+00
 Coeff:     -0.307D-04 0.287D-04-0.859D-04 0.103D-02 0.224D-02 0.234D-03
 Coeff:     -0.831D-02-0.492D-01-0.201D-01 0.374D+00 0.701D+00
 Gap=     0.234 Goal=   None    Shift=    0.000
 RMSDP=1.18D-08 MaxDP=5.26D-07 DE=-4.77D-12 OVMax= 1.06D-06

 Cycle  12  Pass 1  IDiag  1:
 RMSU=  5.40D-09    CP:  1.00D+00  9.05D-01  1.09D+00  1.32D+00  1.28D+00
                    CP:  1.38D+00  1.21D+00  1.19D+00  1.36D+00  1.43D+00
                    CP:  9.72D-01
 E= -633.331401082151     Delta-E=       -0.000000000004 Rises=F Damp=F
 DIIS: error= 2.19D-08 at cycle  12 NSaved=  12.
 NSaved=12 IEnMin=12 EnMin= -633.331401082151     IErMin=12 ErrMin= 2.19D-08
 ErrMax= 2.19D-08  0.00D+00 EMaxC= 1.00D-01 BMatC= 1.23D-13 BMatP= 9.21D-13
 IDIUse=1 WtCom= 1.00D+00 WtEn= 0.00D+00
 Coeff-Com: -0.134D-04 0.119D-05-0.132D-03 0.736D-04 0.111D-02 0.376D-02
 Coeff-Com:  0.221D-02-0.244D-01-0.743D-01 0.518D-02 0.271D+00 0.815D+00
 Coeff:     -0.134D-04 0.119D-05-0.132D-03 0.736D-04 0.111D-02 0.376D-02
 Coeff:      0.221D-02-0.244D-01-0.743D-01 0.518D-02 0.271D+00 0.815D+00
 Gap=     0.234 Goal=   None    Shift=    0.000
 RMSDP=7.72D-09 MaxDP=3.08D-07 DE=-3.75D-12 OVMax= 5.47D-07

 Error on total polarization charges =  0.00846
 SCF Done:  E(RCAM-B3LYP) =  -633.331401082     A.U. after   12 cycles
            NFock= 12  Conv=0.77D-08     -V/T= 2.0041
 KE= 6.307243658007D+02 PE=-3.277599873008D+03 EE= 1.112746420186D+03
 Leave Link  502 at Sat Jan 24 23:10:26 2026, MaxMem=  2147483648 cpu:             749.9 elap:              47.6
 (Enter /data/home/wyx/g16/l601.exe)
 Copying SCF densities to generalized density rwf, IOpCl= 0 IROHF=0.

 **********************************************************************

            Population analysis using the SCF density.

 **********************************************************************

 Orbital symmetries:
       Occupied  (A) (A) (A) (A) (A) (A) (A) (A) (A) (A) (A) (A)
                 (A) (A) (A) (A) (A) (A) (A) (A) (A) (A) (A) (A)
                 (A) (A) (A) (A) (A) (A) (A) (A) (A) (A) (A) (A)
                 (A) (A) (A) (A) (A) (A) (A) (A) (A) (A) (A) (A)
                 (A) (A) (A) (A)
       Virtual   (A) (A) (A) (A) (A) (A) (A) (A) (A) (A) (A) (A)
                 (A) (A) (A) (A) (A) (A) (A) (A) (A) (A) (A) (A)
                 (A) (A) (A) (A) (A) (A) (A) (A) (A) (A) (A) (A)
                 (A) (A) (A) (A) (A) (A) (A) (A) (A) (A) (A) (A)
                 (A) (A) (A) (A) (A) (A) (A) (A) (A) (A) (A) (A)
                 (A) (A) (A) (A) (A) (A) (A) (A) (A) (A) (A) (A)
                 (A) (A) (A) (A) (A) (A) (A) (A) (A) (A) (A) (A)
                 (A) (A) (A) (A) (A) (A) (A) (A) (A) (A) (A) (A)
                 (A) (A) (A) (A) (A) (A) (A) (A) (A) (A) (A) (A)
                 (A) (A) (A) (A) (A) (A) (A) (A) (A) (A) (A) (A)
                 (A) (A) (A) (A) (A) (A) (A) (A) (A) (A) (A) (A)
                 (A) (A) (A) (A) (A) (A) (A) (A) (A) (A) (A) (A)
                 (A) (A) (A) (A) (A) (A) (A) (A) (A) (A) (A) (A)
                 (A) (A) (A) (A) (A) (A) (A) (A) (A) (A) (A) (A)
                 (A) (A) (A) (A) (A) (A) (A) (A) (A) (A) (A) (A)
                 (A) (A) (A) (A) (A) (A) (A) (A) (A) (A) (A) (A)
                 (A) (A) (A) (A) (A) (A) (A) (A) (A) (A) (A) (A)
                 (A) (A) (A) (A) (A) (A) (A) (A) (A) (A) (A) (A)
                 (A) (A) (A) (A) (A) (A) (A) (A) (A) (A) (A) (A)
                 (A) (A) (A) (A) (A) (A) (A) (A) (A) (A) (A) (A)
                 (A) (A) (A) (A) (A) (A) (A) (A) (A) (A) (A) (A)
                 (A) (A) (A) (A) (A) (A) (A) (A) (A) (A) (A) (A)
                 (A) (A) (A) (A) (A) (A) (A) (A) (A) (A) (A) (A)
                 (A) (A) (A) (A) (A) (A) (A) (A) (A) (A) (A) (A)
                 (A) (A) (A) (A) (A) (A) (A) (A) (A) (A) (A) (A)
                 (A) (A) (A) (A)
 The electronic state is 1-A.
 Alpha  occ. eigenvalues --  -19.17947 -19.17385 -14.43880 -10.33479 -10.33044
 Alpha  occ. eigenvalues --  -10.31962 -10.31409 -10.25553 -10.24885 -10.24582
 Alpha  occ. eigenvalues --  -10.24486 -10.24344 -10.24302 -10.23699  -1.11974
 Alpha  occ. eigenvalues --   -1.11540  -1.07388  -0.91065  -0.90096  -0.83830
 Alpha  occ. eigenvalues --   -0.82446  -0.81511  -0.78409  -0.73704  -0.71146
 Alpha  occ. eigenvalues --   -0.68509  -0.61494  -0.58076  -0.56766  -0.55006
 Alpha  occ. eigenvalues --   -0.54280  -0.53941  -0.52518  -0.51863  -0.50658
 Alpha  occ. eigenvalues --   -0.50051  -0.49479  -0.49060  -0.48416  -0.47986
 Alpha  occ. eigenvalues --   -0.46788  -0.45370  -0.44972  -0.43213  -0.42911
 Alpha  occ. eigenvalues --   -0.42417  -0.42040  -0.41943  -0.32691  -0.32279
 Alpha  occ. eigenvalues --   -0.31346  -0.25757
 Alpha virt. eigenvalues --   -0.02391   0.02557   0.06684   0.08412   0.08929
 Alpha virt. eigenvalues --    0.10132   0.10890   0.12087   0.12816   0.13653
 Alpha virt. eigenvalues --    0.14312   0.15128   0.15850   0.16292   0.17065
 Alpha virt. eigenvalues --    0.17580   0.17955   0.18015   0.18255   0.19292
 Alpha virt. eigenvalues --    0.20142   0.22254   0.23122   0.23566   0.23717
 Alpha virt. eigenvalues --    0.24178   0.24875   0.25812   0.25950   0.26811
 Alpha virt. eigenvalues --    0.26935   0.27616   0.28887   0.29108   0.30350
 Alpha virt. eigenvalues --    0.31753   0.32192   0.32759   0.33766   0.34651
 Alpha virt. eigenvalues --    0.35465   0.36116   0.36886   0.38262   0.38943
 Alpha virt. eigenvalues --    0.40005   0.41185   0.41909   0.42433   0.42815
 Alpha virt. eigenvalues --    0.44221   0.44439   0.45459   0.46067   0.46254
 Alpha virt. eigenvalues --    0.47368   0.47979   0.48188   0.48428   0.49043
 Alpha virt. eigenvalues --    0.49652   0.50302   0.50912   0.51496   0.51713
 Alpha virt. eigenvalues --    0.52891   0.53231   0.53557   0.54310   0.54429
 Alpha virt. eigenvalues --    0.54786   0.56021   0.56279   0.56631   0.58487
 Alpha virt. eigenvalues --    0.58781   0.59119   0.60841   0.61163   0.62901
 Alpha virt. eigenvalues --    0.63379   0.65793   0.66220   0.66520   0.68006
 Alpha virt. eigenvalues --    0.68882   0.70299   0.71541   0.72479   0.73300
 Alpha virt. eigenvalues --    0.73523   0.73943   0.74888   0.76324   0.77911
 Alpha virt. eigenvalues --    0.78347   0.79806   0.82213   0.84703   0.85318
 Alpha virt. eigenvalues --    0.89357   0.93273   0.99374   1.00138   1.24660
 Alpha virt. eigenvalues --    1.25683   1.27293   1.27818   1.29524   1.31497
 Alpha virt. eigenvalues --    1.32595   1.33133   1.34243   1.35189   1.36130
 Alpha virt. eigenvalues --    1.36617   1.37267   1.38356   1.39355   1.39991
 Alpha virt. eigenvalues --    1.40154   1.40585   1.41227   1.41646   1.41880
 Alpha virt. eigenvalues --    1.43490   1.44329   1.44683   1.45340   1.47231
 Alpha virt. eigenvalues --    1.48296   1.49293   1.49892   1.50624   1.51175
 Alpha virt. eigenvalues --    1.52184   1.52520   1.53802   1.54525   1.57871
 Alpha virt. eigenvalues --    1.58323   1.60556   1.60833   1.61347   1.62370
 Alpha virt. eigenvalues --    1.62763   1.63436   1.64358   1.65570   1.65780
 Alpha virt. eigenvalues --    1.67200   1.67552   1.67942   1.68335   1.68902
 Alpha virt. eigenvalues --    1.68950   1.70125   1.70655   1.72116   1.72403
 Alpha virt. eigenvalues --    1.73617   1.75392   1.76357   1.76798   1.78990
 Alpha virt. eigenvalues --    1.80426   1.83543   1.84640   1.86241   1.86760
 Alpha virt. eigenvalues --    1.87128   1.87492   1.88655   1.89323   1.90985
 Alpha virt. eigenvalues --    1.91577   1.94741   1.95615   1.98497   1.99770
 Alpha virt. eigenvalues --    2.01205   2.03914   2.04879   2.06814   2.09801
 Alpha virt. eigenvalues --    2.11473   2.13040   2.14912   2.17062   2.19832
 Alpha virt. eigenvalues --    2.20667   2.21434   2.22009   2.23056   2.26063
 Alpha virt. eigenvalues --    2.27182   2.27840   2.29203   2.30948   2.31777
 Alpha virt. eigenvalues --    2.33308   2.34791   2.36512   2.37128   2.38107
 Alpha virt. eigenvalues --    2.39671   2.40355   2.41807   2.43971   2.45093
 Alpha virt. eigenvalues --    2.46169   2.47649   2.50203   2.50780   2.51893
 Alpha virt. eigenvalues --    2.52966   2.53659   2.55068   2.56996   2.58739
 Alpha virt. eigenvalues --    2.59229   2.60267   2.61309   2.62258   2.62851
 Alpha virt. eigenvalues --    2.64634   2.65806   2.67234   2.67615   2.69185
 Alpha virt. eigenvalues --    2.71178   2.72243   2.73096   2.73836   2.75084
 Alpha virt. eigenvalues --    2.76390   2.76728   2.77441   2.78023   2.79415
 Alpha virt. eigenvalues --    2.80719   2.81586   2.83156   2.83567   2.84516
 Alpha virt. eigenvalues --    2.85644   2.86269   2.88105   2.90268   2.91815
 Alpha virt. eigenvalues --    2.97597   2.99773   3.01154   3.04759   3.10650
 Alpha virt. eigenvalues --    3.12435   3.15672   3.17061   3.17459   3.20138
 Alpha virt. eigenvalues --    3.21142   3.22189   3.24820   3.26126   3.27113
 Alpha virt. eigenvalues --    3.27367   3.29619   3.33569   3.34629   3.36739
 Alpha virt. eigenvalues --    3.37157   3.38943   3.39984   3.40618   3.41804
 Alpha virt. eigenvalues --    3.42808   3.45097   3.45576   3.46723   3.48134
 Alpha virt. eigenvalues --    3.49082   3.49847   3.55448   3.58497   3.59691
 Alpha virt. eigenvalues --    3.60468   3.90307   4.00104   4.33872   4.35871
 Alpha virt. eigenvalues --   21.64223  21.79655  22.08385  22.11046  22.11942
 Alpha virt. eigenvalues --   22.14809  22.15477  22.18378  22.21125  22.24878
 Alpha virt. eigenvalues --   22.30158  31.93246  43.62942  43.65379
          Condensed to atoms (all electrons):
               1          2          3          4          5          6
     1  O    7.959486   0.000000  -0.000242   0.000017   0.016310   0.014653
     2  O    0.000000   7.988238   0.000352   0.000023  -0.205173   0.000985
     3  N   -0.000242   0.000352   6.373248   0.372335  -0.109094   0.334245
     4  H    0.000017   0.000023   0.372335   0.401065   0.016884  -0.045050
     5  C    0.016310  -0.205173  -0.109094   0.016884   6.971071  -0.070094
     6  C    0.014653   0.000985   0.334245  -0.045050  -0.070094   5.578379
     7  C   -0.000351  -0.032683   0.381122  -0.038170   0.386357  -0.087914
     8  C   -0.000265   0.716853   0.004569  -0.000697  -0.267598   0.028044
     9  C   -0.029146   0.018965   0.013799  -0.000116  -0.469456  -0.114133
    10  H    0.004226   0.000082   0.003838   0.000019  -0.027280  -0.016695
    11  H    0.016394   0.000005  -0.001474   0.000016  -0.112066   0.025993
    12  C   -0.224113  -0.002284  -0.088508   0.015144   0.153321  -0.126089
    13  C    0.716474  -0.000031   0.000315   0.000377   0.074984   0.165591
    14  C   -0.000005  -0.014467  -0.035286  -0.009260  -0.071197   0.009692
    15  H   -0.000000   0.004167   0.004535   0.001199   0.015508   0.006201
    16  H   -0.000000   0.002125  -0.003236   0.000909  -0.003249  -0.001895
    17  H   -0.000000   0.002491   0.001386   0.000777  -0.007386  -0.000847
    18  C   -0.000054  -0.106676  -0.000602   0.000016  -0.272394   0.000592
    19  H   -0.000004   0.009224   0.000003  -0.000001   0.026596   0.000024
    20  H    0.000014   0.001087   0.000013  -0.000000   0.002881   0.000239
    21  H    0.000074   0.003650   0.000124   0.000001   0.042716  -0.001102
    22  C   -0.107660   0.000000   0.000033   0.000109   0.003795  -0.011008
    23  H    0.004815  -0.000000  -0.000055  -0.000052  -0.000586  -0.031857
    24  H    0.001306  -0.000000  -0.000031  -0.000015  -0.000076   0.010634
    25  H    0.007677   0.000000   0.000032  -0.000002  -0.000142  -0.001400
    26  C    0.000849   0.000004  -0.029174  -0.006450  -0.000334   0.178787
    27  H   -0.000229  -0.000000   0.002700   0.000872   0.000061  -0.047208
    28  H   -0.000048  -0.000000  -0.002404   0.000442   0.000422  -0.035419
    29  H    0.000025  -0.000000   0.000896   0.000978  -0.000487  -0.047098
               7          8          9         10         11         12
     1  O   -0.000351  -0.000265  -0.029146   0.004226   0.016394  -0.224113
     2  O   -0.032683   0.716853   0.018965   0.000082   0.000005  -0.002284
     3  N    0.381122   0.004569   0.013799   0.003838  -0.001474  -0.088508
     4  H   -0.038170  -0.000697  -0.000116   0.000019   0.000016   0.015144
     5  C    0.386357  -0.267598  -0.469456  -0.027280  -0.112066   0.153321
     6  C   -0.087914   0.028044  -0.114133  -0.016695   0.025993  -0.126089
     7  C    5.402654  -0.187241  -0.170172  -0.004837   0.018943  -0.008734
     8  C   -0.187241   5.370191   0.093855  -0.005437  -0.008244  -0.032041
     9  C   -0.170172   0.093855   6.236136   0.395881   0.525643   0.022970
    10  H   -0.004837  -0.005437   0.395881   0.544176  -0.036549  -0.019952
    11  H    0.018943  -0.008244   0.525643  -0.036549   0.513719  -0.107306
    12  C   -0.008734  -0.032041   0.022970  -0.019952  -0.107306   7.225144
    13  C    0.013292  -0.006670  -0.270115   0.001716  -0.001076  -0.403242
    14  C    0.257623  -0.042088   0.009726  -0.001300   0.000554  -0.003874
    15  H   -0.071094   0.005480  -0.000042   0.000069  -0.000002  -0.001115
    16  H   -0.025355  -0.001059   0.000610  -0.000068   0.000055   0.000795
    17  H   -0.032277  -0.008067  -0.000457   0.000199  -0.000060  -0.000041
    18  C    0.002009   0.321554   0.001264  -0.009044   0.008891  -0.003346
    19  H    0.000425  -0.054917  -0.000187  -0.000037   0.000518  -0.000201
    20  H    0.001057  -0.024269  -0.009036   0.000947  -0.002442  -0.003419
    21  H    0.000705  -0.063812  -0.009663   0.002301  -0.005367   0.006257
    22  C    0.000056  -0.000070   0.003743   0.001668   0.000958  -0.257006
    23  H    0.000011  -0.000008   0.003438  -0.000127  -0.000070   0.063967
    24  H    0.000023   0.000003  -0.001958   0.000138  -0.000119  -0.011675
    25  H    0.000004   0.000004   0.000310  -0.000045  -0.000140   0.024891
    26  C    0.003070   0.000498   0.020141  -0.000753   0.000017  -0.076566
    27  H   -0.000784   0.000004  -0.000807  -0.000077   0.000002  -0.006277
    28  H   -0.000839  -0.000009  -0.000243  -0.000023   0.000047  -0.018777
    29  H    0.003561  -0.000008  -0.000495   0.000091  -0.000009   0.022055
              13         14         15         16         17         18
     1  O    0.716474  -0.000005  -0.000000  -0.000000  -0.000000  -0.000054
     2  O   -0.000031  -0.014467   0.004167   0.002125   0.002491  -0.106676
     3  N    0.000315  -0.035286   0.004535  -0.003236   0.001386  -0.000602
     4  H    0.000377  -0.009260   0.001199   0.000909   0.000777   0.000016
     5  C    0.074984  -0.071197   0.015508  -0.003249  -0.007386  -0.272394
     6  C    0.165591   0.009692   0.006201  -0.001895  -0.000847   0.000592
     7  C    0.013292   0.257623  -0.071094  -0.025355  -0.032277   0.002009
     8  C   -0.006670  -0.042088   0.005480  -0.001059  -0.008067   0.321554
     9  C   -0.270115   0.009726  -0.000042   0.000610  -0.000457   0.001264
    10  H    0.001716  -0.001300   0.000069  -0.000068   0.000199  -0.009044
    11  H   -0.001076   0.000554  -0.000002   0.000055  -0.000060   0.008891
    12  C   -0.403242  -0.003874  -0.001115   0.000795  -0.000041  -0.003346
    13  C    5.473719  -0.000039  -0.000020  -0.000020  -0.000000   0.000452
    14  C   -0.000039   5.079714   0.387733   0.407200   0.424511   0.001311
    15  H   -0.000020   0.387733   0.565205  -0.024685  -0.027183   0.000273
    16  H   -0.000020   0.407200  -0.024685   0.514447  -0.028684  -0.000007
    17  H   -0.000000   0.424511  -0.027183  -0.028684   0.515114  -0.000193
    18  C    0.000452   0.001311   0.000273  -0.000007  -0.000193   5.349988
    19  H   -0.000011   0.000088  -0.000006  -0.000023   0.000031   0.390103
    20  H   -0.000064  -0.000270  -0.000006  -0.000007   0.000026   0.396537
    21  H    0.000514   0.000076  -0.000016   0.000003  -0.000042   0.382493
    22  C    0.289980  -0.000024   0.000002   0.000000  -0.000000   0.000023
    23  H   -0.090498  -0.000000   0.000000   0.000000   0.000000   0.000003
    24  H   -0.022905  -0.000001   0.000000   0.000000  -0.000000  -0.000002
    25  H   -0.042508   0.000001  -0.000000  -0.000000   0.000000  -0.000001
    26  C   -0.057217   0.001374   0.000039  -0.000171   0.000055   0.000022
    27  H   -0.005432   0.000095  -0.000012   0.000001  -0.000001  -0.000000
    28  H    0.006365  -0.000109   0.000001  -0.000012   0.000004  -0.000001
    29  H   -0.000364  -0.000250   0.000135   0.000002  -0.000004   0.000000
              19         20         21         22         23         24
     1  O   -0.000004   0.000014   0.000074  -0.107660   0.004815   0.001306
     2  O    0.009224   0.001087   0.003650   0.000000  -0.000000  -0.000000
     3  N    0.000003   0.000013   0.000124   0.000033  -0.000055  -0.000031
     4  H   -0.000001  -0.000000   0.000001   0.000109  -0.000052  -0.000015
     5  C    0.026596   0.002881   0.042716   0.003795  -0.000586  -0.000076
     6  C    0.000024   0.000239  -0.001102  -0.011008  -0.031857   0.010634
     7  C    0.000425   0.001057   0.000705   0.000056   0.000011   0.000023
     8  C   -0.054917  -0.024269  -0.063812  -0.000070  -0.000008   0.000003
     9  C   -0.000187  -0.009036  -0.009663   0.003743   0.003438  -0.001958
    10  H   -0.000037   0.000947   0.002301   0.001668  -0.000127   0.000138
    11  H    0.000518  -0.002442  -0.005367   0.000958  -0.000070  -0.000119
    12  C   -0.000201  -0.003419   0.006257  -0.257006   0.063967  -0.011675
    13  C   -0.000011  -0.000064   0.000514   0.289980  -0.090498  -0.022905
    14  C    0.000088  -0.000270   0.000076  -0.000024  -0.000000  -0.000001
    15  H   -0.000006  -0.000006  -0.000016   0.000002   0.000000   0.000000
    16  H   -0.000023  -0.000007   0.000003   0.000000   0.000000   0.000000
    17  H    0.000031   0.000026  -0.000042  -0.000000   0.000000  -0.000000
    18  C    0.390103   0.396537   0.382493   0.000023   0.000003  -0.000002
    19  H    0.510677  -0.010513  -0.021470  -0.000000   0.000000   0.000000
    20  H   -0.010513   0.499449  -0.025067  -0.000012  -0.000000   0.000000
    21  H   -0.021470  -0.025067   0.530058   0.000016  -0.000000  -0.000000
    22  C   -0.000000  -0.000012   0.000016   5.418817   0.398448   0.401945
    23  H    0.000000  -0.000000  -0.000000   0.398448   0.535547  -0.025915
    24  H    0.000000   0.000000  -0.000000   0.401945  -0.025915   0.491326
    25  H   -0.000000   0.000000  -0.000000   0.383084  -0.021988  -0.008635
    26  C    0.000000   0.000005  -0.000014  -0.029690   0.015527  -0.014098
    27  H   -0.000000   0.000000  -0.000000   0.008671  -0.009839  -0.000946
    28  H    0.000000  -0.000000  -0.000000  -0.011239  -0.001322   0.001097
    29  H    0.000000  -0.000000   0.000000   0.001853   0.000698   0.000197
              25         26         27         28         29
     1  O    0.007677   0.000849  -0.000229  -0.000048   0.000025
     2  O    0.000000   0.000004  -0.000000  -0.000000  -0.000000
     3  N    0.000032  -0.029174   0.002700  -0.002404   0.000896
     4  H   -0.000002  -0.006450   0.000872   0.000442   0.000978
     5  C   -0.000142  -0.000334   0.000061   0.000422  -0.000487
     6  C   -0.001400   0.178787  -0.047208  -0.035419  -0.047098
     7  C    0.000004   0.003070  -0.000784  -0.000839   0.003561
     8  C    0.000004   0.000498   0.000004  -0.000009  -0.000008
     9  C    0.000310   0.020141  -0.000807  -0.000243  -0.000495
    10  H   -0.000045  -0.000753  -0.000077  -0.000023   0.000091
    11  H   -0.000140   0.000017   0.000002   0.000047  -0.000009
    12  C    0.024891  -0.076566  -0.006277  -0.018777   0.022055
    13  C   -0.042508  -0.057217  -0.005432   0.006365  -0.000364
    14  C    0.000001   0.001374   0.000095  -0.000109  -0.000250
    15  H   -0.000000   0.000039  -0.000012   0.000001   0.000135
    16  H   -0.000000  -0.000171   0.000001  -0.000012   0.000002
    17  H    0.000000   0.000055  -0.000001   0.000004  -0.000004
    18  C   -0.000001   0.000022  -0.000000  -0.000001   0.000000
    19  H   -0.000000   0.000000  -0.000000   0.000000   0.000000
    20  H    0.000000   0.000005   0.000000  -0.000000  -0.000000
    21  H   -0.000000  -0.000014  -0.000000  -0.000000   0.000000
    22  C    0.383084  -0.029690   0.008671  -0.011239   0.001853
    23  H   -0.021988   0.015527  -0.009839  -0.001322   0.000698
    24  H   -0.008635  -0.014098  -0.000946   0.001097   0.000197
    25  H    0.499695   0.002043   0.000835   0.000112  -0.000043
    26  C    0.002043   5.258105   0.427465   0.429196   0.390201
    27  H    0.000835   0.427465   0.512987  -0.026550  -0.026077
    28  H    0.000112   0.429196  -0.026550   0.480154  -0.017366
    29  H   -0.000043   0.390201  -0.026077  -0.017366   0.511426
 Mulliken charges:
               1
     1  O   -0.380204
     2  O   -0.386938
     3  N   -0.223440
     4  H    0.288632
     5  C   -0.094295
     6  C    0.283747
     7  C    0.189537
     8  C    0.161445
     9  C   -0.270455
    10  H    0.166872
    11  H    0.163169
    12  C   -0.139978
    13  C    0.156432
    14  C   -0.401526
    15  H    0.133635
    16  H    0.162325
    17  H    0.160647
    18  C   -0.463211
    19  H    0.149679
    20  H    0.172850
    21  H    0.157566
    22  C   -0.496491
    23  H    0.159863
    24  H    0.179705
    25  H    0.156217
    26  C   -0.512931
    27  H    0.170545
    28  H    0.196521
    29  H    0.160081
 Sum of Mulliken charges =  -0.00000
 Mulliken charges with hydrogens summed into heavy atoms:
               1
     1  O   -0.380204
     2  O   -0.386938
     3  N    0.065192
     5  C   -0.094295
     6  C    0.283747
     7  C    0.189537
     8  C    0.161445
     9  C    0.059586
    12  C   -0.139978
    13  C    0.156432
    14  C    0.055081
    18  C    0.016884
    22  C   -0.000706
    26  C    0.014217
 Electronic spatial extent (au):  <R**2>=           3186.4325
 Charge=              0.0000 electrons
 Dipole moment (field-independent basis, Debye):
    X=             -4.0209    Y=              7.7189    Z=             -0.4349  Tot=              8.7143
 Quadrupole moment (field-independent basis, Debye-Ang):
   XX=            -99.2880   YY=            -78.3785   ZZ=            -84.9048
   XY=            -12.9370   XZ=             -5.7018   YZ=             -1.6222
 Traceless Quadrupole moment (field-independent basis, Debye-Ang):
   XX=            -11.7642   YY=              9.1453   ZZ=              2.6189
   XY=            -12.9370   XZ=             -5.7018   YZ=             -1.6222
 Octapole moment (field-independent basis, Debye-Ang**2):
  XXX=           -109.7710  YYY=             66.9073  ZZZ=              1.6160  XYY=             35.0514
  XXY=             32.4261  XXZ=            -10.8773  XZZ=             -2.4869  YZZ=             -1.0256
  YYZ=              2.8587  XYZ=              5.2497
 Hexadecapole moment (field-independent basis, Debye-Ang**3):
 XXXX=          -3050.9561 YYYY=          -1272.7249 ZZZZ=           -155.9346 XXXY=            -40.1498
 XXXZ=            -66.0021 YYYX=            -89.7911 YYYZ=            -22.2611 ZZZX=              2.3087
 ZZZY=              5.4955 XXYY=           -695.0308 XXZZ=           -486.7387 YYZZ=           -242.4890
 XXYZ=             -6.2847 YYXZ=             -7.2331 ZZXY=              0.7938
 N-N= 9.007976859391D+02 E-N=-3.277599872787D+03  KE= 6.307243658007D+02
 No NMR shielding tensors so no spin-rotation constants.
 Leave Link  601 at Sat Jan 24 23:10:26 2026, MaxMem=  2147483648 cpu:               1.8 elap:               0.1
 (Enter /data/home/wyx/g16/l9999.exe)
 1\1\GINC-CN012\SP\RCAM-B3LYP\TZVP\C11H15N1O2\WYX\24-Jan-2026\0\\#p CAM
 -B3LYP TZVP em=gd3bj scrf=(Solvent=Water,NonEquilibrium=Read) Geom=Che
 ck Guess=Read\\Title Card Required\\0,1\O,0,2.741595,-1.558465,0.76028
 1\O,0,-3.238037,-1.643825,-1.078266\N,0,-0.706159,1.513866,0.096963\H,
 0,-1.014389,2.471855,0.038108\C,0,-1.248955,-0.759125,-0.155137\C,0,0.
 64132,1.305949,0.271082\C,0,-1.621025,0.549228,-0.23585\C,0,-2.153207,
 -1.837192,-0.536163\C,0,0.100317,-1.102153,0.411519\H,0,0.000684,-1.44
 1704,1.452344\H,0,0.526714,-1.958701,-0.108748\C,0,1.095069,0.025045,0
 .352977\C,0,2.490051,-0.391226,0.464639\C,0,-2.9477,1.086696,-0.653728
 \H,0,-3.036023,2.141031,-0.399083\H,0,-3.084171,0.983518,-1.727801\H,0
 ,-3.75882,0.540117,-0.186713\C,0,-1.720508,-3.251368,-0.252136\H,0,-2.
 56052,-3.922597,-0.395986\H,0,-0.922986,-3.54738,-0.932973\H,0,-1.3337
 88,-3.366582,0.757715\C,0,3.647338,0.536881,0.189614\H,0,3.45113,1.237
 521,-0.617493\H,0,3.895556,1.109342,1.085122\H,0,4.51,-0.075299,-0.063
 29\C,0,1.41779,2.58199,0.352\H,0,2.241648,2.518481,1.05169\H,0,1.81749
 1,2.86175,-0.622772\H,0,0.769583,3.392345,0.682082\\Version=ES64L-G16R
 evA.03\State=1-A\HF=-633.3314011\RMSD=7.719e-09\Dipole=0.4174061,3.393
 8629,0.2485053\Quadrupole=-10.8388791,11.1475676,-0.3086886,2.448934,-
 6.9466173,0.1531623\PG=C01 [X(C11H15N1O2)]\\@


 ASKING FOR EFFICIENCY AND ADAPTABILITY IN THE SAME PROGRAM IS LIKE
 ASKING FOR A BEAUTIFUL AND MODEST WIFE ...
 WE'LL PROBABLY HAVE TO SETTLE FOR ONE OR THE OTHER.

             -- THE PSYCHOLOGY OF COMPUTER PROGRAMMING
                GERALD M. WEINBERG
 Job cpu time:       0 days  0 hours 12 minutes 40.1 seconds.
 Elapsed time:       0 days  0 hours  0 minutes 48.4 seconds.
 File lengths (MBytes):  RWF=    340 Int=      0 D2E=      0 Chk=     67 Scr=      1
 Normal termination of Gaussian 16 at Sat Jan 24 23:10:27 2026.
