 Entering Gaussian System, Link 0=g16
 Input=DDL-S2-cLR-0.gjf
 Output=DDL-S2-cLR-0.log
 Initial command:
 /data/home/wyx/g16/l1.exe "/scr/tmp/wyx/13117/Gau-2016764.inp" -scrdir="/scr/tmp/wyx/13117/"
 Entering Link 1 = /data/home/wyx/g16/l1.exe PID=   2016765.
  
 Copyright (c) 1988,1990,1992,1993,1995,1998,2003,2009,2016,
            Gaussian, Inc.  All Rights Reserved.
  
 This is part of the Gaussian(R) 16 program.  It is based on
 the Gaussian(R) 09 system (copyright 2009, Gaussian, Inc.),
 the Gaussian(R) 03 system (copyright 2003, Gaussian, Inc.),
 the Gaussian(R) 98 system (copyright 1998, Gaussian, Inc.),
 the Gaussian(R) 94 system (copyright 1995, Gaussian, Inc.),
 the Gaussian 92(TM) system (copyright 1992, Gaussian, Inc.),
 the Gaussian 90(TM) system (copyright 1990, Gaussian, Inc.),
 the Gaussian 88(TM) system (copyright 1988, Gaussian, Inc.),
 the Gaussian 86(TM) system (copyright 1986, Carnegie Mellon
 University), and the Gaussian 82(TM) system (copyright 1983,
 Carnegie Mellon University). Gaussian is a federally registered
 trademark of Gaussian, Inc.
  
 This software contains proprietary and confidential information,
 including trade secrets, belonging to Gaussian, Inc.
  
 This software is provided under written license and may be
 used, copied, transmitted, or stored only in accord with that
 written license.
  
 The following legend is applicable only to US Government
 contracts under FAR:
  
                    RESTRICTED RIGHTS LEGEND
  
 Use, reproduction and disclosure by the US Government is
 subject to restrictions as set forth in subparagraphs (a)
 and (c) of the Commercial Computer Software - Restricted
 Rights clause in FAR 52.227-19.
  
 Gaussian, Inc.
 340 Quinnipiac St., Bldg. 40, Wallingford CT 06492
  
  
 ---------------------------------------------------------------
 Warning -- This program may not be used in any manner that
 competes with the business of Gaussian, Inc. or will provide
 assistance to any competitor of Gaussian, Inc.  The licensee
 of this program is prohibited from giving any competitor of
 Gaussian, Inc. access to this program.  By using this program,
 the user acknowledges that Gaussian, Inc. is engaged in the
 business of creating and licensing software in the field of
 computational chemistry and represents and warrants to the
 licensee that it is not a competitor of Gaussian, Inc. and that
 it will not use this program in any manner prohibited above.
 ---------------------------------------------------------------
  

 Cite this work as:
 Gaussian 16, Revision A.03,
 M. J. Frisch, G. W. Trucks, H. B. Schlegel, G. E. Scuseria, 
 M. A. Robb, J. R. Cheeseman, G. Scalmani, V. Barone, 
 G. A. Petersson, H. Nakatsuji, X. Li, M. Caricato, A. V. Marenich, 
 J. Bloino, B. G. Janesko, R. Gomperts, B. Mennucci, H. P. Hratchian, 
 J. V. Ortiz, A. F. Izmaylov, J. L. Sonnenberg, D. Williams-Young, 
 F. Ding, F. Lipparini, F. Egidi, J. Goings, B. Peng, A. Petrone, 
 T. Henderson, D. Ranasinghe, V. G. Zakrzewski, J. Gao, N. Rega, 
 G. Zheng, W. Liang, M. Hada, M. Ehara, K. Toyota, R. Fukuda, 
 J. Hasegawa, M. Ishida, T. Nakajima, Y. Honda, O. Kitao, H. Nakai, 
 T. Vreven, K. Throssell, J. A. Montgomery, Jr., J. E. Peralta, 
 F. Ogliaro, M. J. Bearpark, J. J. Heyd, E. N. Brothers, K. N. Kudin, 
 V. N. Staroverov, T. A. Keith, R. Kobayashi, J. Normand, 
 K. Raghavachari, A. P. Rendell, J. C. Burant, S. S. Iyengar, 
 J. Tomasi, M. Cossi, J. M. Millam, M. Klene, C. Adamo, R. Cammi, 
 J. W. Ochterski, R. L. Martin, K. Morokuma, O. Farkas, 
 J. B. Foresman, and D. J. Fox, Gaussian, Inc., Wallingford CT, 2016.
 
 ******************************************
 Gaussian 16:  ES64L-G16RevA.03 25-Dec-2016
                24-Jan-2026 
 ******************************************
 %nprocshared=16
 Will use up to   16 processors via shared memory.
 %mem=16GB
 %oldchk=DDL-LR-0.chk
 %chk=DDL-S2-cLR-0.chk
 Copying data from "DDL-LR-0.chk" to current chk file "DDL-S2-cLR-0.chk"
 IOpt=  2 FromEx=T IUOpen= 4 IOptOp= 5 NList=   0 IFRang= 0 IUIn= 4 IUOut= 2.
 ----------------------------------------------------------------------
 #p CAM-B3LYP TZVP em=gd3bj td(nstates=6,root=2) scrf=(Solvent=Water,Co
 rrectedLR,NonEquilibrium=Save) Geom=Check Guess=Read
 ----------------------------------------------------------------------
 1/29=2,30=1,38=1,172=1/1;
 2/12=2,40=1/2;
 3/5=19,7=101,11=9,14=-4,25=1,30=1,70=9002201,71=1,72=1,74=-40,116=-2,124=41/1,2,3,8;
 4/5=1/1;
 5/5=2,38=6,53=1/2;
 8/6=1,10=1,107=2,108=6/1;
 9/8=2,15=1,41=6,42=1,70=2,73=22/14;
 10/5=4,13=10,28=2,74=20/2;
 6/7=2,8=2,9=2,10=2,22=-1/1;
 99/5=1,9=1/99;
 Leave Link    1 at Sat Jan 24 16:52:59 2026, MaxMem=  2147483648 cpu:               0.9 elap:               0.1
 (Enter /data/home/wyx/g16/l101.exe)
 -------------------
 Title Card Required
 -------------------
 Structure from the checkpoint file:  "DDL-S2-cLR-0.chk"
 Charge =  0 Multiplicity = 1
 Z-Matrix found in chk file.
 O,0,2.707335,-1.559688,0.905597
 O,0,-3.328702,-1.669399,-0.836778
 N,0,-0.674316,1.517027,-0.112959
 H,0,-0.982718,2.479016,-0.184466
 C,0,-1.253986,-0.765742,-0.180897
 C,0,0.644853,1.345678,0.177607
 C,0,-1.631246,0.585419,-0.311191
 C,0,-2.169531,-1.855927,-0.437564
 C,0,0.12779,-1.073187,0.231954
 H,0,0.108455,-1.545463,1.2339
 H,0,0.541399,-1.890298,-0.37221
 C,0,1.108918,0.027111,0.29801
 C,0,2.475527,-0.397592,0.533021
 C,0,-2.993593,1.10838,-0.621
 H,0,-3.002488,2.197746,-0.571638
 H,0,-3.320074,0.802622,-1.613696
 H,0,-3.72996,0.721503,0.081375
 C,0,-1.688219,-3.277637,-0.25105
 H,0,-2.558289,-3.921136,-0.142692
 H,0,-1.133713,-3.604387,-1.134824
 H,0,-1.038064,-3.408115,0.611936
 C,0,3.650219,0.51882,0.29137
 H,0,3.475998,1.244229,-0.498592
 H,0,3.907902,1.06241,1.203199
 H,0,4.504062,-0.101335,0.024742
 C,0,1.415248,2.609986,0.376188
 H,0,2.10103,2.526687,1.21602
 H,0,1.998767,2.886416,-0.504489
 H,0,0.73741,3.436855,0.589133
 Recover connectivity data from disk.
 ITRead=  0  0  0  0  0  0  0  0  0  0  0  0  0  0  0  0  0  0  0  0
 ITRead=  0  0  0  0  0  0  0  0  0
 MicOpt= -1 -1 -1 -1 -1 -1 -1 -1 -1 -1 -1 -1 -1 -1 -1 -1 -1 -1 -1 -1
 MicOpt= -1 -1 -1 -1 -1 -1 -1 -1 -1
 NAtoms=     29 NQM=       29 NQMF=       0 NMMI=      0 NMMIF=      0
                NMic=       0 NMicF=      0.
                    Isotopes and Nuclear Properties:
 (Nuclear quadrupole moments (NQMom) in fm**2, nuclear magnetic moments (NMagM)
  in nuclear magnetons)

  Atom         1           2           3           4           5           6           7           8           9          10
 IAtWgt=          16          16          14           1          12          12          12          12          12           1
 AtmWgt=  15.9949146  15.9949146  14.0030740   1.0078250  12.0000000  12.0000000  12.0000000  12.0000000  12.0000000   1.0078250
 NucSpn=           0           0           2           1           0           0           0           0           0           1
 AtZEff=   5.6000000   5.6000000   4.5500000   1.0000000   3.6000000   3.6000000   3.6000000   3.6000000   3.6000000   1.0000000
 NQMom=    0.0000000   0.0000000   2.0440000   0.0000000   0.0000000   0.0000000   0.0000000   0.0000000   0.0000000   0.0000000
 NMagM=    0.0000000   0.0000000   0.4037610   2.7928460   0.0000000   0.0000000   0.0000000   0.0000000   0.0000000   2.7928460
 AtZNuc=   8.0000000   8.0000000   7.0000000   1.0000000   6.0000000   6.0000000   6.0000000   6.0000000   6.0000000   1.0000000

  Atom        11          12          13          14          15          16          17          18          19          20
 IAtWgt=           1          12          12          12           1           1           1          12           1           1
 AtmWgt=   1.0078250  12.0000000  12.0000000  12.0000000   1.0078250   1.0078250   1.0078250  12.0000000   1.0078250   1.0078250
 NucSpn=           1           0           0           0           1           1           1           0           1           1
 AtZEff=   1.0000000   3.6000000   3.6000000   3.6000000   1.0000000   1.0000000   1.0000000   3.6000000   1.0000000   1.0000000
 NQMom=    0.0000000   0.0000000   0.0000000   0.0000000   0.0000000   0.0000000   0.0000000   0.0000000   0.0000000   0.0000000
 NMagM=    2.7928460   0.0000000   0.0000000   0.0000000   2.7928460   2.7928460   2.7928460   0.0000000   2.7928460   2.7928460
 AtZNuc=   1.0000000   6.0000000   6.0000000   6.0000000   1.0000000   1.0000000   1.0000000   6.0000000   1.0000000   1.0000000

  Atom        21          22          23          24          25          26          27          28          29
 IAtWgt=           1          12           1           1           1          12           1           1           1
 AtmWgt=   1.0078250  12.0000000   1.0078250   1.0078250   1.0078250  12.0000000   1.0078250   1.0078250   1.0078250
 NucSpn=           1           0           1           1           1           0           1           1           1
 AtZEff=   1.0000000   3.6000000   1.0000000   1.0000000   1.0000000   3.6000000   1.0000000   1.0000000   1.0000000
 NQMom=    0.0000000   0.0000000   0.0000000   0.0000000   0.0000000   0.0000000   0.0000000   0.0000000   0.0000000
 NMagM=    2.7928460   0.0000000   2.7928460   2.7928460   2.7928460   0.0000000   2.7928460   2.7928460   2.7928460
 AtZNuc=   1.0000000   6.0000000   1.0000000   1.0000000   1.0000000   6.0000000   1.0000000   1.0000000   1.0000000
 Leave Link  101 at Sat Jan 24 16:53:01 2026, MaxMem=  2147483648 cpu:               0.8 elap:               0.1
 (Enter /data/home/wyx/g16/l202.exe)
                          Input orientation:                          
 ---------------------------------------------------------------------
 Center     Atomic      Atomic             Coordinates (Angstroms)
 Number     Number       Type             X           Y           Z
 ---------------------------------------------------------------------
      1          8           0        2.707335   -1.559688    0.905597
      2          8           0       -3.328702   -1.669399   -0.836778
      3          7           0       -0.674316    1.517027   -0.112959
      4          1           0       -0.982718    2.479016   -0.184466
      5          6           0       -1.253986   -0.765742   -0.180897
      6          6           0        0.644853    1.345678    0.177607
      7          6           0       -1.631246    0.585419   -0.311191
      8          6           0       -2.169531   -1.855927   -0.437564
      9          6           0        0.127790   -1.073187    0.231954
     10          1           0        0.108455   -1.545463    1.233900
     11          1           0        0.541399   -1.890298   -0.372210
     12          6           0        1.108918    0.027111    0.298010
     13          6           0        2.475527   -0.397592    0.533021
     14          6           0       -2.993593    1.108380   -0.621000
     15          1           0       -3.002488    2.197746   -0.571638
     16          1           0       -3.320074    0.802622   -1.613696
     17          1           0       -3.729960    0.721503    0.081375
     18          6           0       -1.688219   -3.277637   -0.251050
     19          1           0       -2.558289   -3.921136   -0.142692
     20          1           0       -1.133713   -3.604387   -1.134824
     21          1           0       -1.038064   -3.408115    0.611936
     22          6           0        3.650219    0.518820    0.291370
     23          1           0        3.475998    1.244229   -0.498592
     24          1           0        3.907902    1.062410    1.203199
     25          1           0        4.504062   -0.101335    0.024742
     26          6           0        1.415248    2.609986    0.376188
     27          1           0        2.101030    2.526687    1.216020
     28          1           0        1.998767    2.886416   -0.504489
     29          1           0        0.737410    3.436855    0.589133
 ---------------------------------------------------------------------
                    Distance matrix (angstroms):
                    1          2          3          4          5
     1  O    0.000000
     2  O    6.283443   0.000000
     3  N    4.683929   4.209868   0.000000
     4  H    5.578159   4.810249   1.012743   0.000000
     5  C    4.183645   2.356103   2.356198   3.256079   0.000000
     6  C    3.636613   5.090069   1.361615   2.016070   2.862204
     7  C    4.990525   2.870854   1.350150   2.005582   1.408878
     8  C    5.067116   1.240098   3.703762   4.501590   1.446584
     9  C    2.710079   3.666742   2.733413   3.744967   1.474542
    10  H    2.619573   4.014613   3.435928   4.404413   2.113258
    11  H    2.536409   3.904139   3.626987   4.631316   2.127119
    12  C    2.332816   4.884502   2.359803   3.258767   2.537968
    13  C    1.242182   6.097780   3.742268   4.555120   3.815033
    14  C    6.476856   2.806228   2.409179   2.472412   2.594659
    15  H    6.993040   3.889926   2.468633   2.075689   3.462975
    16  H    6.946726   2.591248   3.124519   3.211889   2.963342
    17  H    6.879095   2.592378   3.163477   3.272134   2.900195
    18  C    4.859020   2.370800   4.902639   5.800105   2.550117
    19  H    5.865334   2.479034   5.755333   6.591367   3.414554
    20  H    4.806013   2.941256   5.242531   6.159040   2.997057
    21  H    4.186996   3.220082   4.991474   5.941013   2.767190
    22  C    2.363578   7.400430   4.456625   5.053008   5.091597
    23  H    3.228706   7.409962   4.177109   4.637189   5.149142
    24  H    2.899194   7.999545   4.789120   5.277362   5.648270
    25  H    2.476071   8.034503   5.427122   6.066855   5.799900
    26  C    4.397266   6.503037   2.408340   2.466116   4.339435
    27  H    4.142756   7.162619   3.238540   3.387202   4.903835
    28  H    4.717865   7.017677   3.028844   3.026160   4.901364
    29  H    5.380167   6.681341   2.484279   2.115361   4.713855
                    6          7          8          9         10
     6  C    0.000000
     7  C    2.448988   0.000000
     8  C    4.306909   2.503176   0.000000
     9  C    2.474109   2.477940   2.517662   0.000000
    10  H    3.124448   3.155079   2.842429   1.107842   0.000000
    11  H    3.283983   3.294432   2.711935   1.097159   1.698806
    12  C    1.403023   2.862050   3.851640   1.475680   2.085619
    13  C    2.552778   4.306343   4.964407   2.461491   2.722475
    14  C    3.732609   1.491797   3.082182   3.902537   4.483998
    15  H    3.819749   2.132542   4.140538   4.598196   5.191295
    16  H    4.384555   2.143790   3.126487   4.337378   5.037571
    17  H    4.420163   2.139446   3.057349   4.257443   4.604441
    18  C    5.196346   3.863944   1.512517   2.896685   2.904056
    19  H    6.172685   4.604002   2.122068   3.932708   3.827578
    20  H    5.421154   4.298882   2.148535   3.141090   3.375352
    21  H    5.061561   4.141539   2.188825   2.637326   2.273943
    22  C    3.119112   5.316144   6.327737   3.865944   4.206390
    23  H    2.912545   5.152969   6.441016   4.136981   4.703643
    24  H    3.432138   5.762209   6.938587   4.448970   4.608442
    25  H    4.124404   6.182757   6.915863   4.487671   4.782147
    26  C    1.493793   3.721893   5.784221   3.904371   4.439722
    27  H    2.143253   4.475576   6.338717   4.221511   4.533551
    28  H    2.161530   4.302202   6.314191   4.440874   5.122190
    29  H    2.133294   3.814682   6.125190   4.565051   5.063082
                   11         12         13         14         15
    11  H    0.000000
    12  C    2.108964   0.000000
    13  C    2.605468   1.450249   0.000000
    14  C    4.642212   4.341004   5.788868   0.000000
    15  H    5.413964   4.729863   6.161550   1.090520   0.000000
    16  H    4.868684   4.885899   6.295864   1.088817   1.770061
    17  H    5.027102   4.893245   6.321742   1.088688   1.770575
    18  C    2.628799   4.364264   5.123105   4.591079   5.640026
    19  H    3.712822   5.406596   6.181525   5.070927   6.149961
    20  H    2.515091   4.502242   5.108019   5.092479   6.121621
    21  H    2.401461   4.063110   4.627613   5.073751   6.056855
    22  C    3.988602   2.588442   1.509340   6.732031   6.915351
    23  H    4.295708   2.778312   2.181913   6.472175   6.548688
    24  H    4.746972   3.118577   2.152311   7.138659   7.224439
    25  H    4.365851   3.408545   2.112125   7.622022   7.873356
    26  C    4.645026   2.602152   3.192854   4.763096   4.537037
    27  H    4.946178   2.841638   3.026242   5.598341   5.417547
    28  H    4.995840   3.100236   3.476843   5.300816   5.048894
    29  H    5.416748   3.442256   4.210366   4.561425   4.107264
                   16         17         18         19         20
    16  H    0.000000
    17  H    1.745810   0.000000
    18  C    4.600899   4.502481   0.000000
    19  H    5.005803   4.793445   1.087591   0.000000
    20  H    4.942795   5.189698   1.093297   1.764674   0.000000
    21  H    5.281223   4.957978   1.088334   1.773059   1.760353
    22  C    7.231515   7.385947   6.573144   7.645076   6.474633
    23  H    6.901092   7.248133   6.868601   7.951118   6.720365
    24  H    7.761831   7.727331   7.229621   8.273982   7.256943
    25  H    8.044795   8.275227   6.964862   8.030922   6.737987
    26  C    5.445133   5.488757   6.684986   7.662492   6.884678
    27  H    6.353586   6.208587   7.085258   8.070302   7.319843
    28  H    5.819159   6.152105   7.187047   8.200026   7.234658
    29  H    5.315526   5.252461   7.188462   8.095507   7.486803
                   21         22         23         24         25
    21  H    0.000000
    22  C    6.124017   0.000000
    23  H    6.576803   1.086559   0.000000
    24  H    6.693113   1.092393   1.765132   0.000000
    25  H    6.480336   1.088453   1.772382   1.760247   0.000000
    26  C    6.503219   3.061905   2.622446   3.048321   4.124991
    27  H    6.740972   2.699351   2.544628   2.325738   3.755024
    28  H    7.077420   2.994361   2.208851   3.144518   3.934875
    29  H    7.071523   4.133769   3.672958   4.008377   5.198557
                   26         27         28         29
    26  C    0.000000
    27  H    1.087453   0.000000
    28  H    1.092016   1.760686   0.000000
    29  H    1.090194   1.755236   1.757843   0.000000
 Stoichiometry    C11H15NO2
 Framework group  C1[X(C11H15NO2)]
 Deg. of freedom    81
 Full point group                 C1      NOp   1
 RotChk:  IX=0 Diff= 9.99D-16
 Largest Abelian subgroup         C1      NOp   1
 Largest concise Abelian subgroup C1      NOp   1
                         Standard orientation:                         
 ---------------------------------------------------------------------
 Center     Atomic      Atomic             Coordinates (Angstroms)
 Number     Number       Type             X           Y           Z
 ---------------------------------------------------------------------
      1          8           0       -2.288310   -2.287917   -0.295345
      2          8           0        3.638681   -0.265162    0.215428
      3          7           0       -0.019729    1.802060   -0.040737
      4          1           0       -0.046740    2.814351   -0.054340
      5          6           0        1.298848   -0.150631   -0.036143
      6          6           0       -1.232938    1.184183   -0.059411
      7          6           0        1.214605    1.255566   -0.014889
      8          6           0        2.558961   -0.854684    0.058873
      9          6           0        0.051814   -0.927855   -0.159026
     10          1           0        0.049489   -1.454707   -1.133570
     11          1           0        0.053842   -1.778326    0.534120
     12          6           0       -1.238137   -0.218821   -0.054491
     13          6           0       -2.399678   -1.085675   -0.003409
     14          6           0        2.352443    2.220114    0.005874
     15          1           0        1.983996    3.243725   -0.069631
     16          1           0        2.935354    2.126985    0.920786
     17          1           0        3.037563    2.034375   -0.819567
     18          6           0        2.560796   -2.366235    0.004846
     19          1           0        3.562618   -2.697155   -0.259159
     20          1           0        2.317198   -2.776536    0.988519
     21          1           0        1.849346   -2.777834   -0.708524
     22          6           0       -3.751230   -0.585643    0.445348
     23          1           0       -3.693529    0.223848    1.167848
     24          1           0       -4.336372   -0.239081   -0.409536
     25          1           0       -4.283017   -1.424483    0.890635
     26          6           0       -2.407302    2.104642   -0.130402
     27          1           0       -3.163451    1.727852   -0.815108
     28          1           0       -2.881923    2.252175    0.841950
     29          1           0       -2.098321    3.085262   -0.492946
 ---------------------------------------------------------------------
 Rotational constants (GHZ):           1.0696408           0.4891732           0.3419373
 Leave Link  202 at Sat Jan 24 16:53:02 2026, MaxMem=  2147483648 cpu:               0.0 elap:               0.0
 (Enter /data/home/wyx/g16/l301.exe)
 Standard basis: TZVP (5D, 7F)
 Ernie: Thresh=  0.10000D-02 Tol=  0.10000D-05 Strict=F.
 There are   370 symmetry adapted cartesian basis functions of A   symmetry.
 There are   356 symmetry adapted basis functions of A   symmetry.
   356 basis functions,   610 primitive gaussians,   370 cartesian basis functions
    52 alpha electrons       52 beta electrons
       nuclear repulsion energy       898.0421609708 Hartrees.
 IExCor=20419 DFT=T Ex+Corr=CAM-B3LYP ExCW=0 ScaHFX=  1.000000
 ScaDFX=  1.000000  1.000000  1.000000  0.810000 ScalE2=  1.000000  1.000000
 IRadAn=      5 IRanWt=     -1 IRanGd=            0 ICorTp=0 IEmpDi=141
 HFx  wShort=  0.000000 wLong=  0.330000 cFull=  0.190000 cShort=  0.000000 cLong=  0.460000
 DFx  wShort=  0.000000 wLong=  0.330000 cFull=  0.190000 cShort=  0.000000 cLong=  0.460000
 NAtoms=   29 NActive=   29 NUniq=   29 SFac= 1.00D+00 NAtFMM=   60 NAOKFM=F Big=F
 Integral buffers will be    131072 words long.
 Raffenetti 1 integral format.
 Two-electron integral symmetry is turned on.
 R6Disp:  Grimme-D3(BJ) Dispersion energy=       -0.0260955563 Hartrees.
 Nuclear repulsion after empirical dispersion term =      898.0160654146 Hartrees.
 ------------------------------------------------------------------------------
 Polarizable Continuum Model (PCM)
 =================================
 Model                : PCM.
 Atomic radii         : UFF (Universal Force Field).
 Polarization charges : Total charges.
 Charge compensation  : None.
 Solution method      : On-the-fly selection.
 Cavity type          : Scaled VdW (van der Waals Surface) (Alpha=1.100).
 Cavity algorithm     : GePol (No added spheres)
                        Default sphere list used, NSphG=   29.
                        Lebedev-Laikov grids with approx.  5.0 points / Ang**2.
                        Smoothing algorithm: York/Karplus (Gamma=1.0000).
                        Polarization charges: spherical gaussians, with
                                              point-specific exponents (IZeta= 3).
                        Self-potential: point-specific (ISelfS= 7).
                        Self-field    : sphere-specific E.n sum rule (ISelfD= 2).
 1st derivatives      : Analytical E(r).r(x)/FMM algorithm (CHGder, D1EAlg=3).
                        Cavity 1st derivative terms included.
 Solvent              : Water, Eps=  78.355300 Eps(inf)=   1.777849
 ------------------------------------------------------------------------------
 GePol: Number of generator spheres                  =      29
 GePol: Total number of spheres                      =      29
 GePol: Number of exposed spheres                    =      29 (100.00%)
 GePol: Number of points                             =    2102
 GePol: Average weight of points                     =       0.13
 GePol: Minimum weight of points                     =   0.17D-10
 GePol: Maximum weight of points                     =    0.20577
 GePol: Number of points with low weight             =     131
 GePol: Fraction of low-weight points (<1% of avg)   =       6.23%
 GePol: Cavity surface area                          =    270.050 Ang**2
 GePol: Cavity volume                                =    288.005 Ang**3
 Leave Link  301 at Sat Jan 24 16:53:02 2026, MaxMem=  2147483648 cpu:               0.6 elap:               0.0
 (Enter /data/home/wyx/g16/l302.exe)
 NPDir=0 NMtPBC=     1 NCelOv=     1 NCel=       1 NClECP=     1 NCelD=      1
         NCelK=      1 NCelE2=     1 NClLst=     1 CellRange=     0.0.
 One-electron integrals computed using PRISM.
 One-electron integral symmetry used in STVInt
 NBasis=   356 RedAO= T EigKep=  3.90D-05  NBF=   356
 NBsUse=   356 1.00D-06 EigRej= -1.00D+00 NBFU=   356
 Precomputing XC quadrature grid using
 IXCGrd= 4 IRadAn=           5 IRanWt=          -1 IRanGd=           0 AccXCQ= 0.00D+00.
 Generated NRdTot=       0 NPtTot=           0 NUsed=           0 NTot=          32
 NSgBfM=   366   366   366   366   366 MxSgAt=    29 MxSgA2=    29.
 Leave Link  302 at Sat Jan 24 16:53:02 2026, MaxMem=  2147483648 cpu:               3.1 elap:               0.2
 (Enter /data/home/wyx/g16/l303.exe)
 DipDrv:  MaxL=1.
 Leave Link  303 at Sat Jan 24 16:53:02 2026, MaxMem=  2147483648 cpu:               0.6 elap:               0.0
 (Enter /data/home/wyx/g16/l308.exe)
 Leave Link  308 at Sat Jan 24 16:53:03 2026, MaxMem=  2147483648 cpu:               0.7 elap:               0.1
 (Enter /data/home/wyx/g16/l401.exe)
 Initial guess from the checkpoint file:  "DDL-S2-cLR-0.chk"
 B after Tr=    -0.000000   -0.000000   -0.000000
         Rot=    1.000000   -0.000000    0.000000    0.000000 Ang=   0.00 deg.
 Guess basis will be translated and rotated to current coordinates.
 JPrj=2 DoOrth=T DoCkMO=T.
 Leave Link  401 at Sat Jan 24 16:53:03 2026, MaxMem=  2147483648 cpu:               2.2 elap:               0.2
 (Enter /data/home/wyx/g16/l502.exe)
 Integral symmetry usage will be decided dynamically.
 Closed shell SCF:
 Using DIIS extrapolation, IDIIS=  1040.
 NGot=  2147483648 LenX=  2147200095 LenY=  2147062754
 Requested convergence on RMS density matrix=1.00D-08 within 128 cycles.
 Requested convergence on MAX density matrix=1.00D-06.
 Requested convergence on             energy=1.00D-06.
 No special actions if energy rises.
 Fock matrices will be formed incrementally for  20 cycles.

 Cycle   1  Pass 1  IDiag  1:
 FoFJK:  IHMeth= 1 ICntrl=       0 DoSepK=T KAlg= 0 I1Cent=           0 FoldK=F
 IRaf=         1 NMat=       1 IRICut=       1 DoRegI=T DoRafI=F ISym2E= 0 IDoP0=0 IntGTp=1.
 FoFCou: FMM=F IPFlag=           0 FMFlag=      100000 FMFlg1=           0
         NFxFlg=           0 DoJE=T BraDBF=F KetDBF=F FulRan=T
         wScrn=  0.000000 ICntrl=       500 IOpCl=  0 I1Cent=           0 NGrid=           0
         NMat0=    1 NMatS0=      1 NMatT0=    0 NMatD0=    1 NMtDS0=    0 NMtDT0=    0
 Symmetry not used in FoFCou.
 Inv3:  Mode=1 IEnd=    13255212.
 Iteration    1 A*A^-1 deviation from unit magnitude is 3.11D-15 for    568.
 Iteration    1 A*A^-1 deviation from orthogonality  is 2.73D-15 for   1770    235.
 Iteration    1 A^-1*A deviation from unit magnitude is 3.33D-15 for    212.
 Iteration    1 A^-1*A deviation from orthogonality  is 1.70D-14 for   1374   1342.
 E= -633.320826165489    
 DIIS: error= 1.35D-08 at cycle   1 NSaved=   1.
 NSaved= 1 IEnMin= 1 EnMin= -633.320826165489     IErMin= 1 ErrMin= 1.35D-08
 ErrMax= 1.35D-08  0.00D+00 EMaxC= 1.00D-01 BMatC= 6.22D-14 BMatP= 6.22D-14
 IDIUse=1 WtCom= 1.00D+00 WtEn= 0.00D+00
 Coeff-Com:  0.100D+01
 Coeff:      0.100D+01
 Gap=     0.214 Goal=   None    Shift=    0.000
 RMSDP=3.65D-09 MaxDP=1.67D-07              OVMax= 1.66D-07

 Error on total polarization charges =  0.01559
 SCF Done:  E(RCAM-B3LYP) =  -633.320826165     A.U. after    1 cycles
            NFock=  1  Conv=0.36D-08     -V/T= 2.0044
 KE= 6.305450489995D+02 PE=-3.271869493614D+03 EE= 1.109987553034D+03
 Leave Link  502 at Sat Jan 24 16:53:09 2026, MaxMem=  2147483648 cpu:              85.4 elap:               5.6
 (Enter /data/home/wyx/g16/l801.exe)
 DoSCS=F DFT=T ScalE2(SS,OS)=  1.000000  1.000000
 ExpMin= 9.52D-02 ExpMax= 2.70D+04 ExpMxC= 9.22D+02 IAcc=3 IRadAn=         5 AccDes= 0.00D+00
 HarFok:  IExCor=  205 AccDes= 0.00D+00 IRadAn=         5 IDoV=-2 UseB2=F ITyADJ=14
 ICtDFT= 12500011 ScaDFX=  1.000000  1.000000  1.000000  1.000000
 Largest valence mixing into a core orbital is  5.58D-05
 Largest core mixing into a valence orbital is  1.14D-05
 Range of M.O.s used for correlation:    15   356
 NBasis=   356 NAE=    52 NBE=    52 NFC=    14 NFV=     0
 NROrb=    342 NOA=    38 NOB=    38 NVA=   304 NVB=   304

 **** Warning!!: The largest alpha MO coefficient is  0.61614718D+02

 Leave Link  801 at Sat Jan 24 16:53:09 2026, MaxMem=  2147483648 cpu:               1.0 elap:               0.1
 (Enter /data/home/wyx/g16/l914.exe)
 RHF ground state
 Two-electron integrals replicated using symmetry.
 MDV=  2147483648 DFT=T DoStab=F Mixed=T DoRPA=T DoScal=F NonHer=T
 NEqPCM:  Using equilibrium solvation (IEInf=0, Eps=  78.3553, EpsInf=   1.7778)
 Making orbital integer symmetry assigments:
 Orbital symmetries:
       Occupied  (A) (A) (A) (A) (A) (A) (A) (A) (A) (A) (A) (A)
                 (A) (A) (A) (A) (A) (A) (A) (A) (A) (A) (A) (A)
                 (A) (A) (A) (A) (A) (A) (A) (A) (A) (A) (A) (A)
                 (A) (A) (A) (A) (A) (A) (A) (A) (A) (A) (A) (A)
                 (A) (A) (A) (A)
       Virtual   (A) (A) (A) (A) (A) (A) (A) (A) (A) (A) (A) (A)
                 (A) (A) (A) (A) (A) (A) (A) (A) (A) (A) (A) (A)
                 (A) (A) (A) (A) (A) (A) (A) (A) (A) (A) (A) (A)
                 (A) (A) (A) (A) (A) (A) (A) (A) (A) (A) (A) (A)
                 (A) (A) (A) (A) (A) (A) (A) (A) (A) (A) (A) (A)
                 (A) (A) (A) (A) (A) (A) (A) (A) (A) (A) (A) (A)
                 (A) (A) (A) (A) (A) (A) (A) (A) (A) (A) (A) (A)
                 (A) (A) (A) (A) (A) (A) (A) (A) (A) (A) (A) (A)
                 (A) (A) (A) (A) (A) (A) (A) (A) (A) (A) (A) (A)
                 (A) (A) (A) (A) (A) (A) (A) (A) (A) (A) (A) (A)
                 (A) (A) (A) (A) (A) (A) (A) (A) (A) (A) (A) (A)
                 (A) (A) (A) (A) (A) (A) (A) (A) (A) (A) (A) (A)
                 (A) (A) (A) (A) (A) (A) (A) (A) (A) (A) (A) (A)
                 (A) (A) (A) (A) (A) (A) (A) (A) (A) (A) (A) (A)
                 (A) (A) (A) (A) (A) (A) (A) (A) (A) (A) (A) (A)
                 (A) (A) (A) (A) (A) (A) (A) (A) (A) (A) (A) (A)
                 (A) (A) (A) (A) (A) (A) (A) (A) (A) (A) (A) (A)
                 (A) (A) (A) (A) (A) (A) (A) (A) (A) (A) (A) (A)
                 (A) (A) (A) (A) (A) (A) (A) (A) (A) (A) (A) (A)
                 (A) (A) (A) (A) (A) (A) (A) (A) (A) (A) (A) (A)
                 (A) (A) (A) (A) (A) (A) (A) (A) (A) (A) (A) (A)
                 (A) (A) (A) (A) (A) (A) (A) (A) (A) (A) (A) (A)
                 (A) (A) (A) (A) (A) (A) (A) (A) (A) (A) (A) (A)
                 (A) (A) (A) (A) (A) (A) (A) (A) (A) (A) (A) (A)
                 (A) (A) (A) (A) (A) (A) (A) (A) (A) (A) (A) (A)
                 (A) (A) (A) (A)
 PCM Corrected Linear-Response:
 Compute the excitation energies in the ground state reaction field.
    24 initial guesses have been made.
 Convergence on wavefunction:    0.000001000000000
 Davidson Disk Diagonalization:  ConvIn= 1.00D-06 SkipCon=T Conv= 1.00D-06.
 Max sub-space:  2000 roots to seek:    24 dimension of matrix:        23104
 Iteration     1 Dimension    24 NMult     0 NNew     24
 CISAX will form    24 AO SS matrices at one time.
 NMat=    24 NSing=    24 JSym2X= 0.
 FoFJK:  IHMeth= 1 ICntrl=       0 DoSepK=T KAlg= 0 I1Cent=           0 FoldK=F
 IRaf=         1 NMat=      48 IRICut=       1 DoRegI=T DoRafI=F ISym2E= 0 IDoP0=3 IntGTp=3.
 FoFCou: FMM=F IPFlag=           0 FMFlag=      100000 FMFlg1=           0
         NFxFlg=           0 DoJE=F BraDBF=F KetDBF=F FulRan=T
         wScrn=  0.000000 ICntrl=       500 IOpCl=  0 I1Cent=           0 NGrid=           0
         NMat0=   24 NMatS0=     24 NMatT0=    0 NMatD0=   24 NMtDS0=    0 NMtDT0=    0
 Symmetry not used in FoFCou.
 New state      2 was old state      3
 New state      3 was old state      5
 New state      4 was old state      2
 New state      5 was old state      6
 New state      6 was old state      4
 Excitation Energies [eV] at current iteration:
 Root      1 :     3.432571687874418
 Root      2 :     4.144074630153709
 Root      3 :     4.368127326468804
 Root      4 :     5.229025295112305
 Root      5 :     5.902608794133742
 Root      6 :     6.213773914952732
 Root      7 :     6.523551318090886
 Root      8 :     6.705754069355466
 Root      9 :     6.832914635249026
 Root     10 :     6.940343324141515
 Root     11 :     7.042032005631187
 Root     12 :     7.196147244456580
 Root     13 :     7.254852314791303
 Root     14 :     7.313645928998096
 Root     15 :     7.652818681226385
 Root     16 :     7.870137786730313
 Root     17 :     7.942226195544119
 Root     18 :     8.088069411021031
 Root     19 :     8.132895767503229
 Root     20 :     8.318966894065941
 Root     21 :     8.381228853282925
 Root     22 :     8.507086572581340
 Root     23 :     8.723478243239772
 Root     24 :     8.905985411813111
 Iteration     2 Dimension    36 NMult    24 NNew     12
 CISAX will form    12 AO SS matrices at one time.
 NMat=    12 NSing=    12 JSym2X= 0.
 Root      1 not converged, maximum delta is    0.038001242104312
 Root      2 not converged, maximum delta is    0.076055291655673
 Root      3 not converged, maximum delta is    0.077659380413354
 Root      4 not converged, maximum delta is    0.156243769486116
 New state      5 was old state      6
 Root      5 not converged, maximum delta is    0.177998109942728
 New state      6 was old state      5
 Root      6 not converged, maximum delta is    0.074138197771866
 Excitation Energies [eV] at current iteration:
 Root      1 :     2.959659026399533   Change is   -0.472912661474885
 Root      2 :     3.935942212129810   Change is   -0.208132418023900
 Root      3 :     4.117667469368334   Change is   -0.250459857100470
 Root      4 :     4.921082778060347   Change is   -0.307942517051958
 Root      5 :     5.370979966979520   Change is   -0.842793947973212
 Root      6 :     5.799440252660292   Change is   -0.103168541473449
 Iteration     3 Dimension    48 NMult    36 NNew     12
 CISAX will form    12 AO SS matrices at one time.
 NMat=    12 NSing=    12 JSym2X= 0.
 Root      1 not converged, maximum delta is    0.006653253133944
 Root      2 not converged, maximum delta is    0.015628484179544
 Root      3 not converged, maximum delta is    0.011387351561846
 Root      4 not converged, maximum delta is    0.018626889549299
 Root      5 not converged, maximum delta is    0.023885690908915
 Root      6 not converged, maximum delta is    0.007868001749580
 Excitation Energies [eV] at current iteration:
 Root      1 :     2.939750131686410   Change is   -0.019908894713123
 Root      2 :     3.923685932317739   Change is   -0.012256279812071
 Root      3 :     4.103776959978613   Change is   -0.013890509389721
 Root      4 :     4.902171859043449   Change is   -0.018910919016898
 Root      5 :     5.331918736159054   Change is   -0.039061230820466
 Root      6 :     5.794493219755799   Change is   -0.004947032904494
 Iteration     4 Dimension    60 NMult    48 NNew     12
 CISAX will form    12 AO SS matrices at one time.
 NMat=    12 NSing=    12 JSym2X= 0.
 Root      1 not converged, maximum delta is    0.002115040086071
 Root      2 not converged, maximum delta is    0.001725360796149
 Root      3 not converged, maximum delta is    0.002115203886944
 Root      4 not converged, maximum delta is    0.002499510043647
 Root      5 not converged, maximum delta is    0.003814858717310
 Root      6 not converged, maximum delta is    0.002327138650476
 Excitation Energies [eV] at current iteration:
 Root      1 :     2.938359948136108   Change is   -0.001390183550302
 Root      2 :     3.923116821759509   Change is   -0.000569110558229
 Root      3 :     4.102759076281056   Change is   -0.001017883697557
 Root      4 :     4.900335057845045   Change is   -0.001836801198403
 Root      5 :     5.327796770056549   Change is   -0.004121966102505
 Root      6 :     5.794172749835478   Change is   -0.000320469920321
 Iteration     5 Dimension    72 NMult    60 NNew     12
 CISAX will form    12 AO SS matrices at one time.
 NMat=    12 NSing=    12 JSym2X= 0.
 Root      1 not converged, maximum delta is    0.000725891208443
 Root      2 not converged, maximum delta is    0.000381471843955
 Root      3 not converged, maximum delta is    0.000465484826683
 Root      4 not converged, maximum delta is    0.000554611931120
 Root      5 not converged, maximum delta is    0.001281917671961
 Root      6 not converged, maximum delta is    0.000416960754792
 Excitation Energies [eV] at current iteration:
 Root      1 :     2.938277626039151   Change is   -0.000082322096957
 Root      2 :     3.923067912061359   Change is   -0.000048909698150
 Root      3 :     4.102713349522520   Change is   -0.000045726758537
 Root      4 :     4.900201789944981   Change is   -0.000133267900064
 Root      5 :     5.327468984429172   Change is   -0.000327785627377
 Root      6 :     5.794148435786077   Change is   -0.000024314049400
 Iteration     6 Dimension    84 NMult    72 NNew     12
 CISAX will form    12 AO SS matrices at one time.
 NMat=    12 NSing=    12 JSym2X= 0.
 Root      1 not converged, maximum delta is    0.000118758982118
 Root      2 not converged, maximum delta is    0.000108831355273
 Root      3 not converged, maximum delta is    0.000086463169911
 Root      4 not converged, maximum delta is    0.000159925675798
 Root      5 not converged, maximum delta is    0.000630435243016
 Root      6 not converged, maximum delta is    0.000127281312493
 Excitation Energies [eV] at current iteration:
 Root      1 :     2.938273785986901   Change is   -0.000003840052250
 Root      2 :     3.923065286262740   Change is   -0.000002625798619
 Root      3 :     4.102710649455887   Change is   -0.000002700066632
 Root      4 :     4.900193282813413   Change is   -0.000008507131568
 Root      5 :     5.327440225623571   Change is   -0.000028758805601
 Root      6 :     5.794146219899432   Change is   -0.000002215886646
 Iteration     7 Dimension    96 NMult    84 NNew     12
 CISAX will form    12 AO SS matrices at one time.
 NMat=    12 NSing=    12 JSym2X= 0.
 Root      1 not converged, maximum delta is    0.000011356896024
 Root      2 not converged, maximum delta is    0.000026716939251
 Root      3 not converged, maximum delta is    0.000026039145594
 Root      4 not converged, maximum delta is    0.000042760339524
 Root      5 not converged, maximum delta is    0.000281651077518
 Root      6 not converged, maximum delta is    0.000056518980792
 Excitation Energies [eV] at current iteration:
 Root      1 :     2.938273613229043   Change is   -0.000000172757858
 Root      2 :     3.923065145285397   Change is   -0.000000140977343
 Root      3 :     4.102710481166533   Change is   -0.000000168289354
 Root      4 :     4.900192701033320   Change is   -0.000000581780094
 Root      5 :     5.327436914996859   Change is   -0.000003310626712
 Root      6 :     5.794146025009992   Change is   -0.000000194889440
 Iteration     8 Dimension   108 NMult    96 NNew     12
 CISAX will form    12 AO SS matrices at one time.
 NMat=    12 NSing=    12 JSym2X= 0.
 Root      1 not converged, maximum delta is    0.000002141652797
 Root      2 not converged, maximum delta is    0.000003232502286
 Root      3 not converged, maximum delta is    0.000003270863797
 Root      4 not converged, maximum delta is    0.000018256985542
 Root      5 not converged, maximum delta is    0.000043467800372
 Root      6 not converged, maximum delta is    0.000014933310408
 Excitation Energies [eV] at current iteration:
 Root      1 :     2.938273608111752   Change is   -0.000000005117291
 Root      2 :     3.923065138860597   Change is   -0.000000006424800
 Root      3 :     4.102710472956663   Change is   -0.000000008209870
 Root      4 :     4.900192653593865   Change is   -0.000000047439454
 Root      5 :     5.327436689858132   Change is   -0.000000225138728
 Root      6 :     5.794146006068348   Change is   -0.000000018941644
 Iteration     9 Dimension   120 NMult   108 NNew     12
 CISAX will form    12 AO SS matrices at one time.
 NMat=    12 NSing=    12 JSym2X= 0.
 Root      1 has converged.
 Root      2 has converged.
 Root      3 has converged.
 Root      4 not converged, maximum delta is    0.000003197373061
 Root      5 not converged, maximum delta is    0.000004415377292
 Root      6 not converged, maximum delta is    0.000004280905952
 Excitation Energies [eV] at current iteration:
 Root      1 :     2.938273607967441   Change is   -0.000000000144311
 Root      2 :     3.923065138591913   Change is   -0.000000000268683
 Root      3 :     4.102710472690747   Change is   -0.000000000265916
 Root      4 :     4.900192651149831   Change is   -0.000000002444034
 Root      5 :     5.327436679147125   Change is   -0.000000010711006
 Root      6 :     5.794146004606002   Change is   -0.000000001462346
 Iteration    10 Dimension   126 NMult   120 NNew      6
 CISAX will form     6 AO SS matrices at one time.
 NMat=     6 NSing=     6 JSym2X= 0.
 Root      1 has converged.
 Root      2 has converged.
 Root      3 has converged.
 Root      4 has converged.
 Root      5 not converged, maximum delta is    0.000001213279088
 Root      6 has converged.
 Excitation Energies [eV] at current iteration:
 Root      1 :     2.938273607967104   Change is   -0.000000000000336
 Root      2 :     3.923065138590635   Change is   -0.000000000001279
 Root      3 :     4.102710472689385   Change is   -0.000000000001363
 Root      4 :     4.900192651042228   Change is   -0.000000000107604
 Root      5 :     5.327436678649769   Change is   -0.000000000497356
 Root      6 :     5.794146004515440   Change is   -0.000000000090562
 Iteration    11 Dimension   128 NMult   126 NNew      2
 CISAX will form     2 AO SS matrices at one time.
 NMat=     2 NSing=     2 JSym2X= 0.
 Root      1 has converged.
 Root      2 has converged.
 Root      3 has converged.
 Root      4 has converged.
 Root      5 has converged.
 Root      6 has converged.
 Excitation Energies [eV] at current iteration:
 Root      1 :     2.938273607967104   Change is    0.000000000000000
 Root      2 :     3.923065138590656   Change is    0.000000000000021
 Root      3 :     4.102710472689445   Change is    0.000000000000060
 Root      4 :     4.900192651041590   Change is   -0.000000000000637
 Root      5 :     5.327436678628011   Change is   -0.000000000021758
 Root      6 :     5.794146004515355   Change is   -0.000000000000085
 Convergence achieved on expansion vectors.
 PCM Corrected Linear-Response:
 The state of interest is root number   2
 Excitation energy =    3.9231 eV, Total energy =  -633.176656174    
 Recompute the excitation energies using the linear response reaction field.
 Convergence on wavefunction:    0.000001000000000
 Davidson Disk Diagonalization:  ConvIn= 1.00D-06 SkipCon=T Conv= 1.00D-06.
 Max sub-space:  2000 roots to seek:     6 dimension of matrix:        23104
 Iteration     1 Dimension     6 NMult     0 NNew      6
 CISAX will form     6 AO SS matrices at one time.
 NMat=     6 NSing=     6 JSym2X= 0.
 Excitation Energies [eV] at current iteration:
 Root      1 :     3.035935021132924
 Root      2 :     3.947228757827598
 Root      3 :     4.127562113951297
 Root      4 :     4.964436149166231
 Root      5 :     5.485208509703821
 Root      6 :     5.752509035843302
 Iteration     2 Dimension    18 NMult     6 NNew     12
 CISAX will form    12 AO SS matrices at one time.
 NMat=    12 NSing=    12 JSym2X= 0.
 Root      1 not converged, maximum delta is    0.022368813288812
 Root      2 not converged, maximum delta is    0.002378223006167
 Root      3 not converged, maximum delta is    0.006003130084143
 Root      4 not converged, maximum delta is    0.202568778331466
 Root      5 not converged, maximum delta is    0.303901765970313
 Root      6 not converged, maximum delta is    0.045880820192417
 Excitation Energies [eV] at current iteration:
 Root      1 :     2.793220651987538   Change is   -0.242714369145386
 Root      2 :     3.918092893602573   Change is   -0.029135864225026
 Root      3 :     4.096487398801654   Change is   -0.031074715149643
 Root      4 :     4.735680209298186   Change is   -0.228755939868045
 Root      5 :     5.171116504941740   Change is   -0.314092004762082
 Root      6 :     5.731901948805815   Change is   -0.020607087037487
 Iteration     3 Dimension    30 NMult    18 NNew     12
 CISAX will form    12 AO SS matrices at one time.
 NMat=    12 NSing=    12 JSym2X= 0.
 Root      1 not converged, maximum delta is    0.002362963966044
 Root      2 not converged, maximum delta is    0.001060664322261
 Root      3 not converged, maximum delta is    0.001302723528355
 Root      4 not converged, maximum delta is    0.011065213274363
 Root      5 not converged, maximum delta is    0.017300999804798
 Root      6 not converged, maximum delta is    0.007986097605498
 Excitation Energies [eV] at current iteration:
 Root      1 :     2.789833560540601   Change is   -0.003387091446937
 Root      2 :     3.917777955616763   Change is   -0.000314937985810
 Root      3 :     4.096121421441855   Change is   -0.000365977359799
 Root      4 :     4.725880750601821   Change is   -0.009799458696365
 Root      5 :     5.161637438086619   Change is   -0.009479066855120
 Root      6 :     5.729892377793713   Change is   -0.002009571012101
 Iteration     4 Dimension    42 NMult    30 NNew     12
 CISAX will form    12 AO SS matrices at one time.
 NMat=    12 NSing=    12 JSym2X= 0.
 Root      1 not converged, maximum delta is    0.001633542522329
 Root      2 not converged, maximum delta is    0.000229312323245
 Root      3 not converged, maximum delta is    0.000251837035313
 Root      4 not converged, maximum delta is    0.004271699577848
 Root      5 not converged, maximum delta is    0.006864822738195
 Root      6 not converged, maximum delta is    0.008444659667622
 Excitation Energies [eV] at current iteration:
 Root      1 :     2.789444067125442   Change is   -0.000389493415159
 Root      2 :     3.917762146168224   Change is   -0.000015809448539
 Root      3 :     4.096099539422604   Change is   -0.000021882019251
 Root      4 :     4.724032764211922   Change is   -0.001847986389899
 Root      5 :     5.159772802942864   Change is   -0.001864635143754
 Root      6 :     5.729350791321966   Change is   -0.000541586471747
 Iteration     5 Dimension    54 NMult    42 NNew     12
 CISAX will form    12 AO SS matrices at one time.
 NMat=    12 NSing=    12 JSym2X= 0.
 Root      1 not converged, maximum delta is    0.000279097350717
 Root      2 not converged, maximum delta is    0.000101985794560
 Root      3 not converged, maximum delta is    0.000093491218472
 Root      4 not converged, maximum delta is    0.000706061229075
 Root      5 not converged, maximum delta is    0.000717224485836
 Root      6 not converged, maximum delta is    0.003524327387706
 Excitation Energies [eV] at current iteration:
 Root      1 :     2.789418670869206   Change is   -0.000025396256236
 Root      2 :     3.917761017779982   Change is   -0.000001128388242
 Root      3 :     4.096097515965107   Change is   -0.000002023457497
 Root      4 :     4.723868856171344   Change is   -0.000163908040578
 Root      5 :     5.159604984212111   Change is   -0.000167818730754
 Root      6 :     5.729244239540141   Change is   -0.000106551781825
 Iteration     6 Dimension    66 NMult    54 NNew     12
 CISAX will form    12 AO SS matrices at one time.
 NMat=    12 NSing=    12 JSym2X= 0.
 Root      1 not converged, maximum delta is    0.000051669333959
 Root      2 not converged, maximum delta is    0.000021751962554
 Root      3 not converged, maximum delta is    0.000027109175821
 Root      4 not converged, maximum delta is    0.000228646893066
 Root      5 not converged, maximum delta is    0.000227410258883
 Root      6 not converged, maximum delta is    0.000950873811507
 Excitation Energies [eV] at current iteration:
 Root      1 :     2.789417283405489   Change is   -0.000001387463717
 Root      2 :     3.917760928325362   Change is   -0.000000089454620
 Root      3 :     4.096097360476982   Change is   -0.000000155488124
 Root      4 :     4.723853526255029   Change is   -0.000015329916315
 Root      5 :     5.159590282154681   Change is   -0.000014702057430
 Root      6 :     5.729227852533249   Change is   -0.000016387006892
 Iteration     7 Dimension    78 NMult    66 NNew     12
 CISAX will form    12 AO SS matrices at one time.
 NMat=    12 NSing=    12 JSym2X= 0.
 Root      1 not converged, maximum delta is    0.000012224573790
 Root      2 not converged, maximum delta is    0.000005116336188
 Root      3 not converged, maximum delta is    0.000005469364757
 Root      4 not converged, maximum delta is    0.000117692153649
 Root      5 not converged, maximum delta is    0.000085173235799
 Root      6 not converged, maximum delta is    0.000216434726961
 Excitation Energies [eV] at current iteration:
 Root      1 :     2.789417230437258   Change is   -0.000000052968232
 Root      2 :     3.917760923405137   Change is   -0.000000004920225
 Root      3 :     4.096097353000852   Change is   -0.000000007476130
 Root      4 :     4.723852536940327   Change is   -0.000000989314702
 Root      5 :     5.159589312310056   Change is   -0.000000969844624
 Root      6 :     5.729226041630651   Change is   -0.000001810902598
 Iteration     8 Dimension    90 NMult    78 NNew     12
 CISAX will form    12 AO SS matrices at one time.
 NMat=    12 NSing=    12 JSym2X= 0.
 Root      1 not converged, maximum delta is    0.000004041918639
 Root      2 not converged, maximum delta is    0.000001162242931
 Root      3 not converged, maximum delta is    0.000001271460019
 Root      4 not converged, maximum delta is    0.000020964208967
 Root      5 not converged, maximum delta is    0.000031203207200
 Root      6 not converged, maximum delta is    0.000076125154513
 Excitation Energies [eV] at current iteration:
 Root      1 :     2.789417227812462   Change is   -0.000000002624795
 Root      2 :     3.917760923215070   Change is   -0.000000000190067
 Root      3 :     4.096097352502621   Change is   -0.000000000498231
 Root      4 :     4.723852469282856   Change is   -0.000000067657471
 Root      5 :     5.159589220087853   Change is   -0.000000092222203
 Root      6 :     5.729225810958399   Change is   -0.000000230672252
 Iteration     9 Dimension   102 NMult    90 NNew     12
 CISAX will form    12 AO SS matrices at one time.
 NMat=    12 NSing=    12 JSym2X= 0.
 Root      1 has converged.
 Root      2 has converged.
 Root      3 has converged.
 Root      4 not converged, maximum delta is    0.000006101581645
 Root      5 not converged, maximum delta is    0.000008330672491
 Root      6 not converged, maximum delta is    0.000028152006778
 Excitation Energies [eV] at current iteration:
 Root      1 :     2.789417227721809   Change is   -0.000000000090653
 Root      2 :     3.917760923206656   Change is   -0.000000000008414
 Root      3 :     4.096097352475888   Change is   -0.000000000026733
 Root      4 :     4.723852465770359   Change is   -0.000000003512497
 Root      5 :     5.159589213354027   Change is   -0.000000006733826
 Root      6 :     5.729225781704596   Change is   -0.000000029253803
 Iteration    10 Dimension   108 NMult   102 NNew      6
 CISAX will form     6 AO SS matrices at one time.
 NMat=     6 NSing=     6 JSym2X= 0.
 Root      1 has converged.
 Root      2 has converged.
 Root      3 has converged.
 Root      4 not converged, maximum delta is    0.000001876862842
 Root      5 not converged, maximum delta is    0.000003389863968
 Root      6 not converged, maximum delta is    0.000007578416855
 Excitation Energies [eV] at current iteration:
 Root      1 :     2.789417227721102   Change is   -0.000000000000707
 Root      2 :     3.917760923206552   Change is   -0.000000000000105
 Root      3 :     4.096097352475487   Change is   -0.000000000000401
 Root      4 :     4.723852465570490   Change is   -0.000000000199870
 Root      5 :     5.159589212824862   Change is   -0.000000000529165
 Root      6 :     5.729225778906451   Change is   -0.000000002798145
 Iteration    11 Dimension   114 NMult   108 NNew      6
 CISAX will form     6 AO SS matrices at one time.
 NMat=     6 NSing=     6 JSym2X= 0.
 Root      1 has converged.
 Root      2 has converged.
 Root      3 has converged.
 Root      4 has converged.
 Root      5 has converged.
 Root      6 not converged, maximum delta is    0.000001702412559
 Excitation Energies [eV] at current iteration:
 Root      1 :     2.789417227721102   Change is    0.000000000000000
 Root      2 :     3.917760923206530   Change is   -0.000000000000021
 Root      3 :     4.096097352475407   Change is   -0.000000000000081
 Root      4 :     4.723852465557681   Change is   -0.000000000012809
 Root      5 :     5.159589212781954   Change is   -0.000000000042908
 Root      6 :     5.729225778692553   Change is   -0.000000000213898
 Iteration    12 Dimension   116 NMult   114 NNew      2
 CISAX will form     2 AO SS matrices at one time.
 NMat=     2 NSing=     2 JSym2X= 0.
 Root      1 has converged.
 Root      2 has converged.
 Root      3 has converged.
 Root      4 has converged.
 Root      5 has converged.
 Root      6 has converged.
 Excitation Energies [eV] at current iteration:
 Root      1 :     2.789417227721279   Change is    0.000000000000177
 Root      2 :     3.917760923206593   Change is    0.000000000000063
 Root      3 :     4.096097352475407   Change is    0.000000000000000
 Root      4 :     4.723852465557542   Change is   -0.000000000000139
 Root      5 :     5.159589212781812   Change is   -0.000000000000143
 Root      6 :     5.729225778676784   Change is   -0.000000000015769
 Convergence achieved on expansion vectors.
 ***********************************************************************
 Excited states from <AA,BB:AA,BB> singles matrix:
 ***********************************************************************
 
 1PDM for each excited state written to RWF  633
 Ground to excited state transition densities written to RWF  633
 Ground to excited state transition electric dipole moments (Au):
       state          X           Y           Z        Dip. S.      Osc.
         1        -1.7274     -0.2020     -0.0526      3.0276      0.2069
         2        -0.0112     -0.0523      0.0341      0.0040      0.0004
         3        -0.0738     -0.1119      0.0227      0.0185      0.0019
         4        -0.2094      1.9493     -0.0343      3.8450      0.4450
         5         0.0819     -1.4950     -0.0120      2.2419      0.2834
         6         0.0191     -0.2268     -0.0295      0.0527      0.0074
 Ground to excited state transition velocity dipole moments (Au):
       state          X           Y           Z        Dip. S.      Osc.
         1         0.1710      0.0170      0.0055      0.0296      0.1923
         2         0.0017      0.0077     -0.0015      0.0001      0.0003
         3         0.0102      0.0141     -0.0002      0.0003      0.0013
         4         0.0417     -0.3238      0.0036      0.1066      0.4094
         5        -0.0153      0.2785      0.0012      0.0778      0.2735
         6        -0.0055      0.0458      0.0265      0.0028      0.0090
 Ground to excited state transition magnetic dipole moments (Au):
       state          X           Y           Z
         1         0.0122      0.0618     -1.4651
         2         0.7804      0.1174      0.0598
         3        -0.1885     -0.9575     -0.2276
         4        -0.0203     -0.0686      0.1050
         5         0.0848      0.1011     -0.2508
         6        -0.1697     -0.0313      0.0659
 Ground to excited state transition velocity quadrupole moments (Au):
       state          XX          YY          ZZ          XY          XZ          YZ
         1         0.1803     -0.0945     -0.0063     -0.4784      0.0233     -0.0200
         2         0.0250     -0.0093     -0.0109      0.0057     -0.0063      0.0783
         3         0.0386     -0.0077     -0.0184     -0.0715      0.0632     -0.0104
         4         1.4153     -0.2880     -0.0222      0.1113      0.0746      0.0230
         5        -0.3124      0.2713      0.0243     -0.2139     -0.0511     -0.0041
         6         0.1536      0.1531     -0.1210      0.0244      0.0354     -0.2068
 <0|del|b> * <b|rxdel|0> + <0|del|b> * <b|delr+rdel|0>
 Rotatory Strengths (R) in cgs (10**-40 erg-esu-cm/Gauss)
       state          XX          YY          ZZ    R(velocity)    E-M Angle
         1       -34.6623    -23.3153     23.9617    -11.3386       91.12
         2         2.1006      3.3766      5.0241      3.5004       70.33
         3       -33.7615     -4.6988    -33.9449    -24.1351      152.00
         4        96.0389      0.1849     -7.5807     29.5477       58.37
         5        78.0434     -2.3753     23.4377     33.0353       70.35
         6        -1.1181      5.2993     -0.0223      1.3863       82.76
 1/2[<0|r|b>*<b|rxdel|0> + (<0|rxdel|b>*<b|r|0>)*]
 Rotatory Strengths (R) in cgs (10**-40 erg-esu-cm/Gauss)
       state          XX          YY          ZZ     R(length)
         1        14.9096      8.8343    -54.5186    -10.2582
         2         6.2017      4.3437     -1.4408      3.0349
         3        -9.8383    -75.7696      3.6518    -27.3187
         4        -2.9992     94.6191      2.5446     31.3882
         5        -4.9082    106.9042     -2.1205     33.2918
         6         2.2976     -5.0198      1.3773     -0.4483
  1/2[<0|del|b>*<b|r|0> + (<0|r|b>*<b|del|0>)*] (Au)
       state          X           Y           Z        Dip. S.   Osc.(frdel)
         1        -0.2954     -0.0034     -0.0003      0.2991      0.1994
         2        -0.0000     -0.0004     -0.0001      0.0005      0.0003
         3        -0.0008     -0.0016     -0.0000      0.0023      0.0016
         4        -0.0087     -0.6312     -0.0001      0.6400      0.4267
         5        -0.0012     -0.4163     -0.0000      0.4176      0.2784
         6        -0.0001     -0.0104     -0.0008      0.0113      0.0075

 Excitation energies and oscillator strengths:
 
 Excited State   1:      Singlet-A      2.7894 eV  444.48 nm  f=0.2069  <S**2>=0.000
      52 -> 53         0.70180
 
 Excited State   2:      Singlet-A      3.9178 eV  316.47 nm  f=0.0004  <S**2>=0.000
      50 -> 54        -0.15131
      51 -> 53         0.59207
      51 -> 54         0.30347
 This state for optimization and/or second-order correction.
 Total Energy, E(TD-HF/TD-DFT) =  -633.176851101    
 Copying the excited state density for this state as the 1-particle RhoCI density.
 
 Excited State   3:      Singlet-A      4.0961 eV  302.69 nm  f=0.0019  <S**2>=0.000
      49 -> 53        -0.41296
      49 -> 54         0.21881
      50 -> 53         0.42821
      50 -> 54        -0.18029
      51 -> 54        -0.19470
 
 Excited State   4:      Singlet-A      4.7239 eV  262.46 nm  f=0.4450  <S**2>=0.000
      52 -> 54         0.68735
 
 Excited State   5:      Singlet-A      5.1596 eV  240.30 nm  f=0.2834  <S**2>=0.000
      49 -> 53         0.48611
      50 -> 53         0.47134
      51 -> 53         0.10039
      52 -> 54         0.13715
 
 Excited State   6:      Singlet-A      5.7292 eV  216.41 nm  f=0.0074  <S**2>=0.000
      52 -> 55         0.65198
      52 -> 56         0.18839
      52 -> 62        -0.11277
 SavETr:  write IOETrn=   770 NScale= 10 NData=  16 NLR=1 NState=    6 LETran=     118.
 The selected state is a singlet.
 CISGrd: IGrad=1 NXY=2 DFT=T
 CISAX will form     1 AO SS matrices at one time.
 NMat=     1 NSing=     1 JSym2X= 0.
 Leave Link  914 at Sat Jan 24 17:01:08 2026, MaxMem=  2147483648 cpu:            7635.7 elap:             478.8
 (Enter /data/home/wyx/g16/l1002.exe)
 Minotr:  Closed shell wavefunction.
          Computing CIS/TDA/TD derivatives.
          Using Z-Vector for PSCF gradient.
          Skipping F1 and S1 gradient terms here.
 NEqPCM:  Using equilibrium solvation (IEInf=0, Eps=  78.3553, EpsInf=   1.7778)
          Frozen-core window.
          Direct CPHF calculation.
          Differentiating once with respect to electric field.
                with respect to dipole field.
          Electric field/nuclear overlap derivatives assumed to be zero.
          Requested convergence is 1.0D-10 RMS, and 1.0D-09 maximum.
          NewPWx=F KeepS1=T KeepF1=T KeepIn=T MapXYZ=F SortEE=F KeepMc=T.
 Two-electron integral symmetry used by symmetrizing perturbed Fock matrices.
          MDV=    2147483648 using IRadAn=       5.
          Solving linear equations separately, MaxMat=     384.
          There are     1 degrees of freedom in the 1st order CPHF.  IDoFFX=0 NUNeed=     1.
 FoFJK:  IHMeth= 1 ICntrl=       0 DoSepK=T KAlg= 0 I1Cent=           0 FoldK=F
 IRaf=         1 NMat=       1 IRICut=       1 DoRegI=T DoRafI=F ISym2E=-1 IDoP0=0 IntGTp=1.
 FoFCou: FMM=F IPFlag=           0 FMFlag=      100000 FMFlg1=           0
         NFxFlg=           0 DoJE=T BraDBF=F KetDBF=F FulRan=T
         wScrn=  0.000000 ICntrl=       500 IOpCl=  0 I1Cent=           0 NGrid=           0
         NMat0=    1 NMatS0=      1 NMatT0=    0 NMatD0=    1 NMtDS0=    0 NMtDT0=    0
 Petite list used in FoFCou.
 LinEq1:  Iter=  0 NonCon=     1 RMS=8.38D-03 Max=3.78D-01 NDo=     1
 AX will form     1 AO Fock derivatives at one time.
 LinEq1:  Iter=  1 NonCon=     1 RMS=2.30D-03 Max=1.13D-01 NDo=     1
 LinEq1:  Iter=  2 NonCon=     1 RMS=1.66D-03 Max=1.03D-01 NDo=     1
 LinEq1:  Iter=  3 NonCon=     1 RMS=6.78D-04 Max=3.51D-02 NDo=     1
 LinEq1:  Iter=  4 NonCon=     1 RMS=3.69D-04 Max=1.62D-02 NDo=     1
 LinEq1:  Iter=  5 NonCon=     1 RMS=1.93D-04 Max=1.02D-02 NDo=     1
 LinEq1:  Iter=  6 NonCon=     1 RMS=9.89D-05 Max=3.27D-03 NDo=     1
 LinEq1:  Iter=  7 NonCon=     1 RMS=5.92D-05 Max=2.37D-03 NDo=     1
 LinEq1:  Iter=  8 NonCon=     1 RMS=2.73D-05 Max=9.66D-04 NDo=     1
 LinEq1:  Iter=  9 NonCon=     1 RMS=1.96D-05 Max=9.11D-04 NDo=     1
 LinEq1:  Iter= 10 NonCon=     1 RMS=8.09D-06 Max=1.83D-04 NDo=     1
 LinEq1:  Iter= 11 NonCon=     1 RMS=4.80D-06 Max=1.59D-04 NDo=     1
 LinEq1:  Iter= 12 NonCon=     1 RMS=1.50D-06 Max=5.00D-05 NDo=     1
 LinEq1:  Iter= 13 NonCon=     1 RMS=7.20D-07 Max=1.60D-05 NDo=     1
 LinEq1:  Iter= 14 NonCon=     1 RMS=2.62D-07 Max=6.81D-06 NDo=     1
 LinEq1:  Iter= 15 NonCon=     1 RMS=1.11D-07 Max=2.37D-06 NDo=     1
 LinEq1:  Iter= 16 NonCon=     1 RMS=3.41D-08 Max=1.02D-06 NDo=     1
 LinEq1:  Iter= 17 NonCon=     1 RMS=1.26D-08 Max=3.43D-07 NDo=     1
 LinEq1:  Iter= 18 NonCon=     1 RMS=4.93D-09 Max=1.81D-07 NDo=     1
 LinEq1:  Iter= 19 NonCon=     1 RMS=1.45D-09 Max=5.05D-08 NDo=     1
 LinEq1:  Iter= 20 NonCon=     1 RMS=4.90D-10 Max=2.09D-08 NDo=     1
 LinEq1:  Iter= 21 NonCon=     1 RMS=2.61D-10 Max=8.08D-09 NDo=     1
 LinEq1:  Iter= 22 NonCon=     1 RMS=9.46D-11 Max=2.94D-09 NDo=     1
 LinEq1:  Iter= 23 NonCon=     0 RMS=2.42D-11 Max=5.88D-10 NDo=     1
 Linear equations converged to 1.000D-10 1.000D-09 after    23 iterations.
 PCM Corrected Linear-Response - Equilibrium solvation:
 Corrected transition energy               =    3.8028          eV
 Total energy after correction             = -633.181076801     a.u.
 NEqPCM:  Using non-equilibrium solvation (IEInf=1, Eps=  78.3553, EpsInf=   1.7778)
 Inv3:  Mode=1 IEnd=    13255212.
 Iteration    1 A*A^-1 deviation from unit magnitude is 3.33D-15 for     13.
 Iteration    1 A*A^-1 deviation from orthogonality  is 2.69D-15 for   1393    948.
 Iteration    1 A^-1*A deviation from unit magnitude is 3.55D-15 for     13.
 Iteration    1 A^-1*A deviation from orthogonality  is 2.83D-14 for   1373   1342.
 NEqSol: Computing the dynamic-inertial partition of the PCM polarization charges.
 End of Minotr F.D. properties file   721 does not exist.
 End of Minotr F.D. properties file   722 does not exist.
 End of Minotr F.D. properties file   788 does not exist.
 Leave Link 1002 at Sat Jan 24 17:03:09 2026, MaxMem=  2147483648 cpu:            1904.0 elap:             119.9
 (Enter /data/home/wyx/g16/l601.exe)
 Copying SCF densities to generalized density rwf, IOpCl= 0 IROHF=0.

 **********************************************************************

            Population analysis using the CI density.

 **********************************************************************

 Orbital symmetries:
       Occupied  (A) (A) (A) (A) (A) (A) (A) (A) (A) (A) (A) (A)
                 (A) (A) (A) (A) (A) (A) (A) (A) (A) (A) (A) (A)
                 (A) (A) (A) (A) (A) (A) (A) (A) (A) (A) (A) (A)
                 (A) (A) (A) (A) (A) (A) (A) (A) (A) (A) (A) (A)
                 (A) (A) (A) (A)
       Virtual   (A) (A) (A) (A) (A) (A) (A) (A) (A) (A) (A) (A)
                 (A) (A) (A) (A) (A) (A) (A) (A) (A) (A) (A) (A)
                 (A) (A) (A) (A) (A) (A) (A) (A) (A) (A) (A) (A)
                 (A) (A) (A) (A) (A) (A) (A) (A) (A) (A) (A) (A)
                 (A) (A) (A) (A) (A) (A) (A) (A) (A) (A) (A) (A)
                 (A) (A) (A) (A) (A) (A) (A) (A) (A) (A) (A) (A)
                 (A) (A) (A) (A) (A) (A) (A) (A) (A) (A) (A) (A)
                 (A) (A) (A) (A) (A) (A) (A) (A) (A) (A) (A) (A)
                 (A) (A) (A) (A) (A) (A) (A) (A) (A) (A) (A) (A)
                 (A) (A) (A) (A) (A) (A) (A) (A) (A) (A) (A) (A)
                 (A) (A) (A) (A) (A) (A) (A) (A) (A) (A) (A) (A)
                 (A) (A) (A) (A) (A) (A) (A) (A) (A) (A) (A) (A)
                 (A) (A) (A) (A) (A) (A) (A) (A) (A) (A) (A) (A)
                 (A) (A) (A) (A) (A) (A) (A) (A) (A) (A) (A) (A)
                 (A) (A) (A) (A) (A) (A) (A) (A) (A) (A) (A) (A)
                 (A) (A) (A) (A) (A) (A) (A) (A) (A) (A) (A) (A)
                 (A) (A) (A) (A) (A) (A) (A) (A) (A) (A) (A) (A)
                 (A) (A) (A) (A) (A) (A) (A) (A) (A) (A) (A) (A)
                 (A) (A) (A) (A) (A) (A) (A) (A) (A) (A) (A) (A)
                 (A) (A) (A) (A) (A) (A) (A) (A) (A) (A) (A) (A)
                 (A) (A) (A) (A) (A) (A) (A) (A) (A) (A) (A) (A)
                 (A) (A) (A) (A) (A) (A) (A) (A) (A) (A) (A) (A)
                 (A) (A) (A) (A) (A) (A) (A) (A) (A) (A) (A) (A)
                 (A) (A) (A) (A) (A) (A) (A) (A) (A) (A) (A) (A)
                 (A) (A) (A) (A) (A) (A) (A) (A) (A) (A) (A) (A)
                 (A) (A) (A) (A)
 The electronic state is 1-A.
 Alpha  occ. eigenvalues --  -19.17917 -19.17070 -14.44913 -10.33457 -10.33043
 Alpha  occ. eigenvalues --  -10.33001 -10.32550 -10.25989 -10.25469 -10.25169
 Alpha  occ. eigenvalues --  -10.24868 -10.24530 -10.24136 -10.23884  -1.11266
 Alpha  occ. eigenvalues --   -1.10704  -1.08639  -0.91378  -0.90606  -0.83975
 Alpha  occ. eigenvalues --   -0.82605  -0.81630  -0.78511  -0.73749  -0.72324
 Alpha  occ. eigenvalues --   -0.68786  -0.61573  -0.58257  -0.57095  -0.55121
 Alpha  occ. eigenvalues --   -0.54548  -0.54032  -0.52471  -0.51699  -0.50863
 Alpha  occ. eigenvalues --   -0.49760  -0.49470  -0.49287  -0.48527  -0.48004
 Alpha  occ. eigenvalues --   -0.47258  -0.45238  -0.45206  -0.44044  -0.43337
 Alpha  occ. eigenvalues --   -0.42185  -0.42051  -0.41520  -0.32626  -0.32254
 Alpha  occ. eigenvalues --   -0.31356  -0.25005
 Alpha virt. eigenvalues --   -0.03637   0.02382   0.06460   0.08177   0.08629
 Alpha virt. eigenvalues --    0.09733   0.10732   0.11364   0.12568   0.13374
 Alpha virt. eigenvalues --    0.13885   0.15101   0.15614   0.16341   0.16919
 Alpha virt. eigenvalues --    0.17325   0.17850   0.18193   0.18488   0.19208
 Alpha virt. eigenvalues --    0.19969   0.21853   0.22779   0.23295   0.23855
 Alpha virt. eigenvalues --    0.24279   0.24640   0.25697   0.26382   0.26658
 Alpha virt. eigenvalues --    0.27509   0.28139   0.28541   0.29507   0.30172
 Alpha virt. eigenvalues --    0.31532   0.31916   0.32216   0.33407   0.34083
 Alpha virt. eigenvalues --    0.34779   0.35597   0.36618   0.37357   0.38441
 Alpha virt. eigenvalues --    0.39572   0.40834   0.41333   0.41802   0.42492
 Alpha virt. eigenvalues --    0.44006   0.44818   0.45423   0.46144   0.46452
 Alpha virt. eigenvalues --    0.47242   0.47551   0.47850   0.48454   0.49207
 Alpha virt. eigenvalues --    0.49730   0.50460   0.51095   0.51266   0.51470
 Alpha virt. eigenvalues --    0.52260   0.52537   0.53265   0.53474   0.54199
 Alpha virt. eigenvalues --    0.54240   0.55239   0.55767   0.56562   0.58241
 Alpha virt. eigenvalues --    0.58365   0.59912   0.60951   0.61858   0.63025
 Alpha virt. eigenvalues --    0.64191   0.64876   0.66116   0.66787   0.67277
 Alpha virt. eigenvalues --    0.68409   0.69035   0.70537   0.70808   0.71967
 Alpha virt. eigenvalues --    0.72923   0.74684   0.75169   0.75953   0.77193
 Alpha virt. eigenvalues --    0.78915   0.80717   0.83162   0.86719   0.87320
 Alpha virt. eigenvalues --    0.91531   0.95901   1.01993   1.03999   1.21821
 Alpha virt. eigenvalues --    1.24471   1.27323   1.28078   1.28827   1.30205
 Alpha virt. eigenvalues --    1.31874   1.33290   1.34511   1.35179   1.36462
 Alpha virt. eigenvalues --    1.36897   1.37727   1.38442   1.39052   1.39527
 Alpha virt. eigenvalues --    1.39947   1.40015   1.40739   1.41411   1.42105
 Alpha virt. eigenvalues --    1.43183   1.43440   1.44142   1.45498   1.47156
 Alpha virt. eigenvalues --    1.48125   1.49317   1.49554   1.50118   1.50810
 Alpha virt. eigenvalues --    1.51330   1.52103   1.52971   1.55463   1.58824
 Alpha virt. eigenvalues --    1.59499   1.59787   1.60951   1.61577   1.62135
 Alpha virt. eigenvalues --    1.62651   1.62746   1.63480   1.64534   1.65564
 Alpha virt. eigenvalues --    1.66323   1.66919   1.67557   1.68062   1.68649
 Alpha virt. eigenvalues --    1.69205   1.69909   1.70314   1.71029   1.72419
 Alpha virt. eigenvalues --    1.74139   1.74576   1.75417   1.76438   1.78355
 Alpha virt. eigenvalues --    1.81489   1.83112   1.83937   1.85788   1.86412
 Alpha virt. eigenvalues --    1.86575   1.87705   1.88575   1.89273   1.90180
 Alpha virt. eigenvalues --    1.91359   1.94436   1.95128   1.98760   1.99788
 Alpha virt. eigenvalues --    2.01686   2.03686   2.05841   2.06812   2.09290
 Alpha virt. eigenvalues --    2.09908   2.11343   2.15754   2.17532   2.19602
 Alpha virt. eigenvalues --    2.20626   2.21400   2.21977   2.22963   2.26204
 Alpha virt. eigenvalues --    2.26684   2.27400   2.29164   2.30760   2.32043
 Alpha virt. eigenvalues --    2.33220   2.34372   2.36896   2.37662   2.38930
 Alpha virt. eigenvalues --    2.39286   2.39914   2.41183   2.42578   2.45027
 Alpha virt. eigenvalues --    2.45434   2.47139   2.48570   2.49296   2.51136
 Alpha virt. eigenvalues --    2.52335   2.53811   2.54390   2.56220   2.57364
 Alpha virt. eigenvalues --    2.58735   2.60668   2.61654   2.62232   2.63348
 Alpha virt. eigenvalues --    2.64598   2.65444   2.66467   2.67432   2.68279
 Alpha virt. eigenvalues --    2.71564   2.71659   2.73884   2.74426   2.75288
 Alpha virt. eigenvalues --    2.76404   2.77224   2.77648   2.78084   2.78682
 Alpha virt. eigenvalues --    2.80496   2.81197   2.82980   2.83464   2.84904
 Alpha virt. eigenvalues --    2.85278   2.86448   2.88354   2.88847   2.91842
 Alpha virt. eigenvalues --    2.96901   2.98009   3.01207   3.07055   3.10577
 Alpha virt. eigenvalues --    3.12222   3.13489   3.18112   3.19289   3.21503
 Alpha virt. eigenvalues --    3.21959   3.22896   3.24552   3.25431   3.25924
 Alpha virt. eigenvalues --    3.29194   3.30067   3.31911   3.34435   3.36610
 Alpha virt. eigenvalues --    3.38119   3.38707   3.38945   3.39148   3.41370
 Alpha virt. eigenvalues --    3.41790   3.43687   3.44818   3.47354   3.47907
 Alpha virt. eigenvalues --    3.49636   3.50184   3.55769   3.58147   3.59340
 Alpha virt. eigenvalues --    3.61228   3.90809   4.00796   4.32087   4.35161
 Alpha virt. eigenvalues --   21.68617  21.80500  22.07510  22.09914  22.11136
 Alpha virt. eigenvalues --   22.14459  22.14636  22.17118  22.18601  22.24709
 Alpha virt. eigenvalues --   22.26636  31.91127  43.63947  43.66661
          Condensed to atoms (all electrons):
               1          2          3          4          5          6
     1  O    7.984252   0.000000  -0.000166   0.000019   0.019652   0.007707
     2  O    0.000000   7.977159   0.000763   0.000023  -0.099772   0.000295
     3  N   -0.000166   0.000763   6.333676   0.366564  -0.093684   0.392207
     4  H    0.000019   0.000023   0.366564   0.415236   0.016560  -0.044520
     5  C    0.019652  -0.099772  -0.093684   0.016560   6.099737  -0.088413
     6  C    0.007707   0.000295   0.392207  -0.044520  -0.088413   5.525679
     7  C   -0.000238   0.002615   0.339393  -0.037385   0.343382  -0.133048
     8  C   -0.000460   0.314815   0.014600  -0.001064   0.323777   0.017931
     9  C   -0.002995   0.013094   0.007483   0.000266  -0.468154  -0.044619
    10  H    0.011358  -0.000043   0.003620   0.000048  -0.079607  -0.019077
    11  H    0.009078   0.000023  -0.000882   0.000028  -0.093349   0.026123
    12  C   -0.246252  -0.001142  -0.100497   0.015362   0.181661  -0.003292
    13  C    0.700855   0.000038   0.000689   0.000591   0.088210   0.091837
    14  C   -0.000007   0.015424  -0.030255  -0.009897  -0.094743   0.014277
    15  H    0.000000   0.000705   0.004984   0.003082   0.017128   0.003632
    16  H   -0.000000  -0.002187  -0.001300   0.000770  -0.000279  -0.000938
    17  H    0.000000  -0.003096  -0.000199   0.000686   0.001656  -0.001783
    18  C    0.000420  -0.047827  -0.000279   0.000019  -0.011863  -0.000779
    19  H    0.000000   0.001425  -0.000003  -0.000001   0.012974   0.000096
    20  H   -0.000086   0.002773  -0.000021  -0.000000  -0.023716  -0.000053
    21  H    0.000075   0.002325   0.000032   0.000001  -0.013368  -0.000521
    22  C   -0.104335   0.000000  -0.000234   0.000114   0.003345  -0.026558
    23  H    0.005425  -0.000000   0.000277  -0.000058  -0.000806  -0.019228
    24  H    0.002031  -0.000000   0.000016  -0.000009  -0.000017   0.007545
    25  H    0.006344  -0.000000   0.000030  -0.000003  -0.000135  -0.000959
    26  C    0.000555   0.000003  -0.027489  -0.007634  -0.002258   0.191216
    27  H   -0.000304   0.000000   0.000424   0.000684   0.000055  -0.062319
    28  H   -0.000055   0.000000  -0.003323   0.000589   0.000389  -0.030891
    29  H    0.000025  -0.000000   0.001980   0.002384  -0.000338  -0.044600
               7          8          9         10         11         12
     1  O   -0.000238  -0.000460  -0.002995   0.011358   0.009078  -0.246252
     2  O    0.002615   0.314815   0.013094  -0.000043   0.000023  -0.001142
     3  N    0.339393   0.014600   0.007483   0.003620  -0.000882  -0.100497
     4  H   -0.037385  -0.001064   0.000266   0.000048   0.000028   0.015362
     5  C    0.343382   0.323777  -0.468154  -0.079607  -0.093349   0.181661
     6  C   -0.133048   0.017931  -0.044619  -0.019077   0.026123  -0.003292
     7  C    5.486947  -0.124204  -0.078489  -0.008399   0.013565  -0.011270
     8  C   -0.124204   5.322911   0.001708   0.000915  -0.014482  -0.014673
     9  C   -0.078489   0.001708   6.361227   0.436228   0.516059  -0.197157
    10  H   -0.008399   0.000915   0.436228   0.597283  -0.059253  -0.013417
    11  H    0.013565  -0.014482   0.516059  -0.059253   0.558113  -0.112951
    12  C   -0.011270  -0.014673  -0.197157  -0.013417  -0.112951   7.412634
    13  C    0.014154  -0.004853  -0.247013  -0.005021   0.002720  -0.472424
    14  C    0.228871  -0.010263   0.014124  -0.000492   0.000361  -0.003501
    15  H   -0.063876   0.000470  -0.000599   0.000038  -0.000000  -0.000336
    16  H   -0.043638  -0.007489   0.000745  -0.000063   0.000068   0.000062
    17  H   -0.054055  -0.008185  -0.000949   0.000184  -0.000060   0.000871
    18  C    0.010413   0.202761  -0.037970  -0.017995   0.010376  -0.000342
    19  H   -0.000871  -0.051151   0.001342  -0.000362   0.000696  -0.000942
    20  H    0.000130  -0.044492  -0.006153   0.001583  -0.000977   0.001900
    21  H    0.000837  -0.034300   0.011166   0.003625  -0.008342   0.003109
    22  C    0.000146   0.000021   0.005894   0.004449  -0.002103  -0.237255
    23  H   -0.000010   0.000009   0.002562  -0.000261   0.000115   0.061404
    24  H    0.000005  -0.000002  -0.002483   0.000208  -0.000153  -0.012010
    25  H    0.000010  -0.000001   0.001121  -0.000178   0.000048   0.019270
    26  C    0.005711   0.000324   0.028624  -0.001076   0.000193  -0.095094
    27  H   -0.000677  -0.000007   0.001856  -0.000143   0.000020  -0.005081
    28  H   -0.000343  -0.000015  -0.001897   0.000012   0.000036  -0.013594
    29  H    0.002945  -0.000006  -0.000873   0.000089  -0.000016   0.021611
              13         14         15         16         17         18
     1  O    0.700855  -0.000007   0.000000  -0.000000   0.000000   0.000420
     2  O    0.000038   0.015424   0.000705  -0.002187  -0.003096  -0.047827
     3  N    0.000689  -0.030255   0.004984  -0.001300  -0.000199  -0.000279
     4  H    0.000591  -0.009897   0.003082   0.000770   0.000686   0.000019
     5  C    0.088210  -0.094743   0.017128  -0.000279   0.001656  -0.011863
     6  C    0.091837   0.014277   0.003632  -0.000938  -0.001783  -0.000779
     7  C    0.014154   0.228871  -0.063876  -0.043638  -0.054055   0.010413
     8  C   -0.004853  -0.010263   0.000470  -0.007489  -0.008185   0.202761
     9  C   -0.247013   0.014124  -0.000599   0.000745  -0.000949  -0.037970
    10  H   -0.005021  -0.000492   0.000038  -0.000063   0.000184  -0.017995
    11  H    0.002720   0.000361  -0.000000   0.000068  -0.000060   0.010376
    12  C   -0.472424  -0.003501  -0.000336   0.000062   0.000871  -0.000342
    13  C    5.621164  -0.000087   0.000003  -0.000002   0.000006   0.001375
    14  C   -0.000087   5.070198   0.403253   0.427193   0.438088   0.001696
    15  H    0.000003   0.403253   0.534690  -0.020936  -0.022001   0.000008
    16  H   -0.000002   0.427193  -0.020936   0.520041  -0.036165  -0.000461
    17  H    0.000006   0.438088  -0.022001  -0.036165   0.521461  -0.000327
    18  C    0.001375   0.001696   0.000008  -0.000461  -0.000327   5.079699
    19  H   -0.000049   0.000039   0.000003   0.000023  -0.000004   0.395565
    20  H   -0.000055  -0.000275  -0.000000  -0.000019   0.000027   0.427083
    21  H    0.000259  -0.000141  -0.000001   0.000021  -0.000002   0.404926
    22  C    0.269498  -0.000004   0.000002  -0.000000   0.000000  -0.000002
    23  H   -0.099661   0.000004  -0.000000   0.000000  -0.000000   0.000000
    24  H   -0.026120  -0.000001  -0.000000   0.000000   0.000000  -0.000002
    25  H   -0.033207   0.000000  -0.000000  -0.000000  -0.000000   0.000001
    26  C   -0.051773   0.000481   0.000126  -0.000032  -0.000049   0.000011
    27  H   -0.000819   0.000022  -0.000007   0.000001  -0.000003   0.000002
    28  H    0.006396  -0.000088  -0.000003  -0.000007   0.000005  -0.000001
    29  H   -0.001159  -0.000052   0.000085   0.000000   0.000000  -0.000001
              19         20         21         22         23         24
     1  O    0.000000  -0.000086   0.000075  -0.104335   0.005425   0.002031
     2  O    0.001425   0.002773   0.002325   0.000000  -0.000000  -0.000000
     3  N   -0.000003  -0.000021   0.000032  -0.000234   0.000277   0.000016
     4  H   -0.000001  -0.000000   0.000001   0.000114  -0.000058  -0.000009
     5  C    0.012974  -0.023716  -0.013368   0.003345  -0.000806  -0.000017
     6  C    0.000096  -0.000053  -0.000521  -0.026558  -0.019228   0.007545
     7  C   -0.000871   0.000130   0.000837   0.000146  -0.000010   0.000005
     8  C   -0.051151  -0.044492  -0.034300   0.000021   0.000009  -0.000002
     9  C    0.001342  -0.006153   0.011166   0.005894   0.002562  -0.002483
    10  H   -0.000362   0.001583   0.003625   0.004449  -0.000261   0.000208
    11  H    0.000696  -0.000977  -0.008342  -0.002103   0.000115  -0.000153
    12  C   -0.000942   0.001900   0.003109  -0.237255   0.061404  -0.012010
    13  C   -0.000049  -0.000055   0.000259   0.269498  -0.099661  -0.026120
    14  C    0.000039  -0.000275  -0.000141  -0.000004   0.000004  -0.000001
    15  H    0.000003  -0.000000  -0.000001   0.000002  -0.000000  -0.000000
    16  H    0.000023  -0.000019   0.000021  -0.000000   0.000000   0.000000
    17  H   -0.000004   0.000027  -0.000002   0.000000  -0.000000   0.000000
    18  C    0.395565   0.427083   0.404926  -0.000002   0.000000  -0.000002
    19  H    0.530283  -0.032848  -0.020034  -0.000001   0.000000  -0.000000
    20  H   -0.032848   0.523919  -0.032345   0.000002  -0.000000   0.000000
    21  H   -0.020034  -0.032345   0.506072   0.000026  -0.000000   0.000000
    22  C   -0.000001   0.000002   0.000026   5.429894   0.396357   0.404826
    23  H    0.000000  -0.000000  -0.000000   0.396357   0.546199  -0.026786
    24  H   -0.000000   0.000000   0.000000   0.404826  -0.026786   0.501178
    25  H    0.000000  -0.000001   0.000000   0.376472  -0.022113  -0.011891
    26  C    0.000001  -0.000005  -0.000006  -0.037268   0.014236  -0.008246
    27  H    0.000000  -0.000000   0.000000   0.000894  -0.005926  -0.000996
    28  H   -0.000000   0.000000  -0.000000  -0.009596  -0.002531   0.001041
    29  H   -0.000000   0.000000   0.000000   0.002122   0.000553   0.000149
              25         26         27         28         29
     1  O    0.006344   0.000555  -0.000304  -0.000055   0.000025
     2  O   -0.000000   0.000003   0.000000   0.000000  -0.000000
     3  N    0.000030  -0.027489   0.000424  -0.003323   0.001980
     4  H   -0.000003  -0.007634   0.000684   0.000589   0.002384
     5  C   -0.000135  -0.002258   0.000055   0.000389  -0.000338
     6  C   -0.000959   0.191216  -0.062319  -0.030891  -0.044600
     7  C    0.000010   0.005711  -0.000677  -0.000343   0.002945
     8  C   -0.000001   0.000324  -0.000007  -0.000015  -0.000006
     9  C    0.001121   0.028624   0.001856  -0.001897  -0.000873
    10  H   -0.000178  -0.001076  -0.000143   0.000012   0.000089
    11  H    0.000048   0.000193   0.000020   0.000036  -0.000016
    12  C    0.019270  -0.095094  -0.005081  -0.013594   0.021611
    13  C   -0.033207  -0.051773  -0.000819   0.006396  -0.001159
    14  C    0.000000   0.000481   0.000022  -0.000088  -0.000052
    15  H   -0.000000   0.000126  -0.000007  -0.000003   0.000085
    16  H   -0.000000  -0.000032   0.000001  -0.000007   0.000000
    17  H   -0.000000  -0.000049  -0.000003   0.000005   0.000000
    18  C    0.000001   0.000011   0.000002  -0.000001  -0.000001
    19  H    0.000000   0.000001   0.000000  -0.000000  -0.000000
    20  H   -0.000001  -0.000005  -0.000000   0.000000   0.000000
    21  H    0.000000  -0.000006   0.000000  -0.000000   0.000000
    22  C    0.376472  -0.037268   0.000894  -0.009596   0.002122
    23  H   -0.022113   0.014236  -0.005926  -0.002531   0.000553
    24  H   -0.011891  -0.008246  -0.000996   0.001041   0.000149
    25  H    0.507932   0.002271   0.000671   0.000011  -0.000039
    26  C    0.002271   5.243737   0.443874   0.417293   0.384993
    27  H    0.000671   0.443874   0.515347  -0.032923  -0.024895
    28  H    0.000011   0.417293  -0.032923   0.497960  -0.015832
    29  H   -0.000039   0.384993  -0.024895  -0.015832   0.517694
 Mulliken charges:
               1
     1  O   -0.392897
     2  O   -0.177413
     3  N   -0.208404
     4  H    0.277545
     5  C   -0.038023
     6  C    0.243056
     7  C    0.107379
     8  C    0.115403
     9  C   -0.314146
    10  H    0.145748
    11  H    0.154943
    12  C   -0.176652
    13  C    0.144445
    14  C   -0.464225
    15  H    0.139549
    16  H    0.164589
    17  H    0.163896
    18  C   -0.416506
    19  H    0.163817
    20  H    0.183630
    21  H    0.176588
    22  C   -0.476706
    23  H    0.150239
    24  H    0.171718
    25  H    0.154345
    26  C   -0.502720
    27  H    0.170251
    28  H    0.187369
    29  H    0.153182
 Sum of Mulliken charges =  -0.00000
 Mulliken charges with hydrogens summed into heavy atoms:
               1
     1  O   -0.392897
     2  O   -0.177413
     3  N    0.069142
     5  C   -0.038023
     6  C    0.243056
     7  C    0.107379
     8  C    0.115403
     9  C   -0.013456
    12  C   -0.176652
    13  C    0.144445
    14  C    0.003809
    18  C    0.107528
    22  C   -0.000403
    26  C    0.008081
 Electronic spatial extent (au):  <R**2>=           3206.0159
 Charge=              0.0000 electrons
 Dipole moment (field-independent basis, Debye):
    X=              0.1054    Y=              6.7358    Z=              0.5374  Tot=              6.7580
 Quadrupole moment (field-independent basis, Debye-Ang):
   XX=            -87.2137   YY=            -78.1252   ZZ=            -86.4522
   XY=            -16.6043   XZ=             -2.8310   YZ=             -2.4979
 Traceless Quadrupole moment (field-independent basis, Debye-Ang):
   XX=             -3.2833   YY=              5.8052   ZZ=             -2.5218
   XY=            -16.6043   XZ=             -2.8310   YZ=             -2.4979
 Octapole moment (field-independent basis, Debye-Ang**2):
  XXX=            -42.9146  YYY=             59.6551  ZZZ=              1.1487  XYY=             44.7795
  XXY=             21.4038  XXZ=              1.3388  XZZ=             -0.0857  YZZ=             -1.5814
  YYZ=              4.6969  XYZ=              5.5626
 Hexadecapole moment (field-independent basis, Debye-Ang**3):
 XXXX=          -2851.1899 YYYY=          -1289.5987 ZZZZ=           -144.7893 XXXY=            -91.8177
 XXXZ=            -23.0107 YYYX=           -113.8347 YYYZ=            -17.9424 ZZZX=              4.2031
 ZZZY=              1.1257 XXYY=           -686.3525 XXZZ=           -483.6336 YYZZ=           -249.0045
 XXYZ=            -12.8043 YYXZ=            -12.2563 ZZXY=             -2.6350
 N-N= 8.980160654146D+02 E-N=-3.272092843204D+03  KE= 6.306362024943D+02
 No NMR shielding tensors so no spin-rotation constants.
 Leave Link  601 at Sat Jan 24 17:03:09 2026, MaxMem=  2147483648 cpu:               1.8 elap:               0.1
 (Enter /data/home/wyx/g16/l9999.exe)
 Electronic transition elements 
                 1             2             3             4             5 
      1  -0.633218D+03 -0.633177D+03 -0.633170D+03 -0.633147D+03 -0.633131D+03
      2   0.165175D+01  0.342350D-01  0.109245D+00 -0.450026D+00  0.410324D+00
      3   0.394411D+00 -0.462137D-01 -0.809133D-01  0.190581D+01 -0.143413D+01
      4   0.379186D+00 -0.267320D-01  0.912127D-03 -0.101564D+00  0.129481D+00
      5  -0.162485D+00 -0.437791D-02 -0.140611D-01  0.679745D-01 -0.766334D-01
      6  -0.418648D-01  0.670718D-02  0.986117D-02 -0.318847D+00  0.267163D+00
      7  -0.375668D-01  0.476283D-03 -0.291539D-02  0.176739D-01 -0.230760D-01
      8  -0.322501D+00 -0.747600D+00  0.441766D+00  0.619906D-01 -0.161197D+00
      9   0.882015D-01 -0.154376D+00 -0.832019D+00 -0.601965D-01  0.723617D-01
     10   0.142785D+01 -0.208929D+00  0.341615D+00 -0.931730D-01  0.221544D+00
     11  -0.151131D+00  0.155526D-01 -0.335995D-01  0.121368D+01 -0.346649D+00
     12   0.242092D+00 -0.124801D-01  0.444705D-01 -0.164269D+00  0.339918D+00
     13  -0.114418D-01  0.179174D-02  0.167672D-02  0.556749D-01 -0.100102D-01
     14   0.443635D+00  0.219132D-01  0.638506D-01  0.446753D+00 -0.170206D-01
     15  -0.246194D-01  0.249520D-01  0.515385D-01  0.317909D+00 -0.124384D+00
     16   0.111214D+00 -0.728619D-01  0.432110D-01  0.975784D-01 -0.246138D-01
                 6 
      1  -0.633110D+03
      2   0.505325D-01
      3  -0.219199D+00
      4   0.455965D-01
      5  -0.466324D-02
      6   0.443387D-01
      7  -0.290105D-01
      8   0.180172D+00
      9   0.263265D-01
     10  -0.314070D-01
     11   0.171240D+00
     12   0.147131D+00
     13  -0.132650D+00
     14  -0.589398D-01
     15   0.251081D-01
     16   0.192464D+00
 1\1\GINC-CN012\SP\RCAM-B3LYP TD-FC\TZVP\C11H15N1O2\WYX\24-Jan-2026\0\\
 #p CAM-B3LYP TZVP em=gd3bj td(nstates=6,root=2) scrf=(Solvent=Water,Co
 rrectedLR,NonEquilibrium=Save) Geom=Check Guess=Read\\Title Card Requi
 red\\0,1\O,0,2.707335,-1.559688,0.905597\O,0,-3.328702,-1.669399,-0.83
 6778\N,0,-0.674316,1.517027,-0.112959\H,0,-0.982718,2.479016,-0.184466
 \C,0,-1.253986,-0.765742,-0.180897\C,0,0.644853,1.345678,0.177607\C,0,
 -1.631246,0.585419,-0.311191\C,0,-2.169531,-1.855927,-0.437564\C,0,0.1
 2779,-1.073187,0.231954\H,0,0.108455,-1.545463,1.2339\H,0,0.541399,-1.
 890298,-0.37221\C,0,1.108918,0.027111,0.29801\C,0,2.475527,-0.397592,0
 .533021\C,0,-2.993593,1.10838,-0.621\H,0,-3.002488,2.197746,-0.571638\
 H,0,-3.320074,0.802622,-1.613696\H,0,-3.72996,0.721503,0.081375\C,0,-1
 .688219,-3.277637,-0.25105\H,0,-2.558289,-3.921136,-0.142692\H,0,-1.13
 3713,-3.604387,-1.134824\H,0,-1.038064,-3.408115,0.611936\C,0,3.650219
 ,0.51882,0.29137\H,0,3.475998,1.244229,-0.498592\H,0,3.907902,1.06241,
 1.203199\H,0,4.504062,-0.101335,0.024742\C,0,1.415248,2.609986,0.37618
 8\H,0,2.10103,2.526687,1.21602\H,0,1.998767,2.886416,-0.504489\H,0,0.7
 3741,3.436855,0.589133\\Version=ES64L-G16RevA.03\State=1-A\HF=-633.320
 8262\RMSD=3.650e-09\Dipole=-0.8619371,2.4747533,-0.4493742\Quadrupole=
 -8.1363032,11.4349364,-3.2986332,7.0275452,-4.0405682,2.1665346\PG=C01
  [X(C11H15N1O2)]\\@


 THE WORLD IS NOT A HAMBURGER - YOU CAN'T HAVE IT YOUR WAY.
 Job cpu time:       0 days  2 hours 40 minutes 37.6 seconds.
 Elapsed time:       0 days  0 hours 10 minutes  5.4 seconds.
 File lengths (MBytes):  RWF=    734 Int=      0 D2E=      0 Chk=     67 Scr=      1
 Normal termination of Gaussian 16 at Sat Jan 24 17:03:12 2026.
