 Entering Gaussian System, Link 0=g16
 Input=DDL-LR-9.gjf
 Output=DDL-LR-9.log
 Initial command:
 /data/home/wyx/g16/l1.exe "/scr/tmp/wyx/13117/Gau-2012436.inp" -scrdir="/scr/tmp/wyx/13117/"
 Entering Link 1 = /data/home/wyx/g16/l1.exe PID=   2012437.
  
 Copyright (c) 1988,1990,1992,1993,1995,1998,2003,2009,2016,
            Gaussian, Inc.  All Rights Reserved.
  
 This is part of the Gaussian(R) 16 program.  It is based on
 the Gaussian(R) 09 system (copyright 2009, Gaussian, Inc.),
 the Gaussian(R) 03 system (copyright 2003, Gaussian, Inc.),
 the Gaussian(R) 98 system (copyright 1998, Gaussian, Inc.),
 the Gaussian(R) 94 system (copyright 1995, Gaussian, Inc.),
 the Gaussian 92(TM) system (copyright 1992, Gaussian, Inc.),
 the Gaussian 90(TM) system (copyright 1990, Gaussian, Inc.),
 the Gaussian 88(TM) system (copyright 1988, Gaussian, Inc.),
 the Gaussian 86(TM) system (copyright 1986, Carnegie Mellon
 University), and the Gaussian 82(TM) system (copyright 1983,
 Carnegie Mellon University). Gaussian is a federally registered
 trademark of Gaussian, Inc.
  
 This software contains proprietary and confidential information,
 including trade secrets, belonging to Gaussian, Inc.
  
 This software is provided under written license and may be
 used, copied, transmitted, or stored only in accord with that
 written license.
  
 The following legend is applicable only to US Government
 contracts under FAR:
  
                    RESTRICTED RIGHTS LEGEND
  
 Use, reproduction and disclosure by the US Government is
 subject to restrictions as set forth in subparagraphs (a)
 and (c) of the Commercial Computer Software - Restricted
 Rights clause in FAR 52.227-19.
  
 Gaussian, Inc.
 340 Quinnipiac St., Bldg. 40, Wallingford CT 06492
  
  
 ---------------------------------------------------------------
 Warning -- This program may not be used in any manner that
 competes with the business of Gaussian, Inc. or will provide
 assistance to any competitor of Gaussian, Inc.  The licensee
 of this program is prohibited from giving any competitor of
 Gaussian, Inc. access to this program.  By using this program,
 the user acknowledges that Gaussian, Inc. is engaged in the
 business of creating and licensing software in the field of
 computational chemistry and represents and warrants to the
 licensee that it is not a competitor of Gaussian, Inc. and that
 it will not use this program in any manner prohibited above.
 ---------------------------------------------------------------
  

 Cite this work as:
 Gaussian 16, Revision A.03,
 M. J. Frisch, G. W. Trucks, H. B. Schlegel, G. E. Scuseria, 
 M. A. Robb, J. R. Cheeseman, G. Scalmani, V. Barone, 
 G. A. Petersson, H. Nakatsuji, X. Li, M. Caricato, A. V. Marenich, 
 J. Bloino, B. G. Janesko, R. Gomperts, B. Mennucci, H. P. Hratchian, 
 J. V. Ortiz, A. F. Izmaylov, J. L. Sonnenberg, D. Williams-Young, 
 F. Ding, F. Lipparini, F. Egidi, J. Goings, B. Peng, A. Petrone, 
 T. Henderson, D. Ranasinghe, V. G. Zakrzewski, J. Gao, N. Rega, 
 G. Zheng, W. Liang, M. Hada, M. Ehara, K. Toyota, R. Fukuda, 
 J. Hasegawa, M. Ishida, T. Nakajima, Y. Honda, O. Kitao, H. Nakai, 
 T. Vreven, K. Throssell, J. A. Montgomery, Jr., J. E. Peralta, 
 F. Ogliaro, M. J. Bearpark, J. J. Heyd, E. N. Brothers, K. N. Kudin, 
 V. N. Staroverov, T. A. Keith, R. Kobayashi, J. Normand, 
 K. Raghavachari, A. P. Rendell, J. C. Burant, S. S. Iyengar, 
 J. Tomasi, M. Cossi, J. M. Millam, M. Klene, C. Adamo, R. Cammi, 
 J. W. Ochterski, R. L. Martin, K. Morokuma, O. Farkas, 
 J. B. Foresman, and D. J. Fox, Gaussian, Inc., Wallingford CT, 2016.
 
 ******************************************
 Gaussian 16:  ES64L-G16RevA.03 25-Dec-2016
                24-Jan-2026 
 ******************************************
 %nprocshared=16
 Will use up to   16 processors via shared memory.
 %mem=16GB
 %chk=DDL-LR-9.chk
 --------------------------------------------------------------------
 #p CAM-B3LYP TZVP em=gd3bj td(nstates=6,root=1) scrf=(Solvent=Water)
 --------------------------------------------------------------------
 1/38=1,172=1/1;
 2/12=2,17=6,18=5,40=1/2;
 3/5=19,7=101,11=9,25=1,30=1,70=2201,72=1,74=-40,124=41/1,2,3,8;
 4//1;
 5/5=2,38=5,53=1/2;
 8/6=1,10=1,107=1,108=6/1;
 9/8=1,41=6,42=1,70=2/14;
 6/7=2,8=2,9=2,10=2/1;
 99/5=1,9=1/99;
 Leave Link    1 at Sat Jan 24 16:09:39 2026, MaxMem=  2147483648 cpu:               0.4 elap:               0.1
 (Enter /data/home/wyx/g16/l101.exe)
 -------------------
 Title Card Required
 -------------------
 Symbolic Z-matrix:
 Charge =  0 Multiplicity = 1
 O                     2.73145  -1.55903   0.80511 
 O                    -3.26694  -1.65162  -1.00444 
 N                    -0.69635   1.51519   0.03248 
 H                    -1.00471   2.47431  -0.03032 
 C                    -1.25065  -0.76092  -0.16315 
 C                     0.64237   1.31789   0.24236 
 C                    -1.62379   0.5601   -0.25891 
 C                    -2.1583   -1.84265  -0.50586 
 C                     0.10887  -1.09293   0.3558 
 H                     0.03375  -1.47397   1.38639 
 H                     0.53153  -1.93812  -0.19023 
 C                     1.09933   0.02592   0.33605 
 C                     2.48591  -0.39309   0.48569 
 C                    -2.95934   1.09349  -0.64286 
 H                    -3.02536   2.16191  -0.4515 
 H                    -3.15748   0.92684  -1.69756 
 H                    -3.75339   0.59364  -0.1013 
 C                    -1.71239  -3.25696  -0.25199 
 H                    -2.56379  -3.92433  -0.31821 
 H                    -0.98423  -3.56616  -0.99951 
 H                    -1.24039  -3.37978   0.71783 
 C                     3.64832   0.53132   0.22091 
 H                     3.45886   1.23963  -0.581 
 H                     3.89945   1.09494   1.12151 
 H                     4.50825  -0.08333  -0.03622 
 C                     1.41599   2.59013   0.35963 
 H                     2.19992   2.52085   1.10393 
 H                     1.87429   2.86989  -0.58849 
 H                     0.75883   3.40684   0.65386 
 
 ITRead=  0  0  0  0  0  0  0  0  0  0  0  0  0  0  0  0  0  0  0  0
 ITRead=  0  0  0  0  0  0  0  0  0
 MicOpt= -1 -1 -1 -1 -1 -1 -1 -1 -1 -1 -1 -1 -1 -1 -1 -1 -1 -1 -1 -1
 MicOpt= -1 -1 -1 -1 -1 -1 -1 -1 -1
 NAtoms=     29 NQM=       29 NQMF=       0 NMMI=      0 NMMIF=      0
                NMic=       0 NMicF=      0.
                    Isotopes and Nuclear Properties:
 (Nuclear quadrupole moments (NQMom) in fm**2, nuclear magnetic moments (NMagM)
  in nuclear magnetons)

  Atom         1           2           3           4           5           6           7           8           9          10
 IAtWgt=          16          16          14           1          12          12          12          12          12           1
 AtmWgt=  15.9949146  15.9949146  14.0030740   1.0078250  12.0000000  12.0000000  12.0000000  12.0000000  12.0000000   1.0078250
 NucSpn=           0           0           2           1           0           0           0           0           0           1
 AtZEff=  -0.0000000  -0.0000000  -0.0000000  -0.0000000  -0.0000000  -0.0000000  -0.0000000  -0.0000000  -0.0000000  -0.0000000
 NQMom=    0.0000000   0.0000000   2.0440000   0.0000000   0.0000000   0.0000000   0.0000000   0.0000000   0.0000000   0.0000000
 NMagM=    0.0000000   0.0000000   0.4037610   2.7928460   0.0000000   0.0000000   0.0000000   0.0000000   0.0000000   2.7928460
 AtZNuc=   8.0000000   8.0000000   7.0000000   1.0000000   6.0000000   6.0000000   6.0000000   6.0000000   6.0000000   1.0000000

  Atom        11          12          13          14          15          16          17          18          19          20
 IAtWgt=           1          12          12          12           1           1           1          12           1           1
 AtmWgt=   1.0078250  12.0000000  12.0000000  12.0000000   1.0078250   1.0078250   1.0078250  12.0000000   1.0078250   1.0078250
 NucSpn=           1           0           0           0           1           1           1           0           1           1
 AtZEff=  -0.0000000  -0.0000000  -0.0000000  -0.0000000  -0.0000000  -0.0000000  -0.0000000  -0.0000000  -0.0000000  -0.0000000
 NQMom=    0.0000000   0.0000000   0.0000000   0.0000000   0.0000000   0.0000000   0.0000000   0.0000000   0.0000000   0.0000000
 NMagM=    2.7928460   0.0000000   0.0000000   0.0000000   2.7928460   2.7928460   2.7928460   0.0000000   2.7928460   2.7928460
 AtZNuc=   1.0000000   6.0000000   6.0000000   6.0000000   1.0000000   1.0000000   1.0000000   6.0000000   1.0000000   1.0000000

  Atom        21          22          23          24          25          26          27          28          29
 IAtWgt=           1          12           1           1           1          12           1           1           1
 AtmWgt=   1.0078250  12.0000000   1.0078250   1.0078250   1.0078250  12.0000000   1.0078250   1.0078250   1.0078250
 NucSpn=           1           0           1           1           1           0           1           1           1
 AtZEff=  -0.0000000  -0.0000000  -0.0000000  -0.0000000  -0.0000000  -0.0000000  -0.0000000  -0.0000000  -0.0000000
 NQMom=    0.0000000   0.0000000   0.0000000   0.0000000   0.0000000   0.0000000   0.0000000   0.0000000   0.0000000
 NMagM=    2.7928460   0.0000000   2.7928460   2.7928460   2.7928460   0.0000000   2.7928460   2.7928460   2.7928460
 AtZNuc=   1.0000000   6.0000000   1.0000000   1.0000000   1.0000000   6.0000000   1.0000000   1.0000000   1.0000000
 Leave Link  101 at Sat Jan 24 16:09:40 2026, MaxMem=  2147483648 cpu:               0.8 elap:               0.1
 (Enter /data/home/wyx/g16/l202.exe)
                          Input orientation:                          
 ---------------------------------------------------------------------
 Center     Atomic      Atomic             Coordinates (Angstroms)
 Number     Number       Type             X           Y           Z
 ---------------------------------------------------------------------
      1          8           0        2.731446   -1.559025    0.805109
      2          8           0       -3.266936   -1.651616   -1.004444
      3          7           0       -0.696354    1.515190    0.032481
      4          1           0       -1.004710    2.474313   -0.030318
      5          6           0       -1.250647   -0.760918   -0.163145
      6          6           0        0.642372    1.317886    0.242356
      7          6           0       -1.623792    0.560097   -0.258912
      8          6           0       -2.158305   -1.842646   -0.505858
      9          6           0        0.108873   -1.092933    0.355795
     10          1           0        0.033753   -1.473973    1.386387
     11          1           0        0.531527   -1.938118   -0.190234
     12          6           0        1.099331    0.025917    0.336047
     13          6           0        2.485909   -0.393094    0.485694
     14          6           0       -2.959338    1.093494   -0.642863
     15          1           0       -3.025359    2.161913   -0.451497
     16          1           0       -3.157484    0.926836   -1.697558
     17          1           0       -3.753387    0.593636   -0.101298
     18          6           0       -1.712386   -3.256960   -0.251985
     19          1           0       -2.563792   -3.924326   -0.318211
     20          1           0       -0.984234   -3.566158   -0.999507
     21          1           0       -1.240390   -3.379780    0.717833
     22          6           0        3.648320    0.531317    0.220912
     23          1           0        3.458863    1.239628   -0.581003
     24          1           0        3.899446    1.094936    1.121511
     25          1           0        4.508248   -0.083327   -0.036219
     26          6           0        1.415987    2.590130    0.359633
     27          1           0        2.199924    2.520853    1.103926
     28          1           0        1.874287    2.869886   -0.588494
     29          1           0        0.758828    3.406843    0.653862
 ---------------------------------------------------------------------
                    Distance matrix (angstroms):
                    1          2          3          4          5
     1  O    0.000000
     2  O    6.266071   0.000000
     3  N    4.668786   4.208535   0.000000
     4  H    5.560991   4.805193   1.009428   0.000000
     5  C    4.175111   2.359353   2.350782   3.247283   0.000000
     6  C    3.599658   5.065090   1.369366   2.030900   2.840665
     7  C    4.958923   2.854368   1.362811   2.024782   1.376041
     8  C    5.070379   1.230505   3.701645   4.493668   1.453076
     9  C    2.701299   3.682182   2.748678   3.756913   1.492591
    10  H    2.760918   4.079483   3.361728   4.321391   2.135224
    11  H    2.444190   3.895297   3.671870   4.674949   2.136043
    12  C    2.322899   4.865729   2.352567   3.248978   2.527983
    13  C    1.233576   6.074505   3.738148   4.546725   3.810267
    14  C    6.443408   2.785855   2.398961   2.470312   2.566826
    15  H    6.968877   3.860973   2.465106   2.087584   3.431573
    16  H    6.864572   2.672228   3.065348   3.131902   2.973040
    17  H    6.892647   2.468494   3.195717   3.331247   2.846463
    18  C    4.873200   2.357955   4.887398   5.779051   2.539945
    19  H    5.907287   2.475992   5.761826   6.592132   3.428636
    20  H    4.592548   2.979299   5.193070   6.117764   2.939362
    21  H    4.370154   3.171699   4.972566   5.906410   2.763090
    22  C    2.356157   7.354418   4.458666   5.048667   5.081068
    23  H    3.206696   7.333142   4.209290   4.663817   5.133836
    24  H    2.916821   7.963684   4.741727   5.223039   5.622988
    25  H    2.458158   7.990649   5.444985   6.077357   5.800010
    26  C    4.375428   6.463968   2.392595   2.454638   4.314366
    27  H    4.125192   7.193141   3.247734   3.399758   4.927670
    28  H    4.721451   6.859240   2.971364   2.959166   4.809249
    29  H    5.345460   6.674186   2.466175   2.108976   4.698481
                    6          7          8          9         10
     6  C    0.000000
     7  C    2.441519   0.000000
     8  C    4.288657   2.473835   0.000000
     9  C    2.471748   2.472347   2.538624   0.000000
    10  H    3.077938   3.097080   2.919183   1.101342   0.000000
    11  H    3.286485   3.300181   2.709969   1.091385   1.717249
    12  C    1.373599   2.838084   3.848704   1.494397   2.118570
    13  C    2.526914   4.284000   4.965189   2.481320   2.827122
    14  C    3.715680   1.488494   3.046530   3.897653   4.434900
    15  H    3.827018   2.137123   4.097710   4.590115   5.094669
    16  H    4.284284   2.134575   3.176246   4.354861   5.045651
    17  H    4.468258   2.135683   2.939970   4.239163   4.564060
    18  C    5.168992   3.818091   1.504520   2.892990   2.985349
    19  H    6.170455   4.582266   2.129090   3.951482   3.956908
    20  H    5.295466   4.240695   2.143041   3.024660   3.332570
    21  H    5.083201   4.077212   2.168587   2.679786   2.387992
    22  C    3.107229   5.293980   6.315124   3.896674   4.294719
    23  H    2.935416   5.137985   6.407701   4.188182   4.792247
    24  H    3.380999   5.718197   6.926331   4.443145   4.648982
    25  H    4.121407   6.169725   6.910766   4.530726   4.896816
    26  C    1.493599   3.707275   5.759700   3.908134   4.413811
    27  H    2.148348   4.508070   6.373828   4.241656   4.553100
    28  H    2.148635   4.204796   6.202950   4.439854   5.114375
    29  H    2.132285   3.822826   6.116515   4.556234   4.988456
                   11         12         13         14         15
    11  H    0.000000
    12  C    2.111115   0.000000
    13  C    2.581392   1.456215   0.000000
    14  C    4.645609   4.309383   5.756240   0.000000
    15  H    5.434147   4.711239   6.146581   1.087428   0.000000
    16  H    4.908033   4.802882   6.193278   1.086010   1.759415
    17  H    4.977768   4.905349   6.344053   1.083358   1.764131
    18  C    2.603517   4.362203   5.135327   4.542480   5.579237
    19  H    3.680000   5.426872   6.214124   5.043845   6.105171
    20  H    2.367059   4.362104   4.931131   5.073518   6.105514
    21  H    2.458183   4.149557   4.781159   4.981612   5.938334
    22  C    3.997693   2.601159   1.508590   6.687548   6.902823
    23  H    4.338210   2.807395   2.179510   6.420162   6.550765
    24  H    4.718365   3.098451   2.148624   7.082086   7.180927
    25  H    4.390704   3.430923   2.111446   7.584047   7.872026
    26  C    4.646467   2.583799   3.171790   4.731637   4.535070
    27  H    4.933642   2.832958   2.992505   5.630862   5.463677
    28  H    5.007846   3.089254   3.489269   5.149996   4.952426
    29  H    5.415974   3.412859   4.177393   4.567038   4.134216
                   16         17         18         19         20
    16  H    0.000000
    17  H    1.736136   0.000000
    18  C    4.656408   4.360674   0.000000
    19  H    5.078271   4.676983   1.083815   0.000000
    20  H    5.039572   5.077290   1.088392   1.757115   0.000000
    21  H    5.296820   4.772228   1.085547   1.766723   1.746313
    22  C    7.082085   7.408979   6.581173   7.663794   6.303910
    23  H    6.717186   7.256995   6.860712   7.937749   6.558341
    24  H    7.601031   7.766107   7.233129   8.308985   7.076358
    25  H    7.908472   8.289579   6.986758   8.052735   6.574602
    26  C    5.283485   5.560654   6.659524   7.663958   6.745977
    27  H    6.252281   6.372491   7.108290   8.139766   7.184358
    28  H    5.506740   6.090106   7.107440   8.119785   7.054271
    29  H    5.197799   5.370706   7.164756   8.107451   7.375272
                   21         22         23         24         25
    21  H    0.000000
    22  C    6.280374   0.000000
    23  H    6.716315   1.086585   0.000000
    24  H    6.826709   1.091700   1.764540   0.000000
    25  H    6.669485   1.087833   1.774319   1.760478   0.000000
    26  C    6.544041   3.039945   2.623356   2.997271   4.106842
    27  H    6.841221   2.614540   2.462814   2.218541   3.661973
    28  H    7.103945   3.044870   2.273473   3.189958   3.995526
    29  H    7.075254   4.099422   3.675854   3.927734   5.168718
                   26         27         28         29
    26  C    0.000000
    27  H    1.083203   0.000000
    28  H    1.089609   1.758451   0.000000
    29  H    1.088783   1.750512   1.753859   0.000000
 Stoichiometry    C11H15NO2
 Framework group  C1[X(C11H15NO2)]
 Deg. of freedom    81
 Full point group                 C1      NOp   1
 Largest Abelian subgroup         C1      NOp   1
 Largest concise Abelian subgroup C1      NOp   1
                         Standard orientation:                         
 ---------------------------------------------------------------------
 Center     Atomic      Atomic             Coordinates (Angstroms)
 Number     Number       Type             X           Y           Z
 ---------------------------------------------------------------------
      1          8           0       -2.287903   -2.283204   -0.226257
      2          8           0        3.609900   -0.252973    0.371843
      3          7           0       -0.024127    1.799638   -0.168901
      4          1           0       -0.052867    2.808628   -0.176443
      5          6           0        1.293978   -0.144088   -0.065417
      6          6           0       -1.231349    1.155948   -0.110224
      7          6           0        1.208479    1.229266   -0.056596
      8          6           0        2.560533   -0.836306    0.102226
      9          6           0        0.057038   -0.944493   -0.304495
     10          1           0        0.068224   -1.355207   -1.326328
     11          1           0        0.052267   -1.838546    0.321420
     12          6           0       -1.232688   -0.217618   -0.100824
     13          6           0       -2.398061   -1.081213    0.028287
     14          6           0        2.330563    2.201133    0.053019
     15          1           0        1.994914    3.213882   -0.157166
     16          1           0        2.761524    2.188637    1.049781
     17          1           0        3.134541    1.952741   -0.629320
     18          6           0        2.581723   -2.333306   -0.046503
     19          1           0        3.605790   -2.674919   -0.142642
     20          1           0        2.149995   -2.808956    0.832113
     21          1           0        2.011398   -2.677316   -0.903707
     22          6           0       -3.736173   -0.575783    0.507705
     23          1           0       -3.655476    0.213183    1.250462
     24          1           0       -4.322490   -0.195790   -0.331131
     25          1           0       -4.275194   -1.419013    0.934084
     26          6           0       -2.397725    2.088559   -0.084836
     27          1           0       -3.233201    1.708705   -0.660179
     28          1           0       -2.743343    2.271197    0.932237
     29          1           0       -2.121074    3.052133   -0.509616
 ---------------------------------------------------------------------
 Rotational constants (GHZ):           1.0779213           0.4906093           0.3451492
 Leave Link  202 at Sat Jan 24 16:09:40 2026, MaxMem=  2147483648 cpu:               0.0 elap:               0.0
 (Enter /data/home/wyx/g16/l301.exe)
 Standard basis: TZVP (5D, 7F)
 Ernie: Thresh=  0.10000D-02 Tol=  0.10000D-05 Strict=F.
 There are   370 symmetry adapted cartesian basis functions of A   symmetry.
 There are   356 symmetry adapted basis functions of A   symmetry.
   356 basis functions,   610 primitive gaussians,   370 cartesian basis functions
    52 alpha electrons       52 beta electrons
       nuclear repulsion energy       900.4960122814 Hartrees.
 IExCor=20419 DFT=T Ex+Corr=CAM-B3LYP ExCW=0 ScaHFX=  1.000000
 ScaDFX=  1.000000  1.000000  1.000000  0.810000 ScalE2=  1.000000  1.000000
 IRadAn=      5 IRanWt=     -1 IRanGd=            0 ICorTp=0 IEmpDi=141
 HFx  wShort=  0.000000 wLong=  0.330000 cFull=  0.190000 cShort=  0.000000 cLong=  0.460000
 DFx  wShort=  0.000000 wLong=  0.330000 cFull=  0.190000 cShort=  0.000000 cLong=  0.460000
 NAtoms=   29 NActive=   29 NUniq=   29 SFac= 1.00D+00 NAtFMM=   60 NAOKFM=F Big=F
 Integral buffers will be    131072 words long.
 Raffenetti 1 integral format.
 Two-electron integral symmetry is turned on.
 R6Disp:  Grimme-D3(BJ) Dispersion energy=       -0.0261825771 Hartrees.
 Nuclear repulsion after empirical dispersion term =      900.4698297043 Hartrees.
 ------------------------------------------------------------------------------
 Polarizable Continuum Model (PCM)
 =================================
 Model                : PCM.
 Atomic radii         : UFF (Universal Force Field).
 Polarization charges : Total charges.
 Charge compensation  : None.
 Solution method      : On-the-fly selection.
 Cavity type          : Scaled VdW (van der Waals Surface) (Alpha=1.100).
 Cavity algorithm     : GePol (No added spheres)
                        Default sphere list used, NSphG=   29.
                        Lebedev-Laikov grids with approx.  5.0 points / Ang**2.
                        Smoothing algorithm: York/Karplus (Gamma=1.0000).
                        Polarization charges: spherical gaussians, with
                                              point-specific exponents (IZeta= 3).
                        Self-potential: point-specific (ISelfS= 7).
                        Self-field    : sphere-specific E.n sum rule (ISelfD= 2).
 Solvent              : Water, Eps=  78.355300 Eps(inf)=   1.777849
 ------------------------------------------------------------------------------
 GePol: Number of generator spheres                  =      29
 GePol: Total number of spheres                      =      29
 GePol: Number of exposed spheres                    =      29 (100.00%)
 GePol: Number of points                             =    2110
 GePol: Average weight of points                     =       0.13
 GePol: Minimum weight of points                     =   0.11D-09
 GePol: Maximum weight of points                     =    0.20577
 GePol: Number of points with low weight             =     135
 GePol: Fraction of low-weight points (<1% of avg)   =       6.40%
 GePol: Cavity surface area                          =    268.623 Ang**2
 GePol: Cavity volume                                =    286.684 Ang**3
 Leave Link  301 at Sat Jan 24 16:09:40 2026, MaxMem=  2147483648 cpu:               0.6 elap:               0.0
 (Enter /data/home/wyx/g16/l302.exe)
 NPDir=0 NMtPBC=     1 NCelOv=     1 NCel=       1 NClECP=     1 NCelD=      1
         NCelK=      1 NCelE2=     1 NClLst=     1 CellRange=     0.0.
 One-electron integrals computed using PRISM.
 One-electron integral symmetry used in STVInt
 NBasis=   356 RedAO= T EigKep=  4.65D-05  NBF=   356
 NBsUse=   356 1.00D-06 EigRej= -1.00D+00 NBFU=   356
 Precomputing XC quadrature grid using
 IXCGrd= 4 IRadAn=           5 IRanWt=          -1 IRanGd=           0 AccXCQ= 0.00D+00.
 Generated NRdTot=       0 NPtTot=           0 NUsed=           0 NTot=          32
 NSgBfM=   366   366   366   366   366 MxSgAt=    29 MxSgA2=    29.
 Leave Link  302 at Sat Jan 24 16:09:40 2026, MaxMem=  2147483648 cpu:               3.2 elap:               0.2
 (Enter /data/home/wyx/g16/l303.exe)
 DipDrv:  MaxL=1.
 Leave Link  303 at Sat Jan 24 16:09:40 2026, MaxMem=  2147483648 cpu:               0.6 elap:               0.0
 (Enter /data/home/wyx/g16/l308.exe)
 Leave Link  308 at Sat Jan 24 16:09:40 2026, MaxMem=  2147483648 cpu:               0.7 elap:               0.1
 (Enter /data/home/wyx/g16/l401.exe)
 ExpMin= 9.52D-02 ExpMax= 2.70D+04 ExpMxC= 9.22D+02 IAcc=3 IRadAn=         5 AccDes= 0.00D+00
 Harris functional with IExCor=20419 and IRadAn=       5 diagonalized for initial guess.
 HarFok:  IExCor=20419 AccDes= 0.00D+00 IRadAn=         5 IDoV= 1 UseB2=F ITyADJ=14
 ICtDFT=  3500011 ScaDFX=  1.000000  1.000000  1.000000  1.000000
 FoFCou: FMM=F IPFlag=           0 FMFlag=      100000 FMFlg1=           0
         NFxFlg=           0 DoJE=T BraDBF=F KetDBF=T FulRan=T
         wScrn=  0.000000 ICntrl=       500 IOpCl=  0 I1Cent=   200000004 NGrid=           0
         NMat0=    1 NMatS0=      1 NMatT0=    0 NMatD0=    1 NMtDS0=    0 NMtDT0=    0
 Petite list used in FoFCou.
 Harris En= -608.711552354603    
 JPrj=0 DoOrth=F DoCkMO=F.
 Leave Link  401 at Sat Jan 24 16:09:41 2026, MaxMem=  2147483648 cpu:              11.8 elap:               0.8
 (Enter /data/home/wyx/g16/l502.exe)
 Integral symmetry usage will be decided dynamically.
 Closed shell SCF:
 Using DIIS extrapolation, IDIIS=  1040.
 NGot=  2147483648 LenX=  2147200095 LenY=  2147062754
 Requested convergence on RMS density matrix=1.00D-08 within 128 cycles.
 Requested convergence on MAX density matrix=1.00D-06.
 Requested convergence on             energy=1.00D-06.
 No special actions if energy rises.
 Fock matrices will be formed incrementally for  20 cycles.

 Cycle   1  Pass 1  IDiag  1:
 FoFJK:  IHMeth= 1 ICntrl=       0 DoSepK=T KAlg= 0 I1Cent=           0 FoldK=F
 IRaf=         1 NMat=       1 IRICut=       1 DoRegI=T DoRafI=F ISym2E= 0 IDoP0=0 IntGTp=1.
 FoFCou: FMM=F IPFlag=           0 FMFlag=      100000 FMFlg1=           0
         NFxFlg=           0 DoJE=T BraDBF=F KetDBF=F FulRan=T
         wScrn=  0.000000 ICntrl=       500 IOpCl=  0 I1Cent=           0 NGrid=           0
         NMat0=    1 NMatS0=      1 NMatT0=    0 NMatD0=    1 NMtDS0=    0 NMtDT0=    0
 Symmetry not used in FoFCou.
 Inv3:  Mode=1 IEnd=    13356300.
 Iteration    1 A*A^-1 deviation from unit magnitude is 3.33D-15 for    873.
 Iteration    1 A*A^-1 deviation from orthogonality  is 1.95D-15 for    744    251.
 Iteration    1 A^-1*A deviation from unit magnitude is 3.77D-15 for    873.
 Iteration    1 A^-1*A deviation from orthogonality  is 5.58D-15 for   1379   1350.
 E= -633.131166264913    
 DIIS: error= 4.17D-02 at cycle   1 NSaved=   1.
 NSaved= 1 IEnMin= 1 EnMin= -633.131166264913     IErMin= 1 ErrMin= 4.17D-02
 ErrMax= 4.17D-02  0.00D+00 EMaxC= 1.00D-01 BMatC= 1.10D+00 BMatP= 1.10D+00
 IDIUse=3 WtCom= 5.83D-01 WtEn= 4.17D-01
 Coeff-Com:  0.100D+01
 Coeff-En:   0.100D+01
 Coeff:      0.100D+01
 Gap=     0.217 Goal=   None    Shift=    0.000
 GapD=    0.217 DampG=1.000 DampE=0.500 DampFc=0.5000 IDamp=-1.
 Damping current iteration by 5.00D-01
 RMSDP=4.04D-03 MaxDP=1.91D-01              OVMax= 1.47D-01

 Cycle   2  Pass 1  IDiag  1:
 RMSU=  1.76D-03    CP:  9.29D-01
 E= -633.227089449939     Delta-E=       -0.095923185027 Rises=F Damp=T
 DIIS: error= 1.90D-02 at cycle   2 NSaved=   2.
 NSaved= 2 IEnMin= 2 EnMin= -633.227089449939     IErMin= 2 ErrMin= 1.90D-02
 ErrMax= 1.90D-02  0.00D+00 EMaxC= 1.00D-01 BMatC= 2.23D-01 BMatP= 1.10D+00
 IDIUse=3 WtCom= 8.10D-01 WtEn= 1.90D-01
 Coeff-Com: -0.589D+00 0.159D+01
 Coeff-En:   0.000D+00 0.100D+01
 Coeff:     -0.477D+00 0.148D+01
 Gap=     0.236 Goal=   None    Shift=    0.000
 RMSDP=1.47D-03 MaxDP=4.61D-02 DE=-9.59D-02 OVMax= 1.39D-01

 Cycle   3  Pass 1  IDiag  1:
 RMSU=  1.36D-03    CP:  9.04D-01  1.25D+00
 E= -633.275325600008     Delta-E=       -0.048236150068 Rises=F Damp=F
 DIIS: error= 1.27D-02 at cycle   3 NSaved=   3.
 NSaved= 3 IEnMin= 3 EnMin= -633.275325600008     IErMin= 3 ErrMin= 1.27D-02
 ErrMax= 1.27D-02  0.00D+00 EMaxC= 1.00D-01 BMatC= 6.52D-02 BMatP= 2.23D-01
 IDIUse=3 WtCom= 8.73D-01 WtEn= 1.27D-01
 Coeff-Com: -0.364D+00 0.797D+00 0.567D+00
 Coeff-En:   0.000D+00 0.000D+00 0.100D+01
 Coeff:     -0.318D+00 0.696D+00 0.622D+00
 Gap=     0.231 Goal=   None    Shift=    0.000
 RMSDP=1.36D-03 MaxDP=7.60D-02 DE=-4.82D-02 OVMax= 7.82D-02

 Cycle   4  Pass 1  IDiag  1:
 RMSU=  4.96D-04    CP:  8.55D-01  1.75D+00  5.35D-01
 E= -633.324431929851     Delta-E=       -0.049106329843 Rises=F Damp=F
 DIIS: error= 3.69D-03 at cycle   4 NSaved=   4.
 NSaved= 4 IEnMin= 4 EnMin= -633.324431929851     IErMin= 4 ErrMin= 3.69D-03
 ErrMax= 3.69D-03  0.00D+00 EMaxC= 1.00D-01 BMatC= 7.10D-03 BMatP= 6.52D-02
 IDIUse=3 WtCom= 9.63D-01 WtEn= 3.69D-02
 Coeff-Com: -0.166D+00 0.361D+00 0.361D+00 0.445D+00
 Coeff-En:   0.000D+00 0.000D+00 0.209D-01 0.979D+00
 Coeff:     -0.160D+00 0.347D+00 0.348D+00 0.465D+00
 Gap=     0.227 Goal=   None    Shift=    0.000
 RMSDP=3.37D-04 MaxDP=2.08D-02 DE=-4.91D-02 OVMax= 1.63D-02

 Cycle   5  Pass 1  IDiag  1:
 RMSU=  9.60D-05    CP:  8.67D-01  1.67D+00  6.72D-01  6.51D-01
 E= -633.329898458985     Delta-E=       -0.005466529134 Rises=F Damp=F
 DIIS: error= 4.24D-04 at cycle   5 NSaved=   5.
 NSaved= 5 IEnMin= 5 EnMin= -633.329898458985     IErMin= 5 ErrMin= 4.24D-04
 ErrMax= 4.24D-04  0.00D+00 EMaxC= 1.00D-01 BMatC= 6.31D-05 BMatP= 7.10D-03
 IDIUse=3 WtCom= 9.96D-01 WtEn= 4.24D-03
 Coeff-Com: -0.268D-01 0.573D-01 0.695D-01 0.140D+00 0.760D+00
 Coeff-En:   0.000D+00 0.000D+00 0.000D+00 0.000D+00 0.100D+01
 Coeff:     -0.267D-01 0.571D-01 0.692D-01 0.140D+00 0.761D+00
 Gap=     0.227 Goal=   None    Shift=    0.000
 RMSDP=1.18D-04 MaxDP=6.98D-03 DE=-5.47D-03 OVMax= 1.80D-03

 Cycle   6  Pass 1  IDiag  1:
 RMSU=  4.92D-05    CP:  8.62D-01  1.70D+00  6.78D-01  7.74D-01  1.13D+00
 E= -633.329936382331     Delta-E=       -0.000037923346 Rises=F Damp=F
 DIIS: error= 3.92D-04 at cycle   6 NSaved=   6.
 NSaved= 6 IEnMin= 6 EnMin= -633.329936382331     IErMin= 6 ErrMin= 3.92D-04
 ErrMax= 3.92D-04  0.00D+00 EMaxC= 1.00D-01 BMatC= 2.43D-05 BMatP= 6.31D-05
 IDIUse=3 WtCom= 9.96D-01 WtEn= 3.92D-03
 Coeff-Com:  0.171D-01-0.374D-01-0.298D-01-0.933D-02 0.447D+00 0.612D+00
 Coeff-En:   0.000D+00 0.000D+00 0.000D+00 0.000D+00 0.150D+00 0.850D+00
 Coeff:      0.171D-01-0.373D-01-0.297D-01-0.929D-02 0.446D+00 0.613D+00
 Gap=     0.228 Goal=   None    Shift=    0.000
 RMSDP=2.48D-05 MaxDP=1.04D-03 DE=-3.79D-05 OVMax= 2.76D-03

 Cycle   7  Pass 1  IDiag  1:
 RMSU=  1.71D-05    CP:  8.62D-01  1.71D+00  6.81D-01  7.70D-01  1.24D+00
                    CP:  7.69D-01
 E= -633.329958650162     Delta-E=       -0.000022267832 Rises=F Damp=F
 DIIS: error= 3.86D-05 at cycle   7 NSaved=   7.
 NSaved= 7 IEnMin= 7 EnMin= -633.329958650162     IErMin= 7 ErrMin= 3.86D-05
 ErrMax= 3.86D-05  0.00D+00 EMaxC= 1.00D-01 BMatC= 7.84D-07 BMatP= 2.43D-05
 IDIUse=1 WtCom= 1.00D+00 WtEn= 0.00D+00
 Coeff-Com:  0.348D-02-0.749D-02-0.682D-02-0.102D-01-0.813D-02 0.132D+00
 Coeff-Com:  0.897D+00
 Coeff:      0.348D-02-0.749D-02-0.682D-02-0.102D-01-0.813D-02 0.132D+00
 Coeff:      0.897D+00
 Gap=     0.228 Goal=   None    Shift=    0.000
 RMSDP=1.61D-05 MaxDP=8.26D-04 DE=-2.23D-05 OVMax= 6.41D-04

 Cycle   8  Pass 1  IDiag  1:
 RMSU=  4.70D-06    CP:  8.62D-01  1.71D+00  6.82D-01  7.86D-01  1.30D+00
                    CP:  9.03D-01  1.07D+00
 E= -633.329959901499     Delta-E=       -0.000001251337 Rises=F Damp=F
 DIIS: error= 2.41D-05 at cycle   8 NSaved=   8.
 NSaved= 8 IEnMin= 8 EnMin= -633.329959901499     IErMin= 8 ErrMin= 2.41D-05
 ErrMax= 2.41D-05  0.00D+00 EMaxC= 1.00D-01 BMatC= 1.04D-07 BMatP= 7.84D-07
 IDIUse=1 WtCom= 1.00D+00 WtEn= 0.00D+00
 Coeff-Com: -0.600D-03 0.137D-02 0.745D-03-0.375D-02-0.648D-01-0.151D-01
 Coeff-Com:  0.308D+00 0.774D+00
 Coeff:     -0.600D-03 0.137D-02 0.745D-03-0.375D-02-0.648D-01-0.151D-01
 Coeff:      0.308D+00 0.774D+00
 Gap=     0.228 Goal=   None    Shift=    0.000
 RMSDP=4.35D-06 MaxDP=2.40D-04 DE=-1.25D-06 OVMax= 3.82D-04

 Cycle   9  Pass 1  IDiag  1:
 RMSU=  1.32D-06    CP:  8.61D-01  1.71D+00  6.82D-01  7.90D-01  1.31D+00
                    CP:  9.34D-01  1.17D+00  1.24D+00
 E= -633.329960085282     Delta-E=       -0.000000183782 Rises=F Damp=F
 DIIS: error= 4.41D-06 at cycle   9 NSaved=   9.
 NSaved= 9 IEnMin= 9 EnMin= -633.329960085282     IErMin= 9 ErrMin= 4.41D-06
 ErrMax= 4.41D-06  0.00D+00 EMaxC= 1.00D-01 BMatC= 1.64D-08 BMatP= 1.04D-07
 IDIUse=1 WtCom= 1.00D+00 WtEn= 0.00D+00
 Coeff-Com: -0.850D-03 0.185D-02 0.159D-02 0.428D-03-0.225D-01-0.197D-01
 Coeff-Com: -0.390D-01 0.279D+00 0.799D+00
 Coeff:     -0.850D-03 0.185D-02 0.159D-02 0.428D-03-0.225D-01-0.197D-01
 Coeff:     -0.390D-01 0.279D+00 0.799D+00
 Gap=     0.228 Goal=   None    Shift=    0.000
 RMSDP=1.99D-06 MaxDP=1.13D-04 DE=-1.84D-07 OVMax= 1.16D-04

 Cycle  10  Pass 1  IDiag  1:
 RMSU=  7.97D-07    CP:  8.61D-01  1.71D+00  6.82D-01  7.92D-01  1.31D+00
                    CP:  9.54D-01  1.20D+00  1.36D+00  1.12D+00
 E= -633.329960110337     Delta-E=       -0.000000025055 Rises=F Damp=F
 DIIS: error= 1.87D-06 at cycle  10 NSaved=  10.
 NSaved=10 IEnMin=10 EnMin= -633.329960110337     IErMin=10 ErrMin= 1.87D-06
 ErrMax= 1.87D-06  0.00D+00 EMaxC= 1.00D-01 BMatC= 1.34D-09 BMatP= 1.64D-08
 IDIUse=1 WtCom= 1.00D+00 WtEn= 0.00D+00
 Coeff-Com: -0.229D-03 0.494D-03 0.466D-03 0.353D-03-0.301D-02-0.423D-02
 Coeff-Com: -0.408D-01 0.381D-01 0.267D+00 0.741D+00
 Coeff:     -0.229D-03 0.494D-03 0.466D-03 0.353D-03-0.301D-02-0.423D-02
 Coeff:     -0.408D-01 0.381D-01 0.267D+00 0.741D+00
 Gap=     0.228 Goal=   None    Shift=    0.000
 RMSDP=4.45D-07 MaxDP=2.32D-05 DE=-2.51D-08 OVMax= 3.00D-05

 Cycle  11  Pass 1  IDiag  1:
 RMSU=  2.66D-07    CP:  8.61D-01  1.71D+00  6.82D-01  7.92D-01  1.32D+00
                    CP:  9.56D-01  1.21D+00  1.40D+00  1.23D+00  8.55D-01
 E= -633.329960111893     Delta-E=       -0.000000001556 Rises=F Damp=F
 DIIS: error= 1.27D-06 at cycle  11 NSaved=  11.
 NSaved=11 IEnMin=11 EnMin= -633.329960111893     IErMin=11 ErrMin= 1.27D-06
 ErrMax= 1.27D-06  0.00D+00 EMaxC= 1.00D-01 BMatC= 4.60D-10 BMatP= 1.34D-09
 IDIUse=1 WtCom= 1.00D+00 WtEn= 0.00D+00
 Coeff-Com:  0.221D-04-0.511D-04-0.173D-04 0.115D-03 0.229D-02 0.149D-02
 Coeff-Com: -0.166D-01-0.269D-01-0.843D-03 0.421D+00 0.619D+00
 Coeff:      0.221D-04-0.511D-04-0.173D-04 0.115D-03 0.229D-02 0.149D-02
 Coeff:     -0.166D-01-0.269D-01-0.843D-03 0.421D+00 0.619D+00
 Gap=     0.228 Goal=   None    Shift=    0.000
 RMSDP=1.92D-07 MaxDP=1.03D-05 DE=-1.56D-09 OVMax= 1.04D-05

 Cycle  12  Pass 1  IDiag  1:
 RMSU=  8.68D-08    CP:  8.61D-01  1.71D+00  6.82D-01  7.92D-01  1.32D+00
                    CP:  9.58D-01  1.21D+00  1.42D+00  1.24D+00  9.81D-01
                    CP:  8.05D-01
 E= -633.329960112307     Delta-E=       -0.000000000413 Rises=F Damp=F
 DIIS: error= 2.33D-07 at cycle  12 NSaved=  12.
 NSaved=12 IEnMin=12 EnMin= -633.329960112307     IErMin=12 ErrMin= 2.33D-07
 ErrMax= 2.33D-07  0.00D+00 EMaxC= 1.00D-01 BMatC= 3.00D-11 BMatP= 4.60D-10
 IDIUse=1 WtCom= 1.00D+00 WtEn= 0.00D+00
 Coeff-Com:  0.246D-04-0.546D-04-0.373D-04 0.285D-04 0.124D-02 0.100D-02
 Coeff-Com: -0.423D-02-0.140D-01-0.266D-01 0.127D+00 0.276D+00 0.640D+00
 Coeff:      0.246D-04-0.546D-04-0.373D-04 0.285D-04 0.124D-02 0.100D-02
 Coeff:     -0.423D-02-0.140D-01-0.266D-01 0.127D+00 0.276D+00 0.640D+00
 Gap=     0.228 Goal=   None    Shift=    0.000
 RMSDP=4.00D-08 MaxDP=1.78D-06 DE=-4.13D-10 OVMax= 1.65D-06

 Cycle  13  Pass 1  IDiag  1:
 RMSU=  2.11D-08    CP:  8.61D-01  1.71D+00  6.82D-01  7.92D-01  1.32D+00
                    CP:  9.58D-01  1.21D+00  1.42D+00  1.25D+00  9.89D-01
                    CP:  8.89D-01  9.94D-01
 E= -633.329960112336     Delta-E=       -0.000000000030 Rises=F Damp=F
 DIIS: error= 6.01D-08 at cycle  13 NSaved=  13.
 NSaved=13 IEnMin=13 EnMin= -633.329960112336     IErMin=13 ErrMin= 6.01D-08
 ErrMax= 6.01D-08  0.00D+00 EMaxC= 1.00D-01 BMatC= 2.43D-12 BMatP= 3.00D-11
 IDIUse=1 WtCom= 1.00D+00 WtEn= 0.00D+00
 Coeff-Com:  0.548D-05-0.117D-04-0.114D-04-0.124D-04 0.363D-04 0.998D-04
 Coeff-Com:  0.124D-02 0.457D-03-0.105D-01-0.261D-01-0.103D-01 0.201D+00
 Coeff-Com:  0.844D+00
 Coeff:      0.548D-05-0.117D-04-0.114D-04-0.124D-04 0.363D-04 0.998D-04
 Coeff:      0.124D-02 0.457D-03-0.105D-01-0.261D-01-0.103D-01 0.201D+00
 Coeff:      0.844D+00
 Gap=     0.228 Goal=   None    Shift=    0.000
 RMSDP=1.65D-08 MaxDP=1.15D-06 DE=-2.99D-11 OVMax= 1.03D-06

 Cycle  14  Pass 1  IDiag  1:
 RMSU=  9.74D-09    CP:  8.61D-01  1.71D+00  6.82D-01  7.92D-01  1.32D+00
                    CP:  9.58D-01  1.21D+00  1.42D+00  1.25D+00  9.95D-01
                    CP:  9.16D-01  1.09D+00  1.03D+00
 E= -633.329960112341     Delta-E=       -0.000000000005 Rises=F Damp=F
 DIIS: error= 2.68D-08 at cycle  14 NSaved=  14.
 NSaved=14 IEnMin=14 EnMin= -633.329960112341     IErMin=14 ErrMin= 2.68D-08
 ErrMax= 2.68D-08  0.00D+00 EMaxC= 1.00D-01 BMatC= 1.88D-13 BMatP= 2.43D-12
 IDIUse=1 WtCom= 1.00D+00 WtEn= 0.00D+00
 Coeff-Com: -0.180D-06 0.538D-06-0.261D-06-0.483D-05-0.685D-04-0.263D-04
 Coeff-Com:  0.545D-03 0.123D-02-0.916D-03-0.138D-01-0.196D-01-0.323D-02
 Coeff-Com:  0.184D+00 0.852D+00
 Coeff:     -0.180D-06 0.538D-06-0.261D-06-0.483D-05-0.685D-04-0.263D-04
 Coeff:      0.545D-03 0.123D-02-0.916D-03-0.138D-01-0.196D-01-0.323D-02
 Coeff:      0.184D+00 0.852D+00
 Gap=     0.228 Goal=   None    Shift=    0.000
 RMSDP=4.48D-09 MaxDP=2.10D-07 DE=-4.77D-12 OVMax= 4.91D-07

 Error on total polarization charges =  0.01549
 SCF Done:  E(RCAM-B3LYP) =  -633.329960112     A.U. after   14 cycles
            NFock= 14  Conv=0.45D-08     -V/T= 2.0041
 KE= 6.307244352629D+02 PE=-3.276989685969D+03 EE= 1.112465460890D+03
 Leave Link  502 at Sat Jan 24 16:10:48 2026, MaxMem=  2147483648 cpu:            1041.2 elap:              66.2
 (Enter /data/home/wyx/g16/l801.exe)
 DoSCS=F DFT=T ScalE2(SS,OS)=  1.000000  1.000000
 ExpMin= 9.52D-02 ExpMax= 2.70D+04 ExpMxC= 9.22D+02 IAcc=3 IRadAn=         5 AccDes= 0.00D+00
 HarFok:  IExCor=  205 AccDes= 0.00D+00 IRadAn=         5 IDoV=-2 UseB2=F ITyADJ=14
 ICtDFT= 12500011 ScaDFX=  1.000000  1.000000  1.000000  1.000000
 Largest valence mixing into a core orbital is  5.61D-05
 Largest core mixing into a valence orbital is  1.18D-05
 Range of M.O.s used for correlation:    15   356
 NBasis=   356 NAE=    52 NBE=    52 NFC=    14 NFV=     0
 NROrb=    342 NOA=    38 NOB=    38 NVA=   304 NVB=   304

 **** Warning!!: The largest alpha MO coefficient is  0.59070650D+02

 Leave Link  801 at Sat Jan 24 16:10:48 2026, MaxMem=  2147483648 cpu:               1.0 elap:               0.1
 (Enter /data/home/wyx/g16/l914.exe)
 RHF ground state
 Two-electron integrals replicated using symmetry.
 MDV=  2147483648 DFT=T DoStab=F Mixed=T DoRPA=T DoScal=F NonHer=T
 NEqPCM:  Using non-equilibrium solvation (IEInf=1, Eps=  78.3553, EpsInf=   1.7778)
 Inv3:  Mode=1 IEnd=    13356300.
 Iteration    1 A*A^-1 deviation from unit magnitude is 3.11D-15 for    147.
 Iteration    1 A*A^-1 deviation from orthogonality  is 1.80D-15 for   1707    513.
 Iteration    1 A^-1*A deviation from unit magnitude is 3.33D-15 for    503.
 Iteration    1 A^-1*A deviation from orthogonality  is 1.97D-15 for   1403    961.
 Making orbital integer symmetry assigments:
 Orbital symmetries:
       Occupied  (A) (A) (A) (A) (A) (A) (A) (A) (A) (A) (A) (A)
                 (A) (A) (A) (A) (A) (A) (A) (A) (A) (A) (A) (A)
                 (A) (A) (A) (A) (A) (A) (A) (A) (A) (A) (A) (A)
                 (A) (A) (A) (A) (A) (A) (A) (A) (A) (A) (A) (A)
                 (A) (A) (A) (A)
       Virtual   (A) (A) (A) (A) (A) (A) (A) (A) (A) (A) (A) (A)
                 (A) (A) (A) (A) (A) (A) (A) (A) (A) (A) (A) (A)
                 (A) (A) (A) (A) (A) (A) (A) (A) (A) (A) (A) (A)
                 (A) (A) (A) (A) (A) (A) (A) (A) (A) (A) (A) (A)
                 (A) (A) (A) (A) (A) (A) (A) (A) (A) (A) (A) (A)
                 (A) (A) (A) (A) (A) (A) (A) (A) (A) (A) (A) (A)
                 (A) (A) (A) (A) (A) (A) (A) (A) (A) (A) (A) (A)
                 (A) (A) (A) (A) (A) (A) (A) (A) (A) (A) (A) (A)
                 (A) (A) (A) (A) (A) (A) (A) (A) (A) (A) (A) (A)
                 (A) (A) (A) (A) (A) (A) (A) (A) (A) (A) (A) (A)
                 (A) (A) (A) (A) (A) (A) (A) (A) (A) (A) (A) (A)
                 (A) (A) (A) (A) (A) (A) (A) (A) (A) (A) (A) (A)
                 (A) (A) (A) (A) (A) (A) (A) (A) (A) (A) (A) (A)
                 (A) (A) (A) (A) (A) (A) (A) (A) (A) (A) (A) (A)
                 (A) (A) (A) (A) (A) (A) (A) (A) (A) (A) (A) (A)
                 (A) (A) (A) (A) (A) (A) (A) (A) (A) (A) (A) (A)
                 (A) (A) (A) (A) (A) (A) (A) (A) (A) (A) (A) (A)
                 (A) (A) (A) (A) (A) (A) (A) (A) (A) (A) (A) (A)
                 (A) (A) (A) (A) (A) (A) (A) (A) (A) (A) (A) (A)
                 (A) (A) (A) (A) (A) (A) (A) (A) (A) (A) (A) (A)
                 (A) (A) (A) (A) (A) (A) (A) (A) (A) (A) (A) (A)
                 (A) (A) (A) (A) (A) (A) (A) (A) (A) (A) (A) (A)
                 (A) (A) (A) (A) (A) (A) (A) (A) (A) (A) (A) (A)
                 (A) (A) (A) (A) (A) (A) (A) (A) (A) (A) (A) (A)
                 (A) (A) (A) (A) (A) (A) (A) (A) (A) (A) (A) (A)
                 (A) (A) (A) (A)
    24 initial guesses have been made.
 Convergence on wavefunction:    0.001000000000000
 Davidson Disk Diagonalization:  ConvIn= 1.00D-03 SkipCon=T Conv= 1.00D-03.
 Max sub-space:  2000 roots to seek:    24 dimension of matrix:        23104
 Iteration     1 Dimension    24 NMult     0 NNew     24
 CISAX will form    24 AO SS matrices at one time.
 NMat=    24 NSing=    24 JSym2X= 0.
 FoFJK:  IHMeth= 1 ICntrl=       0 DoSepK=T KAlg= 0 I1Cent=           0 FoldK=F
 IRaf=         1 NMat=      48 IRICut=       1 DoRegI=T DoRafI=F ISym2E= 0 IDoP0=3 IntGTp=3.
 New state      2 was old state      3
 New state      3 was old state      4
 New state      4 was old state      2
 New state      5 was old state      6
 New state      6 was old state      5
 Excitation Energies [eV] at current iteration:
 Root      1 :     3.724964952457405
 Root      2 :     4.281678010786053
 Root      3 :     4.484353150053556
 Root      4 :     5.427722117404947
 Root      5 :     6.076808827750304
 Root      6 :     6.324870225468509
 Root      7 :     6.710971398971111
 Root      8 :     6.793872426673390
 Root      9 :     7.005672633153006
 Root     10 :     7.011078667208965
 Root     11 :     7.218030093300190
 Root     12 :     7.336264491003231
 Root     13 :     7.484083315304193
 Root     14 :     7.523121757215686
 Root     15 :     7.847137606341331
 Root     16 :     7.867858903518441
 Root     17 :     8.134906572550495
 Root     18 :     8.199457224237028
 Root     19 :     8.324335713006240
 Root     20 :     8.336462394128160
 Root     21 :     8.571866987360302
 Root     22 :     8.777438890291387
 Root     23 :     8.876842034524980
 Root     24 :     9.015134704960726
 Iteration     2 Dimension    36 NMult    24 NNew     12
 CISAX will form    12 AO SS matrices at one time.
 NMat=    12 NSing=    12 JSym2X= 0.
 Root      1 not converged, maximum delta is    0.039783885366148
 Root      2 not converged, maximum delta is    0.074652317093557
 Root      3 not converged, maximum delta is    0.085536370614696
 Root      4 not converged, maximum delta is    0.247863700197843
 New state      5 was old state      6
 Root      5 not converged, maximum delta is    0.249562290992981
 New state      6 was old state      5
 Root      6 not converged, maximum delta is    0.121073436397117
 Excitation Energies [eV] at current iteration:
 Root      1 :     3.272981122808546   Change is   -0.451983829648859
 Root      2 :     4.057448674847981   Change is   -0.224229335938072
 Root      3 :     4.221322252993808   Change is   -0.263030897059748
 Root      4 :     5.084449537243264   Change is   -0.343272580161683
 Root      5 :     5.519464791177690   Change is   -0.805405434290819
 Root      6 :     5.969932800292453   Change is   -0.106876027457851
 Iteration     3 Dimension    48 NMult    36 NNew     12
 CISAX will form    12 AO SS matrices at one time.
 NMat=    12 NSing=    12 JSym2X= 0.
 Root      1 not converged, maximum delta is    0.007671034457721
 Root      2 not converged, maximum delta is    0.013448819317012
 Root      3 not converged, maximum delta is    0.012281672107615
 Root      4 not converged, maximum delta is    0.019215210499225
 Root      5 not converged, maximum delta is    0.021488527410958
 Root      6 not converged, maximum delta is    0.007412221664162
 Excitation Energies [eV] at current iteration:
 Root      1 :     3.255432814097152   Change is   -0.017548308711394
 Root      2 :     4.044558029687551   Change is   -0.012890645160429
 Root      3 :     4.207711138763322   Change is   -0.013611114230485
 Root      4 :     5.063698326542383   Change is   -0.020751210700881
 Root      5 :     5.492579314603618   Change is   -0.026885476574072
 Root      6 :     5.964599229182902   Change is   -0.005333571109551
 Iteration     4 Dimension    60 NMult    48 NNew     12
 CISAX will form    12 AO SS matrices at one time.
 NMat=    12 NSing=    12 JSym2X= 0.
 Root      1 not converged, maximum delta is    0.002120336018702
 Root      2 not converged, maximum delta is    0.002019050925711
 Root      3 not converged, maximum delta is    0.002104372933871
 Root      4 not converged, maximum delta is    0.002582243885377
 Root      5 not converged, maximum delta is    0.003362246391366
 Root      6 not converged, maximum delta is    0.002080361284937
 Excitation Energies [eV] at current iteration:
 Root      1 :     3.254057926580600   Change is   -0.001374887516552
 Root      2 :     4.043800257867193   Change is   -0.000757771820358
 Root      3 :     4.206823013548031   Change is   -0.000888125215291
 Root      4 :     5.061954630221660   Change is   -0.001743696320723
 Root      5 :     5.490020888570706   Change is   -0.002558426032912
 Root      6 :     5.964241352130484   Change is   -0.000357877052417
 Iteration     5 Dimension    72 NMult    60 NNew     12
 CISAX will form    12 AO SS matrices at one time.
 NMat=    12 NSing=    12 JSym2X= 0.
 Root      1 has converged.
 Root      2 has converged.
 Root      3 has converged.
 Root      4 has converged.
 Root      5 not converged, maximum delta is    0.001144593476821
 Root      6 has converged.
 Excitation Energies [eV] at current iteration:
 Root      1 :     3.253988367478959   Change is   -0.000069559101641
 Root      2 :     4.043750470957880   Change is   -0.000049786909314
 Root      3 :     4.206776879763603   Change is   -0.000046133784428
 Root      4 :     5.061825280518268   Change is   -0.000129349703392
 Root      5 :     5.489813408173313   Change is   -0.000207480397393
 Root      6 :     5.964210551573390   Change is   -0.000030800557095
 Iteration     6 Dimension    74 NMult    72 NNew      2
 CISAX will form     2 AO SS matrices at one time.
 NMat=     2 NSing=     2 JSym2X= 0.
 Root      1 has converged.
 Root      2 has converged.
 Root      3 has converged.
 Root      4 has converged.
 Root      5 has converged.
 Root      6 has converged.
 Excitation Energies [eV] at current iteration:
 Root      1 :     3.253988335036357   Change is   -0.000000032442603
 Root      2 :     4.043750444173022   Change is   -0.000000026784857
 Root      3 :     4.206776831523991   Change is   -0.000000048239612
 Root      4 :     5.061822507780109   Change is   -0.000002772738159
 Root      5 :     5.489793846983616   Change is   -0.000019561189696
 Root      6 :     5.964210284365110   Change is   -0.000000267208280
 Convergence achieved on expansion vectors.
 ***********************************************************************
 Excited states from <AA,BB:AA,BB> singles matrix:
 ***********************************************************************
 
 1PDM for each excited state written to RWF  633
 Ground to excited state transition densities written to RWF  633
 Ground to excited state transition electric dipole moments (Au):
       state          X           Y           Z        Dip. S.      Osc.
         1         1.4903      0.1435      0.0408      2.2431      0.1788
         2         0.0866     -0.0189      0.0385      0.0093      0.0009
         3        -0.0387     -0.1061      0.0293      0.0136      0.0014
         4         0.1432     -1.2704      0.0910      1.6427      0.2037
         5         0.0849     -1.5125      0.0403      2.2963      0.3089
         6        -0.0269      0.2356      0.0726      0.0615      0.0090
 Ground to excited state transition velocity dipole moments (Au):
       state          X           Y           Z        Dip. S.      Osc.
         1        -0.1709     -0.0130     -0.0055      0.0294      0.1640
         2        -0.0123      0.0032     -0.0026      0.0002      0.0008
         3         0.0057      0.0147     -0.0011      0.0002      0.0011
         4        -0.0301      0.2242     -0.0128      0.0513      0.1840
         5        -0.0181      0.2982     -0.0085      0.0893      0.2952
         6         0.0069     -0.0482     -0.0356      0.0036      0.0111
 Ground to excited state transition magnetic dipole moments (Au):
       state          X           Y           Z
         1        -0.0568     -0.0434      1.4546
         2         0.7919      0.1246      0.2556
         3        -0.1736     -0.9791     -0.2043
         4         0.0292      0.0664     -0.0223
         5         0.1730      0.1100     -0.2525
         6         0.0679      0.0127     -0.0273
 Ground to excited state transition velocity quadrupole moments (Au):
       state          XX          YY          ZZ          XY          XZ          YZ
         1        -0.1427      0.0801      0.0030      0.4909     -0.0490      0.0140
         2         0.0140     -0.0079     -0.0021      0.0387     -0.0121      0.0758
         3         0.0087      0.0016     -0.0226     -0.0547      0.0597     -0.0072
         4        -1.1326      0.2127     -0.0004     -0.0380     -0.0672     -0.0334
         5        -0.6874      0.2966      0.0442     -0.1842     -0.0704      0.0222
         6        -0.1490     -0.1879      0.1710     -0.0159     -0.0300      0.1160
 <0|del|b> * <b|rxdel|0> + <0|del|b> * <b|delr+rdel|0>
 Rotatory Strengths (R) in cgs (10**-40 erg-esu-cm/Gauss)
       state          XX          YY          ZZ    R(velocity)    E-M Angle
         1       -31.8080      5.9904     39.2938      4.4921       89.48
         2        -0.7811    -26.7960    -20.1685    -15.9152      156.60
         3       -34.2843     -1.9761    -33.0848    -23.1151      160.90
         4        58.4057     -0.1395     -3.9444     18.1073       33.77
         5       100.7307     -5.1747     15.9165     37.1575       70.90
         6        -0.8414      2.6950      0.8052      0.8863       79.41
 1/2[<0|r|b>*<b|rxdel|0> + (<0|rxdel|b>*<b|r|0>)*]
 Rotatory Strengths (R) in cgs (10**-40 erg-esu-cm/Gauss)
       state          XX          YY          ZZ     R(length)
         1        59.8385      4.4017    -41.9492      7.4303
         2       -48.5038      1.6639     -6.9585    -17.9328
         3        -4.7500    -73.4544      4.2351    -24.6564
         4        -2.9564     59.6306      1.4338     19.3693
         5       -10.3901    117.5995      7.2016     38.1370
         6         1.2908     -2.1241      1.4041      0.1902
  1/2[<0|del|b>*<b|r|0> + (<0|r|b>*<b|del|0>)*] (Au)
       state          X           Y           Z        Dip. S.   Osc.(frdel)
         1        -0.2547     -0.0019     -0.0002      0.2568      0.1712
         2        -0.0011     -0.0001     -0.0001      0.0012      0.0008
         3        -0.0002     -0.0016     -0.0000      0.0018      0.0012
         4        -0.0043     -0.2849     -0.0012      0.2903      0.1935
         5        -0.0015     -0.4510     -0.0003      0.4529      0.3019
         6        -0.0002     -0.0114     -0.0026      0.0141      0.0094

 Excitation energies and oscillator strengths:
 
 Excited State   1:      Singlet-A      3.2540 eV  381.02 nm  f=0.1788  <S**2>=0.000
      52 -> 53         0.70059
 This state for optimization and/or second-order correction.
 Total Energy, E(TD-HF/TD-DFT) =  -633.210378241    
 Copying the excited state density for this state as the 1-particle RhoCI density.
 
 Excited State   2:      Singlet-A      4.0438 eV  306.61 nm  f=0.0009  <S**2>=0.000
      50 -> 54        -0.18748
      51 -> 53         0.57429
      51 -> 54         0.31180
 
 Excited State   3:      Singlet-A      4.2068 eV  294.72 nm  f=0.0014  <S**2>=0.000
      49 -> 53        -0.30159
      49 -> 54         0.18312
      50 -> 53         0.49708
      50 -> 54        -0.22657
      50 -> 58         0.10487
      51 -> 54        -0.20916
 
 Excited State   4:      Singlet-A      5.0618 eV  244.94 nm  f=0.2037  <S**2>=0.000
      52 -> 54         0.69827
 
 Excited State   5:      Singlet-A      5.4898 eV  225.84 nm  f=0.3089  <S**2>=0.000
      49 -> 53         0.58183
      50 -> 53         0.34360
      51 -> 53         0.14268
 
 Excited State   6:      Singlet-A      5.9642 eV  207.88 nm  f=0.0090  <S**2>=0.000
      52 -> 55         0.66475
      52 -> 56        -0.14133
 SavETr:  write IOETrn=   770 NScale= 10 NData=  16 NLR=1 NState=    6 LETran=     118.
 Leave Link  914 at Sat Jan 24 16:13:08 2026, MaxMem=  2147483648 cpu:            2063.9 elap:             129.7
 (Enter /data/home/wyx/g16/l601.exe)
 Copying SCF densities to generalized density rwf, IOpCl= 0 IROHF=0.

 **********************************************************************

            Population analysis using the SCF density.

 **********************************************************************

 Orbital symmetries:
       Occupied  (A) (A) (A) (A) (A) (A) (A) (A) (A) (A) (A) (A)
                 (A) (A) (A) (A) (A) (A) (A) (A) (A) (A) (A) (A)
                 (A) (A) (A) (A) (A) (A) (A) (A) (A) (A) (A) (A)
                 (A) (A) (A) (A) (A) (A) (A) (A) (A) (A) (A) (A)
                 (A) (A) (A) (A)
       Virtual   (A) (A) (A) (A) (A) (A) (A) (A) (A) (A) (A) (A)
                 (A) (A) (A) (A) (A) (A) (A) (A) (A) (A) (A) (A)
                 (A) (A) (A) (A) (A) (A) (A) (A) (A) (A) (A) (A)
                 (A) (A) (A) (A) (A) (A) (A) (A) (A) (A) (A) (A)
                 (A) (A) (A) (A) (A) (A) (A) (A) (A) (A) (A) (A)
                 (A) (A) (A) (A) (A) (A) (A) (A) (A) (A) (A) (A)
                 (A) (A) (A) (A) (A) (A) (A) (A) (A) (A) (A) (A)
                 (A) (A) (A) (A) (A) (A) (A) (A) (A) (A) (A) (A)
                 (A) (A) (A) (A) (A) (A) (A) (A) (A) (A) (A) (A)
                 (A) (A) (A) (A) (A) (A) (A) (A) (A) (A) (A) (A)
                 (A) (A) (A) (A) (A) (A) (A) (A) (A) (A) (A) (A)
                 (A) (A) (A) (A) (A) (A) (A) (A) (A) (A) (A) (A)
                 (A) (A) (A) (A) (A) (A) (A) (A) (A) (A) (A) (A)
                 (A) (A) (A) (A) (A) (A) (A) (A) (A) (A) (A) (A)
                 (A) (A) (A) (A) (A) (A) (A) (A) (A) (A) (A) (A)
                 (A) (A) (A) (A) (A) (A) (A) (A) (A) (A) (A) (A)
                 (A) (A) (A) (A) (A) (A) (A) (A) (A) (A) (A) (A)
                 (A) (A) (A) (A) (A) (A) (A) (A) (A) (A) (A) (A)
                 (A) (A) (A) (A) (A) (A) (A) (A) (A) (A) (A) (A)
                 (A) (A) (A) (A) (A) (A) (A) (A) (A) (A) (A) (A)
                 (A) (A) (A) (A) (A) (A) (A) (A) (A) (A) (A) (A)
                 (A) (A) (A) (A) (A) (A) (A) (A) (A) (A) (A) (A)
                 (A) (A) (A) (A) (A) (A) (A) (A) (A) (A) (A) (A)
                 (A) (A) (A) (A) (A) (A) (A) (A) (A) (A) (A) (A)
                 (A) (A) (A) (A) (A) (A) (A) (A) (A) (A) (A) (A)
                 (A) (A) (A) (A)
 The electronic state is 1-A.
 Alpha  occ. eigenvalues --  -19.17935 -19.17313 -14.44362 -10.33458 -10.33052
 Alpha  occ. eigenvalues --  -10.32387 -10.31882 -10.25686 -10.25156 -10.24784
 Alpha  occ. eigenvalues --  -10.24686 -10.24622 -10.24149 -10.23710  -1.11760
 Alpha  occ. eigenvalues --   -1.11389  -1.08012  -0.91326  -0.90454  -0.83964
 Alpha  occ. eigenvalues --   -0.82594  -0.81607  -0.78579  -0.73913  -0.71673
 Alpha  occ. eigenvalues --   -0.68715  -0.61672  -0.58267  -0.56940  -0.55183
 Alpha  occ. eigenvalues --   -0.54553  -0.54052  -0.52597  -0.51865  -0.50813
 Alpha  occ. eigenvalues --   -0.49968  -0.49564  -0.49222  -0.48488  -0.48141
 Alpha  occ. eigenvalues --   -0.46972  -0.45405  -0.45100  -0.43635  -0.43136
 Alpha  occ. eigenvalues --   -0.42391  -0.42199  -0.41882  -0.32758  -0.32322
 Alpha  occ. eigenvalues --   -0.31401  -0.25669
 Alpha virt. eigenvalues --   -0.02856   0.02481   0.06511   0.08226   0.08749
 Alpha virt. eigenvalues --    0.10000   0.10757   0.11846   0.12681   0.13612
 Alpha virt. eigenvalues --    0.14014   0.15106   0.15732   0.16279   0.16992
 Alpha virt. eigenvalues --    0.17508   0.17969   0.18026   0.18290   0.19212
 Alpha virt. eigenvalues --    0.20078   0.22116   0.22999   0.23457   0.23757
 Alpha virt. eigenvalues --    0.24213   0.24798   0.25745   0.26082   0.26691
 Alpha virt. eigenvalues --    0.27014   0.27758   0.28912   0.29019   0.30213
 Alpha virt. eigenvalues --    0.31755   0.32010   0.32510   0.33601   0.34535
 Alpha virt. eigenvalues --    0.35131   0.36001   0.36646   0.38152   0.38546
 Alpha virt. eigenvalues --    0.39716   0.41013   0.41597   0.42096   0.42615
 Alpha virt. eigenvalues --    0.44151   0.44545   0.45460   0.46207   0.46257
 Alpha virt. eigenvalues --    0.47366   0.47893   0.48040   0.48322   0.49181
 Alpha virt. eigenvalues --    0.49614   0.50458   0.50905   0.51459   0.51636
 Alpha virt. eigenvalues --    0.52720   0.53098   0.53518   0.53907   0.54347
 Alpha virt. eigenvalues --    0.54630   0.55755   0.56091   0.56596   0.58477
 Alpha virt. eigenvalues --    0.58705   0.59378   0.60845   0.61142   0.62897
 Alpha virt. eigenvalues --    0.63590   0.65681   0.66275   0.66405   0.67835
 Alpha virt. eigenvalues --    0.68618   0.69961   0.71375   0.71941   0.72663
 Alpha virt. eigenvalues --    0.73252   0.74123   0.74769   0.75962   0.77765
 Alpha virt. eigenvalues --    0.78576   0.79832   0.82469   0.85431   0.86350
 Alpha virt. eigenvalues --    0.89803   0.93963   1.00602   1.01705   1.23535
 Alpha virt. eigenvalues --    1.25237   1.27228   1.27992   1.29533   1.31172
 Alpha virt. eigenvalues --    1.32611   1.32859   1.34097   1.34932   1.36228
 Alpha virt. eigenvalues --    1.36520   1.37431   1.38512   1.39171   1.39874
 Alpha virt. eigenvalues --    1.40078   1.40736   1.40809   1.41460   1.41831
 Alpha virt. eigenvalues --    1.43496   1.44046   1.44288   1.45155   1.47306
 Alpha virt. eigenvalues --    1.48079   1.49614   1.49736   1.50358   1.51150
 Alpha virt. eigenvalues --    1.51431   1.52485   1.52933   1.54656   1.57899
 Alpha virt. eigenvalues --    1.58460   1.60525   1.60751   1.61354   1.62498
 Alpha virt. eigenvalues --    1.62788   1.63285   1.64322   1.65040   1.65792
 Alpha virt. eigenvalues --    1.66954   1.67287   1.67852   1.68362   1.68499
 Alpha virt. eigenvalues --    1.68988   1.69998   1.70291   1.71625   1.72363
 Alpha virt. eigenvalues --    1.73873   1.75092   1.76180   1.76583   1.78654
 Alpha virt. eigenvalues --    1.80780   1.83211   1.84431   1.86276   1.86686
 Alpha virt. eigenvalues --    1.86916   1.87712   1.88507   1.89274   1.90632
 Alpha virt. eigenvalues --    1.91409   1.94691   1.95386   1.98841   1.99761
 Alpha virt. eigenvalues --    2.01358   2.03914   2.05176   2.06937   2.09678
 Alpha virt. eigenvalues --    2.11043   2.12533   2.15260   2.17386   2.19837
 Alpha virt. eigenvalues --    2.20360   2.21495   2.22040   2.23156   2.26093
 Alpha virt. eigenvalues --    2.27265   2.27838   2.29409   2.31260   2.32196
 Alpha virt. eigenvalues --    2.33701   2.34455   2.36756   2.37836   2.38379
 Alpha virt. eigenvalues --    2.39635   2.40311   2.41596   2.43397   2.45059
 Alpha virt. eigenvalues --    2.46151   2.47796   2.50109   2.50628   2.51594
 Alpha virt. eigenvalues --    2.52427   2.53895   2.54988   2.56920   2.58163
 Alpha virt. eigenvalues --    2.59091   2.60591   2.61567   2.62582   2.63240
 Alpha virt. eigenvalues --    2.64624   2.65918   2.66910   2.67588   2.68816
 Alpha virt. eigenvalues --    2.71844   2.72216   2.73178   2.74076   2.75441
 Alpha virt. eigenvalues --    2.75889   2.76923   2.77409   2.77984   2.79268
 Alpha virt. eigenvalues --    2.80645   2.81846   2.83176   2.83937   2.84337
 Alpha virt. eigenvalues --    2.85515   2.86552   2.88440   2.89724   2.91810
 Alpha virt. eigenvalues --    2.97453   2.99367   3.00803   3.05732   3.10779
 Alpha virt. eigenvalues --    3.12585   3.15447   3.17474   3.18184   3.20873
 Alpha virt. eigenvalues --    3.21591   3.22900   3.24360   3.25839   3.26845
 Alpha virt. eigenvalues --    3.27524   3.29801   3.33302   3.34378   3.36801
 Alpha virt. eigenvalues --    3.37471   3.39060   3.39831   3.40496   3.41940
 Alpha virt. eigenvalues --    3.42578   3.44917   3.45562   3.47198   3.48168
 Alpha virt. eigenvalues --    3.49444   3.50039   3.55390   3.58453   3.59817
 Alpha virt. eigenvalues --    3.60634   3.90646   4.00439   4.33457   4.35964
 Alpha virt. eigenvalues --   21.65655  21.80156  22.08315  22.10975  22.11914
 Alpha virt. eigenvalues --   22.15112  22.15447  22.18727  22.20306  22.24617
 Alpha virt. eigenvalues --   22.29007  31.92375  43.63346  43.65955
          Condensed to atoms (all electrons):
               1          2          3          4          5          6
     1  O    7.954422   0.000000  -0.000221   0.000018   0.018536   0.011954
     2  O    0.000000   7.986898   0.000367   0.000018  -0.202894   0.001153
     3  N   -0.000221   0.000367   6.374934   0.371048  -0.115888   0.332816
     4  H    0.000018   0.000018   0.371048   0.402495   0.016532  -0.045036
     5  C    0.018536  -0.202894  -0.115888   0.016532   7.081169  -0.073085
     6  C    0.011954   0.001153   0.332816  -0.045036  -0.073085   5.572235
     7  C   -0.000271  -0.039599   0.388896  -0.037426   0.424656  -0.110235
     8  C   -0.000448   0.714406   0.004285  -0.000755  -0.313806   0.030797
     9  C   -0.017968   0.022041   0.012351  -0.000146  -0.586435  -0.079280
    10  H    0.005707   0.000111   0.003887   0.000028  -0.035704  -0.019319
    11  H    0.013387   0.000012  -0.001381   0.000018  -0.116567   0.026670
    12  C   -0.227658  -0.002623  -0.090418   0.014762   0.167973  -0.105452
    13  C    0.713478  -0.000027   0.000937   0.000462   0.080295   0.145132
    14  C   -0.000007  -0.010777  -0.034004  -0.009705  -0.077963   0.010410
    15  H   -0.000000   0.004139   0.005014   0.001583   0.017806   0.006265
    16  H   -0.000000   0.002604  -0.002975   0.000909  -0.005744  -0.001676
    17  H   -0.000000   0.002548   0.000691   0.000783  -0.006473  -0.001005
    18  C    0.000093  -0.105212  -0.000537   0.000018  -0.264888   0.000318
    19  H   -0.000003   0.008689   0.000004  -0.000001   0.026290   0.000020
    20  H    0.000002   0.000910   0.000012  -0.000001   0.002592   0.000228
    21  H    0.000097   0.003975   0.000123   0.000001   0.043840  -0.001186
    22  C   -0.105964   0.000000  -0.000010   0.000111   0.004079  -0.019646
    23  H    0.004975  -0.000000   0.000041  -0.000054  -0.000693  -0.029702
    24  H    0.001338   0.000000  -0.000013  -0.000013  -0.000049   0.010358
    25  H    0.006857   0.000000   0.000029  -0.000002  -0.000150  -0.001020
    26  C    0.000870   0.000007  -0.027388  -0.006376   0.000084   0.186072
    27  H   -0.000244  -0.000000   0.002102   0.000812   0.000064  -0.046551
    28  H   -0.000052  -0.000000  -0.002507   0.000469   0.000389  -0.033142
    29  H    0.000024  -0.000000   0.001381   0.001372  -0.000431  -0.048506
               7          8          9         10         11         12
     1  O   -0.000271  -0.000448  -0.017968   0.005707   0.013387  -0.227658
     2  O   -0.039599   0.714406   0.022041   0.000111   0.000012  -0.002623
     3  N    0.388896   0.004285   0.012351   0.003887  -0.001381  -0.090418
     4  H   -0.037426  -0.000755  -0.000146   0.000028   0.000018   0.014762
     5  C    0.424656  -0.313806  -0.586435  -0.035704  -0.116567   0.167973
     6  C   -0.110235   0.030797  -0.079280  -0.019319   0.026670  -0.105452
     7  C    5.397978  -0.208944  -0.192864  -0.005718   0.017626   0.012006
     8  C   -0.208944   5.394356   0.140438  -0.004238  -0.008434  -0.040077
     9  C   -0.192864   0.140438   6.355724   0.399334   0.536910  -0.057146
    10  H   -0.005718  -0.004238   0.399334   0.569687  -0.043163  -0.018562
    11  H    0.017626  -0.008434   0.536910  -0.043163   0.521381  -0.110541
    12  C    0.012006  -0.040077  -0.057146  -0.018562  -0.110541   7.282286
    13  C    0.015450  -0.007841  -0.262097  -0.001094  -0.000463  -0.422793
    14  C    0.272061  -0.037675   0.008283  -0.001215   0.000572  -0.002316
    15  H   -0.077486   0.005437   0.000260   0.000062  -0.000004  -0.001296
    16  H   -0.021784  -0.000856   0.000742  -0.000065   0.000056   0.000593
    17  H   -0.029280  -0.007700  -0.000403   0.000199  -0.000059   0.000053
    18  C    0.001200   0.326715  -0.001113  -0.010866   0.008084  -0.002302
    19  H    0.000443  -0.054428  -0.001105   0.000022   0.000546  -0.000196
    20  H    0.000311  -0.024639  -0.009427   0.000865  -0.001486  -0.003109
    21  H    0.002027  -0.067160  -0.008611   0.002629  -0.006297   0.006982
    22  C    0.000174  -0.000075   0.007188   0.002236   0.000068  -0.247263
    23  H    0.000014  -0.000003   0.003450  -0.000164  -0.000016   0.063806
    24  H    0.000009   0.000002  -0.002189   0.000160  -0.000116  -0.012613
    25  H    0.000004   0.000004   0.000173  -0.000065  -0.000097   0.023178
    26  C    0.002729   0.000640   0.021676  -0.000743   0.000064  -0.082301
    27  H   -0.000776   0.000003  -0.000568  -0.000092   0.000006  -0.007342
    28  H   -0.000858  -0.000013  -0.000339  -0.000019   0.000047  -0.018656
    29  H    0.003428  -0.000007  -0.000535   0.000093  -0.000012   0.023068
              13         14         15         16         17         18
     1  O    0.713478  -0.000007  -0.000000  -0.000000  -0.000000   0.000093
     2  O   -0.000027  -0.010777   0.004139   0.002604   0.002548  -0.105212
     3  N    0.000937  -0.034004   0.005014  -0.002975   0.000691  -0.000537
     4  H    0.000462  -0.009705   0.001583   0.000909   0.000783   0.000018
     5  C    0.080295  -0.077963   0.017806  -0.005744  -0.006473  -0.264888
     6  C    0.145132   0.010410   0.006265  -0.001676  -0.001005   0.000318
     7  C    0.015450   0.272061  -0.077486  -0.021784  -0.029280   0.001200
     8  C   -0.007841  -0.037675   0.005437  -0.000856  -0.007700   0.326715
     9  C   -0.262097   0.008283   0.000260   0.000742  -0.000403  -0.001113
    10  H   -0.001094  -0.001215   0.000062  -0.000065   0.000199  -0.010866
    11  H   -0.000463   0.000572  -0.000004   0.000056  -0.000059   0.008084
    12  C   -0.422793  -0.002316  -0.001296   0.000593   0.000053  -0.002302
    13  C    5.495217   0.000034  -0.000030  -0.000015  -0.000002   0.000815
    14  C    0.000034   5.057966   0.390352   0.406452   0.420950   0.001273
    15  H   -0.000030   0.390352   0.567161  -0.024621  -0.027152   0.000250
    16  H   -0.000015   0.406452  -0.024621   0.509967  -0.027866   0.000047
    17  H   -0.000002   0.420950  -0.027152  -0.027866   0.512076  -0.000181
    18  C    0.000815   0.001273   0.000250   0.000047  -0.000181   5.335268
    19  H   -0.000010   0.000067  -0.000005  -0.000029   0.000035   0.392723
    20  H   -0.000118  -0.000247  -0.000005  -0.000007   0.000019   0.399527
    21  H    0.000657   0.000083  -0.000016   0.000001  -0.000038   0.379782
    22  C    0.290492  -0.000018   0.000002   0.000000  -0.000000   0.000032
    23  H   -0.094455   0.000001   0.000000   0.000000   0.000000   0.000002
    24  H   -0.021937  -0.000001   0.000000   0.000000  -0.000000  -0.000002
    25  H   -0.039731   0.000000   0.000000  -0.000000   0.000000  -0.000001
    26  C   -0.056319   0.001093   0.000135  -0.000137   0.000043   0.000017
    27  H   -0.004258   0.000080  -0.000011   0.000001  -0.000002  -0.000000
    28  H    0.006711  -0.000115  -0.000000  -0.000008   0.000004  -0.000001
    29  H   -0.000716  -0.000201   0.000116   0.000001  -0.000003   0.000000
              19         20         21         22         23         24
     1  O   -0.000003   0.000002   0.000097  -0.105964   0.004975   0.001338
     2  O    0.008689   0.000910   0.003975   0.000000  -0.000000   0.000000
     3  N    0.000004   0.000012   0.000123  -0.000010   0.000041  -0.000013
     4  H   -0.000001  -0.000001   0.000001   0.000111  -0.000054  -0.000013
     5  C    0.026290   0.002592   0.043840   0.004079  -0.000693  -0.000049
     6  C    0.000020   0.000228  -0.001186  -0.019646  -0.029702   0.010358
     7  C    0.000443   0.000311   0.002027   0.000174   0.000014   0.000009
     8  C   -0.054428  -0.024639  -0.067160  -0.000075  -0.000003   0.000002
     9  C   -0.001105  -0.009427  -0.008611   0.007188   0.003450  -0.002189
    10  H    0.000022   0.000865   0.002629   0.002236  -0.000164   0.000160
    11  H    0.000546  -0.001486  -0.006297   0.000068  -0.000016  -0.000116
    12  C   -0.000196  -0.003109   0.006982  -0.247263   0.063806  -0.012613
    13  C   -0.000010  -0.000118   0.000657   0.290492  -0.094455  -0.021937
    14  C    0.000067  -0.000247   0.000083  -0.000018   0.000001  -0.000001
    15  H   -0.000005  -0.000005  -0.000016   0.000002   0.000000   0.000000
    16  H   -0.000029  -0.000007   0.000001   0.000000   0.000000   0.000000
    17  H    0.000035   0.000019  -0.000038  -0.000000   0.000000  -0.000000
    18  C    0.392723   0.399527   0.379782   0.000032   0.000002  -0.000002
    19  H    0.507827  -0.009804  -0.022930  -0.000000   0.000000   0.000000
    20  H   -0.009804   0.493261  -0.024902  -0.000013  -0.000000   0.000000
    21  H   -0.022930  -0.024902   0.537562   0.000021  -0.000000  -0.000000
    22  C   -0.000000  -0.000013   0.000021   5.410646   0.398916   0.401953
    23  H    0.000000  -0.000000  -0.000000   0.398916   0.538470  -0.026023
    24  H    0.000000   0.000000  -0.000000   0.401953  -0.026023   0.488970
    25  H   -0.000000   0.000000  -0.000000   0.382953  -0.022336  -0.008449
    26  C    0.000000   0.000004  -0.000016  -0.030324   0.016213  -0.012355
    27  H   -0.000000   0.000000  -0.000000   0.006922  -0.008886  -0.000483
    28  H    0.000000  -0.000000  -0.000000  -0.011242  -0.001454   0.000976
    29  H    0.000000  -0.000000   0.000000   0.001937   0.000662   0.000176
              25         26         27         28         29
     1  O    0.006857   0.000870  -0.000244  -0.000052   0.000024
     2  O    0.000000   0.000007  -0.000000  -0.000000  -0.000000
     3  N    0.000029  -0.027388   0.002102  -0.002507   0.001381
     4  H   -0.000002  -0.006376   0.000812   0.000469   0.001372
     5  C   -0.000150   0.000084   0.000064   0.000389  -0.000431
     6  C   -0.001020   0.186072  -0.046551  -0.033142  -0.048506
     7  C    0.000004   0.002729  -0.000776  -0.000858   0.003428
     8  C    0.000004   0.000640   0.000003  -0.000013  -0.000007
     9  C    0.000173   0.021676  -0.000568  -0.000339  -0.000535
    10  H   -0.000065  -0.000743  -0.000092  -0.000019   0.000093
    11  H   -0.000097   0.000064   0.000006   0.000047  -0.000012
    12  C    0.023178  -0.082301  -0.007342  -0.018656   0.023068
    13  C   -0.039731  -0.056319  -0.004258   0.006711  -0.000716
    14  C    0.000000   0.001093   0.000080  -0.000115  -0.000201
    15  H    0.000000   0.000135  -0.000011  -0.000000   0.000116
    16  H   -0.000000  -0.000137   0.000001  -0.000008   0.000001
    17  H    0.000000   0.000043  -0.000002   0.000004  -0.000003
    18  C   -0.000001   0.000017  -0.000000  -0.000001   0.000000
    19  H   -0.000000   0.000000  -0.000000   0.000000   0.000000
    20  H    0.000000   0.000004   0.000000  -0.000000  -0.000000
    21  H   -0.000000  -0.000016  -0.000000  -0.000000   0.000000
    22  C    0.382953  -0.030324   0.006922  -0.011242   0.001937
    23  H   -0.022336   0.016213  -0.008886  -0.001454   0.000662
    24  H   -0.008449  -0.012355  -0.000483   0.000976   0.000176
    25  H    0.497456   0.001996   0.000726   0.000116  -0.000040
    26  C    0.001996   5.249418   0.429326   0.427975   0.389153
    27  H    0.000726   0.429326   0.506447  -0.026277  -0.025510
    28  H    0.000116   0.427975  -0.026277   0.475904  -0.016889
    29  H   -0.000040   0.389153  -0.025510  -0.016889   0.513080
 Mulliken charges:
               1
     1  O   -0.378922
     2  O   -0.386749
     3  N   -0.223578
     4  H    0.288077
     5  C   -0.083536
     6  C    0.280410
     7  C    0.186228
     8  C    0.160016
     9  C   -0.288342
    10  H    0.156008
    11  H    0.163191
    12  C   -0.142042
    13  C    0.162226
    14  C   -0.395435
    15  H    0.132043
    16  H    0.164411
    17  H    0.162762
    18  C   -0.461061
    19  H    0.151844
    20  H    0.176026
    21  H    0.153376
    22  C   -0.493175
    23  H    0.157234
    24  H    0.180299
    25  H    0.158399
    26  C   -0.511557
    27  H    0.174509
    28  H    0.198981
    29  H    0.158358
 Sum of Mulliken charges =  -0.00000
 Mulliken charges with hydrogens summed into heavy atoms:
               1
     1  O   -0.378922
     2  O   -0.386749
     3  N    0.064499
     5  C   -0.083536
     6  C    0.280410
     7  C    0.186228
     8  C    0.160016
     9  C    0.030856
    12  C   -0.142042
    13  C    0.162226
    14  C    0.063781
    18  C    0.020185
    22  C    0.002757
    26  C    0.020292
 Electronic spatial extent (au):  <R**2>=           3192.4458
 Charge=              0.0000 electrons
 Dipole moment (field-independent basis, Debye):
    X=             -4.1343    Y=              7.8343    Z=             -0.1535  Tot=              8.8596
 Quadrupole moment (field-independent basis, Debye-Ang):
   XX=            -98.5260   YY=            -78.0597   ZZ=            -84.9075
   XY=            -12.9033   XZ=             -5.1199   YZ=             -1.9735
 Traceless Quadrupole moment (field-independent basis, Debye-Ang):
   XX=            -11.3616   YY=              9.1047   ZZ=              2.2569
   XY=            -12.9033   XZ=             -5.1199   YZ=             -1.9735
 Octapole moment (field-independent basis, Debye-Ang**2):
  XXX=           -112.6071  YYY=             67.3395  ZZZ=              1.6874  XYY=             35.4580
  XXY=             33.1292  XXZ=             -8.3580  XZZ=             -1.8224  YZZ=             -0.9262
  YYZ=              3.8901  XYZ=              5.3428
 Hexadecapole moment (field-independent basis, Debye-Ang**3):
 XXXX=          -3050.5360 YYYY=          -1277.0869 ZZZZ=           -150.1118 XXXY=            -39.1668
 XXXZ=            -58.7396 YYYX=            -90.9715 YYYZ=            -21.8016 ZZZX=              2.9366
 ZZZY=              3.9822 XXYY=           -690.6260 XXZZ=           -482.7696 YYZZ=           -243.2071
 XXYZ=             -7.9223 YYXZ=             -8.3362 ZZXY=              0.4439
 N-N= 9.004698297043D+02 E-N=-3.276989685297D+03  KE= 6.307244352629D+02
 Leave Link  601 at Sat Jan 24 16:13:10 2026, MaxMem=  2147483648 cpu:               0.7 elap:               0.1
 (Enter /data/home/wyx/g16/l9999.exe)
 Electronic transition elements 
                 1             2             3             4             5 
      1  -0.633210D+03 -0.633181D+03 -0.633175D+03 -0.633144D+03 -0.633128D+03
      2  -0.141525D+01 -0.661634D-01  0.765384D-01  0.305445D+00  0.429291D+00
      3  -0.370008D+00 -0.474506D-01 -0.869732D-01 -0.124457D+01 -0.145213D+01
      4  -0.321428D+00 -0.520647D-01 -0.137896D-01 -0.202837D-01  0.580720D-01
      5   0.161000D+00  0.983216D-02 -0.103260D-01 -0.488254D-01 -0.835034D-01
      6   0.457266D-01  0.717927D-02  0.119182D-01  0.221269D+00  0.286767D+00
      7   0.374021D-01  0.453884D-02 -0.105565D-02  0.120796D-02 -0.106764D-01
      8   0.352174D+00 -0.722109D+00  0.443679D+00 -0.532598D-01 -0.245613D+00
      9  -0.346261D-01 -0.153306D+00 -0.860572D+00  0.527631D-01  0.471189D-01
     10  -0.141269D+01 -0.403813D+00  0.304982D+00  0.115822D-01  0.207917D+00
     11   0.202738D+00  0.291679D-01 -0.473760D-01 -0.936619D+00 -0.641595D+00
     12  -0.258830D+00 -0.313923D-01  0.377192D-01  0.827217D-01  0.300355D+00
     13  -0.345428D-02  0.628138D-02 -0.274759D-02 -0.664482D-01 -0.536950D-02
     14  -0.435539D+00 -0.758503D-02  0.388090D-01 -0.393846D+00 -0.159545D+00
     15   0.254202D-02  0.204317D-01  0.484559D-01 -0.258317D+00 -0.194518D+00
     16  -0.115083D+00 -0.781309D-01  0.347404D-01 -0.707327D-01 -0.799175D-01
                 6 
      1  -0.633111D+03
      2  -0.387875D-01
      3   0.230124D+00
      4  -0.839589D-01
      5   0.261109D-02
      6  -0.473779D-01
      7   0.372335D-01
      8  -0.722772D-01
      9  -0.107610D-01
     10   0.135081D-01
     11  -0.154786D+00
     12  -0.175428D+00
     13   0.164293D+00
     14   0.470731D-01
     15  -0.547276D-01
     16  -0.109061D+00
 1\1\GINC-CN012\SP\RCAM-B3LYP TD-FC\TZVP\C11H15N1O2\WYX\24-Jan-2026\0\\
 #p CAM-B3LYP TZVP em=gd3bj td(nstates=6,root=1) scrf=(Solvent=Water)\\
 Title Card Required\\0,1\O,0,2.731446,-1.559025,0.805109\O,0,-3.266936
 ,-1.651616,-1.004444\N,0,-0.696354,1.51519,0.032481\H,0,-1.00471,2.474
 313,-0.030318\C,0,-1.250647,-0.760918,-0.163145\C,0,0.642372,1.317886,
 0.242356\C,0,-1.623792,0.560097,-0.258912\C,0,-2.158305,-1.842646,-0.5
 05858\C,0,0.108873,-1.092933,0.355795\H,0,0.033753,-1.473973,1.386387\
 H,0,0.531527,-1.938118,-0.190234\C,0,1.099331,0.025917,0.336047\C,0,2.
 485909,-0.393094,0.485694\C,0,-2.959338,1.093494,-0.642863\H,0,-3.0253
 59,2.161913,-0.451497\H,0,-3.157484,0.926836,-1.697558\H,0,-3.753387,0
 .593636,-0.101298\C,0,-1.712386,-3.25696,-0.251985\H,0,-2.563792,-3.92
 4326,-0.318211\H,0,-0.984234,-3.566158,-0.999507\H,0,-1.24039,-3.37978
 ,0.717833\C,0,3.64832,0.531317,0.220912\H,0,3.458863,1.239628,-0.58100
 3\H,0,3.899446,1.094936,1.121511\H,0,4.508248,-0.083327,-0.036219\C,0,
 1.415987,2.59013,0.359633\H,0,2.199924,2.520853,1.103926\H,0,1.874287,
 2.869886,-0.588494\H,0,0.758828,3.406843,0.653862\\Version=ES64L-G16Re
 vA.03\State=1-A\HF=-633.3299601\RMSD=4.477e-09\PG=C01 [X(C11H15N1O2)]\
 \@


 THERE IS NO SCIENCE WITHOUT FANCY, NOR ART WITHOUT FACTS.
     -- VLADIMIR NABAKOV
 Job cpu time:       0 days  0 hours 52 minutes  5.4 seconds.
 Elapsed time:       0 days  0 hours  3 minutes 17.4 seconds.
 File lengths (MBytes):  RWF=    833 Int=      0 D2E=      0 Chk=     34 Scr=      1
 Normal termination of Gaussian 16 at Sat Jan 24 16:13:13 2026.
