 Entering Gaussian System, Link 0=g16
 Input=DDL-S1-cLR-gs-6.gjf
 Output=DDL-S1-cLR-gs-6.log
 Initial command:
 /data/home/wyx/g16/l1.exe "/scr/tmp/wyx/13117/Gau-2032755.inp" -scrdir="/scr/tmp/wyx/13117/"
 Entering Link 1 = /data/home/wyx/g16/l1.exe PID=   2032756.
  
 Copyright (c) 1988,1990,1992,1993,1995,1998,2003,2009,2016,
            Gaussian, Inc.  All Rights Reserved.
  
 This is part of the Gaussian(R) 16 program.  It is based on
 the Gaussian(R) 09 system (copyright 2009, Gaussian, Inc.),
 the Gaussian(R) 03 system (copyright 2003, Gaussian, Inc.),
 the Gaussian(R) 98 system (copyright 1998, Gaussian, Inc.),
 the Gaussian(R) 94 system (copyright 1995, Gaussian, Inc.),
 the Gaussian 92(TM) system (copyright 1992, Gaussian, Inc.),
 the Gaussian 90(TM) system (copyright 1990, Gaussian, Inc.),
 the Gaussian 88(TM) system (copyright 1988, Gaussian, Inc.),
 the Gaussian 86(TM) system (copyright 1986, Carnegie Mellon
 University), and the Gaussian 82(TM) system (copyright 1983,
 Carnegie Mellon University). Gaussian is a federally registered
 trademark of Gaussian, Inc.
  
 This software contains proprietary and confidential information,
 including trade secrets, belonging to Gaussian, Inc.
  
 This software is provided under written license and may be
 used, copied, transmitted, or stored only in accord with that
 written license.
  
 The following legend is applicable only to US Government
 contracts under FAR:
  
                    RESTRICTED RIGHTS LEGEND
  
 Use, reproduction and disclosure by the US Government is
 subject to restrictions as set forth in subparagraphs (a)
 and (c) of the Commercial Computer Software - Restricted
 Rights clause in FAR 52.227-19.
  
 Gaussian, Inc.
 340 Quinnipiac St., Bldg. 40, Wallingford CT 06492
  
  
 ---------------------------------------------------------------
 Warning -- This program may not be used in any manner that
 competes with the business of Gaussian, Inc. or will provide
 assistance to any competitor of Gaussian, Inc.  The licensee
 of this program is prohibited from giving any competitor of
 Gaussian, Inc. access to this program.  By using this program,
 the user acknowledges that Gaussian, Inc. is engaged in the
 business of creating and licensing software in the field of
 computational chemistry and represents and warrants to the
 licensee that it is not a competitor of Gaussian, Inc. and that
 it will not use this program in any manner prohibited above.
 ---------------------------------------------------------------
  

 Cite this work as:
 Gaussian 16, Revision A.03,
 M. J. Frisch, G. W. Trucks, H. B. Schlegel, G. E. Scuseria, 
 M. A. Robb, J. R. Cheeseman, G. Scalmani, V. Barone, 
 G. A. Petersson, H. Nakatsuji, X. Li, M. Caricato, A. V. Marenich, 
 J. Bloino, B. G. Janesko, R. Gomperts, B. Mennucci, H. P. Hratchian, 
 J. V. Ortiz, A. F. Izmaylov, J. L. Sonnenberg, D. Williams-Young, 
 F. Ding, F. Lipparini, F. Egidi, J. Goings, B. Peng, A. Petrone, 
 T. Henderson, D. Ranasinghe, V. G. Zakrzewski, J. Gao, N. Rega, 
 G. Zheng, W. Liang, M. Hada, M. Ehara, K. Toyota, R. Fukuda, 
 J. Hasegawa, M. Ishida, T. Nakajima, Y. Honda, O. Kitao, H. Nakai, 
 T. Vreven, K. Throssell, J. A. Montgomery, Jr., J. E. Peralta, 
 F. Ogliaro, M. J. Bearpark, J. J. Heyd, E. N. Brothers, K. N. Kudin, 
 V. N. Staroverov, T. A. Keith, R. Kobayashi, J. Normand, 
 K. Raghavachari, A. P. Rendell, J. C. Burant, S. S. Iyengar, 
 J. Tomasi, M. Cossi, J. M. Millam, M. Klene, C. Adamo, R. Cammi, 
 J. W. Ochterski, R. L. Martin, K. Morokuma, O. Farkas, 
 J. B. Foresman, and D. J. Fox, Gaussian, Inc., Wallingford CT, 2016.
 
 ******************************************
 Gaussian 16:  ES64L-G16RevA.03 25-Dec-2016
                24-Jan-2026 
 ******************************************
 %nprocshared=16
 Will use up to   16 processors via shared memory.
 %mem=16GB
 %oldchk=DDL-S1-cLR-6.chk
 %chk=DDL-S1-cLR-gs-6.chk
 Copying data from "DDL-S1-cLR-6.chk" to current chk file "DDL-S1-cLR-gs-6.chk"
 IOpt=  2 FromEx=T IUOpen= 4 IOptOp= 5 NList=   0 IFRang= 0 IUIn= 4 IUOut= 2.
 ----------------------------------------------------------------------
 #p CAM-B3LYP TZVP em=gd3bj scrf=(Solvent=Water,NonEquilibrium=Read) Ge
 om=Check Guess=Read
 ----------------------------------------------------------------------
 1/29=2,38=1,172=1/1;
 2/12=2,40=1/2;
 3/5=19,7=101,11=2,14=-4,25=1,30=1,70=6002201,72=1,74=-40,116=-2,124=41/1,2,3;
 4/5=1/1;
 5/5=2,38=6,53=1/2;
 6/7=2,8=2,9=2,10=2,28=1/1;
 99/5=1,9=1/99;
 Leave Link    1 at Sat Jan 24 22:56:44 2026, MaxMem=  2147483648 cpu:               0.8 elap:               0.1
 (Enter /data/home/wyx/g16/l101.exe)
 -------------------
 Title Card Required
 -------------------
 Structure from the checkpoint file:  "DDL-S1-cLR-gs-6.chk"
 Charge =  0 Multiplicity = 1
 Z-Matrix found in chk file.
 O,0,2.723612,-1.559339,0.838605
 O,0,-3.287981,-1.657495,-0.948903
 N,0,-0.689013,1.515977,-0.015866
 H,0,-0.997426,2.476004,-0.081568
 C,0,-1.251839,-0.762398,-0.169093
 C,0,0.64318,1.326988,0.220841
 C,0,-1.626085,0.568383,-0.276262
 C,0,-2.162079,-1.846914,-0.483168
 C,0,0.115209,-1.086195,0.314371
 H,0,0.058564,-1.497952,1.336283
 H,0,0.534969,-1.922424,-0.250996
 C,0,1.10252,0.026437,0.323397
 C,0,2.482619,-0.394545,0.50146
 C,0,-2.969463,1.098512,-0.63534
 H,0,-3.017506,2.175553,-0.491334
 H,0,-3.212144,0.884777,-1.671995
 H,0,-3.747187,0.63523,-0.038845
 C,0,-1.705223,-3.262587,-0.251651
 H,0,-2.563938,-3.924306,-0.259636
 H,0,-1.032521,-3.579516,-1.046975
 H,0,-1.171543,-3.389446,0.684856
 C,0,3.648997,0.527161,0.24436
 H,0,3.464605,1.241184,-0.55362
 H,0,3.902295,1.084138,1.148732
 H,0,4.506894,-0.08932,-0.015928
 C,0,1.415218,2.596504,0.365194
 H,0,2.167711,2.522705,1.142124
 H,0,1.916293,2.875658,-0.561537
 H,0,0.751262,3.417227,0.632495
 Recover connectivity data from disk.
 ITRead=  0  0  0  0  0  0  0  0  0  0  0  0  0  0  0  0  0  0  0  0
 ITRead=  0  0  0  0  0  0  0  0  0
 MicOpt= -1 -1 -1 -1 -1 -1 -1 -1 -1 -1 -1 -1 -1 -1 -1 -1 -1 -1 -1 -1
 MicOpt= -1 -1 -1 -1 -1 -1 -1 -1 -1
 NAtoms=     29 NQM=       29 NQMF=       0 NMMI=      0 NMMIF=      0
                NMic=       0 NMicF=      0.
                    Isotopes and Nuclear Properties:
 (Nuclear quadrupole moments (NQMom) in fm**2, nuclear magnetic moments (NMagM)
  in nuclear magnetons)

  Atom         1           2           3           4           5           6           7           8           9          10
 IAtWgt=          16          16          14           1          12          12          12          12          12           1
 AtmWgt=  15.9949146  15.9949146  14.0030740   1.0078250  12.0000000  12.0000000  12.0000000  12.0000000  12.0000000   1.0078250
 NucSpn=           0           0           2           1           0           0           0           0           0           1
 AtZEff=   5.6000000   5.6000000   4.5500000   1.0000000   3.6000000   3.6000000   3.6000000   3.6000000   3.6000000   1.0000000
 NQMom=    0.0000000   0.0000000   2.0440000   0.0000000   0.0000000   0.0000000   0.0000000   0.0000000   0.0000000   0.0000000
 NMagM=    0.0000000   0.0000000   0.4037610   2.7928460   0.0000000   0.0000000   0.0000000   0.0000000   0.0000000   2.7928460
 AtZNuc=   8.0000000   8.0000000   7.0000000   1.0000000   6.0000000   6.0000000   6.0000000   6.0000000   6.0000000   1.0000000

  Atom        11          12          13          14          15          16          17          18          19          20
 IAtWgt=           1          12          12          12           1           1           1          12           1           1
 AtmWgt=   1.0078250  12.0000000  12.0000000  12.0000000   1.0078250   1.0078250   1.0078250  12.0000000   1.0078250   1.0078250
 NucSpn=           1           0           0           0           1           1           1           0           1           1
 AtZEff=   1.0000000   3.6000000   3.6000000   3.6000000   1.0000000   1.0000000   1.0000000   3.6000000   1.0000000   1.0000000
 NQMom=    0.0000000   0.0000000   0.0000000   0.0000000   0.0000000   0.0000000   0.0000000   0.0000000   0.0000000   0.0000000
 NMagM=    2.7928460   0.0000000   0.0000000   0.0000000   2.7928460   2.7928460   2.7928460   0.0000000   2.7928460   2.7928460
 AtZNuc=   1.0000000   6.0000000   6.0000000   6.0000000   1.0000000   1.0000000   1.0000000   6.0000000   1.0000000   1.0000000

  Atom        21          22          23          24          25          26          27          28          29
 IAtWgt=           1          12           1           1           1          12           1           1           1
 AtmWgt=   1.0078250  12.0000000   1.0078250   1.0078250   1.0078250  12.0000000   1.0078250   1.0078250   1.0078250
 NucSpn=           1           0           1           1           1           0           1           1           1
 AtZEff=   1.0000000   3.6000000   1.0000000   1.0000000   1.0000000   3.6000000   1.0000000   1.0000000   1.0000000
 NQMom=    0.0000000   0.0000000   0.0000000   0.0000000   0.0000000   0.0000000   0.0000000   0.0000000   0.0000000
 NMagM=    2.7928460   0.0000000   2.7928460   2.7928460   2.7928460   0.0000000   2.7928460   2.7928460   2.7928460
 AtZNuc=   1.0000000   6.0000000   1.0000000   1.0000000   1.0000000   6.0000000   1.0000000   1.0000000   1.0000000
 Leave Link  101 at Sat Jan 24 22:56:48 2026, MaxMem=  2147483648 cpu:               0.8 elap:               0.1
 (Enter /data/home/wyx/g16/l202.exe)
                          Input orientation:                          
 ---------------------------------------------------------------------
 Center     Atomic      Atomic             Coordinates (Angstroms)
 Number     Number       Type             X           Y           Z
 ---------------------------------------------------------------------
      1          8           0        2.723612   -1.559339    0.838605
      2          8           0       -3.287981   -1.657495   -0.948903
      3          7           0       -0.689013    1.515977   -0.015866
      4          1           0       -0.997426    2.476004   -0.081568
      5          6           0       -1.251839   -0.762398   -0.169093
      6          6           0        0.643180    1.326988    0.220841
      7          6           0       -1.626085    0.568383   -0.276262
      8          6           0       -2.162079   -1.846914   -0.483168
      9          6           0        0.115209   -1.086195    0.314371
     10          1           0        0.058564   -1.497952    1.336283
     11          1           0        0.534969   -1.922424   -0.250996
     12          6           0        1.102520    0.026437    0.323397
     13          6           0        2.482619   -0.394545    0.501460
     14          6           0       -2.969463    1.098512   -0.635340
     15          1           0       -3.017506    2.175553   -0.491334
     16          1           0       -3.212144    0.884777   -1.671995
     17          1           0       -3.747187    0.635230   -0.038845
     18          6           0       -1.705223   -3.262587   -0.251651
     19          1           0       -2.563938   -3.924306   -0.259636
     20          1           0       -1.032521   -3.579516   -1.046975
     21          1           0       -1.171543   -3.389446    0.684856
     22          6           0        3.648997    0.527161    0.244360
     23          1           0        3.464605    1.241184   -0.553620
     24          1           0        3.902295    1.084138    1.148732
     25          1           0        4.506894   -0.089320   -0.015928
     26          6           0        1.415218    2.596504    0.365194
     27          1           0        2.167711    2.522705    1.142124
     28          1           0        1.916293    2.875658   -0.561537
     29          1           0        0.751262    3.417227    0.632495
 ---------------------------------------------------------------------
                    Distance matrix (angstroms):
                    1          2          3          4          5
     1  O    0.000000
     2  O    6.272485   0.000000
     3  N    4.672654   4.206675   0.000000
     4  H    5.565684   4.804657   1.010489   0.000000
     5  C    4.177892   2.356942   2.351860   3.249559   0.000000
     6  C    3.611193   5.072422   1.366194   2.025655   2.847574
     7  C    4.968903   2.858125   1.357882   2.017953   1.386551
     8  C    5.069493   1.233063   3.700990   4.495033   1.450295
     9  C    2.702305   3.674772   2.743561   3.752864   1.485733
    10  H    2.711814   4.055477   3.386879   4.349453   2.127053
    11  H    2.471683   3.895152   3.657324   4.660806   2.131913
    12  C    2.325524   4.871434   2.354447   3.251792   2.531366
    13  C    1.236321   6.082633   3.738579   4.548702   3.811972
    14  C    6.453510   2.792015   2.399683   2.468416   2.574996
    15  H    6.977005   3.869726   2.466372   2.083003   3.442815
    16  H    6.892751   2.644194   3.083402   3.156966   2.968955
    17  H    6.888925   2.509116   3.182557   3.309299   2.863056
    18  C    4.868705   2.359577   4.891109   5.784577   2.542306
    19  H    5.895540   2.477450   5.759466   6.591634   3.424539
    20  H    4.663160   2.964942   5.210109   6.132093   2.958873
    21  H    4.306410   3.185613   4.978657   5.917873   2.763523
    22  C    2.358590   7.370092   4.456883   5.049105   5.084496
    23  H    3.214077   7.359076   4.197289   4.653744   5.138779
    24  H    2.910918   7.976007   4.756352   5.240057   5.631292
    25  H    2.463996   8.005604   5.438238   6.073116   5.799957
    26  C    4.382584   6.476375   2.395941   2.456617   4.322138
    27  H    4.130888   7.184082   3.242733   3.393773   4.919808
    28  H    4.720314   6.912597   2.988998   2.979908   4.840095
    29  H    5.357131   6.676010   2.471743   2.110378   4.703639
                    6          7          8          9         10
     6  C    0.000000
     7  C    2.443800   0.000000
     8  C    4.294038   2.482692   0.000000
     9  C    2.472034   2.473576   2.529981   0.000000
    10  H    3.092939   3.115780   2.891960   1.103203   0.000000
    11  H    3.285273   3.297713   2.708076   1.093214   1.710729
    12  C    1.383092   2.845801   3.849363   1.487553   2.107023
    13  C    2.534947   4.291099   4.965087   2.473462   2.791143
    14  C    3.719736   1.488166   3.057868   3.897447   4.449480
    15  H    3.824641   2.136657   4.112428   4.593698   5.128063
    16  H    4.317627   2.136296   3.158810   4.347604   5.042288
    17  H    4.452111   2.135394   2.978427   4.243368   4.574405
    18  C    5.177108   3.831866   1.505473   2.893274   2.957434
    19  H    6.171916   4.589564   2.127678   3.944894   3.913013
    20  H    5.337519   4.260444   2.143756   3.063853   3.347132
    21  H    5.074769   4.098142   2.173671   2.664199   2.348461
    22  C    3.110500   5.300871   6.319346   3.885290   4.264339
    23  H    2.927045   5.142442   6.418792   4.169959   4.761902
    24  H    3.397321   5.732329   6.930425   4.443931   4.634289
    25  H    4.121926   6.173636   6.912500   4.515502   4.858020
    26  C    1.492833   3.711370   5.767212   3.905749   4.421323
    27  H    2.145390   4.497119   6.362564   4.233450   4.544434
    28  H    2.152048   4.237138   6.240348   4.439301   5.116771
    29  H    2.133129   3.820148   6.119105   4.559230   5.013395
                   11         12         13         14         15
    11  H    0.000000
    12  C    2.109526   0.000000
    13  C    2.587266   1.453824   0.000000
    14  C    4.642717   4.318514   5.765998   0.000000
    15  H    5.428744   4.717743   6.151619   1.087687   0.000000
    16  H    4.892900   4.830596   6.228234   1.085924   1.760099
    17  H    4.992340   4.901174   6.337417   1.084108   1.763456
    18  C    2.610459   4.362543   5.131361   4.556831   5.599366
    19  H    3.689286   5.421366   6.205338   5.053148   6.121086
    20  H    2.415898   4.408993   4.989780   5.079875   6.113078
    21  H    2.437243   4.119499   4.728210   5.011706   5.979985
    22  C    3.992870   2.596443   1.508668   6.701069   6.906570
    23  H    4.322356   2.797180   2.180160   6.436168   6.549404
    24  H    4.726260   3.104617   2.149638   7.099590   7.194765
    25  H    4.380835   3.423201   2.111526   7.595428   7.872246
    26  C    4.644915   2.589357   3.178724   4.740303   4.534301
    27  H    4.936173   2.834837   3.003326   5.619454   5.447493
    28  H    5.002608   3.092474   3.484956   5.199453   4.983718
    29  H    5.416568   3.422920   4.188600   4.563731   4.124119
                   16         17         18         19         20
    16  H    0.000000
    17  H    1.736584   0.000000
    18  C    4.635603   4.405438   0.000000
    19  H    5.053930   4.715739   1.084125   0.000000
    20  H    5.007127   5.113690   1.088812   1.756138   0.000000
    21  H    5.290348   4.832774   1.085335   1.765476   1.747768
    22  C    7.132711   7.402393   6.578441   7.659643   6.359949
    23  H    6.779142   7.255489   6.863109   7.944309   6.611104
    24  H    7.655814   7.754124   7.231829   8.299408   7.136050
    25  H    7.954557   8.285852   6.979655   8.047557   6.627944
    26  C    5.337849   5.537172   6.666828   7.664532   6.791824
    27  H    6.288475   6.320069   7.100129   8.118952   7.229851
    28  H    5.612271   6.112915   7.133685   8.148811   7.113398
    29  H    5.237611   5.331627   7.171886   8.104601   7.413293
                   21         22         23         24         25
    21  H    0.000000
    22  C    6.226673   0.000000
    23  H    6.668615   1.086555   0.000000
    24  H    6.780263   1.091912   1.764720   0.000000
    25  H    6.605042   1.088019   1.773618   1.760391   0.000000
    26  C    6.528791   3.047384   2.623185   3.014421   4.113072
    27  H    6.805383   2.642420   2.489935   2.253508   3.692633
    28  H    7.095051   3.027734   2.251408   3.174708   3.974921
    29  H    7.073240   4.110961   3.674815   3.954594   5.178909
                   26         27         28         29
    26  C    0.000000
    27  H    1.084118   0.000000
    28  H    1.089878   1.757910   0.000000
    29  H    1.088978   1.751062   1.753940   0.000000
 Stoichiometry    C11H15NO2
 Framework group  C1[X(C11H15NO2)]
 Deg. of freedom    81
 Full point group                 C1      NOp   1
 RotChk:  IX=0 Diff= 6.17D-16
 Largest Abelian subgroup         C1      NOp   1
 Largest concise Abelian subgroup C1      NOp   1
                         Standard orientation:                         
 ---------------------------------------------------------------------
 Center     Atomic      Atomic             Coordinates (Angstroms)
 Number     Number       Type             X           Y           Z
 ---------------------------------------------------------------------
      1          8           0       -2.288347   -2.284625   -0.249177
      2          8           0        3.619884   -0.256541    0.319817
      3          7           0       -0.022557    1.800079   -0.126336
      4          1           0       -0.050614    2.810132   -0.135910
      5          6           0        1.295659   -0.146343   -0.055698
      6          6           0       -1.231719    1.165004   -0.093257
      7          6           0        1.210481    1.237528   -0.042695
      8          6           0        2.559947   -0.842302    0.087735
      9          6           0        0.055276   -0.939321   -0.255792
     10          1           0        0.062018   -1.389222   -1.263066
     11          1           0        0.052782   -1.819450    0.392655
     12          6           0       -1.234516   -0.218063   -0.085386
     13          6           0       -2.398831   -1.082544    0.017812
     14          6           0        2.336707    2.206990    0.037290
     15          1           0        1.990681    3.224809   -0.128161
     16          1           0        2.820649    2.168024    1.008635
     17          1           0        3.103748    1.979697   -0.694336
     18          6           0        2.575059   -2.343109   -0.029719
     19          1           0        3.593369   -2.682490   -0.182007
     20          1           0        2.204903   -2.799606    0.886855
     21          1           0        1.955713   -2.712451   -0.840861
     22          6           0       -3.741263   -0.578752    0.487013
     23          1           0       -3.668168    0.217124    1.223111
     24          1           0       -4.327194   -0.209810   -0.357285
     25          1           0       -4.277898   -1.420526    0.919709
     26          6           0       -2.400258    2.093992   -0.100091
     27          1           0       -3.210759    1.715225   -0.712411
     28          1           0       -2.789790    2.265293    0.903280
     29          1           0       -2.113087    3.063559   -0.504253
 ---------------------------------------------------------------------
 Rotational constants (GHZ):           1.0761672           0.4902817           0.3441075
 Leave Link  202 at Sat Jan 24 22:56:48 2026, MaxMem=  2147483648 cpu:               0.0 elap:               0.0
 (Enter /data/home/wyx/g16/l301.exe)
 Standard basis: TZVP (5D, 7F)
 Ernie: Thresh=  0.10000D-02 Tol=  0.10000D-05 Strict=F.
 There are   370 symmetry adapted cartesian basis functions of A   symmetry.
 There are   356 symmetry adapted basis functions of A   symmetry.
   356 basis functions,   610 primitive gaussians,   370 cartesian basis functions
    52 alpha electrons       52 beta electrons
       nuclear repulsion energy       899.9447102557 Hartrees.
 IExCor=20419 DFT=T Ex+Corr=CAM-B3LYP ExCW=0 ScaHFX=  1.000000
 ScaDFX=  1.000000  1.000000  1.000000  0.810000 ScalE2=  1.000000  1.000000
 IRadAn=      5 IRanWt=     -1 IRanGd=            0 ICorTp=0 IEmpDi=141
 HFx  wShort=  0.000000 wLong=  0.330000 cFull=  0.190000 cShort=  0.000000 cLong=  0.460000
 DFx  wShort=  0.000000 wLong=  0.330000 cFull=  0.190000 cShort=  0.000000 cLong=  0.460000
 NAtoms=   29 NActive=   29 NUniq=   29 SFac= 1.00D+00 NAtFMM=   60 NAOKFM=F Big=F
 Integral buffers will be    131072 words long.
 Raffenetti 2 integral format.
 Two-electron integral symmetry is turned on.
 R6Disp:  Grimme-D3(BJ) Dispersion energy=       -0.0261585830 Hartrees.
 Nuclear repulsion after empirical dispersion term =      899.9185516727 Hartrees.
 ------------------------------------------------------------------------------
 Polarizable Continuum Model (PCM)
 =================================
 Model                : PCM.
 Atomic radii         : UFF (Universal Force Field).
 Polarization charges : Total charges.
 Charge compensation  : None.
 Solution method      : On-the-fly selection.
 Cavity type          : Scaled VdW (van der Waals Surface) (Alpha=1.100).
 Cavity algorithm     : GePol (No added spheres)
                        Default sphere list used, NSphG=   29.
                        Lebedev-Laikov grids with approx.  5.0 points / Ang**2.
                        Smoothing algorithm: York/Karplus (Gamma=1.0000).
                        Polarization charges: spherical gaussians, with
                                              point-specific exponents (IZeta= 3).
                        Self-potential: point-specific (ISelfS= 7).
                        Self-field    : sphere-specific E.n sum rule (ISelfD= 2).
 Solvent              : Water, Eps=  78.355300 Eps(inf)=   1.777849
 ------------------------------------------------------------------------------
 GePol: Number of generator spheres                  =      29
 GePol: Total number of spheres                      =      29
 GePol: Number of exposed spheres                    =      29 (100.00%)
 GePol: Number of points                             =    2126
 GePol: Average weight of points                     =       0.13
 GePol: Minimum weight of points                     =   0.18D-11
 GePol: Maximum weight of points                     =    0.20577
 GePol: Number of points with low weight             =     138
 GePol: Fraction of low-weight points (<1% of avg)   =       6.49%
 GePol: Cavity surface area                          =    268.919 Ang**2
 GePol: Cavity volume                                =    286.938 Ang**3
 Leave Link  301 at Sat Jan 24 22:56:48 2026, MaxMem=  2147483648 cpu:               0.6 elap:               0.0
 (Enter /data/home/wyx/g16/l302.exe)
 NPDir=0 NMtPBC=     1 NCelOv=     1 NCel=       1 NClECP=     1 NCelD=      1
         NCelK=      1 NCelE2=     1 NClLst=     1 CellRange=     0.0.
 One-electron integrals computed using PRISM.
 One-electron integral symmetry used in STVInt
 NBasis=   356 RedAO= T EigKep=  4.46D-05  NBF=   356
 NBsUse=   356 1.00D-06 EigRej= -1.00D+00 NBFU=   356
 Precomputing XC quadrature grid using
 IXCGrd= 4 IRadAn=           5 IRanWt=          -1 IRanGd=           0 AccXCQ= 0.00D+00.
 Generated NRdTot=       0 NPtTot=           0 NUsed=           0 NTot=          32
 NSgBfM=   366   366   366   366   366 MxSgAt=    29 MxSgA2=    29.
 Leave Link  302 at Sat Jan 24 22:56:49 2026, MaxMem=  2147483648 cpu:               3.1 elap:               0.2
 (Enter /data/home/wyx/g16/l303.exe)
 DipDrv:  MaxL=1.
 Leave Link  303 at Sat Jan 24 22:56:49 2026, MaxMem=  2147483648 cpu:               0.6 elap:               0.0
 (Enter /data/home/wyx/g16/l401.exe)
 Initial guess from the checkpoint file:  "DDL-S1-cLR-gs-6.chk"
 B after Tr=    -0.000000    0.000000   -0.000000
         Rot=    1.000000   -0.000000   -0.000000    0.000000 Ang=   0.00 deg.
 Guess basis will be translated and rotated to current coordinates.
 JPrj=2 DoOrth=T DoCkMO=T.
 Leave Link  401 at Sat Jan 24 22:56:49 2026, MaxMem=  2147483648 cpu:               2.2 elap:               0.2
 (Enter /data/home/wyx/g16/l502.exe)
 Integral symmetry usage will be decided dynamically.
 Closed shell SCF:
 Using DIIS extrapolation, IDIIS=  1040.
 NGot=  2147483648 LenX=  2147200095 LenY=  2147062754
 Requested convergence on RMS density matrix=1.00D-08 within 128 cycles.
 Requested convergence on MAX density matrix=1.00D-06.
 Requested convergence on             energy=1.00D-06.
 No special actions if energy rises.
 Fock matrices will be formed incrementally for  20 cycles.

 Cycle   1  Pass 1  IDiag  1:
 FoFJK:  IHMeth= 1 ICntrl=       0 DoSepK=T KAlg= 0 I1Cent=           0 FoldK=F
 IRaf=         1 NMat=       1 IRICut=       1 DoRegI=T DoRafI=F ISym2E= 0 IDoP0=0 IntGTp=1.
 FoFCou: FMM=F IPFlag=           0 FMFlag=      100000 FMFlg1=           0
         NFxFlg=           0 DoJE=T BraDBF=F KetDBF=F FulRan=T
         wScrn=  0.000000 ICntrl=       500 IOpCl=  0 I1Cent=           0 NGrid=           0
         NMat0=    1 NMatS0=      1 NMatT0=    0 NMatD0=    1 NMtDS0=    0 NMtDT0=    0
 Symmetry not used in FoFCou.
 Inv3:  Mode=1 IEnd=    13559628.
 Iteration    1 A*A^-1 deviation from unit magnitude is 3.33D-15 for   1966.
 Iteration    1 A*A^-1 deviation from orthogonality  is 2.34D-15 for    715    639.
 Iteration    1 A^-1*A deviation from unit magnitude is 3.11D-15 for   1971.
 Iteration    1 A^-1*A deviation from orthogonality  is 2.12D-15 for   1369    978.
 NEqPCM:  Using non-equilibrium solvation (IEInf=1, Eps=  78.3553, EpsInf=   1.7778)
 Inv3:  Mode=1 IEnd=    13559628.
 Iteration    1 A*A^-1 deviation from unit magnitude is 3.11D-15 for    380.
 Iteration    1 A*A^-1 deviation from orthogonality  is 1.96D-15 for    743    251.
 Iteration    1 A^-1*A deviation from unit magnitude is 3.33D-15 for    990.
 Iteration    1 A^-1*A deviation from orthogonality  is 1.97D-15 for   1938     73.
 E= -633.327057214039    
 DIIS: error= 3.38D-04 at cycle   1 NSaved=   1.
 NSaved= 1 IEnMin= 1 EnMin= -633.327057214039     IErMin= 1 ErrMin= 3.38D-04
 ErrMax= 3.38D-04  0.00D+00 EMaxC= 1.00D-01 BMatC= 2.67D-05 BMatP= 2.67D-05
 IDIUse=3 WtCom= 9.97D-01 WtEn= 3.38D-03
 Coeff-Com:  0.100D+01
 Coeff-En:   0.100D+01
 Coeff:      0.100D+01
 Gap=     0.222 Goal=   None    Shift=    0.000
 RMSDP=2.26D-04 MaxDP=1.34D-02              OVMax= 4.69D-03

 Cycle   2  Pass 1  IDiag  1:
 RMSU=  2.25D-04    CP:  9.98D-01
 E= -633.327105018628     Delta-E=       -0.000047804589 Rises=F Damp=F
 DIIS: error= 1.79D-04 at cycle   2 NSaved=   2.
 NSaved= 2 IEnMin= 2 EnMin= -633.327105018628     IErMin= 2 ErrMin= 1.79D-04
 ErrMax= 1.79D-04  0.00D+00 EMaxC= 1.00D-01 BMatC= 1.65D-05 BMatP= 2.67D-05
 IDIUse=3 WtCom= 9.98D-01 WtEn= 1.79D-03
 Coeff-Com:  0.419D+00 0.581D+00
 Coeff-En:   0.000D+00 0.100D+01
 Coeff:      0.419D+00 0.581D+00
 Gap=     0.222 Goal=   None    Shift=    0.000
 RMSDP=4.36D-05 MaxDP=3.57D-03 DE=-4.78D-05 OVMax= 1.38D-03

 Cycle   3  Pass 1  IDiag  1:
 RMSU=  3.39D-05    CP:  1.00D+00  9.02D-01
 E= -633.327118474701     Delta-E=       -0.000013456073 Rises=F Damp=F
 DIIS: error= 1.30D-04 at cycle   3 NSaved=   3.
 NSaved= 3 IEnMin= 3 EnMin= -633.327118474701     IErMin= 3 ErrMin= 1.30D-04
 ErrMax= 1.30D-04  0.00D+00 EMaxC= 1.00D-01 BMatC= 3.83D-06 BMatP= 1.65D-05
 IDIUse=3 WtCom= 9.99D-01 WtEn= 1.30D-03
 Coeff-Com:  0.828D-01 0.310D+00 0.607D+00
 Coeff-En:   0.000D+00 0.874D-01 0.913D+00
 Coeff:      0.827D-01 0.310D+00 0.608D+00
 Gap=     0.222 Goal=   None    Shift=    0.000
 RMSDP=1.63D-05 MaxDP=8.32D-04 DE=-1.35D-05 OVMax= 7.17D-04

 Cycle   4  Pass 1  IDiag  1:
 RMSU=  1.49D-05    CP:  9.99D-01  8.98D-01  8.83D-01
 E= -633.327121418731     Delta-E=       -0.000002944031 Rises=F Damp=F
 DIIS: error= 2.70D-05 at cycle   4 NSaved=   4.
 NSaved= 4 IEnMin= 4 EnMin= -633.327121418731     IErMin= 4 ErrMin= 2.70D-05
 ErrMax= 2.70D-05  0.00D+00 EMaxC= 1.00D-01 BMatC= 2.94D-07 BMatP= 3.83D-06
 IDIUse=1 WtCom= 1.00D+00 WtEn= 0.00D+00
 Coeff-Com: -0.753D-02 0.578D-01 0.238D+00 0.711D+00
 Coeff:     -0.753D-02 0.578D-01 0.238D+00 0.711D+00
 Gap=     0.222 Goal=   None    Shift=    0.000
 RMSDP=7.75D-06 MaxDP=4.14D-04 DE=-2.94D-06 OVMax= 2.47D-04

 Cycle   5  Pass 1  IDiag  1:
 RMSU=  4.54D-06    CP:  9.99D-01  9.02D-01  1.04D+00  1.10D+00
 E= -633.327121671751     Delta-E=       -0.000000253019 Rises=F Damp=F
 DIIS: error= 8.27D-06 at cycle   5 NSaved=   5.
 NSaved= 5 IEnMin= 5 EnMin= -633.327121671751     IErMin= 5 ErrMin= 8.27D-06
 ErrMax= 8.27D-06  0.00D+00 EMaxC= 1.00D-01 BMatC= 5.06D-08 BMatP= 2.94D-07
 IDIUse=1 WtCom= 1.00D+00 WtEn= 0.00D+00
 Coeff-Com: -0.119D-01-0.166D-01 0.238D-01 0.317D+00 0.687D+00
 Coeff:     -0.119D-01-0.166D-01 0.238D-01 0.317D+00 0.687D+00
 Gap=     0.222 Goal=   None    Shift=    0.000
 RMSDP=2.04D-06 MaxDP=1.06D-04 DE=-2.53D-07 OVMax= 1.07D-04

 Cycle   6  Pass 1  IDiag  1:
 RMSU=  1.41D-06    CP:  9.99D-01  9.01D-01  1.06D+00  1.18D+00  1.08D+00
 E= -633.327121728576     Delta-E=       -0.000000056825 Rises=F Damp=F
 DIIS: error= 4.82D-06 at cycle   6 NSaved=   6.
 NSaved= 6 IEnMin= 6 EnMin= -633.327121728576     IErMin= 6 ErrMin= 4.82D-06
 ErrMax= 4.82D-06  0.00D+00 EMaxC= 1.00D-01 BMatC= 3.72D-09 BMatP= 5.06D-08
 IDIUse=1 WtCom= 1.00D+00 WtEn= 0.00D+00
 Coeff-Com: -0.211D-02-0.108D-01-0.120D-01 0.118D-01 0.193D+00 0.820D+00
 Coeff:     -0.211D-02-0.108D-01-0.120D-01 0.118D-01 0.193D+00 0.820D+00
 Gap=     0.222 Goal=   None    Shift=    0.000
 RMSDP=1.28D-06 MaxDP=8.81D-05 DE=-5.68D-08 OVMax= 7.16D-05

 Cycle   7  Pass 1  IDiag  1:
 RMSU=  5.17D-07    CP:  9.99D-01  8.99D-01  1.08D+00  1.22D+00  1.23D+00
                    CP:  1.26D+00
 E= -633.327121735026     Delta-E=       -0.000000006450 Rises=F Damp=F
 DIIS: error= 2.42D-06 at cycle   7 NSaved=   7.
 NSaved= 7 IEnMin= 7 EnMin= -633.327121735026     IErMin= 7 ErrMin= 2.42D-06
 ErrMax= 2.42D-06  0.00D+00 EMaxC= 1.00D-01 BMatC= 1.52D-09 BMatP= 3.72D-09
 IDIUse=1 WtCom= 1.00D+00 WtEn= 0.00D+00
 Coeff-Com:  0.673D-03-0.372D-02-0.736D-02-0.405D-01-0.821D-02 0.435D+00
 Coeff-Com:  0.624D+00
 Coeff:      0.673D-03-0.372D-02-0.736D-02-0.405D-01-0.821D-02 0.435D+00
 Coeff:      0.624D+00
 Gap=     0.222 Goal=   None    Shift=    0.000
 RMSDP=3.84D-07 MaxDP=2.27D-05 DE=-6.45D-09 OVMax= 2.98D-05

 Cycle   8  Pass 1  IDiag  1:
 RMSU=  1.94D-07    CP:  9.99D-01  8.99D-01  1.08D+00  1.22D+00  1.27D+00
                    CP:  1.38D+00  1.01D+00
 E= -633.327121737080     Delta-E=       -0.000000002053 Rises=F Damp=F
 DIIS: error= 1.01D-06 at cycle   8 NSaved=   8.
 NSaved= 8 IEnMin= 8 EnMin= -633.327121737080     IErMin= 8 ErrMin= 1.01D-06
 ErrMax= 1.01D-06  0.00D+00 EMaxC= 1.00D-01 BMatC= 1.57D-10 BMatP= 1.52D-09
 IDIUse=1 WtCom= 1.00D+00 WtEn= 0.00D+00
 Coeff-Com:  0.669D-03 0.529D-04 0.512D-03-0.169D-01-0.450D-01-0.464D-02
 Coeff-Com:  0.210D+00 0.855D+00
 Coeff:      0.669D-03 0.529D-04 0.512D-03-0.169D-01-0.450D-01-0.464D-02
 Coeff:      0.210D+00 0.855D+00
 Gap=     0.222 Goal=   None    Shift=    0.000
 RMSDP=2.59D-07 MaxDP=1.55D-05 DE=-2.05D-09 OVMax= 1.92D-05

 Cycle   9  Pass 1  IDiag  1:
 RMSU=  1.02D-07    CP:  9.99D-01  8.99D-01  1.08D+00  1.22D+00  1.30D+00
                    CP:  1.47D+00  1.22D+00  1.14D+00
 E= -633.327121737462     Delta-E=       -0.000000000382 Rises=F Damp=F
 DIIS: error= 4.83D-07 at cycle   9 NSaved=   9.
 NSaved= 9 IEnMin= 9 EnMin= -633.327121737462     IErMin= 9 ErrMin= 4.83D-07
 ErrMax= 4.83D-07  0.00D+00 EMaxC= 1.00D-01 BMatC= 2.22D-11 BMatP= 1.57D-10
 IDIUse=1 WtCom= 1.00D+00 WtEn= 0.00D+00
 Coeff-Com:  0.150D-03 0.429D-03 0.148D-02 0.772D-03-0.153D-01-0.703D-01
 Coeff-Com: -0.219D-01 0.303D+00 0.801D+00
 Coeff:      0.150D-03 0.429D-03 0.148D-02 0.772D-03-0.153D-01-0.703D-01
 Coeff:     -0.219D-01 0.303D+00 0.801D+00
 Gap=     0.222 Goal=   None    Shift=    0.000
 RMSDP=7.68D-08 MaxDP=3.14D-06 DE=-3.82D-10 OVMax= 7.78D-06

 Cycle  10  Pass 1  IDiag  1:
 RMSU=  3.43D-08    CP:  9.99D-01  8.99D-01  1.08D+00  1.22D+00  1.30D+00
                    CP:  1.51D+00  1.29D+00  1.26D+00  1.20D+00
 E= -633.327121737524     Delta-E=       -0.000000000062 Rises=F Damp=F
 DIIS: error= 1.90D-07 at cycle  10 NSaved=  10.
 NSaved=10 IEnMin=10 EnMin= -633.327121737524     IErMin=10 ErrMin= 1.90D-07
 ErrMax= 1.90D-07  0.00D+00 EMaxC= 1.00D-01 BMatC= 4.18D-12 BMatP= 2.22D-11
 IDIUse=1 WtCom= 1.00D+00 WtEn= 0.00D+00
 Coeff-Com: -0.332D-04 0.191D-03 0.457D-03 0.290D-02 0.129D-04-0.295D-01
 Coeff-Com: -0.379D-01-0.330D-03 0.313D+00 0.752D+00
 Coeff:     -0.332D-04 0.191D-03 0.457D-03 0.290D-02 0.129D-04-0.295D-01
 Coeff:     -0.379D-01-0.330D-03 0.313D+00 0.752D+00
 Gap=     0.222 Goal=   None    Shift=    0.000
 RMSDP=3.90D-08 MaxDP=2.05D-06 DE=-6.20D-11 OVMax= 3.10D-06

 Cycle  11  Pass 1  IDiag  1:
 RMSU=  1.50D-08    CP:  9.99D-01  8.99D-01  1.08D+00  1.22D+00  1.30D+00
                    CP:  1.52D+00  1.33D+00  1.28D+00  1.41D+00  1.20D+00
 E= -633.327121737536     Delta-E=       -0.000000000012 Rises=F Damp=F
 DIIS: error= 8.77D-08 at cycle  11 NSaved=  11.
 NSaved=11 IEnMin=11 EnMin= -633.327121737536     IErMin=11 ErrMin= 8.77D-08
 ErrMax= 8.77D-08  0.00D+00 EMaxC= 1.00D-01 BMatC= 1.42D-12 BMatP= 4.18D-12
 IDIUse=1 WtCom= 1.00D+00 WtEn= 0.00D+00
 Coeff-Com: -0.456D-04 0.378D-04-0.119D-03 0.135D-02 0.332D-02 0.738D-03
 Coeff-Com: -0.122D-01-0.628D-01-0.185D-01 0.404D+00 0.685D+00
 Coeff:     -0.456D-04 0.378D-04-0.119D-03 0.135D-02 0.332D-02 0.738D-03
 Coeff:     -0.122D-01-0.628D-01-0.185D-01 0.404D+00 0.685D+00
 Gap=     0.222 Goal=   None    Shift=    0.000
 RMSDP=1.50D-08 MaxDP=5.65D-07 DE=-1.17D-11 OVMax= 1.34D-06

 Cycle  12  Pass 1  IDiag  1:
 RMSU=  6.33D-09    CP:  9.99D-01  8.99D-01  1.08D+00  1.22D+00  1.30D+00
                    CP:  1.52D+00  1.33D+00  1.30D+00  1.47D+00  1.40D+00
                    CP:  9.78D-01
 E= -633.327121737537     Delta-E=       -0.000000000001 Rises=F Damp=F
 DIIS: error= 2.88D-08 at cycle  12 NSaved=  12.
 NSaved=12 IEnMin=12 EnMin= -633.327121737537     IErMin=12 ErrMin= 2.88D-08
 ErrMax= 2.88D-08  0.00D+00 EMaxC= 1.00D-01 BMatC= 1.67D-13 BMatP= 1.42D-12
 IDIUse=1 WtCom= 1.00D+00 WtEn= 0.00D+00
 Coeff-Com: -0.164D-04-0.351D-05-0.156D-03 0.794D-04 0.138D-02 0.493D-02
 Coeff-Com:  0.169D-02-0.274D-01-0.687D-01 0.177D-01 0.258D+00 0.813D+00
 Coeff:     -0.164D-04-0.351D-05-0.156D-03 0.794D-04 0.138D-02 0.493D-02
 Coeff:      0.169D-02-0.274D-01-0.687D-01 0.177D-01 0.258D+00 0.813D+00
 Gap=     0.222 Goal=   None    Shift=    0.000
 RMSDP=9.43D-09 MaxDP=4.34D-07 DE=-9.09D-13 OVMax= 6.84D-07

 Error on total polarization charges =  0.00845
 SCF Done:  E(RCAM-B3LYP) =  -633.327121738     A.U. after   12 cycles
            NFock= 12  Conv=0.94D-08     -V/T= 2.0042
 KE= 6.306892532064D+02 PE=-3.275764864858D+03 EE= 1.111829938242D+03
 Leave Link  502 at Sat Jan 24 22:57:37 2026, MaxMem=  2147483648 cpu:             750.8 elap:              47.6
 (Enter /data/home/wyx/g16/l601.exe)
 Copying SCF densities to generalized density rwf, IOpCl= 0 IROHF=0.

 **********************************************************************

            Population analysis using the SCF density.

 **********************************************************************

 Orbital symmetries:
       Occupied  (A) (A) (A) (A) (A) (A) (A) (A) (A) (A) (A) (A)
                 (A) (A) (A) (A) (A) (A) (A) (A) (A) (A) (A) (A)
                 (A) (A) (A) (A) (A) (A) (A) (A) (A) (A) (A) (A)
                 (A) (A) (A) (A) (A) (A) (A) (A) (A) (A) (A) (A)
                 (A) (A) (A) (A)
       Virtual   (A) (A) (A) (A) (A) (A) (A) (A) (A) (A) (A) (A)
                 (A) (A) (A) (A) (A) (A) (A) (A) (A) (A) (A) (A)
                 (A) (A) (A) (A) (A) (A) (A) (A) (A) (A) (A) (A)
                 (A) (A) (A) (A) (A) (A) (A) (A) (A) (A) (A) (A)
                 (A) (A) (A) (A) (A) (A) (A) (A) (A) (A) (A) (A)
                 (A) (A) (A) (A) (A) (A) (A) (A) (A) (A) (A) (A)
                 (A) (A) (A) (A) (A) (A) (A) (A) (A) (A) (A) (A)
                 (A) (A) (A) (A) (A) (A) (A) (A) (A) (A) (A) (A)
                 (A) (A) (A) (A) (A) (A) (A) (A) (A) (A) (A) (A)
                 (A) (A) (A) (A) (A) (A) (A) (A) (A) (A) (A) (A)
                 (A) (A) (A) (A) (A) (A) (A) (A) (A) (A) (A) (A)
                 (A) (A) (A) (A) (A) (A) (A) (A) (A) (A) (A) (A)
                 (A) (A) (A) (A) (A) (A) (A) (A) (A) (A) (A) (A)
                 (A) (A) (A) (A) (A) (A) (A) (A) (A) (A) (A) (A)
                 (A) (A) (A) (A) (A) (A) (A) (A) (A) (A) (A) (A)
                 (A) (A) (A) (A) (A) (A) (A) (A) (A) (A) (A) (A)
                 (A) (A) (A) (A) (A) (A) (A) (A) (A) (A) (A) (A)
                 (A) (A) (A) (A) (A) (A) (A) (A) (A) (A) (A) (A)
                 (A) (A) (A) (A) (A) (A) (A) (A) (A) (A) (A) (A)
                 (A) (A) (A) (A) (A) (A) (A) (A) (A) (A) (A) (A)
                 (A) (A) (A) (A) (A) (A) (A) (A) (A) (A) (A) (A)
                 (A) (A) (A) (A) (A) (A) (A) (A) (A) (A) (A) (A)
                 (A) (A) (A) (A) (A) (A) (A) (A) (A) (A) (A) (A)
                 (A) (A) (A) (A) (A) (A) (A) (A) (A) (A) (A) (A)
                 (A) (A) (A) (A) (A) (A) (A) (A) (A) (A) (A) (A)
                 (A) (A) (A) (A)
 The electronic state is 1-A.
 Alpha  occ. eigenvalues --  -19.17889 -19.17101 -14.44319 -10.33412 -10.32872
 Alpha  occ. eigenvalues --  -10.32461 -10.31880 -10.25758 -10.25088 -10.24746
 Alpha  occ. eigenvalues --  -10.24474 -10.24293 -10.24268 -10.23590  -1.11575
 Alpha  occ. eigenvalues --   -1.11082  -1.08027  -0.91224  -0.90287  -0.83918
 Alpha  occ. eigenvalues --   -0.82517  -0.81626  -0.78462  -0.73639  -0.71786
 Alpha  occ. eigenvalues --   -0.68611  -0.61536  -0.58159  -0.56915  -0.55007
 Alpha  occ. eigenvalues --   -0.54360  -0.53974  -0.52490  -0.51780  -0.50768
 Alpha  occ. eigenvalues --   -0.49868  -0.49478  -0.49204  -0.48456  -0.47950
 Alpha  occ. eigenvalues --   -0.46989  -0.45229  -0.45109  -0.43593  -0.43069
 Alpha  occ. eigenvalues --   -0.42269  -0.42018  -0.41705  -0.32617  -0.32215
 Alpha  occ. eigenvalues --   -0.31282  -0.25193
 Alpha virt. eigenvalues --   -0.03001   0.02583   0.06631   0.08400   0.08785
 Alpha virt. eigenvalues --    0.09962   0.10880   0.11839   0.12710   0.13589
 Alpha virt. eigenvalues --    0.14099   0.15120   0.15815   0.16374   0.17016
 Alpha virt. eigenvalues --    0.17590   0.17935   0.18171   0.18356   0.19294
 Alpha virt. eigenvalues --    0.20121   0.22171   0.23138   0.23656   0.23854
 Alpha virt. eigenvalues --    0.24129   0.24785   0.25823   0.26312   0.26806
 Alpha virt. eigenvalues --    0.27351   0.28120   0.28746   0.29280   0.30321
 Alpha virt. eigenvalues --    0.31829   0.32132   0.32534   0.33685   0.34606
 Alpha virt. eigenvalues --    0.35134   0.36047   0.36771   0.38075   0.38643
 Alpha virt. eigenvalues --    0.39760   0.41216   0.41646   0.42217   0.42663
 Alpha virt. eigenvalues --    0.44212   0.44813   0.45523   0.46244   0.46414
 Alpha virt. eigenvalues --    0.47367   0.47997   0.48157   0.48467   0.49214
 Alpha virt. eigenvalues --    0.49713   0.50641   0.51076   0.51573   0.51713
 Alpha virt. eigenvalues --    0.52790   0.52971   0.53582   0.53837   0.54384
 Alpha virt. eigenvalues --    0.54656   0.55603   0.56128   0.56761   0.58518
 Alpha virt. eigenvalues --    0.58632   0.59797   0.61000   0.61493   0.63101
 Alpha virt. eigenvalues --    0.64047   0.65570   0.66589   0.66620   0.67818
 Alpha virt. eigenvalues --    0.68612   0.69770   0.71357   0.71866   0.72519
 Alpha virt. eigenvalues --    0.73382   0.74367   0.75025   0.76045   0.77748
 Alpha virt. eigenvalues --    0.79007   0.80200   0.82878   0.86141   0.87244
 Alpha virt. eigenvalues --    0.90385   0.94780   1.01404   1.02936   1.22986
 Alpha virt. eigenvalues --    1.25017   1.27292   1.28323   1.29555   1.30929
 Alpha virt. eigenvalues --    1.32380   1.33056   1.34331   1.35131   1.36362
 Alpha virt. eigenvalues --    1.36692   1.37699   1.38609   1.39162   1.39960
 Alpha virt. eigenvalues --    1.40023   1.40650   1.41031   1.41425   1.42004
 Alpha virt. eigenvalues --    1.43660   1.43968   1.44428   1.45399   1.47495
 Alpha virt. eigenvalues --    1.48277   1.49783   1.50218   1.50497   1.50875
 Alpha virt. eigenvalues --    1.51325   1.52647   1.52807   1.55085   1.58240
 Alpha virt. eigenvalues --    1.58979   1.60526   1.60869   1.61508   1.62669
 Alpha virt. eigenvalues --    1.62828   1.63261   1.64377   1.64799   1.65991
 Alpha virt. eigenvalues --    1.66795   1.67250   1.67765   1.68258   1.68659
 Alpha virt. eigenvalues --    1.69202   1.70113   1.70230   1.71437   1.72477
 Alpha virt. eigenvalues --    1.74249   1.75141   1.76158   1.76787   1.78730
 Alpha virt. eigenvalues --    1.81391   1.83305   1.84340   1.86145   1.86780
 Alpha virt. eigenvalues --    1.86885   1.88079   1.88690   1.89164   1.90569
 Alpha virt. eigenvalues --    1.91474   1.94824   1.95524   1.99179   1.99836
 Alpha virt. eigenvalues --    2.01680   2.03984   2.05606   2.07125   2.09846
 Alpha virt. eigenvalues --    2.10950   2.12327   2.15724   2.17679   2.20027
 Alpha virt. eigenvalues --    2.20555   2.21476   2.22225   2.23226   2.26362
 Alpha virt. eigenvalues --    2.27408   2.27789   2.29483   2.31509   2.32421
 Alpha virt. eigenvalues --    2.34017   2.34536   2.37002   2.38126   2.38888
 Alpha virt. eigenvalues --    2.39816   2.40412   2.41606   2.43201   2.45305
 Alpha virt. eigenvalues --    2.46233   2.47892   2.49897   2.50359   2.51414
 Alpha virt. eigenvalues --    2.52513   2.54214   2.55068   2.56800   2.57927
 Alpha virt. eigenvalues --    2.59029   2.60896   2.61836   2.62797   2.63570
 Alpha virt. eigenvalues --    2.64853   2.66020   2.66815   2.67674   2.68617
 Alpha virt. eigenvalues --    2.72166   2.72225   2.73678   2.74700   2.75372
 Alpha virt. eigenvalues --    2.76222   2.77169   2.77431   2.78093   2.79141
 Alpha virt. eigenvalues --    2.80687   2.82074   2.83116   2.84037   2.84648
 Alpha virt. eigenvalues --    2.85570   2.86673   2.88901   2.89384   2.91869
 Alpha virt. eigenvalues --    2.97371   2.99065   3.01076   3.06705   3.11074
 Alpha virt. eigenvalues --    3.12542   3.15076   3.17788   3.18875   3.21595
 Alpha virt. eigenvalues --    3.21705   3.23743   3.24398   3.25631   3.26629
 Alpha virt. eigenvalues --    3.28060   3.30041   3.33136   3.34472   3.36756
 Alpha virt. eigenvalues --    3.37832   3.39078   3.39733   3.40346   3.42177
 Alpha virt. eigenvalues --    3.42391   3.44690   3.45504   3.47613   3.48580
 Alpha virt. eigenvalues --    3.49720   3.50100   3.55692   3.58563   3.59965
 Alpha virt. eigenvalues --    3.61104   3.91132   4.00965   4.33106   4.36008
 Alpha virt. eigenvalues --   21.66975  21.80621  22.08305  22.10836  22.11899
 Alpha virt. eigenvalues --   22.15251  22.15282  22.18794  22.19835  22.24943
 Alpha virt. eigenvalues --   22.28417  31.92166  43.63679  43.66426
          Condensed to atoms (all electrons):
               1          2          3          4          5          6
     1  O    7.956493   0.000000  -0.000208   0.000018   0.018375   0.009508
     2  O    0.000000   7.995872   0.000319   0.000009  -0.202212   0.001263
     3  N   -0.000208   0.000319   6.352100   0.368955  -0.114049   0.334590
     4  H    0.000018   0.000009   0.368955   0.401462   0.016307  -0.044402
     5  C    0.018375  -0.202212  -0.114049   0.016307   7.096154  -0.083874
     6  C    0.009508   0.001263   0.334590  -0.044402  -0.083874   5.537803
     7  C   -0.000122  -0.044183   0.395090  -0.035407   0.456593  -0.115594
     8  C   -0.000614   0.711870   0.003972  -0.000864  -0.348606   0.033508
     9  C   -0.014520   0.024156   0.012276   0.000074  -0.623272  -0.053516
    10  H    0.007009   0.000118   0.003650   0.000033  -0.042483  -0.019975
    11  H    0.011293   0.000014  -0.001434   0.000017  -0.117119   0.028150
    12  C   -0.232479  -0.002864  -0.086410   0.014858   0.189842  -0.068198
    13  C    0.719300  -0.000024   0.001178   0.000493   0.080417   0.129560
    14  C   -0.000007  -0.010769  -0.033168  -0.010439  -0.082084   0.011099
    15  H   -0.000000   0.004121   0.005823   0.001727   0.017735   0.006199
    16  H   -0.000000   0.003342  -0.002708   0.000918  -0.006228  -0.001505
    17  H    0.000000   0.002940   0.000105   0.000796  -0.004587  -0.001163
    18  C    0.000167  -0.103805  -0.000547   0.000017  -0.259272   0.000238
    19  H   -0.000002   0.008167   0.000006  -0.000001   0.026406   0.000017
    20  H   -0.000001   0.000841   0.000012  -0.000001   0.001492   0.000208
    21  H    0.000115   0.004168   0.000122   0.000001   0.045607  -0.001228
    22  C   -0.106339   0.000000  -0.000065   0.000110   0.003795  -0.021764
    23  H    0.005112  -0.000000   0.000103  -0.000056  -0.000705  -0.026682
    24  H    0.001442   0.000000  -0.000000  -0.000012  -0.000022   0.009088
    25  H    0.006685   0.000000   0.000027  -0.000002  -0.000149  -0.001046
    26  C    0.000774   0.000009  -0.026211  -0.006781   0.000482   0.188321
    27  H   -0.000236  -0.000000   0.001532   0.000782   0.000066  -0.049505
    28  H   -0.000055  -0.000000  -0.002409   0.000481   0.000386  -0.033098
    29  H    0.000024   0.000000   0.002110   0.001544  -0.000345  -0.046848
               7          8          9         10         11         12
     1  O   -0.000122  -0.000614  -0.014520   0.007009   0.011293  -0.232479
     2  O   -0.044183   0.711870   0.024156   0.000118   0.000014  -0.002864
     3  N    0.395090   0.003972   0.012276   0.003650  -0.001434  -0.086410
     4  H   -0.035407  -0.000864   0.000074   0.000033   0.000017   0.014858
     5  C    0.456593  -0.348606  -0.623272  -0.042483  -0.117119   0.189842
     6  C   -0.115594   0.033508  -0.053516  -0.019975   0.028150  -0.068198
     7  C    5.384827  -0.229206  -0.204239  -0.005780   0.017264   0.014466
     8  C   -0.229206   5.431517   0.172581  -0.003736  -0.008803  -0.046339
     9  C   -0.204239   0.172581   6.364282   0.409519   0.534812  -0.093959
    10  H   -0.005780  -0.003736   0.409519   0.563439  -0.045653  -0.015497
    11  H    0.017264  -0.008803   0.534812  -0.045653   0.530013  -0.110700
    12  C    0.014466  -0.046339  -0.093959  -0.015497  -0.110700   7.314286
    13  C    0.018898  -0.009343  -0.262291  -0.003307   0.000159  -0.474833
    14  C    0.280552  -0.037021   0.006310  -0.001042   0.000546  -0.001046
    15  H   -0.079243   0.005427   0.000485   0.000053  -0.000004  -0.001395
    16  H   -0.021391  -0.000814   0.000834  -0.000065   0.000060   0.000438
    17  H   -0.029220  -0.007384  -0.000291   0.000196  -0.000061   0.000129
    18  C   -0.000431   0.330988   0.000505  -0.011815   0.008043  -0.001379
    19  H    0.000441  -0.055446  -0.001537   0.000062   0.000579  -0.000176
    20  H   -0.000030  -0.023466  -0.009144   0.000771  -0.001262  -0.002744
    21  H    0.003101  -0.069786  -0.008897   0.002781  -0.006886   0.006726
    22  C    0.000260  -0.000091   0.008258   0.002696  -0.000499  -0.252768
    23  H   -0.000003   0.000003   0.003202  -0.000188   0.000028   0.063911
    24  H   -0.000006   0.000002  -0.002130   0.000165  -0.000124  -0.011754
    25  H    0.000005   0.000004   0.000308  -0.000086  -0.000071   0.022762
    26  C    0.002995   0.000779   0.022495  -0.000757   0.000078  -0.082672
    27  H   -0.000771   0.000003  -0.000328  -0.000087   0.000007  -0.006175
    28  H   -0.000844  -0.000013  -0.000446  -0.000016   0.000046  -0.017524
    29  H    0.003147  -0.000006  -0.000510   0.000084  -0.000012   0.021435
              13         14         15         16         17         18
     1  O    0.719300  -0.000007  -0.000000  -0.000000   0.000000   0.000167
     2  O   -0.000024  -0.010769   0.004121   0.003342   0.002940  -0.103805
     3  N    0.001178  -0.033168   0.005823  -0.002708   0.000105  -0.000547
     4  H    0.000493  -0.010439   0.001727   0.000918   0.000796   0.000017
     5  C    0.080417  -0.082084   0.017735  -0.006228  -0.004587  -0.259272
     6  C    0.129560   0.011099   0.006199  -0.001505  -0.001163   0.000238
     7  C    0.018898   0.280552  -0.079243  -0.021391  -0.029220  -0.000431
     8  C   -0.009343  -0.037021   0.005427  -0.000814  -0.007384   0.330988
     9  C   -0.262291   0.006310   0.000485   0.000834  -0.000291   0.000505
    10  H   -0.003307  -0.001042   0.000053  -0.000065   0.000196  -0.011815
    11  H    0.000159   0.000546  -0.000004   0.000060  -0.000061   0.008043
    12  C   -0.474833  -0.001046  -0.001395   0.000438   0.000129  -0.001379
    13  C    5.569104   0.000097  -0.000037  -0.000010  -0.000003   0.001036
    14  C    0.000097   5.053624   0.391768   0.405477   0.418089   0.001082
    15  H   -0.000037   0.391768   0.564411  -0.024385  -0.026671   0.000235
    16  H   -0.000010   0.405477  -0.024385   0.512737  -0.028669   0.000105
    17  H   -0.000003   0.418089  -0.026671  -0.028669   0.515167  -0.000151
    18  C    0.001036   0.001082   0.000235   0.000105  -0.000151   5.321190
    19  H   -0.000010   0.000068  -0.000005  -0.000034   0.000037   0.393893
    20  H   -0.000132  -0.000223  -0.000005  -0.000008   0.000014   0.399523
    21  H    0.000772   0.000094  -0.000015  -0.000000  -0.000036   0.381019
    22  C    0.290075  -0.000016   0.000002   0.000000  -0.000000   0.000031
    23  H   -0.096428   0.000002   0.000000   0.000000  -0.000000   0.000002
    24  H   -0.023119  -0.000001   0.000000   0.000000   0.000000  -0.000002
    25  H   -0.038708   0.000000  -0.000000  -0.000000   0.000000  -0.000001
    26  C   -0.058400   0.000847   0.000200  -0.000105   0.000030   0.000011
    27  H   -0.003508   0.000071  -0.000010   0.000001  -0.000002   0.000000
    28  H    0.006805  -0.000108  -0.000002  -0.000007   0.000004  -0.000000
    29  H   -0.000865  -0.000183   0.000119  -0.000000  -0.000002  -0.000000
              19         20         21         22         23         24
     1  O   -0.000002  -0.000001   0.000115  -0.106339   0.005112   0.001442
     2  O    0.008167   0.000841   0.004168   0.000000  -0.000000   0.000000
     3  N    0.000006   0.000012   0.000122  -0.000065   0.000103  -0.000000
     4  H   -0.000001  -0.000001   0.000001   0.000110  -0.000056  -0.000012
     5  C    0.026406   0.001492   0.045607   0.003795  -0.000705  -0.000022
     6  C    0.000017   0.000208  -0.001228  -0.021764  -0.026682   0.009088
     7  C    0.000441  -0.000030   0.003101   0.000260  -0.000003  -0.000006
     8  C   -0.055446  -0.023466  -0.069786  -0.000091   0.000003   0.000002
     9  C   -0.001537  -0.009144  -0.008897   0.008258   0.003202  -0.002130
    10  H    0.000062   0.000771   0.002781   0.002696  -0.000188   0.000165
    11  H    0.000579  -0.001262  -0.006886  -0.000499   0.000028  -0.000124
    12  C   -0.000176  -0.002744   0.006726  -0.252768   0.063911  -0.011754
    13  C   -0.000010  -0.000132   0.000772   0.290075  -0.096428  -0.023119
    14  C    0.000068  -0.000223   0.000094  -0.000016   0.000002  -0.000001
    15  H   -0.000005  -0.000005  -0.000015   0.000002   0.000000   0.000000
    16  H   -0.000034  -0.000008  -0.000000   0.000000   0.000000   0.000000
    17  H    0.000037   0.000014  -0.000036  -0.000000  -0.000000   0.000000
    18  C    0.393893   0.399523   0.381019   0.000031   0.000002  -0.000002
    19  H    0.512326  -0.010630  -0.023864  -0.000000   0.000000   0.000000
    20  H   -0.010630   0.491962  -0.023293  -0.000012   0.000000   0.000000
    21  H   -0.023864  -0.023293   0.532952   0.000027  -0.000000  -0.000000
    22  C   -0.000000  -0.000012   0.000027   5.421062   0.397365   0.402260
    23  H    0.000000   0.000000  -0.000000   0.397365   0.540266  -0.026015
    24  H    0.000000   0.000000  -0.000000   0.402260  -0.026015   0.491346
    25  H   -0.000000   0.000000  -0.000000   0.381977  -0.022429  -0.008967
    26  C    0.000000   0.000003  -0.000017  -0.032570   0.016086  -0.010930
    27  H   -0.000000   0.000000  -0.000000   0.005559  -0.008048  -0.000416
    28  H    0.000000  -0.000000  -0.000000  -0.011110  -0.001604   0.000894
    29  H    0.000000  -0.000000   0.000000   0.001927   0.000624   0.000162
              25         26         27         28         29
     1  O    0.006685   0.000774  -0.000236  -0.000055   0.000024
     2  O    0.000000   0.000009  -0.000000  -0.000000   0.000000
     3  N    0.000027  -0.026211   0.001532  -0.002409   0.002110
     4  H   -0.000002  -0.006781   0.000782   0.000481   0.001544
     5  C   -0.000149   0.000482   0.000066   0.000386  -0.000345
     6  C   -0.001046   0.188321  -0.049505  -0.033098  -0.046848
     7  C    0.000005   0.002995  -0.000771  -0.000844   0.003147
     8  C    0.000004   0.000779   0.000003  -0.000013  -0.000006
     9  C    0.000308   0.022495  -0.000328  -0.000446  -0.000510
    10  H   -0.000086  -0.000757  -0.000087  -0.000016   0.000084
    11  H   -0.000071   0.000078   0.000007   0.000046  -0.000012
    12  C    0.022762  -0.082672  -0.006175  -0.017524   0.021435
    13  C   -0.038708  -0.058400  -0.003508   0.006805  -0.000865
    14  C    0.000000   0.000847   0.000071  -0.000108  -0.000183
    15  H   -0.000000   0.000200  -0.000010  -0.000002   0.000119
    16  H   -0.000000  -0.000105   0.000001  -0.000007  -0.000000
    17  H    0.000000   0.000030  -0.000002   0.000004  -0.000002
    18  C   -0.000001   0.000011   0.000000  -0.000000  -0.000000
    19  H   -0.000000   0.000000  -0.000000   0.000000   0.000000
    20  H    0.000000   0.000003   0.000000  -0.000000  -0.000000
    21  H   -0.000000  -0.000017  -0.000000  -0.000000   0.000000
    22  C    0.381977  -0.032570   0.005559  -0.011110   0.001927
    23  H   -0.022429   0.016086  -0.008048  -0.001604   0.000624
    24  H   -0.008967  -0.010930  -0.000416   0.000894   0.000162
    25  H    0.499876   0.002094   0.000656   0.000130  -0.000038
    26  C    0.002094   5.249565   0.431436   0.426375   0.389427
    27  H    0.000656   0.431436   0.508825  -0.027999  -0.025019
    28  H    0.000130   0.426375  -0.027999   0.480393  -0.016228
    29  H   -0.000038   0.389427  -0.025019  -0.016228   0.508711
 Mulliken charges:
               1
     1  O   -0.381732
     2  O   -0.393351
     3  N   -0.214760
     4  H    0.289362
     5  C   -0.068648
     6  C    0.278845
     7  C    0.188831
     8  C    0.150884
     9  C   -0.285018
    10  H    0.159912
    11  H    0.161517
    12  C   -0.139943
    13  C    0.153123
    14  C   -0.393619
    15  H    0.133468
    16  H    0.162018
    17  H    0.160733
    18  C   -0.460678
    19  H    0.149704
    20  H    0.176123
    21  H    0.156539
    22  C   -0.490169
    23  H    0.155452
    24  H    0.178140
    25  H    0.156975
    26  C   -0.513562
    27  H    0.173166
    28  H    0.195950
    29  H    0.160739
 Sum of Mulliken charges =  -0.00000
 Mulliken charges with hydrogens summed into heavy atoms:
               1
     1  O   -0.381732
     2  O   -0.393351
     3  N    0.074601
     5  C   -0.068648
     6  C    0.278845
     7  C    0.188831
     8  C    0.150884
     9  C    0.036412
    12  C   -0.139943
    13  C    0.153123
    14  C    0.062600
    18  C    0.021688
    22  C    0.000398
    26  C    0.016293
 Electronic spatial extent (au):  <R**2>=           3199.5182
 Charge=             -0.0000 electrons
 Dipole moment (field-independent basis, Debye):
    X=             -4.1400    Y=              8.0386    Z=             -0.0770  Tot=              9.0424
 Quadrupole moment (field-independent basis, Debye-Ang):
   XX=           -100.0957   YY=            -77.9046   ZZ=            -84.8443
   XY=            -12.9737   XZ=             -4.7317   YZ=             -2.1476
 Traceless Quadrupole moment (field-independent basis, Debye-Ang):
   XX=            -12.4809   YY=              9.7103   ZZ=              2.7706
   XY=            -12.9737   XZ=             -4.7317   YZ=             -2.1476
 Octapole moment (field-independent basis, Debye-Ang**2):
  XXX=           -113.9912  YYY=             68.7857  ZZZ=              1.2681  XYY=             35.9147
  XXY=             34.4617  XXZ=             -6.9914  XZZ=             -1.2223  YZZ=             -0.9106
  YYZ=              4.0847  XYZ=              5.4545
 Hexadecapole moment (field-independent basis, Debye-Ang**3):
 XXXX=          -3087.5935 YYYY=          -1282.0194 ZZZZ=           -146.2141 XXXY=            -38.6270
 XXXZ=            -53.1060 YYYX=            -92.0058 YYYZ=            -21.1899 ZZZX=              3.1956
 ZZZY=              3.1595 XXYY=           -695.6224 XXZZ=           -482.2149 YYZZ=           -243.8450
 XXYZ=             -8.9396 YYXZ=             -9.3649 ZZXY=             -0.0320
 N-N= 8.999185516727D+02 E-N=-3.275764863884D+03  KE= 6.306892532064D+02
 No NMR shielding tensors so no spin-rotation constants.
 Leave Link  601 at Sat Jan 24 22:57:37 2026, MaxMem=  2147483648 cpu:               1.8 elap:               0.1
 (Enter /data/home/wyx/g16/l9999.exe)
 1\1\GINC-CN012\SP\RCAM-B3LYP\TZVP\C11H15N1O2\WYX\24-Jan-2026\0\\#p CAM
 -B3LYP TZVP em=gd3bj scrf=(Solvent=Water,NonEquilibrium=Read) Geom=Che
 ck Guess=Read\\Title Card Required\\0,1\O,0,2.723612,-1.559339,0.83860
 5\O,0,-3.287981,-1.657495,-0.948903\N,0,-0.689013,1.515977,-0.015866\H
 ,0,-0.997426,2.476004,-0.081568\C,0,-1.251839,-0.762398,-0.169093\C,0,
 0.64318,1.326988,0.220841\C,0,-1.626085,0.568383,-0.276262\C,0,-2.1620
 79,-1.846914,-0.483168\C,0,0.115209,-1.086195,0.314371\H,0,0.058564,-1
 .497952,1.336283\H,0,0.534969,-1.922424,-0.250996\C,0,1.10252,0.026437
 ,0.323397\C,0,2.482619,-0.394545,0.50146\C,0,-2.969463,1.098512,-0.635
 34\H,0,-3.017506,2.175553,-0.491334\H,0,-3.212144,0.884777,-1.671995\H
 ,0,-3.747187,0.63523,-0.038845\C,0,-1.705223,-3.262587,-0.251651\H,0,-
 2.563938,-3.924306,-0.259636\H,0,-1.032521,-3.579516,-1.046975\H,0,-1.
 171543,-3.389446,0.684856\C,0,3.648997,0.527161,0.24436\H,0,3.464605,1
 .241184,-0.55362\H,0,3.902295,1.084138,1.148732\H,0,4.506894,-0.08932,
 -0.015928\C,0,1.415218,2.596504,0.365194\H,0,2.167711,2.522705,1.14212
 4\H,0,1.916293,2.875658,-0.561537\H,0,0.751262,3.417227,0.632495\\Vers
 ion=ES64L-G16RevA.03\State=1-A\HF=-633.3271217\RMSD=9.426e-09\Dipole=0
 .4573142,3.5272798,0.0733507\Quadrupole=-11.4276971,11.4794745,-0.0517
 774,2.0540531,-6.5902764,0.5993653\PG=C01 [X(C11H15N1O2)]\\@


 CHEMISTRY BEGAN BY SAYING IT WOULD CHANGE THE BASER
 METALS INTO GOLD.  BY NOT DOING THAT IT HAS DONE MUCH
 GREATER THINGS.  --  RALPH WALDO EMERSON
 Job cpu time:       0 days  0 hours 12 minutes 41.0 seconds.
 Elapsed time:       0 days  0 hours  0 minutes 48.4 seconds.
 File lengths (MBytes):  RWF=    346 Int=      0 D2E=      0 Chk=     67 Scr=      1
 Normal termination of Gaussian 16 at Sat Jan 24 22:57:38 2026.
