 Entering Gaussian System, Link 0=g16
 Input=DDL-S2-cLR-8.gjf
 Output=DDL-S2-cLR-8.log
 Initial command:
 /data/home/wyx/g16/l1.exe "/scr/tmp/wyx/13117/Gau-2023602.inp" -scrdir="/scr/tmp/wyx/13117/"
 Entering Link 1 = /data/home/wyx/g16/l1.exe PID=   2023603.
  
 Copyright (c) 1988,1990,1992,1993,1995,1998,2003,2009,2016,
            Gaussian, Inc.  All Rights Reserved.
  
 This is part of the Gaussian(R) 16 program.  It is based on
 the Gaussian(R) 09 system (copyright 2009, Gaussian, Inc.),
 the Gaussian(R) 03 system (copyright 2003, Gaussian, Inc.),
 the Gaussian(R) 98 system (copyright 1998, Gaussian, Inc.),
 the Gaussian(R) 94 system (copyright 1995, Gaussian, Inc.),
 the Gaussian 92(TM) system (copyright 1992, Gaussian, Inc.),
 the Gaussian 90(TM) system (copyright 1990, Gaussian, Inc.),
 the Gaussian 88(TM) system (copyright 1988, Gaussian, Inc.),
 the Gaussian 86(TM) system (copyright 1986, Carnegie Mellon
 University), and the Gaussian 82(TM) system (copyright 1983,
 Carnegie Mellon University). Gaussian is a federally registered
 trademark of Gaussian, Inc.
  
 This software contains proprietary and confidential information,
 including trade secrets, belonging to Gaussian, Inc.
  
 This software is provided under written license and may be
 used, copied, transmitted, or stored only in accord with that
 written license.
  
 The following legend is applicable only to US Government
 contracts under FAR:
  
                    RESTRICTED RIGHTS LEGEND
  
 Use, reproduction and disclosure by the US Government is
 subject to restrictions as set forth in subparagraphs (a)
 and (c) of the Commercial Computer Software - Restricted
 Rights clause in FAR 52.227-19.
  
 Gaussian, Inc.
 340 Quinnipiac St., Bldg. 40, Wallingford CT 06492
  
  
 ---------------------------------------------------------------
 Warning -- This program may not be used in any manner that
 competes with the business of Gaussian, Inc. or will provide
 assistance to any competitor of Gaussian, Inc.  The licensee
 of this program is prohibited from giving any competitor of
 Gaussian, Inc. access to this program.  By using this program,
 the user acknowledges that Gaussian, Inc. is engaged in the
 business of creating and licensing software in the field of
 computational chemistry and represents and warrants to the
 licensee that it is not a competitor of Gaussian, Inc. and that
 it will not use this program in any manner prohibited above.
 ---------------------------------------------------------------
  

 Cite this work as:
 Gaussian 16, Revision A.03,
 M. J. Frisch, G. W. Trucks, H. B. Schlegel, G. E. Scuseria, 
 M. A. Robb, J. R. Cheeseman, G. Scalmani, V. Barone, 
 G. A. Petersson, H. Nakatsuji, X. Li, M. Caricato, A. V. Marenich, 
 J. Bloino, B. G. Janesko, R. Gomperts, B. Mennucci, H. P. Hratchian, 
 J. V. Ortiz, A. F. Izmaylov, J. L. Sonnenberg, D. Williams-Young, 
 F. Ding, F. Lipparini, F. Egidi, J. Goings, B. Peng, A. Petrone, 
 T. Henderson, D. Ranasinghe, V. G. Zakrzewski, J. Gao, N. Rega, 
 G. Zheng, W. Liang, M. Hada, M. Ehara, K. Toyota, R. Fukuda, 
 J. Hasegawa, M. Ishida, T. Nakajima, Y. Honda, O. Kitao, H. Nakai, 
 T. Vreven, K. Throssell, J. A. Montgomery, Jr., J. E. Peralta, 
 F. Ogliaro, M. J. Bearpark, J. J. Heyd, E. N. Brothers, K. N. Kudin, 
 V. N. Staroverov, T. A. Keith, R. Kobayashi, J. Normand, 
 K. Raghavachari, A. P. Rendell, J. C. Burant, S. S. Iyengar, 
 J. Tomasi, M. Cossi, J. M. Millam, M. Klene, C. Adamo, R. Cammi, 
 J. W. Ochterski, R. L. Martin, K. Morokuma, O. Farkas, 
 J. B. Foresman, and D. J. Fox, Gaussian, Inc., Wallingford CT, 2016.
 
 ******************************************
 Gaussian 16:  ES64L-G16RevA.03 25-Dec-2016
                24-Jan-2026 
 ******************************************
 %nprocshared=16
 Will use up to   16 processors via shared memory.
 %mem=16GB
 %oldchk=DDL-LR-8.chk
 %chk=DDL-S2-cLR-8.chk
 Copying data from "DDL-LR-8.chk" to current chk file "DDL-S2-cLR-8.chk"
 IOpt=  2 FromEx=T IUOpen= 4 IOptOp= 5 NList=   0 IFRang= 0 IUIn= 4 IUOut= 2.
 ----------------------------------------------------------------------
 #p CAM-B3LYP TZVP em=gd3bj td(nstates=6,root=2) scrf=(Solvent=Water,Co
 rrectedLR,NonEquilibrium=Save) Geom=Check Guess=Read
 ----------------------------------------------------------------------
 1/29=2,30=1,38=1,172=1/1;
 2/12=2,40=1/2;
 3/5=19,7=101,11=9,14=-4,25=1,30=1,70=9002201,71=1,72=1,74=-40,116=-2,124=41/1,2,3,8;
 4/5=1/1;
 5/5=2,38=6,53=1/2;
 8/6=1,10=1,107=2,108=6/1;
 9/8=2,15=1,41=6,42=1,70=2,73=22/14;
 10/5=4,13=10,28=2,74=20/2;
 6/7=2,8=2,9=2,10=2,22=-1/1;
 99/5=1,9=1/99;
 Leave Link    1 at Sat Jan 24 19:39:45 2026, MaxMem=  2147483648 cpu:               1.1 elap:               0.1
 (Enter /data/home/wyx/g16/l101.exe)
 -------------------
 Title Card Required
 -------------------
 Structure from the checkpoint file:  "DDL-S2-cLR-8.chk"
 Charge =  0 Multiplicity = 1
 Z-Matrix found in chk file.
 O,0,2.728857,-1.55914,0.81628
 O,0,-3.274006,-1.653571,-0.98596
 N,0,-0.693907,1.515472,0.016374
 H,0,-1.002286,2.47489,-0.047396
 C,0,-1.251052,-0.761398,-0.165132
 C,0,0.642639,1.320904,0.235187
 C,0,-1.624535,0.562844,-0.264688
 C,0,-2.159567,-1.844051,-0.498298
 C,0,0.110991,-1.09067,0.341962
 H,0,0.042017,-1.481984,1.369757
 H,0,0.53269,-1.932913,-0.210509
 C,0,1.100394,0.026104,0.331829
 C,0,2.484831,-0.393573,0.490949
 C,0,-2.962573,1.095174,-0.640309
 H,0,-3.022723,2.166653,-0.464733
 H,0,-3.175739,0.912763,-1.689316
 H,0,-3.751518,0.607365,-0.08032
 C,0,-1.710103,-3.258694,-0.251885
 H,0,-2.564066,-3.924444,-0.298701
 H,0,-1.000118,-3.57068,-1.015577
 H,0,-1.217311,-3.383025,0.707129
 C,0,3.648551,0.529932,0.228726
 H,0,3.460781,1.240149,-0.571882
 H,0,3.900401,1.091339,1.130587
 H,0,4.507801,-0.085325,-0.029457
 C,0,1.415674,2.592228,0.361498
 H,0,2.189275,2.521462,1.116749
 H,0,1.888343,2.871841,-0.579629
 H,0,0.756259,3.410348,0.646762
 Recover connectivity data from disk.
 ITRead=  0  0  0  0  0  0  0  0  0  0  0  0  0  0  0  0  0  0  0  0
 ITRead=  0  0  0  0  0  0  0  0  0
 MicOpt= -1 -1 -1 -1 -1 -1 -1 -1 -1 -1 -1 -1 -1 -1 -1 -1 -1 -1 -1 -1
 MicOpt= -1 -1 -1 -1 -1 -1 -1 -1 -1
 NAtoms=     29 NQM=       29 NQMF=       0 NMMI=      0 NMMIF=      0
                NMic=       0 NMicF=      0.
                    Isotopes and Nuclear Properties:
 (Nuclear quadrupole moments (NQMom) in fm**2, nuclear magnetic moments (NMagM)
  in nuclear magnetons)

  Atom         1           2           3           4           5           6           7           8           9          10
 IAtWgt=          16          16          14           1          12          12          12          12          12           1
 AtmWgt=  15.9949146  15.9949146  14.0030740   1.0078250  12.0000000  12.0000000  12.0000000  12.0000000  12.0000000   1.0078250
 NucSpn=           0           0           2           1           0           0           0           0           0           1
 AtZEff=   5.6000000   5.6000000   4.5500000   1.0000000   3.6000000   3.6000000   3.6000000   3.6000000   3.6000000   1.0000000
 NQMom=    0.0000000   0.0000000   2.0440000   0.0000000   0.0000000   0.0000000   0.0000000   0.0000000   0.0000000   0.0000000
 NMagM=    0.0000000   0.0000000   0.4037610   2.7928460   0.0000000   0.0000000   0.0000000   0.0000000   0.0000000   2.7928460
 AtZNuc=   8.0000000   8.0000000   7.0000000   1.0000000   6.0000000   6.0000000   6.0000000   6.0000000   6.0000000   1.0000000

  Atom        11          12          13          14          15          16          17          18          19          20
 IAtWgt=           1          12          12          12           1           1           1          12           1           1
 AtmWgt=   1.0078250  12.0000000  12.0000000  12.0000000   1.0078250   1.0078250   1.0078250  12.0000000   1.0078250   1.0078250
 NucSpn=           1           0           0           0           1           1           1           0           1           1
 AtZEff=   1.0000000   3.6000000   3.6000000   3.6000000   1.0000000   1.0000000   1.0000000   3.6000000   1.0000000   1.0000000
 NQMom=    0.0000000   0.0000000   0.0000000   0.0000000   0.0000000   0.0000000   0.0000000   0.0000000   0.0000000   0.0000000
 NMagM=    2.7928460   0.0000000   0.0000000   0.0000000   2.7928460   2.7928460   2.7928460   0.0000000   2.7928460   2.7928460
 AtZNuc=   1.0000000   6.0000000   6.0000000   6.0000000   1.0000000   1.0000000   1.0000000   6.0000000   1.0000000   1.0000000

  Atom        21          22          23          24          25          26          27          28          29
 IAtWgt=           1          12           1           1           1          12           1           1           1
 AtmWgt=   1.0078250  12.0000000   1.0078250   1.0078250   1.0078250  12.0000000   1.0078250   1.0078250   1.0078250
 NucSpn=           1           0           1           1           1           0           1           1           1
 AtZEff=   1.0000000   3.6000000   1.0000000   1.0000000   1.0000000   3.6000000   1.0000000   1.0000000   1.0000000
 NQMom=    0.0000000   0.0000000   0.0000000   0.0000000   0.0000000   0.0000000   0.0000000   0.0000000   0.0000000
 NMagM=    2.7928460   0.0000000   2.7928460   2.7928460   2.7928460   0.0000000   2.7928460   2.7928460   2.7928460
 AtZNuc=   1.0000000   6.0000000   1.0000000   1.0000000   1.0000000   6.0000000   1.0000000   1.0000000   1.0000000
 Leave Link  101 at Sat Jan 24 19:39:48 2026, MaxMem=  2147483648 cpu:               0.9 elap:               0.1
 (Enter /data/home/wyx/g16/l202.exe)
                          Input orientation:                          
 ---------------------------------------------------------------------
 Center     Atomic      Atomic             Coordinates (Angstroms)
 Number     Number       Type             X           Y           Z
 ---------------------------------------------------------------------
      1          8           0        2.728857   -1.559140    0.816280
      2          8           0       -3.274006   -1.653571   -0.985960
      3          7           0       -0.693907    1.515472    0.016374
      4          1           0       -1.002286    2.474890   -0.047396
      5          6           0       -1.251052   -0.761398   -0.165132
      6          6           0        0.642639    1.320904    0.235187
      7          6           0       -1.624535    0.562844   -0.264688
      8          6           0       -2.159567   -1.844051   -0.498298
      9          6           0        0.110991   -1.090670    0.341962
     10          1           0        0.042017   -1.481984    1.369757
     11          1           0        0.532690   -1.932913   -0.210509
     12          6           0        1.100394    0.026104    0.331829
     13          6           0        2.484831   -0.393573    0.490949
     14          6           0       -2.962573    1.095174   -0.640309
     15          1           0       -3.022723    2.166653   -0.464733
     16          1           0       -3.175739    0.912763   -1.689316
     17          1           0       -3.751518    0.607365   -0.080320
     18          6           0       -1.710103   -3.258694   -0.251885
     19          1           0       -2.564066   -3.924444   -0.298701
     20          1           0       -1.000118   -3.570680   -1.015577
     21          1           0       -1.217311   -3.383025    0.707129
     22          6           0        3.648551    0.529932    0.228726
     23          1           0        3.460781    1.240149   -0.571882
     24          1           0        3.900401    1.091339    1.130587
     25          1           0        4.507801   -0.085325   -0.029457
     26          6           0        1.415674    2.592228    0.361498
     27          1           0        2.189275    2.521462    1.116749
     28          1           0        1.888343    2.871841   -0.579629
     29          1           0        0.756259    3.410348    0.646762
 ---------------------------------------------------------------------
                    Distance matrix (angstroms):
                    1          2          3          4          5
     1  O    0.000000
     2  O    6.268281   0.000000
     3  N    4.669947   4.207662   0.000000
     4  H    5.562442   4.804769   1.009776   0.000000
     5  C    4.176031   2.358405   2.351062   3.247970   0.000000
     6  C    3.603419   5.067426   1.368244   2.029117   2.842939
     7  C    4.962190   2.855430   1.361089   2.022456   1.379499
     8  C    5.070106   1.231288   3.701276   4.493981   1.452080
     9  C    2.701419   3.679462   2.746970   3.755556   1.490210
    10  H    2.744339   4.071223   3.370159   4.330790   2.132406
    11  H    2.452988   3.894906   3.667066   4.670277   2.134536
    12  C    2.323700   4.867571   2.353135   3.249866   2.529116
    13  C    1.234478   6.077258   3.738188   4.547294   3.810848
    14  C    6.446659   2.787842   2.398901   2.469390   2.569427
    15  H    6.971600   3.863798   2.465539   2.085988   3.435413
    16  H    6.874050   2.662787   3.071177   3.140070   2.971594
    17  H    6.891509   2.481941   3.191080   3.323704   2.851848
    18  C    4.871737   2.358194   4.888484   5.780727   2.540618
    19  H    5.903633   2.476531   5.761029   6.591949   3.427347
    20  H    4.615977   2.974349   5.198810   6.122605   2.945894
    21  H    4.348645   3.176091   4.974572   5.910221   2.763133
    22  C    2.356964   7.359684   4.457951   5.048702   5.082201
    23  H    3.209163   7.341828   4.205149   4.660326   5.135466
    24  H    2.914849   7.967836   4.746475   5.228594   5.625744
    25  H    2.460090   7.995675   5.442648   6.075861   5.799989
    26  C    4.377800   6.468041   2.393501   2.455095   4.316894
    27  H    4.127074   7.190252   3.245856   3.397567   4.925062
    28  H    4.721082   6.877086   2.977074   2.965903   4.819547
    29  H    5.349364   6.674735   2.467980   2.109364   4.700206
                    6          7          8          9         10
     6  C    0.000000
     7  C    2.442255   0.000000
     8  C    4.290373   2.476687   0.000000
     9  C    2.471789   2.472687   2.535558   0.000000
    10  H    3.082885   3.103245   2.909930   1.101929   0.000000
    11  H    3.286040   3.299297   2.709053   1.091983   1.715033
    12  C    1.376730   2.840627   3.848888   1.492047   2.114660
    13  C    2.529529   4.286328   4.965172   2.478560   2.815010
    14  C    3.716854   1.488224   3.050251   3.897379   4.439557
    15  H    3.826233   2.137089   4.102671   4.591413   5.105932
    16  H    4.295381   2.135004   3.170355   4.352290   5.044472
    17  H    4.462880   2.135423   2.952703   4.240356   4.567167
    18  C    5.171591   3.822517   1.504644   2.892986   2.975961
    19  H    6.171035   4.584717   2.128730   3.949260   3.942212
    20  H    5.309487   4.247323   2.143163   3.037750   3.337441
    21  H    5.080265   4.084133   2.170102   2.674439   2.374645
    22  C    3.108245   5.296223   6.316533   3.892750   4.284489
    23  H    2.932543   5.139411   6.411397   4.181976   4.782041
    24  H    3.386363   5.722850   6.927698   4.443278   4.643955
    25  H    4.121528   6.170981   6.911348   4.525551   4.883818
    26  C    1.493252   3.708555   5.762132   3.907213   4.416189
    27  H    2.147225   4.504409   6.370126   4.238757   4.549979
    28  H    2.149677   4.215562   6.215451   4.439572   5.115156
    29  H    2.132623   3.821937   6.117345   4.557240   4.996777
                   11         12         13         14         15
    11  H    0.000000
    12  C    2.110490   0.000000
    13  C    2.583112   1.455374   0.000000
    14  C    4.644449   4.312269   5.759368   0.000000
    15  H    5.432498   4.713444   6.148271   1.087434   0.000000
    16  H    4.902773   4.812121   6.205008   1.085877   1.759334
    17  H    4.982409   4.903956   6.341946   1.083503   1.763603
    18  C    2.605672   4.362283   5.134023   4.547056   5.585935
    19  H    3.682916   5.425188   6.211438   5.046986   6.110597
    20  H    2.383257   4.377729   4.950606   5.075653   6.108302
    21  H    2.450997   4.139416   4.763340   4.991572   5.952453
    22  C    3.995888   2.599534   1.508598   6.691912   6.904031
    23  H    4.332739   2.803930   2.179710   6.425354   6.550245
    24  H    4.720817   3.100448   2.148939   7.087771   7.185471
    25  H    4.387239   3.428318   2.111456   7.587701   7.872081
    26  C    4.645832   2.585590   3.174092   4.734325   4.534660
    27  H    4.934303   2.833474   2.996065   5.626996   5.458195
    28  H    5.005967   3.090281   3.487816   5.166393   4.962767
    29  H    5.416210   3.416243   4.181155   4.565774   4.130727
                   16         17         18         19         20
    16  H    0.000000
    17  H    1.735989   0.000000
    18  C    4.649231   4.375297   0.000000
    19  H    5.070160   4.689885   1.083821   0.000000
    20  H    5.028768   5.089299   1.088411   1.756415   0.000000
    21  H    5.294543   4.792233   1.085362   1.765949   1.746454
    22  C    7.099041   7.406924   6.580262   7.662653   6.322455
    23  H    6.737896   7.256673   6.861489   7.940178   6.575756
    24  H    7.619416   7.762241   7.232688   8.306039   7.096163
    25  H    7.923894   8.288471   6.984417   8.051250   6.592215
    26  C    5.301652   5.552905   6.661832   7.664281   6.761200
    27  H    6.264606   6.355294   7.105527   8.133108   7.199530
    28  H    5.542050   6.097966   7.116157   8.129721   7.073849
    29  H    5.211123   5.357744   7.167052   8.106641   7.388030
                   21         22         23         24         25
    21  H    0.000000
    22  C    6.262325   0.000000
    23  H    6.700310   1.086572   0.000000
    24  H    6.811037   1.091769   1.764599   0.000000
    25  H    6.647879   1.087893   1.774079   1.760447   0.000000
    26  C    6.538786   3.042439   2.623314   3.003004   4.108940
    27  H    6.829025   2.623788   2.471834   2.230111   3.672151
    28  H    7.100999   3.039129   2.266063   3.184871   3.988619
    29  H    7.074499   4.103280   3.675499   3.936689   5.172144
                   26         27         28         29
    26  C    0.000000
    27  H    1.083453   0.000000
    28  H    1.089642   1.758131   0.000000
    29  H    1.088818   1.750583   1.753750   0.000000
 Stoichiometry    C11H15NO2
 Framework group  C1[X(C11H15NO2)]
 Deg. of freedom    81
 Full point group                 C1      NOp   1
 RotChk:  IX=0 Diff= 5.71D-16
 Largest Abelian subgroup         C1      NOp   1
 Largest concise Abelian subgroup C1      NOp   1
                         Standard orientation:                         
 ---------------------------------------------------------------------
 Center     Atomic      Atomic             Coordinates (Angstroms)
 Number     Number       Type             X           Y           Z
 ---------------------------------------------------------------------
      1          8           0       -2.288086   -2.283662   -0.233892
      2          8           0        3.613274   -0.254108    0.354507
      3          7           0       -0.023592    1.799744   -0.154723
      4          1           0       -0.052092    2.809084   -0.162940
      5          6           0        1.294544   -0.144850   -0.062179
      6          6           0       -1.231454    1.158929   -0.104561
      7          6           0        1.209141    1.231966   -0.051960
      8          6           0        2.560330   -0.838291    0.097388
      9          6           0        0.056447   -0.942812   -0.288227
     10          1           0        0.066159   -1.366641   -1.305341
     11          1           0        0.052439   -1.832288    0.345211
     12          6           0       -1.233299   -0.217771   -0.095674
     13          6           0       -2.398343   -1.081640    0.024804
     14          6           0        2.332483    2.203033    0.047756
     15          1           0        1.993438    3.217638   -0.147533
     16          1           0        2.781345    2.181770    1.036290
     17          1           0        3.124474    1.961687   -0.651158
     18          6           0        2.579543   -2.336440   -0.040930
     19          1           0        3.601880   -2.677465   -0.155800
     20          1           0        2.168165   -2.806021    0.850643
     21          1           0        1.992669   -2.689199   -0.883040
     22          6           0       -3.737879   -0.576739    0.500815
     23          1           0       -3.659710    0.214538    1.241362
     24          1           0       -4.324068   -0.200421   -0.339856
     25          1           0       -4.276106   -1.419485    0.929301
     26          6           0       -2.398499    2.090378   -0.089935
     27          1           0       -3.225815    1.710895   -0.677652
     28          1           0       -2.758850    2.269278    0.922715
     29          1           0       -2.118368    3.055986   -0.507848
 ---------------------------------------------------------------------
 Rotational constants (GHZ):           1.0774490           0.4905165           0.3448049
 Leave Link  202 at Sat Jan 24 19:39:48 2026, MaxMem=  2147483648 cpu:               0.0 elap:               0.0
 (Enter /data/home/wyx/g16/l301.exe)
 Standard basis: TZVP (5D, 7F)
 Ernie: Thresh=  0.10000D-02 Tol=  0.10000D-05 Strict=F.
 There are   370 symmetry adapted cartesian basis functions of A   symmetry.
 There are   356 symmetry adapted basis functions of A   symmetry.
   356 basis functions,   610 primitive gaussians,   370 cartesian basis functions
    52 alpha electrons       52 beta electrons
       nuclear repulsion energy       900.3414679580 Hartrees.
 IExCor=20419 DFT=T Ex+Corr=CAM-B3LYP ExCW=0 ScaHFX=  1.000000
 ScaDFX=  1.000000  1.000000  1.000000  0.810000 ScalE2=  1.000000  1.000000
 IRadAn=      5 IRanWt=     -1 IRanGd=            0 ICorTp=0 IEmpDi=141
 HFx  wShort=  0.000000 wLong=  0.330000 cFull=  0.190000 cShort=  0.000000 cLong=  0.460000
 DFx  wShort=  0.000000 wLong=  0.330000 cFull=  0.190000 cShort=  0.000000 cLong=  0.460000
 NAtoms=   29 NActive=   29 NUniq=   29 SFac= 1.00D+00 NAtFMM=   60 NAOKFM=F Big=F
 Integral buffers will be    131072 words long.
 Raffenetti 1 integral format.
 Two-electron integral symmetry is turned on.
 R6Disp:  Grimme-D3(BJ) Dispersion energy=       -0.0261751135 Hartrees.
 Nuclear repulsion after empirical dispersion term =      900.3152928445 Hartrees.
 ------------------------------------------------------------------------------
 Polarizable Continuum Model (PCM)
 =================================
 Model                : PCM.
 Atomic radii         : UFF (Universal Force Field).
 Polarization charges : Total charges.
 Charge compensation  : None.
 Solution method      : On-the-fly selection.
 Cavity type          : Scaled VdW (van der Waals Surface) (Alpha=1.100).
 Cavity algorithm     : GePol (No added spheres)
                        Default sphere list used, NSphG=   29.
                        Lebedev-Laikov grids with approx.  5.0 points / Ang**2.
                        Smoothing algorithm: York/Karplus (Gamma=1.0000).
                        Polarization charges: spherical gaussians, with
                                              point-specific exponents (IZeta= 3).
                        Self-potential: point-specific (ISelfS= 7).
                        Self-field    : sphere-specific E.n sum rule (ISelfD= 2).
 1st derivatives      : Analytical E(r).r(x)/FMM algorithm (CHGder, D1EAlg=3).
                        Cavity 1st derivative terms included.
 Solvent              : Water, Eps=  78.355300 Eps(inf)=   1.777849
 ------------------------------------------------------------------------------
 GePol: Number of generator spheres                  =      29
 GePol: Total number of spheres                      =      29
 GePol: Number of exposed spheres                    =      29 (100.00%)
 GePol: Number of points                             =    2114
 GePol: Average weight of points                     =       0.13
 GePol: Minimum weight of points                     =   0.24D-10
 GePol: Maximum weight of points                     =    0.20577
 GePol: Number of points with low weight             =     138
 GePol: Fraction of low-weight points (<1% of avg)   =       6.53%
 GePol: Cavity surface area                          =    268.689 Ang**2
 GePol: Cavity volume                                =    286.738 Ang**3
 Leave Link  301 at Sat Jan 24 19:39:49 2026, MaxMem=  2147483648 cpu:               0.6 elap:               0.0
 (Enter /data/home/wyx/g16/l302.exe)
 NPDir=0 NMtPBC=     1 NCelOv=     1 NCel=       1 NClECP=     1 NCelD=      1
         NCelK=      1 NCelE2=     1 NClLst=     1 CellRange=     0.0.
 One-electron integrals computed using PRISM.
 One-electron integral symmetry used in STVInt
 NBasis=   356 RedAO= T EigKep=  4.62D-05  NBF=   356
 NBsUse=   356 1.00D-06 EigRej= -1.00D+00 NBFU=   356
 Precomputing XC quadrature grid using
 IXCGrd= 4 IRadAn=           5 IRanWt=          -1 IRanGd=           0 AccXCQ= 0.00D+00.
 Generated NRdTot=       0 NPtTot=           0 NUsed=           0 NTot=          32
 NSgBfM=   366   366   366   366   366 MxSgAt=    29 MxSgA2=    29.
 Leave Link  302 at Sat Jan 24 19:39:49 2026, MaxMem=  2147483648 cpu:               3.1 elap:               0.2
 (Enter /data/home/wyx/g16/l303.exe)
 DipDrv:  MaxL=1.
 Leave Link  303 at Sat Jan 24 19:39:49 2026, MaxMem=  2147483648 cpu:               0.6 elap:               0.0
 (Enter /data/home/wyx/g16/l308.exe)
 Leave Link  308 at Sat Jan 24 19:39:49 2026, MaxMem=  2147483648 cpu:               0.7 elap:               0.1
 (Enter /data/home/wyx/g16/l401.exe)
 Initial guess from the checkpoint file:  "DDL-S2-cLR-8.chk"
 B after Tr=     0.000000   -0.000000    0.000000
         Rot=    1.000000   -0.000000    0.000000   -0.000000 Ang=   0.00 deg.
 Guess basis will be translated and rotated to current coordinates.
 JPrj=2 DoOrth=T DoCkMO=T.
 Leave Link  401 at Sat Jan 24 19:39:50 2026, MaxMem=  2147483648 cpu:               2.2 elap:               0.2
 (Enter /data/home/wyx/g16/l502.exe)
 Integral symmetry usage will be decided dynamically.
 Closed shell SCF:
 Using DIIS extrapolation, IDIIS=  1040.
 NGot=  2147483648 LenX=  2147200095 LenY=  2147062754
 Requested convergence on RMS density matrix=1.00D-08 within 128 cycles.
 Requested convergence on MAX density matrix=1.00D-06.
 Requested convergence on             energy=1.00D-06.
 No special actions if energy rises.
 Fock matrices will be formed incrementally for  20 cycles.

 Cycle   1  Pass 1  IDiag  1:
 FoFJK:  IHMeth= 1 ICntrl=       0 DoSepK=T KAlg= 0 I1Cent=           0 FoldK=F
 IRaf=         1 NMat=       1 IRICut=       1 DoRegI=T DoRafI=F ISym2E= 0 IDoP0=0 IntGTp=1.
 FoFCou: FMM=F IPFlag=           0 FMFlag=      100000 FMFlg1=           0
         NFxFlg=           0 DoJE=T BraDBF=F KetDBF=F FulRan=T
         wScrn=  0.000000 ICntrl=       500 IOpCl=  0 I1Cent=           0 NGrid=           0
         NMat0=    1 NMatS0=      1 NMatT0=    0 NMatD0=    1 NMtDS0=    0 NMtDT0=    0
 Symmetry not used in FoFCou.
 Inv3:  Mode=1 IEnd=    13406988.
 Iteration    1 A*A^-1 deviation from unit magnitude is 3.22D-15 for    546.
 Iteration    1 A*A^-1 deviation from orthogonality  is 2.00D-15 for   1945    309.
 Iteration    1 A^-1*A deviation from unit magnitude is 3.11D-15 for    501.
 Iteration    1 A^-1*A deviation from orthogonality  is 1.77D-15 for    683    635.
 E= -633.329256967382    
 DIIS: error= 1.34D-08 at cycle   1 NSaved=   1.
 NSaved= 1 IEnMin= 1 EnMin= -633.329256967382     IErMin= 1 ErrMin= 1.34D-08
 ErrMax= 1.34D-08  0.00D+00 EMaxC= 1.00D-01 BMatC= 5.16D-14 BMatP= 5.16D-14
 IDIUse=1 WtCom= 1.00D+00 WtEn= 0.00D+00
 Coeff-Com:  0.100D+01
 Coeff:      0.100D+01
 Gap=     0.226 Goal=   None    Shift=    0.000
 RMSDP=2.67D-09 MaxDP=7.42D-08              OVMax= 2.68D-07

 Error on total polarization charges =  0.01549
 SCF Done:  E(RCAM-B3LYP) =  -633.329256967     A.U. after    1 cycles
            NFock=  1  Conv=0.27D-08     -V/T= 2.0041
 KE= 6.307164256546D+02 PE=-3.276666740050D+03 EE= 1.112305764584D+03
 Leave Link  502 at Sat Jan 24 19:39:55 2026, MaxMem=  2147483648 cpu:              85.2 elap:               5.6
 (Enter /data/home/wyx/g16/l801.exe)
 DoSCS=F DFT=T ScalE2(SS,OS)=  1.000000  1.000000
 ExpMin= 9.52D-02 ExpMax= 2.70D+04 ExpMxC= 9.22D+02 IAcc=3 IRadAn=         5 AccDes= 0.00D+00
 HarFok:  IExCor=  205 AccDes= 0.00D+00 IRadAn=         5 IDoV=-2 UseB2=F ITyADJ=14
 ICtDFT= 12500011 ScaDFX=  1.000000  1.000000  1.000000  1.000000
 Largest valence mixing into a core orbital is  5.61D-05
 Largest core mixing into a valence orbital is  1.18D-05
 Range of M.O.s used for correlation:    15   356
 NBasis=   356 NAE=    52 NBE=    52 NFC=    14 NFV=     0
 NROrb=    342 NOA=    38 NOB=    38 NVA=   304 NVB=   304

 **** Warning!!: The largest alpha MO coefficient is  0.59758044D+02

 Leave Link  801 at Sat Jan 24 19:39:56 2026, MaxMem=  2147483648 cpu:               1.0 elap:               0.1
 (Enter /data/home/wyx/g16/l914.exe)
 RHF ground state
 Two-electron integrals replicated using symmetry.
 MDV=  2147483648 DFT=T DoStab=F Mixed=T DoRPA=T DoScal=F NonHer=T
 NEqPCM:  Using equilibrium solvation (IEInf=0, Eps=  78.3553, EpsInf=   1.7778)
 Making orbital integer symmetry assigments:
 Orbital symmetries:
       Occupied  (A) (A) (A) (A) (A) (A) (A) (A) (A) (A) (A) (A)
                 (A) (A) (A) (A) (A) (A) (A) (A) (A) (A) (A) (A)
                 (A) (A) (A) (A) (A) (A) (A) (A) (A) (A) (A) (A)
                 (A) (A) (A) (A) (A) (A) (A) (A) (A) (A) (A) (A)
                 (A) (A) (A) (A)
       Virtual   (A) (A) (A) (A) (A) (A) (A) (A) (A) (A) (A) (A)
                 (A) (A) (A) (A) (A) (A) (A) (A) (A) (A) (A) (A)
                 (A) (A) (A) (A) (A) (A) (A) (A) (A) (A) (A) (A)
                 (A) (A) (A) (A) (A) (A) (A) (A) (A) (A) (A) (A)
                 (A) (A) (A) (A) (A) (A) (A) (A) (A) (A) (A) (A)
                 (A) (A) (A) (A) (A) (A) (A) (A) (A) (A) (A) (A)
                 (A) (A) (A) (A) (A) (A) (A) (A) (A) (A) (A) (A)
                 (A) (A) (A) (A) (A) (A) (A) (A) (A) (A) (A) (A)
                 (A) (A) (A) (A) (A) (A) (A) (A) (A) (A) (A) (A)
                 (A) (A) (A) (A) (A) (A) (A) (A) (A) (A) (A) (A)
                 (A) (A) (A) (A) (A) (A) (A) (A) (A) (A) (A) (A)
                 (A) (A) (A) (A) (A) (A) (A) (A) (A) (A) (A) (A)
                 (A) (A) (A) (A) (A) (A) (A) (A) (A) (A) (A) (A)
                 (A) (A) (A) (A) (A) (A) (A) (A) (A) (A) (A) (A)
                 (A) (A) (A) (A) (A) (A) (A) (A) (A) (A) (A) (A)
                 (A) (A) (A) (A) (A) (A) (A) (A) (A) (A) (A) (A)
                 (A) (A) (A) (A) (A) (A) (A) (A) (A) (A) (A) (A)
                 (A) (A) (A) (A) (A) (A) (A) (A) (A) (A) (A) (A)
                 (A) (A) (A) (A) (A) (A) (A) (A) (A) (A) (A) (A)
                 (A) (A) (A) (A) (A) (A) (A) (A) (A) (A) (A) (A)
                 (A) (A) (A) (A) (A) (A) (A) (A) (A) (A) (A) (A)
                 (A) (A) (A) (A) (A) (A) (A) (A) (A) (A) (A) (A)
                 (A) (A) (A) (A) (A) (A) (A) (A) (A) (A) (A) (A)
                 (A) (A) (A) (A) (A) (A) (A) (A) (A) (A) (A) (A)
                 (A) (A) (A) (A) (A) (A) (A) (A) (A) (A) (A) (A)
                 (A) (A) (A) (A)
 PCM Corrected Linear-Response:
 Compute the excitation energies in the ground state reaction field.
    24 initial guesses have been made.
 Convergence on wavefunction:    0.000001000000000
 Davidson Disk Diagonalization:  ConvIn= 1.00D-06 SkipCon=T Conv= 1.00D-06.
 Max sub-space:  2000 roots to seek:    24 dimension of matrix:        23104
 Iteration     1 Dimension    24 NMult     0 NNew     24
 CISAX will form    24 AO SS matrices at one time.
 NMat=    24 NSing=    24 JSym2X= 0.
 FoFJK:  IHMeth= 1 ICntrl=       0 DoSepK=T KAlg= 0 I1Cent=           0 FoldK=F
 IRaf=         1 NMat=      48 IRICut=       1 DoRegI=T DoRafI=F ISym2E= 0 IDoP0=3 IntGTp=3.
 FoFCou: FMM=F IPFlag=           0 FMFlag=      100000 FMFlg1=           0
         NFxFlg=           0 DoJE=F BraDBF=F KetDBF=F FulRan=T
         wScrn=  0.000000 ICntrl=       500 IOpCl=  0 I1Cent=           0 NGrid=           0
         NMat0=   24 NMatS0=     24 NMatT0=    0 NMatD0=   24 NMtDS0=    0 NMtDT0=    0
 Symmetry not used in FoFCou.
 New state      2 was old state      3
 New state      3 was old state      4
 New state      4 was old state      2
 New state      5 was old state      6
 New state      6 was old state      5
 Excitation Energies [eV] at current iteration:
 Root      1 :     3.752577493806453
 Root      2 :     4.269279160688739
 Root      3 :     4.474646664632767
 Root      4 :     5.420819095556967
 Root      5 :     6.072369972954919
 Root      6 :     6.413130132395991
 Root      7 :     6.702156617914004
 Root      8 :     6.789056503227948
 Root      9 :     6.992711034074579
 Root     10 :     7.006227891418085
 Root     11 :     7.227768750447313
 Root     12 :     7.341237518826731
 Root     13 :     7.468813478041018
 Root     14 :     7.497550891728148
 Root     15 :     7.867899473587625
 Root     16 :     7.874994248714775
 Root     17 :     8.126449760740906
 Root     18 :     8.191045869042570
 Root     19 :     8.312630766436449
 Root     20 :     8.331169367017710
 Root     21 :     8.561164061594900
 Root     22 :     8.795633079670948
 Root     23 :     8.884662955371484
 Root     24 :     9.042173880377188
 Iteration     2 Dimension    36 NMult    24 NNew     12
 CISAX will form    12 AO SS matrices at one time.
 NMat=    12 NSing=    12 JSym2X= 0.
 Root      1 not converged, maximum delta is    0.037644855281777
 Root      2 not converged, maximum delta is    0.074697838206294
 Root      3 not converged, maximum delta is    0.084450674268188
 Root      4 not converged, maximum delta is    0.195870233170557
 New state      5 was old state      6
 Root      5 not converged, maximum delta is    0.189758142356385
 New state      6 was old state      5
 Root      6 not converged, maximum delta is    0.095782562155414
 Excitation Energies [eV] at current iteration:
 Root      1 :     3.283226141467936   Change is   -0.469351352338517
 Root      2 :     4.046136799008380   Change is   -0.223142361680359
 Root      3 :     4.212423591679424   Change is   -0.262223072953344
 Root      4 :     5.105692597816726   Change is   -0.315126497740240
 Root      5 :     5.568519290584828   Change is   -0.844610841811164
 Root      6 :     5.965348324882553   Change is   -0.107021648072366
 Iteration     3 Dimension    48 NMult    36 NNew     12
 CISAX will form    12 AO SS matrices at one time.
 NMat=    12 NSing=    12 JSym2X= 0.
 Root      1 not converged, maximum delta is    0.008516450972907
 Root      2 not converged, maximum delta is    0.013659519876918
 Root      3 not converged, maximum delta is    0.012287867209603
 Root      4 not converged, maximum delta is    0.021308546478135
 Root      5 not converged, maximum delta is    0.023942352765348
 Root      6 not converged, maximum delta is    0.007425028806528
 Excitation Energies [eV] at current iteration:
 Root      1 :     3.263132023764852   Change is   -0.020094117703084
 Root      2 :     4.033163854534426   Change is   -0.012972944473953
 Root      3 :     4.198629871867642   Change is   -0.013793719811782
 Root      4 :     5.085547306164946   Change is   -0.020145291651780
 Root      5 :     5.531384099757599   Change is   -0.037135190827229
 Root      6 :     5.959831878206109   Change is   -0.005516446676443
 Iteration     4 Dimension    60 NMult    48 NNew     12
 CISAX will form    12 AO SS matrices at one time.
 NMat=    12 NSing=    12 JSym2X= 0.
 Root      1 not converged, maximum delta is    0.002209935920017
 Root      2 not converged, maximum delta is    0.001950848764930
 Root      3 not converged, maximum delta is    0.002131976041985
 Root      4 not converged, maximum delta is    0.002445161152045
 Root      5 not converged, maximum delta is    0.003837619869505
 Root      6 not converged, maximum delta is    0.002168941624497
 Excitation Energies [eV] at current iteration:
 Root      1 :     3.261583437095648   Change is   -0.001548586669204
 Root      2 :     4.032436529504587   Change is   -0.000727325029840
 Root      3 :     4.197722712277568   Change is   -0.000907159590074
 Root      4 :     5.083732602027314   Change is   -0.001814704137632
 Root      5 :     5.527663674750324   Change is   -0.003720425007274
 Root      6 :     5.959467042809367   Change is   -0.000364835396742
 Iteration     5 Dimension    72 NMult    60 NNew     12
 CISAX will form    12 AO SS matrices at one time.
 NMat=    12 NSing=    12 JSym2X= 0.
 Root      1 not converged, maximum delta is    0.000747577753112
 Root      2 not converged, maximum delta is    0.000339125518913
 Root      3 not converged, maximum delta is    0.000521542757321
 Root      4 not converged, maximum delta is    0.000543052519069
 Root      5 not converged, maximum delta is    0.001109694581546
 Root      6 not converged, maximum delta is    0.000379987076806
 Excitation Energies [eV] at current iteration:
 Root      1 :     3.261493389174431   Change is   -0.000090047921217
 Root      2 :     4.032381461447356   Change is   -0.000055068057231
 Root      3 :     4.197673652408296   Change is   -0.000049059869272
 Root      4 :     5.083603789791343   Change is   -0.000128812235971
 Root      5 :     5.527371175441392   Change is   -0.000292499308933
 Root      6 :     5.959437589527615   Change is   -0.000029453281752
 Iteration     6 Dimension    84 NMult    72 NNew     12
 CISAX will form    12 AO SS matrices at one time.
 NMat=    12 NSing=    12 JSym2X= 0.
 Root      1 not converged, maximum delta is    0.000171807608444
 Root      2 not converged, maximum delta is    0.000105119432721
 Root      3 not converged, maximum delta is    0.000125471134860
 Root      4 not converged, maximum delta is    0.000304211926624
 Root      5 not converged, maximum delta is    0.000625776394348
 Root      6 not converged, maximum delta is    0.000192605261637
 Excitation Energies [eV] at current iteration:
 Root      1 :     3.261488964120520   Change is   -0.000004425053911
 Root      2 :     4.032378213276164   Change is   -0.000003248171192
 Root      3 :     4.197670971145509   Change is   -0.000002681262786
 Root      4 :     5.083593603875133   Change is   -0.000010185916209
 Root      5 :     5.527343826606970   Change is   -0.000027348834422
 Root      6 :     5.959434774766480   Change is   -0.000002814761134
 Iteration     7 Dimension    96 NMult    84 NNew     12
 CISAX will form    12 AO SS matrices at one time.
 NMat=    12 NSing=    12 JSym2X= 0.
 Root      1 not converged, maximum delta is    0.000018253734719
 Root      2 not converged, maximum delta is    0.000022237177460
 Root      3 not converged, maximum delta is    0.000029509679537
 Root      4 not converged, maximum delta is    0.000085897967916
 Root      5 not converged, maximum delta is    0.000215968808718
 Root      6 not converged, maximum delta is    0.000075377880557
 Excitation Energies [eV] at current iteration:
 Root      1 :     3.261488715409633   Change is   -0.000000248710887
 Root      2 :     4.032378041992684   Change is   -0.000000171283481
 Root      3 :     4.197670823476584   Change is   -0.000000147668925
 Root      4 :     5.083592781830602   Change is   -0.000000822044531
 Root      5 :     5.527340700847951   Change is   -0.000003125759019
 Root      6 :     5.959434514182875   Change is   -0.000000260583606
 Iteration     8 Dimension   108 NMult    96 NNew     12
 CISAX will form    12 AO SS matrices at one time.
 NMat=    12 NSing=    12 JSym2X= 0.
 Root      1 not converged, maximum delta is    0.000002282942535
 Root      2 not converged, maximum delta is    0.000002932208470
 Root      3 not converged, maximum delta is    0.000002760261589
 Root      4 not converged, maximum delta is    0.000018026548807
 Root      5 not converged, maximum delta is    0.000030235616360
 Root      6 not converged, maximum delta is    0.000017949551846
 Excitation Energies [eV] at current iteration:
 Root      1 :     3.261488707115782   Change is   -0.000000008293851
 Root      2 :     4.032378033451895   Change is   -0.000000008540789
 Root      3 :     4.197670814559014   Change is   -0.000000008917571
 Root      4 :     5.083592725231060   Change is   -0.000000056599541
 Root      5 :     5.527340475916019   Change is   -0.000000224931932
 Root      6 :     5.959434487958078   Change is   -0.000000026224796
 Iteration     9 Dimension   120 NMult   108 NNew     12
 CISAX will form    12 AO SS matrices at one time.
 NMat=    12 NSing=    12 JSym2X= 0.
 Root      1 has converged.
 Root      2 has converged.
 Root      3 has converged.
 Root      4 not converged, maximum delta is    0.000003095231229
 Root      5 not converged, maximum delta is    0.000006617871394
 Root      6 not converged, maximum delta is    0.000005594139951
 Excitation Energies [eV] at current iteration:
 Root      1 :     3.261488706870784   Change is   -0.000000000244997
 Root      2 :     4.032378033135043   Change is   -0.000000000316852
 Root      3 :     4.197670814267680   Change is   -0.000000000291332
 Root      4 :     5.083592722382271   Change is   -0.000000002848790
 Root      5 :     5.527340463792533   Change is   -0.000000012123486
 Root      6 :     5.959434485668686   Change is   -0.000000002289393
 Iteration    10 Dimension   126 NMult   120 NNew      6
 CISAX will form     6 AO SS matrices at one time.
 NMat=     6 NSing=     6 JSym2X= 0.
 Root      1 has converged.
 Root      2 has converged.
 Root      3 has converged.
 Root      4 has converged.
 Root      5 not converged, maximum delta is    0.000001106367043
 Root      6 not converged, maximum delta is    0.000001516927673
 Excitation Energies [eV] at current iteration:
 Root      1 :     3.261488706870381   Change is   -0.000000000000403
 Root      2 :     4.032378033133085   Change is   -0.000000000001958
 Root      3 :     4.197670814266858   Change is   -0.000000000000822
 Root      4 :     5.083592722266485   Change is   -0.000000000115786
 Root      5 :     5.527340463183013   Change is   -0.000000000609521
 Root      6 :     5.959434485498985   Change is   -0.000000000169700
 Iteration    11 Dimension   130 NMult   126 NNew      4
 CISAX will form     4 AO SS matrices at one time.
 NMat=     4 NSing=     4 JSym2X= 0.
 Root      1 has converged.
 Root      2 has converged.
 Root      3 has converged.
 Root      4 has converged.
 Root      5 has converged.
 Root      6 has converged.
 Excitation Energies [eV] at current iteration:
 Root      1 :     3.261488706870205   Change is   -0.000000000000176
 Root      2 :     4.032378033132718   Change is   -0.000000000000367
 Root      3 :     4.197670814266702   Change is   -0.000000000000157
 Root      4 :     5.083592722264885   Change is   -0.000000000001600
 Root      5 :     5.527340463153505   Change is   -0.000000000029508
 Root      6 :     5.959434485486971   Change is   -0.000000000012015
 Convergence achieved on expansion vectors.
 PCM Corrected Linear-Response:
 The state of interest is root number   2
 Excitation energy =    4.0324 eV, Total energy =  -633.181069801    
 Recompute the excitation energies using the linear response reaction field.
 Convergence on wavefunction:    0.000001000000000
 Davidson Disk Diagonalization:  ConvIn= 1.00D-06 SkipCon=T Conv= 1.00D-06.
 Max sub-space:  2000 roots to seek:     6 dimension of matrix:        23104
 Iteration     1 Dimension     6 NMult     0 NNew      6
 CISAX will form     6 AO SS matrices at one time.
 NMat=     6 NSing=     6 JSym2X= 0.
 Excitation Energies [eV] at current iteration:
 Root      1 :     3.344395995863651
 Root      2 :     4.057746136450458
 Root      3 :     4.223096718685931
 Root      4 :     5.146432967392832
 Root      5 :     5.669797737652032
 Root      6 :     5.919617730849533
 Iteration     2 Dimension    18 NMult     6 NNew     12
 CISAX will form    12 AO SS matrices at one time.
 NMat=    12 NSing=    12 JSym2X= 0.
 Root      1 not converged, maximum delta is    0.018573826205762
 Root      2 not converged, maximum delta is    0.010458957528529
 Root      3 not converged, maximum delta is    0.009542634757520
 Root      4 not converged, maximum delta is    0.227617891023636
 Root      5 not converged, maximum delta is    0.287452360150748
 Root      6 not converged, maximum delta is    0.064908245981021
 Excitation Energies [eV] at current iteration:
 Root      1 :     3.116772487965597   Change is   -0.227623507898054
 Root      2 :     4.026944834735906   Change is   -0.030801301714551
 Root      3 :     4.191097092218317   Change is   -0.031999626467613
 Root      4 :     4.914438217205388   Change is   -0.231994750187443
 Root      5 :     5.377538598370552   Change is   -0.292259139281480
 Root      6 :     5.895583740942036   Change is   -0.024033989907497
 Iteration     3 Dimension    30 NMult    18 NNew     12
 CISAX will form    12 AO SS matrices at one time.
 NMat=    12 NSing=    12 JSym2X= 0.
 Root      1 not converged, maximum delta is    0.002816647831165
 Root      2 not converged, maximum delta is    0.001101267257017
 Root      3 not converged, maximum delta is    0.001444215306747
 Root      4 not converged, maximum delta is    0.012352302767082
 Root      5 not converged, maximum delta is    0.013790382716792
 Root      6 not converged, maximum delta is    0.008900565680068
 Excitation Energies [eV] at current iteration:
 Root      1 :     3.113313549400791   Change is   -0.003458938564806
 Root      2 :     4.026614055038765   Change is   -0.000330779697142
 Root      3 :     4.190714181784033   Change is   -0.000382910434285
 Root      4 :     4.904308264883121   Change is   -0.010129952322268
 Root      5 :     5.368810859746295   Change is   -0.008727738624256
 Root      6 :     5.893623612168712   Change is   -0.001960128773324
 Iteration     4 Dimension    42 NMult    30 NNew     12
 CISAX will form    12 AO SS matrices at one time.
 NMat=    12 NSing=    12 JSym2X= 0.
 Root      1 not converged, maximum delta is    0.001741365633226
 Root      2 not converged, maximum delta is    0.000201355902689
 Root      3 not converged, maximum delta is    0.000239010414450
 Root      4 not converged, maximum delta is    0.002665135410812
 Root      5 not converged, maximum delta is    0.003939821621047
 Root      6 not converged, maximum delta is    0.009056422311933
 Excitation Energies [eV] at current iteration:
 Root      1 :     3.112888283371055   Change is   -0.000425266029735
 Root      2 :     4.026598314635335   Change is   -0.000015740403430
 Root      3 :     4.190690799650830   Change is   -0.000023382133202
 Root      4 :     4.902585626630430   Change is   -0.001722638252692
 Root      5 :     5.367384338074539   Change is   -0.001426521671757
 Root      6 :     5.893022129553960   Change is   -0.000601482614752
 Iteration     5 Dimension    54 NMult    42 NNew     12
 CISAX will form    12 AO SS matrices at one time.
 NMat=    12 NSing=    12 JSym2X= 0.
 Root      1 not converged, maximum delta is    0.000420974359514
 Root      2 not converged, maximum delta is    0.000085042421115
 Root      3 not converged, maximum delta is    0.000082123280293
 Root      4 not converged, maximum delta is    0.000716862582411
 Root      5 not converged, maximum delta is    0.000640172802625
 Root      6 not converged, maximum delta is    0.003470261602698
 Excitation Energies [eV] at current iteration:
 Root      1 :     3.112859475164178   Change is   -0.000028808206877
 Root      2 :     4.026597259263972   Change is   -0.000001055371363
 Root      3 :     4.190688894258647   Change is   -0.000001905392183
 Root      4 :     4.902434769493660   Change is   -0.000150857136769
 Root      5 :     5.367250771204711   Change is   -0.000133566869827
 Root      6 :     5.892909351361855   Change is   -0.000112778192105
 Iteration     6 Dimension    66 NMult    54 NNew     12
 CISAX will form    12 AO SS matrices at one time.
 NMat=    12 NSing=    12 JSym2X= 0.
 Root      1 not converged, maximum delta is    0.000071041828613
 Root      2 not converged, maximum delta is    0.000025309180334
 Root      3 not converged, maximum delta is    0.000032804476321
 Root      4 not converged, maximum delta is    0.000276241810907
 Root      5 not converged, maximum delta is    0.000316773268243
 Root      6 not converged, maximum delta is    0.000873426084673
 Excitation Energies [eV] at current iteration:
 Root      1 :     3.112857804432263   Change is   -0.000001670731915
 Root      2 :     4.026597150790767   Change is   -0.000000108473204
 Root      3 :     4.190688717677915   Change is   -0.000000176580733
 Root      4 :     4.902420873485331   Change is   -0.000013896008330
 Root      5 :     5.367237238579001   Change is   -0.000013532625710
 Root      6 :     5.892894071893320   Change is   -0.000015279468534
 Iteration     7 Dimension    78 NMult    66 NNew     12
 CISAX will form    12 AO SS matrices at one time.
 NMat=    12 NSing=    12 JSym2X= 0.
 Root      1 not converged, maximum delta is    0.000010929418924
 Root      2 not converged, maximum delta is    0.000006293008061
 Root      3 not converged, maximum delta is    0.000007272539144
 Root      4 not converged, maximum delta is    0.000094418487768
 Root      5 not converged, maximum delta is    0.000100823513550
 Root      6 not converged, maximum delta is    0.000145411841281
 Excitation Energies [eV] at current iteration:
 Root      1 :     3.112857741507444   Change is   -0.000000062924819
 Root      2 :     4.026597145590024   Change is   -0.000000005200743
 Root      3 :     4.190688708755589   Change is   -0.000000008922326
 Root      4 :     4.902419778687504   Change is   -0.000001094797827
 Root      5 :     5.367236116006697   Change is   -0.000001122572304
 Root      6 :     5.892892535332410   Change is   -0.000001536560910
 Iteration     8 Dimension    90 NMult    78 NNew     12
 CISAX will form    12 AO SS matrices at one time.
 NMat=    12 NSing=    12 JSym2X= 0.
 Root      1 not converged, maximum delta is    0.000002601346673
 Root      2 not converged, maximum delta is    0.000001468732132
 Root      3 not converged, maximum delta is    0.000001165334331
 Root      4 not converged, maximum delta is    0.000026705962426
 Root      5 not converged, maximum delta is    0.000033556661413
 Root      6 not converged, maximum delta is    0.000038679251266
 Excitation Energies [eV] at current iteration:
 Root      1 :     3.112857738652127   Change is   -0.000000002855317
 Root      2 :     4.026597145414833   Change is   -0.000000000175191
 Root      3 :     4.190688708288829   Change is   -0.000000000466760
 Root      4 :     4.902419692924016   Change is   -0.000000085763487
 Root      5 :     5.367235998230579   Change is   -0.000000117776118
 Root      6 :     5.892892369167747   Change is   -0.000000166164663
 Iteration     9 Dimension   102 NMult    90 NNew     12
 CISAX will form    12 AO SS matrices at one time.
 NMat=    12 NSing=    12 JSym2X= 0.
 Root      1 has converged.
 Root      2 has converged.
 Root      3 has converged.
 Root      4 not converged, maximum delta is    0.000006577179775
 Root      5 not converged, maximum delta is    0.000010524986126
 Root      6 not converged, maximum delta is    0.000023474854298
 Excitation Energies [eV] at current iteration:
 Root      1 :     3.112857738521561   Change is   -0.000000000130567
 Root      2 :     4.026597145406912   Change is   -0.000000000007921
 Root      3 :     4.190688708256167   Change is   -0.000000000032662
 Root      4 :     4.902419687637077   Change is   -0.000000005286939
 Root      5 :     5.367235987855487   Change is   -0.000000010375091
 Root      6 :     5.892892350934252   Change is   -0.000000018233494
 Iteration    10 Dimension   108 NMult   102 NNew      6
 CISAX will form     6 AO SS matrices at one time.
 NMat=     6 NSing=     6 JSym2X= 0.
 Root      1 has converged.
 Root      2 has converged.
 Root      3 has converged.
 Root      4 not converged, maximum delta is    0.000001407471316
 Root      5 not converged, maximum delta is    0.000002699026232
 Root      6 not converged, maximum delta is    0.000008382006522
 Excitation Energies [eV] at current iteration:
 Root      1 :     3.112857738520848   Change is   -0.000000000000713
 Root      2 :     4.026597145406749   Change is   -0.000000000000163
 Root      3 :     4.190688708255578   Change is   -0.000000000000589
 Root      4 :     4.902419687358061   Change is   -0.000000000279016
 Root      5 :     5.367235987114749   Change is   -0.000000000740739
 Root      6 :     5.892892348952434   Change is   -0.000000001981819
 Iteration    11 Dimension   114 NMult   108 NNew      6
 CISAX will form     6 AO SS matrices at one time.
 NMat=     6 NSing=     6 JSym2X= 0.
 Root      1 has converged.
 Root      2 has converged.
 Root      3 has converged.
 Root      4 has converged.
 Root      5 has converged.
 Root      6 not converged, maximum delta is    0.000001411498114
 Excitation Energies [eV] at current iteration:
 Root      1 :     3.112857738520795   Change is   -0.000000000000053
 Root      2 :     4.026597145406708   Change is   -0.000000000000041
 Root      3 :     4.190688708255480   Change is   -0.000000000000098
 Root      4 :     4.902419687340991   Change is   -0.000000000017071
 Root      5 :     5.367235987062520   Change is   -0.000000000052229
 Root      6 :     5.892892348776953   Change is   -0.000000000175480
 Iteration    12 Dimension   116 NMult   114 NNew      2
 CISAX will form     2 AO SS matrices at one time.
 NMat=     2 NSing=     2 JSym2X= 0.
 Root      1 has converged.
 Root      2 has converged.
 Root      3 has converged.
 Root      4 has converged.
 Root      5 has converged.
 Root      6 has converged.
 Excitation Energies [eV] at current iteration:
 Root      1 :     3.112857738520769   Change is   -0.000000000000026
 Root      2 :     4.026597145406749   Change is    0.000000000000041
 Root      3 :     4.190688708255500   Change is    0.000000000000020
 Root      4 :     4.902419687340958   Change is   -0.000000000000033
 Root      5 :     5.367235987062504   Change is   -0.000000000000016
 Root      6 :     5.892892348764174   Change is   -0.000000000012779
 Convergence achieved on expansion vectors.
 ***********************************************************************
 Excited states from <AA,BB:AA,BB> singles matrix:
 ***********************************************************************
 
 1PDM for each excited state written to RWF  633
 Ground to excited state transition densities written to RWF  633
 Ground to excited state transition electric dipole moments (Au):
       state          X           Y           Z        Dip. S.      Osc.
         1         1.7191      0.2127      0.0566      3.0038      0.2291
         2         0.0781     -0.0267      0.0402      0.0084      0.0008
         3        -0.0364     -0.1574      0.0313      0.0271      0.0028
         4         0.2048     -1.9690      0.0964      3.9284      0.4718
         5         0.0721     -1.4598      0.0038      2.1361      0.2809
         6        -0.0273      0.2658      0.0433      0.0733      0.0106
 Ground to excited state transition velocity dipole moments (Au):
       state          X           Y           Z        Dip. S.      Osc.
         1        -0.1890     -0.0200     -0.0070      0.0362      0.2109
         2        -0.0111      0.0043     -0.0028      0.0001      0.0007
         3         0.0052      0.0222     -0.0014      0.0005      0.0023
         4        -0.0405      0.3404     -0.0137      0.1177      0.4354
         5        -0.0142      0.2831     -0.0020      0.0803      0.2715
         6         0.0069     -0.0543     -0.0293      0.0039      0.0119
 Ground to excited state transition magnetic dipole moments (Au):
       state          X           Y           Z
         1        -0.0442     -0.0345      1.4544
         2         0.8005      0.1246      0.2268
         3        -0.1764     -0.9833     -0.2100
         4         0.0569      0.1091     -0.1134
         5         0.1513      0.1043     -0.2643
         6         0.1119      0.0267     -0.0463
 Ground to excited state transition velocity quadrupole moments (Au):
       state          XX          YY          ZZ          XY          XZ          YZ
         1        -0.1878      0.1044      0.0037      0.5235     -0.0459      0.0166
         2         0.0139     -0.0089     -0.0030      0.0345     -0.0103      0.0858
         3        -0.0024      0.0043     -0.0245     -0.0651      0.0660     -0.0100
         4        -1.4035      0.3049      0.0087     -0.1210     -0.0918     -0.0377
         5        -0.3623      0.2587      0.0385     -0.2195     -0.0599      0.0238
         6        -0.2630     -0.2152      0.1801     -0.0241     -0.0401      0.1589
 <0|del|b> * <b|rxdel|0> + <0|del|b> * <b|delr+rdel|0>
 Rotatory Strengths (R) in cgs (10**-40 erg-esu-cm/Gauss)
       state          XX          YY          ZZ    R(velocity)    E-M Angle
         1       -43.3700     -3.9092     40.5101     -2.2564       90.23
         2        -0.3681    -24.7268    -17.7360    -14.2770      150.91
         3       -52.5553     -1.7849    -48.7205    -34.3536      164.33
         4       140.5414     -1.7276      4.0454     47.6197       50.67
         5        85.0196     -4.2934     19.2579     33.3280       72.20
         6        -2.5495      4.1264      0.6603      0.7457       84.90
 1/2[<0|r|b>*<b|rxdel|0> + (<0|rxdel|b>*<b|r|0>)*]
 Rotatory Strengths (R) in cgs (10**-40 erg-esu-cm/Gauss)
       state          XX          YY          ZZ     R(length)
         1        53.7905      5.1836    -58.1934      0.2602
         2       -44.2265      2.3502     -6.4459    -16.1074
         3        -4.5362   -109.4567      4.6551    -36.4460
         4        -8.2404    151.9829      7.7352     50.4926
         5        -7.7123    107.6383      0.7095     33.5452
         6         2.1608     -5.0154      1.4170     -0.4792
  1/2[<0|del|b>*<b|r|0> + (<0|r|b>*<b|del|0>)*] (Au)
       state          X           Y           Z        Dip. S.   Osc.(frdel)
         1        -0.3250     -0.0043     -0.0004      0.3297      0.2198
         2        -0.0009     -0.0001     -0.0001      0.0011      0.0007
         3        -0.0002     -0.0035     -0.0000      0.0037      0.0025
         4        -0.0083     -0.6702     -0.0013      0.6798      0.4532
         5        -0.0010     -0.4132     -0.0000      0.4142      0.2762
         6        -0.0002     -0.0144     -0.0013      0.0159      0.0106

 Excitation energies and oscillator strengths:
 
 Excited State   1:      Singlet-A      3.1129 eV  398.30 nm  f=0.2291  <S**2>=0.000
      52 -> 53         0.70051
 
 Excited State   2:      Singlet-A      4.0266 eV  307.91 nm  f=0.0008  <S**2>=0.000
      50 -> 54        -0.18426
      51 -> 53         0.57650
      51 -> 54         0.31132
 This state for optimization and/or second-order correction.
 Total Energy, E(TD-HF/TD-DFT) =  -633.181282245    
 Copying the excited state density for this state as the 1-particle RhoCI density.
 
 Excited State   3:      Singlet-A      4.1907 eV  295.86 nm  f=0.0028  <S**2>=0.000
      49 -> 53        -0.30539
      49 -> 54         0.18493
      50 -> 53         0.49639
      50 -> 54        -0.22378
      50 -> 58         0.10443
      51 -> 54        -0.20738
 
 Excited State   4:      Singlet-A      4.9024 eV  252.90 nm  f=0.4718  <S**2>=0.000
      49 -> 53         0.12524
      52 -> 54         0.68580
 
 Excited State   5:      Singlet-A      5.3672 eV  231.00 nm  f=0.2809  <S**2>=0.000
      49 -> 53         0.56930
      50 -> 53         0.35317
      51 -> 53         0.12742
      52 -> 54        -0.13703
 
 Excited State   6:      Singlet-A      5.8929 eV  210.40 nm  f=0.0106  <S**2>=0.000
      52 -> 55         0.65842
      52 -> 56         0.16427
 SavETr:  write IOETrn=   770 NScale= 10 NData=  16 NLR=1 NState=    6 LETran=     118.
 The selected state is a singlet.
 CISGrd: IGrad=1 NXY=2 DFT=T
 CISAX will form     1 AO SS matrices at one time.
 NMat=     1 NSing=     1 JSym2X= 0.
 Leave Link  914 at Sat Jan 24 19:48:00 2026, MaxMem=  2147483648 cpu:            7719.8 elap:             484.1
 (Enter /data/home/wyx/g16/l1002.exe)
 Minotr:  Closed shell wavefunction.
          Computing CIS/TDA/TD derivatives.
          Using Z-Vector for PSCF gradient.
          Skipping F1 and S1 gradient terms here.
 NEqPCM:  Using equilibrium solvation (IEInf=0, Eps=  78.3553, EpsInf=   1.7778)
          Frozen-core window.
          Direct CPHF calculation.
          Differentiating once with respect to electric field.
                with respect to dipole field.
          Electric field/nuclear overlap derivatives assumed to be zero.
          Requested convergence is 1.0D-10 RMS, and 1.0D-09 maximum.
          NewPWx=F KeepS1=T KeepF1=T KeepIn=T MapXYZ=F SortEE=F KeepMc=T.
 Two-electron integral symmetry used by symmetrizing perturbed Fock matrices.
          MDV=    2147483648 using IRadAn=       5.
          Solving linear equations separately, MaxMat=     384.
          There are     1 degrees of freedom in the 1st order CPHF.  IDoFFX=0 NUNeed=     1.
 FoFJK:  IHMeth= 1 ICntrl=       0 DoSepK=T KAlg= 0 I1Cent=           0 FoldK=F
 IRaf=         1 NMat=       1 IRICut=       1 DoRegI=T DoRafI=F ISym2E=-1 IDoP0=0 IntGTp=1.
 FoFCou: FMM=F IPFlag=           0 FMFlag=      100000 FMFlg1=           0
         NFxFlg=           0 DoJE=T BraDBF=F KetDBF=F FulRan=T
         wScrn=  0.000000 ICntrl=       500 IOpCl=  0 I1Cent=           0 NGrid=           0
         NMat0=    1 NMatS0=      1 NMatT0=    0 NMatD0=    1 NMtDS0=    0 NMtDT0=    0
 Petite list used in FoFCou.
 LinEq1:  Iter=  0 NonCon=     1 RMS=7.89D-03 Max=3.33D-01 NDo=     1
 AX will form     1 AO Fock derivatives at one time.
 LinEq1:  Iter=  1 NonCon=     1 RMS=2.14D-03 Max=9.56D-02 NDo=     1
 LinEq1:  Iter=  2 NonCon=     1 RMS=1.52D-03 Max=9.11D-02 NDo=     1
 LinEq1:  Iter=  3 NonCon=     1 RMS=6.15D-04 Max=3.22D-02 NDo=     1
 LinEq1:  Iter=  4 NonCon=     1 RMS=3.27D-04 Max=1.42D-02 NDo=     1
 LinEq1:  Iter=  5 NonCon=     1 RMS=1.69D-04 Max=8.60D-03 NDo=     1
 LinEq1:  Iter=  6 NonCon=     1 RMS=8.49D-05 Max=2.75D-03 NDo=     1
 LinEq1:  Iter=  7 NonCon=     1 RMS=4.89D-05 Max=1.96D-03 NDo=     1
 LinEq1:  Iter=  8 NonCon=     1 RMS=2.19D-05 Max=7.95D-04 NDo=     1
 LinEq1:  Iter=  9 NonCon=     1 RMS=1.61D-05 Max=7.81D-04 NDo=     1
 LinEq1:  Iter= 10 NonCon=     1 RMS=6.30D-06 Max=1.16D-04 NDo=     1
 LinEq1:  Iter= 11 NonCon=     1 RMS=3.76D-06 Max=1.33D-04 NDo=     1
 LinEq1:  Iter= 12 NonCon=     1 RMS=1.19D-06 Max=3.65D-05 NDo=     1
 LinEq1:  Iter= 13 NonCon=     1 RMS=5.57D-07 Max=1.45D-05 NDo=     1
 LinEq1:  Iter= 14 NonCon=     1 RMS=2.06D-07 Max=4.75D-06 NDo=     1
 LinEq1:  Iter= 15 NonCon=     1 RMS=9.01D-08 Max=2.79D-06 NDo=     1
 LinEq1:  Iter= 16 NonCon=     1 RMS=3.49D-08 Max=1.60D-06 NDo=     1
 LinEq1:  Iter= 17 NonCon=     1 RMS=1.42D-08 Max=5.98D-07 NDo=     1
 LinEq1:  Iter= 18 NonCon=     1 RMS=6.03D-09 Max=1.80D-07 NDo=     1
 LinEq1:  Iter= 19 NonCon=     1 RMS=1.73D-09 Max=4.00D-08 NDo=     1
 LinEq1:  Iter= 20 NonCon=     1 RMS=4.71D-10 Max=1.32D-08 NDo=     1
 LinEq1:  Iter= 21 NonCon=     1 RMS=1.69D-10 Max=4.39D-09 NDo=     1
 LinEq1:  Iter= 22 NonCon=     1 RMS=7.13D-11 Max=1.89D-09 NDo=     1
 LinEq1:  Iter= 23 NonCon=     0 RMS=2.02D-11 Max=6.39D-10 NDo=     1
 Linear equations converged to 1.000D-10 1.000D-09 after    23 iterations.
 PCM Corrected Linear-Response - Equilibrium solvation:
 Corrected transition energy               =    3.9263          eV
 Total energy after correction             = -633.184968100     a.u.
 NEqPCM:  Using non-equilibrium solvation (IEInf=1, Eps=  78.3553, EpsInf=   1.7778)
 Inv3:  Mode=1 IEnd=    13406988.
 Iteration    1 A*A^-1 deviation from unit magnitude is 3.22D-15 for    892.
 Iteration    1 A*A^-1 deviation from orthogonality  is 1.91D-15 for   1728    742.
 Iteration    1 A^-1*A deviation from unit magnitude is 3.11D-15 for   1761.
 Iteration    1 A^-1*A deviation from orthogonality  is 2.19D-15 for   1405    961.
 NEqSol: Computing the dynamic-inertial partition of the PCM polarization charges.
 End of Minotr F.D. properties file   721 does not exist.
 End of Minotr F.D. properties file   722 does not exist.
 End of Minotr F.D. properties file   788 does not exist.
 Leave Link 1002 at Sat Jan 24 19:50:01 2026, MaxMem=  2147483648 cpu:            1906.3 elap:             120.0
 (Enter /data/home/wyx/g16/l601.exe)
 Copying SCF densities to generalized density rwf, IOpCl= 0 IROHF=0.

 **********************************************************************

            Population analysis using the CI density.

 **********************************************************************

 Orbital symmetries:
       Occupied  (A) (A) (A) (A) (A) (A) (A) (A) (A) (A) (A) (A)
                 (A) (A) (A) (A) (A) (A) (A) (A) (A) (A) (A) (A)
                 (A) (A) (A) (A) (A) (A) (A) (A) (A) (A) (A) (A)
                 (A) (A) (A) (A) (A) (A) (A) (A) (A) (A) (A) (A)
                 (A) (A) (A) (A)
       Virtual   (A) (A) (A) (A) (A) (A) (A) (A) (A) (A) (A) (A)
                 (A) (A) (A) (A) (A) (A) (A) (A) (A) (A) (A) (A)
                 (A) (A) (A) (A) (A) (A) (A) (A) (A) (A) (A) (A)
                 (A) (A) (A) (A) (A) (A) (A) (A) (A) (A) (A) (A)
                 (A) (A) (A) (A) (A) (A) (A) (A) (A) (A) (A) (A)
                 (A) (A) (A) (A) (A) (A) (A) (A) (A) (A) (A) (A)
                 (A) (A) (A) (A) (A) (A) (A) (A) (A) (A) (A) (A)
                 (A) (A) (A) (A) (A) (A) (A) (A) (A) (A) (A) (A)
                 (A) (A) (A) (A) (A) (A) (A) (A) (A) (A) (A) (A)
                 (A) (A) (A) (A) (A) (A) (A) (A) (A) (A) (A) (A)
                 (A) (A) (A) (A) (A) (A) (A) (A) (A) (A) (A) (A)
                 (A) (A) (A) (A) (A) (A) (A) (A) (A) (A) (A) (A)
                 (A) (A) (A) (A) (A) (A) (A) (A) (A) (A) (A) (A)
                 (A) (A) (A) (A) (A) (A) (A) (A) (A) (A) (A) (A)
                 (A) (A) (A) (A) (A) (A) (A) (A) (A) (A) (A) (A)
                 (A) (A) (A) (A) (A) (A) (A) (A) (A) (A) (A) (A)
                 (A) (A) (A) (A) (A) (A) (A) (A) (A) (A) (A) (A)
                 (A) (A) (A) (A) (A) (A) (A) (A) (A) (A) (A) (A)
                 (A) (A) (A) (A) (A) (A) (A) (A) (A) (A) (A) (A)
                 (A) (A) (A) (A) (A) (A) (A) (A) (A) (A) (A) (A)
                 (A) (A) (A) (A) (A) (A) (A) (A) (A) (A) (A) (A)
                 (A) (A) (A) (A) (A) (A) (A) (A) (A) (A) (A) (A)
                 (A) (A) (A) (A) (A) (A) (A) (A) (A) (A) (A) (A)
                 (A) (A) (A) (A) (A) (A) (A) (A) (A) (A) (A) (A)
                 (A) (A) (A) (A) (A) (A) (A) (A) (A) (A) (A) (A)
                 (A) (A) (A) (A)
 The electronic state is 1-A.
 Alpha  occ. eigenvalues --  -19.17929 -19.17278 -14.44421 -10.33451 -10.33034
 Alpha  occ. eigenvalues --  -10.32456 -10.31950 -10.25710 -10.25183 -10.24808
 Alpha  occ. eigenvalues --  -10.24667 -10.24637 -10.24144 -10.23708  -1.11706
 Alpha  occ. eigenvalues --   -1.11324  -1.08095  -0.91343  -0.90479  -0.83975
 Alpha  occ. eigenvalues --   -0.82603  -0.81618  -0.78584  -0.73901  -0.71758
 Alpha  occ. eigenvalues --   -0.68728  -0.61675  -0.58275  -0.56961  -0.55181
 Alpha  occ. eigenvalues --   -0.54561  -0.54056  -0.52591  -0.51853  -0.50826
 Alpha  occ. eigenvalues --   -0.49942  -0.49563  -0.49241  -0.48491  -0.48133
 Alpha  occ. eigenvalues --   -0.47000  -0.45391  -0.45116  -0.43683  -0.43155
 Alpha  occ. eigenvalues --   -0.42371  -0.42204  -0.41841  -0.32745  -0.32315
 Alpha  occ. eigenvalues --   -0.31395  -0.25588
 Alpha virt. eigenvalues --   -0.02944   0.02482   0.06506   0.08221   0.08736
 Alpha virt. eigenvalues --    0.09975   0.10756   0.11807   0.12670   0.13596
 Alpha virt. eigenvalues --    0.13986   0.15108   0.15726   0.16288   0.16988
 Alpha virt. eigenvalues --    0.17497   0.17970   0.18059   0.18297   0.19211
 Alpha virt. eigenvalues --    0.20077   0.22097   0.22997   0.23471   0.23776
 Alpha virt. eigenvalues --    0.24210   0.24782   0.25746   0.26131   0.26700
 Alpha virt. eigenvalues --    0.27066   0.27828   0.28892   0.29045   0.30206
 Alpha virt. eigenvalues --    0.31760   0.32001   0.32479   0.33585   0.34527
 Alpha virt. eigenvalues --    0.35083   0.35987   0.36637   0.38114   0.38501
 Alpha virt. eigenvalues --    0.39690   0.41018   0.41559   0.42063   0.42601
 Alpha virt. eigenvalues --    0.44149   0.44595   0.45468   0.46215   0.46289
 Alpha virt. eigenvalues --    0.47362   0.47894   0.48009   0.48346   0.49206
 Alpha virt. eigenvalues --    0.49625   0.50495   0.50933   0.51470   0.51629
 Alpha virt. eigenvalues --    0.52706   0.53054   0.53517   0.53830   0.54337
 Alpha virt. eigenvalues --    0.54603   0.55688   0.56072   0.56621   0.58476
 Alpha virt. eigenvalues --    0.58657   0.59510   0.60850   0.61207   0.62917
 Alpha virt. eigenvalues --    0.63691   0.65606   0.66345   0.66431   0.67797
 Alpha virt. eigenvalues --    0.68575   0.69863   0.71357   0.71842   0.72542
 Alpha virt. eigenvalues --    0.73252   0.74164   0.74804   0.75936   0.77722
 Alpha virt. eigenvalues --    0.78680   0.79904   0.82556   0.85625   0.86624
 Alpha virt. eigenvalues --    0.89960   0.94183   1.00859   1.02116   1.23292
 Alpha virt. eigenvalues --    1.25142   1.27243   1.28062   1.29535   1.31071
 Alpha virt. eigenvalues --    1.32523   1.32865   1.34134   1.34948   1.36263
 Alpha virt. eigenvalues --    1.36533   1.37487   1.38532   1.39155   1.39878
 Alpha virt. eigenvalues --    1.40050   1.40699   1.40820   1.41435   1.41854
 Alpha virt. eigenvalues --    1.43511   1.43949   1.44287   1.45175   1.47340
 Alpha virt. eigenvalues --    1.48075   1.49652   1.49814   1.50350   1.51093
 Alpha virt. eigenvalues --    1.51311   1.52513   1.52794   1.54745   1.57949
 Alpha virt. eigenvalues --    1.58574   1.60508   1.60759   1.61366   1.62555
 Alpha virt. eigenvalues --    1.62790   1.63239   1.64341   1.64901   1.65823
 Alpha virt. eigenvalues --    1.66890   1.67243   1.67821   1.68316   1.68481
 Alpha virt. eigenvalues --    1.69038   1.70005   1.70234   1.71542   1.72372
 Alpha virt. eigenvalues --    1.73959   1.75046   1.76116   1.76603   1.78611
 Alpha virt. eigenvalues --    1.80913   1.83182   1.84390   1.86256   1.86692
 Alpha virt. eigenvalues --    1.86876   1.87784   1.88507   1.89256   1.90549
 Alpha virt. eigenvalues --    1.91417   1.94698   1.95376   1.98929   1.99759
 Alpha virt. eigenvalues --    2.01426   2.03917   2.05274   2.06969   2.09677
 Alpha virt. eigenvalues --    2.10955   2.12418   2.15377   2.17452   2.19861
 Alpha virt. eigenvalues --    2.20359   2.21492   2.22067   2.23168   2.26136
 Alpha virt. eigenvalues --    2.27281   2.27819   2.29433   2.31323   2.32266
 Alpha virt. eigenvalues --    2.33786   2.34419   2.36809   2.37945   2.38492
 Alpha virt. eigenvalues --    2.39661   2.40311   2.41559   2.43290   2.45086
 Alpha virt. eigenvalues --    2.46146   2.47829   2.50035   2.50546   2.51462
 Alpha virt. eigenvalues --    2.52432   2.53969   2.54983   2.56868   2.58042
 Alpha virt. eigenvalues --    2.59058   2.60669   2.61635   2.62615   2.63346
 Alpha virt. eigenvalues --    2.64652   2.65941   2.66830   2.67610   2.68725
 Alpha virt. eigenvalues --    2.71952   2.72202   2.73306   2.74199   2.75449
 Alpha virt. eigenvalues --    2.75884   2.76976   2.77396   2.78005   2.79208
 Alpha virt. eigenvalues --    2.80634   2.81909   2.83128   2.84041   2.84332
 Alpha virt. eigenvalues --    2.85501   2.86601   2.88550   2.89588   2.91811
 Alpha virt. eigenvalues --    2.97416   2.99239   3.00820   3.06010   3.10824
 Alpha virt. eigenvalues --    3.12588   3.15297   3.17591   3.18391   3.21084
 Alpha virt. eigenvalues --    3.21628   3.23212   3.24267   3.25764   3.26751
 Alpha virt. eigenvalues --    3.27648   3.29851   3.33211   3.34359   3.36800
 Alpha virt. eigenvalues --    3.37568   3.39074   3.39772   3.40435   3.41971
 Alpha virt. eigenvalues --    3.42507   3.44844   3.45527   3.47320   3.48247
 Alpha virt. eigenvalues --    3.49493   3.50072   3.55433   3.58455   3.59840
 Alpha virt. eigenvalues --    3.60726   3.90757   4.00556   4.33342   4.35963
 Alpha virt. eigenvalues --   21.66048  21.80276  22.08293  22.10931  22.11889
 Alpha virt. eigenvalues --   22.15147  22.15410  22.18751  22.20112  22.24643
 Alpha virt. eigenvalues --   22.28756  31.92229  43.63447  43.66094
          Condensed to atoms (all electrons):
               1          2          3          4          5          6
     1  O    7.981022   0.000000  -0.000210   0.000019   0.018822   0.012223
     2  O    0.000000   7.979809   0.000795   0.000023  -0.102374   0.000211
     3  N   -0.000210   0.000795   6.370340   0.370394  -0.093057   0.385370
     4  H    0.000019   0.000023   0.370394   0.412892   0.017089  -0.046191
     5  C    0.018822  -0.102374  -0.093057   0.017089   6.084117  -0.090251
     6  C    0.012223   0.000211   0.385370  -0.046191  -0.090251   5.580666
     7  C   -0.000426   0.005994   0.329717  -0.039235   0.321655  -0.115930
     8  C   -0.000140   0.316014   0.014598  -0.001003   0.330915   0.017945
     9  C   -0.016590   0.010946   0.001472  -0.000193  -0.443205  -0.066530
    10  H    0.007104   0.000000   0.004269   0.000034  -0.033548  -0.020872
    11  H    0.013480   0.000013  -0.001158   0.000023  -0.110819   0.025780
    12  C   -0.240340  -0.000798  -0.100597   0.015923   0.201604  -0.105916
    13  C    0.703915   0.000030   0.000525   0.000516   0.085431   0.136904
    14  C   -0.000007   0.010985  -0.029788  -0.008894  -0.095095   0.013559
    15  H    0.000000   0.000789   0.004666   0.002349   0.015702   0.003921
    16  H   -0.000000  -0.002419  -0.001760   0.000737  -0.000004  -0.000841
    17  H    0.000000  -0.001446   0.000503   0.000690   0.002929  -0.001366
    18  C    0.000164  -0.048385  -0.000328   0.000017  -0.026354  -0.000502
    19  H   -0.000003   0.000877  -0.000003  -0.000001   0.010446   0.000099
    20  H   -0.000096   0.002613  -0.000021  -0.000000  -0.017885  -0.000059
    21  H    0.000032   0.002350   0.000041   0.000000  -0.010313  -0.000534
    22  C   -0.105380   0.000000  -0.000015   0.000119   0.004347  -0.019115
    23  H    0.005067  -0.000000   0.000079  -0.000056  -0.000727  -0.026968
    24  H    0.001806  -0.000000  -0.000006  -0.000014  -0.000050   0.010330
    25  H    0.007167  -0.000000   0.000034  -0.000003  -0.000172  -0.001091
    26  C    0.000768   0.000002  -0.029996  -0.007089  -0.003144   0.178022
    27  H   -0.000315   0.000000   0.001499   0.000807  -0.000095  -0.058069
    28  H   -0.000054   0.000000  -0.003499   0.000529   0.000489  -0.033781
    29  H    0.000027  -0.000000   0.001480   0.001664  -0.000319  -0.046959
               7          8          9         10         11         12
     1  O   -0.000426  -0.000140  -0.016590   0.007104   0.013480  -0.240340
     2  O    0.005994   0.316014   0.010946   0.000000   0.000013  -0.000798
     3  N    0.329717   0.014598   0.001472   0.004269  -0.001158  -0.100597
     4  H   -0.039235  -0.001003  -0.000193   0.000034   0.000023   0.015923
     5  C    0.321655   0.330915  -0.443205  -0.033548  -0.110819   0.201604
     6  C   -0.115930   0.017945  -0.066530  -0.020872   0.025780  -0.105916
     7  C    5.499119  -0.120358  -0.072170  -0.009451   0.017265  -0.018165
     8  C   -0.120358   5.360845  -0.020380  -0.005531  -0.012584  -0.018768
     9  C   -0.072170  -0.020380   6.427521   0.394094   0.534166  -0.184089
    10  H   -0.009451  -0.005531   0.394094   0.578592  -0.047653  -0.012195
    11  H    0.017265  -0.012584   0.534166  -0.047653   0.531465  -0.113038
    12  C   -0.018165  -0.018768  -0.184089  -0.012195  -0.113038   7.413618
    13  C    0.010060  -0.003352  -0.284532   0.001028   0.000748  -0.389190
    14  C    0.211956  -0.015478   0.015077  -0.001078   0.000584  -0.005842
    15  H   -0.059877   0.000624  -0.000872   0.000060  -0.000004  -0.000095
    16  H   -0.047481  -0.005286   0.001224  -0.000070   0.000063  -0.000025
    17  H   -0.054028  -0.012434  -0.000407   0.000168  -0.000062   0.000318
    18  C    0.013179   0.192912  -0.028376  -0.012385   0.009268  -0.002108
    19  H   -0.000204  -0.046430   0.002718  -0.000224   0.000613  -0.000934
    20  H   -0.000937  -0.049428  -0.010196   0.001389  -0.001346   0.002734
    21  H    0.000536  -0.035153   0.005386   0.003185  -0.006672   0.002559
    22  C    0.000100  -0.000044   0.003160   0.002624  -0.000197  -0.250877
    23  H   -0.000002  -0.000002   0.003510  -0.000171  -0.000014   0.062604
    24  H    0.000020  -0.000001  -0.002610   0.000177  -0.000134  -0.012802
    25  H    0.000007   0.000002   0.000780  -0.000095  -0.000059   0.023041
    26  C    0.003292   0.000405   0.030632  -0.001014   0.000070  -0.089971
    27  H   -0.000884   0.000005   0.001319  -0.000134   0.000016  -0.003951
    28  H    0.000033  -0.000027  -0.001738  -0.000006   0.000045  -0.016080
    29  H    0.003559  -0.000010  -0.001078   0.000105  -0.000014   0.022170
              13         14         15         16         17         18
     1  O    0.703915  -0.000007   0.000000  -0.000000   0.000000   0.000164
     2  O    0.000030   0.010985   0.000789  -0.002419  -0.001446  -0.048385
     3  N    0.000525  -0.029788   0.004666  -0.001760   0.000503  -0.000328
     4  H    0.000516  -0.008894   0.002349   0.000737   0.000690   0.000017
     5  C    0.085431  -0.095095   0.015702  -0.000004   0.002929  -0.026354
     6  C    0.136904   0.013559   0.003921  -0.000841  -0.001366  -0.000502
     7  C    0.010060   0.211956  -0.059877  -0.047481  -0.054028   0.013179
     8  C   -0.003352  -0.015478   0.000624  -0.005286  -0.012434   0.192912
     9  C   -0.284532   0.015077  -0.000872   0.001224  -0.000407  -0.028376
    10  H    0.001028  -0.001078   0.000060  -0.000070   0.000168  -0.012385
    11  H    0.000748   0.000584  -0.000004   0.000063  -0.000062   0.009268
    12  C   -0.389190  -0.005842  -0.000095  -0.000025   0.000318  -0.002108
    13  C    5.512120  -0.000173   0.000011  -0.000017   0.000002   0.000815
    14  C   -0.000173   5.108010   0.401530   0.424603   0.441953   0.002393
    15  H    0.000011   0.401530   0.534926  -0.021591  -0.022744   0.000012
    16  H   -0.000017   0.424603  -0.021591   0.523395  -0.035348  -0.000546
    17  H    0.000002   0.441953  -0.022744  -0.035348   0.518362  -0.000455
    18  C    0.000815   0.002393   0.000012  -0.000546  -0.000455   5.089042
    19  H   -0.000045   0.000003   0.000003   0.000031   0.000052   0.398601
    20  H   -0.000012  -0.000249   0.000001  -0.000038  -0.000001   0.432673
    21  H    0.000124  -0.000253  -0.000002   0.000028   0.000016   0.407030
    22  C    0.289102  -0.000019   0.000002  -0.000000  -0.000000   0.000014
    23  H   -0.094372   0.000002  -0.000000   0.000000   0.000000   0.000002
    24  H   -0.025909  -0.000001   0.000000  -0.000000  -0.000000  -0.000002
    25  H   -0.039844   0.000001  -0.000000   0.000000   0.000000  -0.000000
    26  C   -0.055449   0.001317  -0.000062  -0.000061   0.000041   0.000017
    27  H   -0.004179   0.000080  -0.000013   0.000002  -0.000001   0.000001
    28  H    0.006887  -0.000154   0.000006  -0.000015   0.000003  -0.000001
    29  H   -0.000504  -0.000230   0.000116  -0.000001  -0.000006  -0.000000
              19         20         21         22         23         24
     1  O   -0.000003  -0.000096   0.000032  -0.105380   0.005067   0.001806
     2  O    0.000877   0.002613   0.002350   0.000000  -0.000000  -0.000000
     3  N   -0.000003  -0.000021   0.000041  -0.000015   0.000079  -0.000006
     4  H   -0.000001  -0.000000   0.000000   0.000119  -0.000056  -0.000014
     5  C    0.010446  -0.017885  -0.010313   0.004347  -0.000727  -0.000050
     6  C    0.000099  -0.000059  -0.000534  -0.019115  -0.026968   0.010330
     7  C   -0.000204  -0.000937   0.000536   0.000100  -0.000002   0.000020
     8  C   -0.046430  -0.049428  -0.035153  -0.000044  -0.000002  -0.000001
     9  C    0.002718  -0.010196   0.005386   0.003160   0.003510  -0.002610
    10  H   -0.000224   0.001389   0.003185   0.002624  -0.000171   0.000177
    11  H    0.000613  -0.001346  -0.006672  -0.000197  -0.000014  -0.000134
    12  C   -0.000934   0.002734   0.002559  -0.250877   0.062604  -0.012802
    13  C   -0.000045  -0.000012   0.000124   0.289102  -0.094372  -0.025909
    14  C    0.000003  -0.000249  -0.000253  -0.000019   0.000002  -0.000001
    15  H    0.000003   0.000001  -0.000002   0.000002  -0.000000   0.000000
    16  H    0.000031  -0.000038   0.000028  -0.000000   0.000000  -0.000000
    17  H    0.000052  -0.000001   0.000016  -0.000000   0.000000  -0.000000
    18  C    0.398601   0.432673   0.407030   0.000014   0.000002  -0.000002
    19  H    0.514929  -0.028170  -0.018862  -0.000001   0.000000  -0.000000
    20  H   -0.028170   0.523578  -0.037043   0.000001  -0.000000   0.000000
    21  H   -0.018862  -0.037043   0.512903   0.000013  -0.000000  -0.000000
    22  C   -0.000001   0.000001   0.000013   5.415628   0.397759   0.405109
    23  H    0.000000  -0.000000  -0.000000   0.397759   0.541874  -0.026735
    24  H   -0.000000   0.000000  -0.000000   0.405109  -0.026735   0.498195
    25  H    0.000000  -0.000001   0.000000   0.380259  -0.022076  -0.010819
    26  C    0.000001  -0.000005  -0.000006  -0.032546   0.015052  -0.011673
    27  H    0.000000  -0.000000   0.000000   0.004831  -0.008024  -0.001526
    28  H   -0.000000   0.000001  -0.000000  -0.010458  -0.002059   0.001252
    29  H   -0.000000   0.000000   0.000000   0.002012   0.000645   0.000187
              25         26         27         28         29
     1  O    0.007167   0.000768  -0.000315  -0.000054   0.000027
     2  O   -0.000000   0.000002   0.000000   0.000000  -0.000000
     3  N    0.000034  -0.029996   0.001499  -0.003499   0.001480
     4  H   -0.000003  -0.007089   0.000807   0.000529   0.001664
     5  C   -0.000172  -0.003144  -0.000095   0.000489  -0.000319
     6  C   -0.001091   0.178022  -0.058069  -0.033781  -0.046959
     7  C    0.000007   0.003292  -0.000884   0.000033   0.003559
     8  C    0.000002   0.000405   0.000005  -0.000027  -0.000010
     9  C    0.000780   0.030632   0.001319  -0.001738  -0.001078
    10  H   -0.000095  -0.001014  -0.000134  -0.000006   0.000105
    11  H   -0.000059   0.000070   0.000016   0.000045  -0.000014
    12  C    0.023041  -0.089971  -0.003951  -0.016080   0.022170
    13  C   -0.039844  -0.055449  -0.004179   0.006887  -0.000504
    14  C    0.000001   0.001317   0.000080  -0.000154  -0.000230
    15  H   -0.000000  -0.000062  -0.000013   0.000006   0.000116
    16  H    0.000000  -0.000061   0.000002  -0.000015  -0.000001
    17  H    0.000000   0.000041  -0.000001   0.000003  -0.000006
    18  C   -0.000000   0.000017   0.000001  -0.000001  -0.000000
    19  H    0.000000   0.000001   0.000000  -0.000000  -0.000000
    20  H   -0.000001  -0.000005  -0.000000   0.000001   0.000000
    21  H    0.000000  -0.000006   0.000000  -0.000000   0.000000
    22  C    0.380259  -0.032546   0.004831  -0.010458   0.002012
    23  H   -0.022076   0.015052  -0.008024  -0.002059   0.000645
    24  H   -0.010819  -0.011673  -0.001526   0.001252   0.000187
    25  H    0.505344   0.002071   0.000857   0.000028  -0.000045
    26  C    0.002071   5.263753   0.437936   0.422442   0.387703
    27  H    0.000857   0.437936   0.519283  -0.031000  -0.026524
    28  H    0.000028   0.422442  -0.031000   0.494109  -0.016974
    29  H   -0.000045   0.387703  -0.026524  -0.016974   0.519269
 Mulliken charges:
               1
     1  O   -0.388057
     2  O   -0.176030
     3  N   -0.225343
     4  H    0.278852
     5  C   -0.066134
     6  C    0.269941
     7  C    0.122658
     8  C    0.112146
     9  C   -0.299038
    10  H    0.151599
    11  H    0.160155
    12  C   -0.178791
    13  C    0.149357
    14  C   -0.474790
    15  H    0.140540
    16  H    0.165419
    17  H    0.163260
    18  C   -0.426699
    19  H    0.166505
    20  H    0.182495
    21  H    0.174636
    22  C   -0.486427
    23  H    0.154611
    24  H    0.175206
    25  H    0.154612
    26  C   -0.512510
    27  H    0.168077
    28  H    0.190020
    29  H    0.153726
 Sum of Mulliken charges =  -0.00000
 Mulliken charges with hydrogens summed into heavy atoms:
               1
     1  O   -0.388057
     2  O   -0.176030
     3  N    0.053509
     5  C   -0.066134
     6  C    0.269941
     7  C    0.122658
     8  C    0.112146
     9  C    0.012716
    12  C   -0.178791
    13  C    0.149357
    14  C   -0.005570
    18  C    0.096937
    22  C   -0.001997
    26  C   -0.000686
 Electronic spatial extent (au):  <R**2>=           3186.9771
 Charge=              0.0000 electrons
 Dipole moment (field-independent basis, Debye):
    X=             -0.1057    Y=              6.4496    Z=              0.2748  Tot=              6.4563
 Quadrupole moment (field-independent basis, Debye-Ang):
   XX=            -86.8565   YY=            -78.4186   ZZ=            -86.2670
   XY=            -16.3276   XZ=             -3.3965   YZ=             -1.8748
 Traceless Quadrupole moment (field-independent basis, Debye-Ang):
   XX=             -3.0091   YY=              5.4287   ZZ=             -2.4196
   XY=            -16.3276   XZ=             -3.3965   YZ=             -1.8748
 Octapole moment (field-independent basis, Debye-Ang**2):
  XXX=            -43.2634  YYY=             58.0275  ZZZ=              1.7828  XYY=             43.8388
  XXY=             19.8501  XXZ=             -1.0221  XZZ=             -1.1575  YZZ=             -1.8179
  YYZ=              3.3340  XYZ=              5.1598
 Hexadecapole moment (field-independent basis, Debye-Ang**3):
 XXXX=          -2822.3336 YYYY=          -1274.1288 ZZZZ=           -151.9932 XXXY=            -91.1700
 XXXZ=            -29.5477 YYYX=           -111.2112 YYYZ=            -19.4778 ZZZX=              3.8310
 ZZZY=              3.8815 XXYY=           -681.2503 XXZZ=           -485.1057 YYZZ=           -246.0624
 XXYZ=            -10.4535 YYXZ=             -9.8386 ZZXY=             -1.4075
 N-N= 9.003152928445D+02 E-N=-3.276878459225D+03  KE= 6.308137506700D+02
 No NMR shielding tensors so no spin-rotation constants.
 Leave Link  601 at Sat Jan 24 19:50:01 2026, MaxMem=  2147483648 cpu:               1.8 elap:               0.1
 (Enter /data/home/wyx/g16/l9999.exe)
 Electronic transition elements 
                 1             2             3             4             5 
      1  -0.633215D+03 -0.633181D+03 -0.633175D+03 -0.633149D+03 -0.633132D+03
      2  -0.164634D+01 -0.554283D-01  0.916713D-01  0.479635D+00  0.415906D+00
      3  -0.382464D+00 -0.519767D-01 -0.136126D+00 -0.192301D+01 -0.139793D+01
      4  -0.383554D+00 -0.515418D-01 -0.121232D-01  0.185225D-01  0.945582D-01
      5   0.179782D+00  0.825866D-02 -0.124389D-01 -0.776357D-01 -0.807007D-01
      6   0.452468D-01  0.780000D-02  0.191060D-01  0.334080D+00  0.271159D+00
      7   0.426626D-01  0.442402D-02 -0.128353D-02 -0.523818D-02 -0.171001D-01
      8   0.338021D+00 -0.735681D+00  0.446117D+00 -0.110847D+00 -0.226026D+00
      9  -0.328228D-01 -0.156210D+00 -0.863262D+00  0.846344D-01  0.496851D-01
     10  -0.141529D+01 -0.377080D+00  0.312958D+00  0.925793D-01  0.223709D+00
     11   0.184972D+00  0.243952D-01 -0.648934D-01 -0.119843D+01 -0.394310D+00
     12  -0.263291D+00 -0.300067D-01  0.456992D-01  0.186197D+00  0.326500D+00
     13  -0.141784D-02  0.761158D-02 -0.347960D-02 -0.777031D-01  0.274748D-02
     14  -0.481709D+00 -0.221696D-02  0.416238D-01 -0.443684D+00 -0.195923D-01
     15   0.389511D-02  0.246998D-01  0.502238D-01 -0.336333D+00 -0.134974D+00
     16  -0.125422D+00 -0.860376D-01  0.399339D-01 -0.863912D-01 -0.505219D-01
                 6 
      1  -0.633113D+03
      2  -0.540113D-01
      3   0.258913D+00
      4  -0.577882D-01
      5   0.575012D-02
      6  -0.531090D-01
      7   0.316598D-01
      8  -0.121243D+00
      9  -0.123019D-01
     10   0.230244D-01
     11  -0.261430D+00
     12  -0.208714D+00
     13   0.172021D+00
     14   0.346474D-01
     15  -0.731675D-01
     16  -0.155191D+00
 1\1\GINC-CN012\SP\RCAM-B3LYP TD-FC\TZVP\C11H15N1O2\WYX\24-Jan-2026\0\\
 #p CAM-B3LYP TZVP em=gd3bj td(nstates=6,root=2) scrf=(Solvent=Water,Co
 rrectedLR,NonEquilibrium=Save) Geom=Check Guess=Read\\Title Card Requi
 red\\0,1\O,0,2.728857,-1.55914,0.81628\O,0,-3.274006,-1.653571,-0.9859
 6\N,0,-0.693907,1.515472,0.016374\H,0,-1.002286,2.47489,-0.047396\C,0,
 -1.251052,-0.761398,-0.165132\C,0,0.642639,1.320904,0.235187\C,0,-1.62
 4535,0.562844,-0.264688\C,0,-2.159567,-1.844051,-0.498298\C,0,0.110991
 ,-1.09067,0.341962\H,0,0.042017,-1.481984,1.369757\H,0,0.53269,-1.9329
 13,-0.210509\C,0,1.100394,0.026104,0.331829\C,0,2.484831,-0.393573,0.4
 90949\C,0,-2.962573,1.095174,-0.640309\H,0,-3.022723,2.166653,-0.46473
 3\H,0,-3.175739,0.912763,-1.689316\H,0,-3.751518,0.607365,-0.08032\C,0
 ,-1.710103,-3.258694,-0.251885\H,0,-2.564066,-3.924444,-0.298701\H,0,-
 1.000118,-3.57068,-1.015577\H,0,-1.217311,-3.383025,0.707129\C,0,3.648
 551,0.529932,0.228726\H,0,3.460781,1.240149,-0.571882\H,0,3.900401,1.0
 91339,1.130587\H,0,4.507801,-0.085325,-0.029457\C,0,1.415674,2.592228,
 0.361498\H,0,2.189275,2.521462,1.116749\H,0,1.888343,2.871841,-0.57962
 9\H,0,0.756259,3.410348,0.646762\\Version=ES64L-G16RevA.03\State=1-A\H
 F=-633.329257\RMSD=2.669e-09\Dipole=-0.7777115,2.4004112,-0.2920343\Qu
 adrupole=-7.8373064,11.0594444,-3.222138,7.1216005,-4.1342238,1.754453
 4\PG=C01 [X(C11H15N1O2)]\\@


 The mind is not a vessel to be filled but a fire to be kindled.
                                  -- Plutarch
 Job cpu time:       0 days  2 hours 42 minutes  3.7 seconds.
 Elapsed time:       0 days  0 hours 10 minutes 10.7 seconds.
 File lengths (MBytes):  RWF=    735 Int=      0 D2E=      0 Chk=     67 Scr=      1
 Normal termination of Gaussian 16 at Sat Jan 24 19:50:04 2026.
