 Entering Gaussian System, Link 0=g16
 Input=DDL-S1-cLR-gs-10.gjf
 Output=DDL-S1-cLR-gs-10.log
 Initial command:
 /data/home/wyx/g16/l1.exe "/scr/tmp/wyx/13117/Gau-2034396.inp" -scrdir="/scr/tmp/wyx/13117/"
 Entering Link 1 = /data/home/wyx/g16/l1.exe PID=   2034397.
  
 Copyright (c) 1988,1990,1992,1993,1995,1998,2003,2009,2016,
            Gaussian, Inc.  All Rights Reserved.
  
 This is part of the Gaussian(R) 16 program.  It is based on
 the Gaussian(R) 09 system (copyright 2009, Gaussian, Inc.),
 the Gaussian(R) 03 system (copyright 2003, Gaussian, Inc.),
 the Gaussian(R) 98 system (copyright 1998, Gaussian, Inc.),
 the Gaussian(R) 94 system (copyright 1995, Gaussian, Inc.),
 the Gaussian 92(TM) system (copyright 1992, Gaussian, Inc.),
 the Gaussian 90(TM) system (copyright 1990, Gaussian, Inc.),
 the Gaussian 88(TM) system (copyright 1988, Gaussian, Inc.),
 the Gaussian 86(TM) system (copyright 1986, Carnegie Mellon
 University), and the Gaussian 82(TM) system (copyright 1983,
 Carnegie Mellon University). Gaussian is a federally registered
 trademark of Gaussian, Inc.
  
 This software contains proprietary and confidential information,
 including trade secrets, belonging to Gaussian, Inc.
  
 This software is provided under written license and may be
 used, copied, transmitted, or stored only in accord with that
 written license.
  
 The following legend is applicable only to US Government
 contracts under FAR:
  
                    RESTRICTED RIGHTS LEGEND
  
 Use, reproduction and disclosure by the US Government is
 subject to restrictions as set forth in subparagraphs (a)
 and (c) of the Commercial Computer Software - Restricted
 Rights clause in FAR 52.227-19.
  
 Gaussian, Inc.
 340 Quinnipiac St., Bldg. 40, Wallingford CT 06492
  
  
 ---------------------------------------------------------------
 Warning -- This program may not be used in any manner that
 competes with the business of Gaussian, Inc. or will provide
 assistance to any competitor of Gaussian, Inc.  The licensee
 of this program is prohibited from giving any competitor of
 Gaussian, Inc. access to this program.  By using this program,
 the user acknowledges that Gaussian, Inc. is engaged in the
 business of creating and licensing software in the field of
 computational chemistry and represents and warrants to the
 licensee that it is not a competitor of Gaussian, Inc. and that
 it will not use this program in any manner prohibited above.
 ---------------------------------------------------------------
  

 Cite this work as:
 Gaussian 16, Revision A.03,
 M. J. Frisch, G. W. Trucks, H. B. Schlegel, G. E. Scuseria, 
 M. A. Robb, J. R. Cheeseman, G. Scalmani, V. Barone, 
 G. A. Petersson, H. Nakatsuji, X. Li, M. Caricato, A. V. Marenich, 
 J. Bloino, B. G. Janesko, R. Gomperts, B. Mennucci, H. P. Hratchian, 
 J. V. Ortiz, A. F. Izmaylov, J. L. Sonnenberg, D. Williams-Young, 
 F. Ding, F. Lipparini, F. Egidi, J. Goings, B. Peng, A. Petrone, 
 T. Henderson, D. Ranasinghe, V. G. Zakrzewski, J. Gao, N. Rega, 
 G. Zheng, W. Liang, M. Hada, M. Ehara, K. Toyota, R. Fukuda, 
 J. Hasegawa, M. Ishida, T. Nakajima, Y. Honda, O. Kitao, H. Nakai, 
 T. Vreven, K. Throssell, J. A. Montgomery, Jr., J. E. Peralta, 
 F. Ogliaro, M. J. Bearpark, J. J. Heyd, E. N. Brothers, K. N. Kudin, 
 V. N. Staroverov, T. A. Keith, R. Kobayashi, J. Normand, 
 K. Raghavachari, A. P. Rendell, J. C. Burant, S. S. Iyengar, 
 J. Tomasi, M. Cossi, J. M. Millam, M. Klene, C. Adamo, R. Cammi, 
 J. W. Ochterski, R. L. Martin, K. Morokuma, O. Farkas, 
 J. B. Foresman, and D. J. Fox, Gaussian, Inc., Wallingford CT, 2016.
 
 ******************************************
 Gaussian 16:  ES64L-G16RevA.03 25-Dec-2016
                24-Jan-2026 
 ******************************************
 %nprocshared=16
 Will use up to   16 processors via shared memory.
 %mem=16GB
 %oldchk=DDL-S1-cLR-10.chk
 %chk=DDL-S1-cLR-gs-10.chk
 Copying data from "DDL-S1-cLR-10.chk" to current chk file "DDL-S1-cLR-gs-10.chk"
 IOpt=  2 FromEx=T IUOpen= 4 IOptOp= 5 NList=   0 IFRang= 0 IUIn= 4 IUOut= 2.
 ----------------------------------------------------------------------
 #p CAM-B3LYP TZVP em=gd3bj scrf=(Solvent=Water,NonEquilibrium=Read) Ge
 om=Check Guess=Read
 ----------------------------------------------------------------------
 1/29=2,38=1,172=1/1;
 2/12=2,40=1/2;
 3/5=19,7=101,11=2,14=-4,25=1,30=1,70=6002201,72=1,74=-40,116=-2,124=41/1,2,3;
 4/5=1/1;
 5/5=2,38=6,53=1/2;
 6/7=2,8=2,9=2,10=2,28=1/1;
 99/5=1,9=1/99;
 Leave Link    1 at Sat Jan 24 23:04:08 2026, MaxMem=  2147483648 cpu:               0.8 elap:               0.1
 (Enter /data/home/wyx/g16/l101.exe)
 -------------------
 Title Card Required
 -------------------
 Structure from the checkpoint file:  "DDL-S1-cLR-gs-10.chk"
 Charge =  0 Multiplicity = 1
 Z-Matrix found in chk file.
 O,0,2.734014,-1.5589,0.793923
 O,0,-3.259804,-1.649664,-1.022918
 N,0,-0.698803,1.514889,0.048595
 H,0,-1.007133,2.47372,-0.013227
 C,0,-1.250234,-0.760451,-0.161152
 C,0,0.642107,1.314882,0.24953
 C,0,-1.62307,0.557362,-0.253139
 C,0,-2.157038,-1.841258,-0.513425
 C,0,0.106747,-1.095213,0.369667
 H,0,0.025487,-1.465938,1.402961
 H,0,0.530347,-1.9433,-0.169918
 C,0,1.098267,0.025718,0.34027
 C,0,2.48697,-0.39262,0.480434
 C,0,-2.956238,1.091804,-0.645477
 H,0,-3.028011,2.156977,-0.438305
 H,0,-3.139188,0.940961,-1.705527
 H,0,-3.755054,0.580038,-0.122441
 C,0,-1.714567,-3.255362,-0.252065
 H,0,-2.563296,-3.924083,-0.337708
 H,0,-0.968567,-3.561565,-0.983194
 H,0,-1.263597,-3.376512,0.728249
 C,0,3.648083,0.532705,0.213092
 H,0,3.456938,1.239105,-0.590126
 H,0,3.898485,1.098535,1.112426
 H,0,4.508692,-0.081325,-0.042984
 C,0,1.416357,2.588057,0.357753
 H,0,2.21049,2.520251,1.091003
 H,0,1.860168,2.8679,-0.597243
 H,0,0.761446,3.403289,0.660945
 Recover connectivity data from disk.
 ITRead=  0  0  0  0  0  0  0  0  0  0  0  0  0  0  0  0  0  0  0  0
 ITRead=  0  0  0  0  0  0  0  0  0
 MicOpt= -1 -1 -1 -1 -1 -1 -1 -1 -1 -1 -1 -1 -1 -1 -1 -1 -1 -1 -1 -1
 MicOpt= -1 -1 -1 -1 -1 -1 -1 -1 -1
 NAtoms=     29 NQM=       29 NQMF=       0 NMMI=      0 NMMIF=      0
                NMic=       0 NMicF=      0.
                    Isotopes and Nuclear Properties:
 (Nuclear quadrupole moments (NQMom) in fm**2, nuclear magnetic moments (NMagM)
  in nuclear magnetons)

  Atom         1           2           3           4           5           6           7           8           9          10
 IAtWgt=          16          16          14           1          12          12          12          12          12           1
 AtmWgt=  15.9949146  15.9949146  14.0030740   1.0078250  12.0000000  12.0000000  12.0000000  12.0000000  12.0000000   1.0078250
 NucSpn=           0           0           2           1           0           0           0           0           0           1
 AtZEff=   5.6000000   5.6000000   4.5500000   1.0000000   3.6000000   3.6000000   3.6000000   3.6000000   3.6000000   1.0000000
 NQMom=    0.0000000   0.0000000   2.0440000   0.0000000   0.0000000   0.0000000   0.0000000   0.0000000   0.0000000   0.0000000
 NMagM=    0.0000000   0.0000000   0.4037610   2.7928460   0.0000000   0.0000000   0.0000000   0.0000000   0.0000000   2.7928460
 AtZNuc=   8.0000000   8.0000000   7.0000000   1.0000000   6.0000000   6.0000000   6.0000000   6.0000000   6.0000000   1.0000000

  Atom        11          12          13          14          15          16          17          18          19          20
 IAtWgt=           1          12          12          12           1           1           1          12           1           1
 AtmWgt=   1.0078250  12.0000000  12.0000000  12.0000000   1.0078250   1.0078250   1.0078250  12.0000000   1.0078250   1.0078250
 NucSpn=           1           0           0           0           1           1           1           0           1           1
 AtZEff=   1.0000000   3.6000000   3.6000000   3.6000000   1.0000000   1.0000000   1.0000000   3.6000000   1.0000000   1.0000000
 NQMom=    0.0000000   0.0000000   0.0000000   0.0000000   0.0000000   0.0000000   0.0000000   0.0000000   0.0000000   0.0000000
 NMagM=    2.7928460   0.0000000   0.0000000   0.0000000   2.7928460   2.7928460   2.7928460   0.0000000   2.7928460   2.7928460
 AtZNuc=   1.0000000   6.0000000   6.0000000   6.0000000   1.0000000   1.0000000   1.0000000   6.0000000   1.0000000   1.0000000

  Atom        21          22          23          24          25          26          27          28          29
 IAtWgt=           1          12           1           1           1          12           1           1           1
 AtmWgt=   1.0078250  12.0000000   1.0078250   1.0078250   1.0078250  12.0000000   1.0078250   1.0078250   1.0078250
 NucSpn=           1           0           1           1           1           0           1           1           1
 AtZEff=   1.0000000   3.6000000   1.0000000   1.0000000   1.0000000   3.6000000   1.0000000   1.0000000   1.0000000
 NQMom=    0.0000000   0.0000000   0.0000000   0.0000000   0.0000000   0.0000000   0.0000000   0.0000000   0.0000000
 NMagM=    2.7928460   0.0000000   2.7928460   2.7928460   2.7928460   0.0000000   2.7928460   2.7928460   2.7928460
 AtZNuc=   1.0000000   6.0000000   1.0000000   1.0000000   1.0000000   6.0000000   1.0000000   1.0000000   1.0000000
 Leave Link  101 at Sat Jan 24 23:04:11 2026, MaxMem=  2147483648 cpu:               0.9 elap:               0.1
 (Enter /data/home/wyx/g16/l202.exe)
                          Input orientation:                          
 ---------------------------------------------------------------------
 Center     Atomic      Atomic             Coordinates (Angstroms)
 Number     Number       Type             X           Y           Z
 ---------------------------------------------------------------------
      1          8           0        2.734014   -1.558900    0.793923
      2          8           0       -3.259804   -1.649664   -1.022918
      3          7           0       -0.698803    1.514889    0.048595
      4          1           0       -1.007133    2.473720   -0.013227
      5          6           0       -1.250234   -0.760451   -0.161152
      6          6           0        0.642107    1.314882    0.249530
      7          6           0       -1.623070    0.557362   -0.253139
      8          6           0       -2.157038   -1.841258   -0.513425
      9          6           0        0.106747   -1.095213    0.369667
     10          1           0        0.025487   -1.465938    1.402961
     11          1           0        0.530347   -1.943300   -0.169918
     12          6           0        1.098267    0.025718    0.340270
     13          6           0        2.486970   -0.392620    0.480434
     14          6           0       -2.956238    1.091804   -0.645477
     15          1           0       -3.028011    2.156977   -0.438305
     16          1           0       -3.139188    0.940961   -1.705527
     17          1           0       -3.755054    0.580038   -0.122441
     18          6           0       -1.714567   -3.255362   -0.252065
     19          1           0       -2.563296   -3.924083   -0.337708
     20          1           0       -0.968567   -3.561565   -0.983194
     21          1           0       -1.263597   -3.376512    0.728249
     22          6           0        3.648083    0.532705    0.213092
     23          1           0        3.456938    1.239105   -0.590126
     24          1           0        3.898485    1.098535    1.112426
     25          1           0        4.508692   -0.081325   -0.042984
     26          6           0        1.416357    2.588057    0.357753
     27          1           0        2.210490    2.520251    1.091003
     28          1           0        1.860168    2.867900   -0.597243
     29          1           0        0.761446    3.403289    0.660945
 ---------------------------------------------------------------------
                    Distance matrix (angstroms):
                    1          2          3          4          5
     1  O    0.000000
     2  O    6.263785   0.000000
     3  N    4.667754   4.209663   0.000000
     4  H    5.559649   4.805861   1.009082   0.000000
     5  C    4.174197   2.360447   2.350583   3.246666   0.000000
     6  C    3.595979   5.062861   1.370554   2.032717   2.838419
     7  C    4.955712   2.853493   1.364614   2.027157   1.372625
     8  C    5.070629   1.229790   3.702167   4.493497   1.454144
     9  C    2.701394   3.685156   2.750387   3.758273   1.495069
    10  H    2.777713   4.088005   3.353242   4.311937   2.138136
    11  H    2.435755   3.896033   3.676633   4.679579   2.137680
    12  C    2.322172   4.863946   2.352056   3.248135   2.526844
    13  C    1.232686   6.071708   3.738211   4.546247   3.809675
    14  C    6.440270   2.783929   2.399323   2.471526   2.564346
    15  H    6.966137   3.858240   2.464662   2.089250   3.427636
    16  H    6.855002   2.681761   3.059709   3.123922   2.974566
    17  H    6.893677   2.455138   3.200605   3.339016   2.841220
    18  C    4.874623   2.358016   4.886458   5.777533   2.539380
    19  H    5.910683   2.475403   5.762637   6.592330   3.429850
    20  H    4.569236   2.984411   5.187268   6.112854   2.932802
    21  H    4.391915   3.167559   4.970586   5.902607   2.763148
    22  C    2.355355   7.349106   4.459503   5.048742   5.079943
    23  H    3.204223   7.324406   4.213574   4.667442   5.132223
    24  H    2.918801   7.959484   4.737103   5.217597   5.620244
    25  H    2.456242   7.985580   5.447411   6.078936   5.800035
    26  C    4.373067   6.459955   2.391897   2.454384   4.311899
    27  H    4.123325   7.195899   3.249824   3.402144   4.930265
    28  H    4.721812   6.841323   2.965818   2.952604   4.798928
    29  H    5.341538   6.673693   2.464418   2.108667   4.696747
                    6          7          8          9         10
     6  C    0.000000
     7  C    2.440807   0.000000
     8  C    4.287019   2.471082   0.000000
     9  C    2.471761   2.472076   2.541881   0.000000
    10  H    3.073041   3.090979   2.928620   1.100789   0.000000
    11  H    3.286971   3.301127   2.711171   1.090798   1.719508
    12  C    1.370496   2.835570   3.848559   1.496817   2.122547
    13  C    2.524361   4.281708   4.965191   2.484224   2.839360
    14  C    3.714685   1.488924   3.042862   3.898133   4.430443
    15  H    3.827794   2.137034   4.092691   4.588711   5.083269
    16  H    4.273202   2.134290   3.182211   4.357583   5.046883
    17  H    4.473632   2.136107   2.927319   4.238177   4.561289
    18  C    5.166492   3.813822   1.504586   2.893092   2.994818
    19  H    6.169782   4.579795   2.129338   3.953734   3.971675
    20  H    5.281441   4.234019   2.143036   3.011549   3.327692
    21  H    5.086262   4.070345   2.167255   2.685284   2.401513
    22  C    3.106287   5.291789   6.313712   3.900730   4.305063
    23  H    2.938373   5.136615   6.404002   4.194523   4.802552
    24  H    3.375706   5.713598   6.924964   4.443141   4.654143
    25  H    4.121339   6.168516   6.910183   4.536008   4.909892
    26  C    1.494038   3.706080   5.757337   3.909181   4.411559
    27  H    2.149608   4.511744   6.377480   4.244719   4.556452
    28  H    2.147688   4.194036   6.190407   4.440233   5.113611
    29  H    2.131888   3.823711   6.115715   4.555216   4.980120
                   11         12         13         14         15
    11  H    0.000000
    12  C    2.111837   0.000000
    13  C    2.579911   1.457103   0.000000
    14  C    4.646965   4.306652   5.753234   0.000000
    15  H    5.435643   4.708993   6.144879   1.087504   0.000000
    16  H    4.913506   4.793640   6.181466   1.086246   1.759803
    17  H    4.973344   4.906740   6.346053   1.083318   1.764964
    18  C    2.601518   4.362153   5.136610   4.538102   5.572543
    19  H    3.677266   5.428409   6.216573   5.040659   6.099621
    20  H    2.350945   4.346488   4.911736   5.071364   6.102453
    21  H    2.465570   4.159819   4.799143   4.971720   5.923977
    22  C    3.999697   2.602839   1.508602   6.683322   6.901653
    23  H    4.343871   2.810920   2.179326   6.415106   6.551344
    24  H    4.716092   3.096511   2.148332   7.076545   7.176448
    25  H    4.394348   3.433561   2.111452   7.580528   7.871986
    26  C    4.647219   2.582067   3.169495   4.729147   4.535631
    27  H    4.933162   2.832549   2.988989   5.634794   5.469245
    28  H    5.009858   3.088272   3.490739   5.133674   4.942162
    29  H    5.415695   3.409438   4.173601   4.568465   4.137829
                   16         17         18         19         20
    16  H    0.000000
    17  H    1.736582   0.000000
    18  C    4.663821   4.346341   0.000000
    19  H    5.086377   4.664090   1.083911   0.000000
    20  H    5.050357   5.065400   1.088497   1.758190   0.000000
    21  H    5.299215   4.752401   1.085848   1.767856   1.746518
    22  C    7.065042   7.410888   6.582085   7.664696   6.285507
    23  H    6.696409   7.257129   6.859955   7.935077   6.541103
    24  H    7.582515   7.769839   7.233575   8.311690   7.056653
    25  H    7.892983   8.290550   6.989076   8.053984   6.557166
    26  C    5.265267   5.568323   6.657335   7.663503   6.730814
    27  H    6.239695   6.389412   7.111091   8.146146   7.169183
    28  H    5.471284   6.081979   7.098747   8.109588   7.034822
    29  H    5.184418   5.383606   7.162532   8.108119   7.362427
                   21         22         23         24         25
    21  H    0.000000
    22  C    6.298568   0.000000
    23  H    6.732420   1.086599   0.000000
    24  H    6.842567   1.091635   1.764485   0.000000
    25  H    6.691216   1.087776   1.774566   1.760510   0.000000
    26  C    6.549466   3.037433   2.623379   2.991516   4.104720
    27  H    6.853662   2.605329   2.453806   2.207048   3.651829
    28  H    7.106864   3.050642   2.280942   3.195052   4.002476
    29  H    7.076089   4.095546   3.676214   3.918768   5.165259
                   26         27         28         29
    26  C    0.000000
    27  H    1.083005   0.000000
    28  H    1.089632   1.758909   0.000000
    29  H    1.088778   1.750553   1.754100   0.000000
 Stoichiometry    C11H15NO2
 Framework group  C1[X(C11H15NO2)]
 Deg. of freedom    81
 Full point group                 C1      NOp   1
 RotChk:  IX=0 Diff= 8.50D-16
 Largest Abelian subgroup         C1      NOp   1
 Largest concise Abelian subgroup C1      NOp   1
                         Standard orientation:                         
 ---------------------------------------------------------------------
 Center     Atomic      Atomic             Coordinates (Angstroms)
 Number     Number       Type             X           Y           Z
 ---------------------------------------------------------------------
      1          8           0       -2.287683   -2.282763   -0.218620
      2          8           0        3.606477   -0.251891    0.389190
      3          7           0       -0.024675    1.799571   -0.183084
      4          1           0       -0.053666    2.808213   -0.189956
      5          6           0        1.293406   -0.143316   -0.068656
      6          6           0       -1.231262    1.153002   -0.115903
      7          6           0        1.207822    1.226618   -0.061239
      8          6           0        2.560744   -0.834334    0.107078
      9          6           0        0.057632   -0.946132   -0.320812
     10          1           0        0.070288   -1.343671   -1.347232
     11          1           0        0.052094   -1.844700    0.297561
     12          6           0       -1.232075   -0.217458   -0.105982
     13          6           0       -2.397754   -1.080804    0.031767
     14          6           0        2.328771    2.199282    0.058315
     15          1           0        1.996453    3.210009   -0.166763
     16          1           0        2.741586    2.195497    1.063054
     17          1           0        3.144409    1.943828   -0.607310
     18          6           0        2.583861   -2.330301   -0.052069
     19          1           0        3.609472   -2.672350   -0.129451
     20          1           0        2.131964   -2.811706    0.813300
     21          1           0        2.030293   -2.665262   -0.924095
     22          6           0       -3.734457   -0.574859    0.514596
     23          1           0       -3.651235    0.211786    1.259553
     24          1           0       -4.320903   -0.191198   -0.322394
     25          1           0       -4.274271   -1.418573    0.938863
     26          6           0       -2.397021    2.086730   -0.079718
     27          1           0       -3.240496    1.706493   -0.642631
     28          1           0       -2.727800    2.273070    0.941634
     29          1           0       -2.123827    3.048229   -0.511368
 ---------------------------------------------------------------------
 Rotational constants (GHZ):           1.0782815           0.4906857           0.3454908
 Leave Link  202 at Sat Jan 24 23:04:12 2026, MaxMem=  2147483648 cpu:               0.0 elap:               0.0
 (Enter /data/home/wyx/g16/l301.exe)
 Standard basis: TZVP (5D, 7F)
 Ernie: Thresh=  0.10000D-02 Tol=  0.10000D-05 Strict=F.
 There are   370 symmetry adapted cartesian basis functions of A   symmetry.
 There are   356 symmetry adapted basis functions of A   symmetry.
   356 basis functions,   610 primitive gaussians,   370 cartesian basis functions
    52 alpha electrons       52 beta electrons
       nuclear repulsion energy       900.6214957222 Hartrees.
 IExCor=20419 DFT=T Ex+Corr=CAM-B3LYP ExCW=0 ScaHFX=  1.000000
 ScaDFX=  1.000000  1.000000  1.000000  0.810000 ScalE2=  1.000000  1.000000
 IRadAn=      5 IRanWt=     -1 IRanGd=            0 ICorTp=0 IEmpDi=141
 HFx  wShort=  0.000000 wLong=  0.330000 cFull=  0.190000 cShort=  0.000000 cLong=  0.460000
 DFx  wShort=  0.000000 wLong=  0.330000 cFull=  0.190000 cShort=  0.000000 cLong=  0.460000
 NAtoms=   29 NActive=   29 NUniq=   29 SFac= 1.00D+00 NAtFMM=   60 NAOKFM=F Big=F
 Integral buffers will be    131072 words long.
 Raffenetti 2 integral format.
 Two-electron integral symmetry is turned on.
 R6Disp:  Grimme-D3(BJ) Dispersion energy=       -0.0261895184 Hartrees.
 Nuclear repulsion after empirical dispersion term =      900.5953062037 Hartrees.
 ------------------------------------------------------------------------------
 Polarizable Continuum Model (PCM)
 =================================
 Model                : PCM.
 Atomic radii         : UFF (Universal Force Field).
 Polarization charges : Total charges.
 Charge compensation  : None.
 Solution method      : On-the-fly selection.
 Cavity type          : Scaled VdW (van der Waals Surface) (Alpha=1.100).
 Cavity algorithm     : GePol (No added spheres)
                        Default sphere list used, NSphG=   29.
                        Lebedev-Laikov grids with approx.  5.0 points / Ang**2.
                        Smoothing algorithm: York/Karplus (Gamma=1.0000).
                        Polarization charges: spherical gaussians, with
                                              point-specific exponents (IZeta= 3).
                        Self-potential: point-specific (ISelfS= 7).
                        Self-field    : sphere-specific E.n sum rule (ISelfD= 2).
 Solvent              : Water, Eps=  78.355300 Eps(inf)=   1.777849
 ------------------------------------------------------------------------------
 GePol: Number of generator spheres                  =      29
 GePol: Total number of spheres                      =      29
 GePol: Number of exposed spheres                    =      29 (100.00%)
 GePol: Number of points                             =    2104
 GePol: Average weight of points                     =       0.13
 GePol: Minimum weight of points                     =   0.41D-11
 GePol: Maximum weight of points                     =    0.20577
 GePol: Number of points with low weight             =     135
 GePol: Fraction of low-weight points (<1% of avg)   =       6.42%
 GePol: Cavity surface area                          =    268.579 Ang**2
 GePol: Cavity volume                                =    286.653 Ang**3
 Leave Link  301 at Sat Jan 24 23:04:12 2026, MaxMem=  2147483648 cpu:               0.6 elap:               0.0
 (Enter /data/home/wyx/g16/l302.exe)
 NPDir=0 NMtPBC=     1 NCelOv=     1 NCel=       1 NClECP=     1 NCelD=      1
         NCelK=      1 NCelE2=     1 NClLst=     1 CellRange=     0.0.
 One-electron integrals computed using PRISM.
 One-electron integral symmetry used in STVInt
 NBasis=   356 RedAO= T EigKep=  4.67D-05  NBF=   356
 NBsUse=   356 1.00D-06 EigRej= -1.00D+00 NBFU=   356
 Precomputing XC quadrature grid using
 IXCGrd= 4 IRadAn=           5 IRanWt=          -1 IRanGd=           0 AccXCQ= 0.00D+00.
 Generated NRdTot=       0 NPtTot=           0 NUsed=           0 NTot=          32
 NSgBfM=   366   366   366   366   366 MxSgAt=    29 MxSgA2=    29.
 Leave Link  302 at Sat Jan 24 23:04:12 2026, MaxMem=  2147483648 cpu:               3.1 elap:               0.2
 (Enter /data/home/wyx/g16/l303.exe)
 DipDrv:  MaxL=1.
 Leave Link  303 at Sat Jan 24 23:04:12 2026, MaxMem=  2147483648 cpu:               0.6 elap:               0.0
 (Enter /data/home/wyx/g16/l401.exe)
 Initial guess from the checkpoint file:  "DDL-S1-cLR-gs-10.chk"
 B after Tr=     0.000000    0.000000    0.000000
         Rot=    1.000000   -0.000000   -0.000000    0.000000 Ang=   0.00 deg.
 Guess basis will be translated and rotated to current coordinates.
 JPrj=2 DoOrth=T DoCkMO=T.
 Leave Link  401 at Sat Jan 24 23:04:12 2026, MaxMem=  2147483648 cpu:               2.2 elap:               0.2
 (Enter /data/home/wyx/g16/l502.exe)
 Integral symmetry usage will be decided dynamically.
 Closed shell SCF:
 Using DIIS extrapolation, IDIIS=  1040.
 NGot=  2147483648 LenX=  2147200095 LenY=  2147062754
 Requested convergence on RMS density matrix=1.00D-08 within 128 cycles.
 Requested convergence on MAX density matrix=1.00D-06.
 Requested convergence on             energy=1.00D-06.
 No special actions if energy rises.
 Fock matrices will be formed incrementally for  20 cycles.

 Cycle   1  Pass 1  IDiag  1:
 FoFJK:  IHMeth= 1 ICntrl=       0 DoSepK=T KAlg= 0 I1Cent=           0 FoldK=F
 IRaf=         1 NMat=       1 IRICut=       1 DoRegI=T DoRafI=F ISym2E= 0 IDoP0=0 IntGTp=1.
 FoFCou: FMM=F IPFlag=           0 FMFlag=      100000 FMFlg1=           0
         NFxFlg=           0 DoJE=T BraDBF=F KetDBF=F FulRan=T
         wScrn=  0.000000 ICntrl=       500 IOpCl=  0 I1Cent=           0 NGrid=           0
         NMat0=    1 NMatS0=      1 NMatT0=    0 NMatD0=    1 NMtDS0=    0 NMtDT0=    0
 Symmetry not used in FoFCou.
 Inv3:  Mode=1 IEnd=    13280448.
 Iteration    1 A*A^-1 deviation from unit magnitude is 2.78D-15 for    141.
 Iteration    1 A*A^-1 deviation from orthogonality  is 2.05D-15 for   1970    128.
 Iteration    1 A^-1*A deviation from unit magnitude is 3.11D-15 for    128.
 Iteration    1 A^-1*A deviation from orthogonality  is 8.39D-15 for   1378   1347.
 NEqPCM:  Using non-equilibrium solvation (IEInf=1, Eps=  78.3553, EpsInf=   1.7778)
 Inv3:  Mode=1 IEnd=    13280448.
 Iteration    1 A*A^-1 deviation from unit magnitude is 3.33D-15 for    206.
 Iteration    1 A*A^-1 deviation from orthogonality  is 1.99D-15 for   1347     45.
 Iteration    1 A^-1*A deviation from unit magnitude is 3.33D-15 for    206.
 Iteration    1 A^-1*A deviation from orthogonality  is 2.33D-15 for   1536   1127.
 E= -633.329979458988    
 DIIS: error= 3.75D-04 at cycle   1 NSaved=   1.
 NSaved= 1 IEnMin= 1 EnMin= -633.329979458988     IErMin= 1 ErrMin= 3.75D-04
 ErrMax= 3.75D-04  0.00D+00 EMaxC= 1.00D-01 BMatC= 2.93D-05 BMatP= 2.93D-05
 IDIUse=3 WtCom= 9.96D-01 WtEn= 3.75D-03
 Coeff-Com:  0.100D+01
 Coeff-En:   0.100D+01
 Coeff:      0.100D+01
 Gap=     0.228 Goal=   None    Shift=    0.000
 RMSDP=2.29D-04 MaxDP=1.33D-02              OVMax= 5.15D-03

 Cycle   2  Pass 1  IDiag  1:
 RMSU=  2.28D-04    CP:  9.98D-01
 E= -633.330030119334     Delta-E=       -0.000050660345 Rises=F Damp=F
 DIIS: error= 2.13D-04 at cycle   2 NSaved=   2.
 NSaved= 2 IEnMin= 2 EnMin= -633.330030119334     IErMin= 2 ErrMin= 2.13D-04
 ErrMax= 2.13D-04  0.00D+00 EMaxC= 1.00D-01 BMatC= 2.02D-05 BMatP= 2.93D-05
 IDIUse=3 WtCom= 9.98D-01 WtEn= 2.13D-03
 Coeff-Com:  0.437D+00 0.563D+00
 Coeff-En:   0.000D+00 0.100D+01
 Coeff:      0.436D+00 0.564D+00
 Gap=     0.229 Goal=   None    Shift=    0.000
 RMSDP=4.52D-05 MaxDP=3.40D-03 DE=-5.07D-05 OVMax= 1.58D-03

 Cycle   3  Pass 1  IDiag  1:
 RMSU=  3.61D-05    CP:  1.00D+00  9.07D-01
 E= -633.330047070247     Delta-E=       -0.000016950913 Rises=F Damp=F
 DIIS: error= 1.36D-04 at cycle   3 NSaved=   3.
 NSaved= 3 IEnMin= 3 EnMin= -633.330047070247     IErMin= 3 ErrMin= 1.36D-04
 ErrMax= 1.36D-04  0.00D+00 EMaxC= 1.00D-01 BMatC= 3.93D-06 BMatP= 2.02D-05
 IDIUse=3 WtCom= 9.99D-01 WtEn= 1.36D-03
 Coeff-Com:  0.839D-01 0.291D+00 0.625D+00
 Coeff-En:   0.000D+00 0.595D-01 0.941D+00
 Coeff:      0.837D-01 0.291D+00 0.626D+00
 Gap=     0.229 Goal=   None    Shift=    0.000
 RMSDP=1.63D-05 MaxDP=7.30D-04 DE=-1.70D-05 OVMax= 7.85D-04

 Cycle   4  Pass 1  IDiag  1:
 RMSU=  1.50D-05    CP:  9.99D-01  9.02D-01  8.89D-01
 E= -633.330050153808     Delta-E=       -0.000003083561 Rises=F Damp=F
 DIIS: error= 2.80D-05 at cycle   4 NSaved=   4.
 NSaved= 4 IEnMin= 4 EnMin= -633.330050153808     IErMin= 4 ErrMin= 2.80D-05
 ErrMax= 2.80D-05  0.00D+00 EMaxC= 1.00D-01 BMatC= 3.24D-07 BMatP= 3.93D-06
 IDIUse=1 WtCom= 1.00D+00 WtEn= 0.00D+00
 Coeff-Com: -0.686D-02 0.518D-01 0.244D+00 0.711D+00
 Coeff:     -0.686D-02 0.518D-01 0.244D+00 0.711D+00
 Gap=     0.229 Goal=   None    Shift=    0.000
 RMSDP=8.11D-06 MaxDP=4.93D-04 DE=-3.08D-06 OVMax= 2.43D-04

 Cycle   5  Pass 1  IDiag  1:
 RMSU=  4.69D-06    CP:  9.99D-01  9.08D-01  1.04D+00  1.14D+00
 E= -633.330050430721     Delta-E=       -0.000000276913 Rises=F Damp=F
 DIIS: error= 9.17D-06 at cycle   5 NSaved=   5.
 NSaved= 5 IEnMin= 5 EnMin= -633.330050430721     IErMin= 5 ErrMin= 9.17D-06
 ErrMax= 9.17D-06  0.00D+00 EMaxC= 1.00D-01 BMatC= 5.65D-08 BMatP= 3.24D-07
 IDIUse=1 WtCom= 1.00D+00 WtEn= 0.00D+00
 Coeff-Com: -0.118D-01-0.174D-01 0.252D-01 0.319D+00 0.685D+00
 Coeff:     -0.118D-01-0.174D-01 0.252D-01 0.319D+00 0.685D+00
 Gap=     0.229 Goal=   None    Shift=    0.000
 RMSDP=2.14D-06 MaxDP=1.12D-04 DE=-2.77D-07 OVMax= 1.07D-04

 Cycle   6  Pass 1  IDiag  1:
 RMSU=  1.41D-06    CP:  9.99D-01  9.07D-01  1.06D+00  1.23D+00  1.08D+00
 E= -633.330050492470     Delta-E=       -0.000000061749 Rises=F Damp=F
 DIIS: error= 4.85D-06 at cycle   6 NSaved=   6.
 NSaved= 6 IEnMin= 6 EnMin= -633.330050492470     IErMin= 6 ErrMin= 4.85D-06
 ErrMax= 4.85D-06  0.00D+00 EMaxC= 1.00D-01 BMatC= 5.15D-09 BMatP= 5.65D-08
 IDIUse=1 WtCom= 1.00D+00 WtEn= 0.00D+00
 Coeff-Com: -0.259D-02-0.116D-01-0.113D-01 0.233D-01 0.225D+00 0.777D+00
 Coeff:     -0.259D-02-0.116D-01-0.113D-01 0.233D-01 0.225D+00 0.777D+00
 Gap=     0.229 Goal=   None    Shift=    0.000
 RMSDP=1.34D-06 MaxDP=9.41D-05 DE=-6.17D-08 OVMax= 6.96D-05

 Cycle   7  Pass 1  IDiag  1:
 RMSU=  5.40D-07    CP:  9.99D-01  9.05D-01  1.08D+00  1.27D+00  1.22D+00
                    CP:  1.20D+00
 E= -633.330050499617     Delta-E=       -0.000000007147 Rises=F Damp=F
 DIIS: error= 2.16D-06 at cycle   7 NSaved=   7.
 NSaved= 7 IEnMin= 7 EnMin= -633.330050499617     IErMin= 7 ErrMin= 2.16D-06
 ErrMax= 2.16D-06  0.00D+00 EMaxC= 1.00D-01 BMatC= 1.89D-09 BMatP= 5.15D-09
 IDIUse=1 WtCom= 1.00D+00 WtEn= 0.00D+00
 Coeff-Com:  0.617D-03-0.398D-02-0.731D-02-0.412D-01-0.157D-02 0.417D+00
 Coeff-Com:  0.637D+00
 Coeff:      0.617D-03-0.398D-02-0.731D-02-0.412D-01-0.157D-02 0.417D+00
 Coeff:      0.637D+00
 Gap=     0.229 Goal=   None    Shift=    0.000
 RMSDP=4.40D-07 MaxDP=2.83D-05 DE=-7.15D-09 OVMax= 2.98D-05

 Cycle   8  Pass 1  IDiag  1:
 RMSU=  2.07D-07    CP:  9.99D-01  9.05D-01  1.09D+00  1.28D+00  1.27D+00
                    CP:  1.33D+00  1.00D+00
 E= -633.330050502031     Delta-E=       -0.000000002414 Rises=F Damp=F
 DIIS: error= 7.86D-07 at cycle   8 NSaved=   8.
 NSaved= 8 IEnMin= 8 EnMin= -633.330050502031     IErMin= 8 ErrMin= 7.86D-07
 ErrMax= 7.86D-07  0.00D+00 EMaxC= 1.00D-01 BMatC= 1.54D-10 BMatP= 1.89D-09
 IDIUse=1 WtCom= 1.00D+00 WtEn= 0.00D+00
 Coeff-Com:  0.638D-03-0.154D-03 0.591D-03-0.171D-01-0.406D-01 0.566D-02
 Coeff-Com:  0.185D+00 0.866D+00
 Coeff:      0.638D-03-0.154D-03 0.591D-03-0.171D-01-0.406D-01 0.566D-02
 Coeff:      0.185D+00 0.866D+00
 Gap=     0.229 Goal=   None    Shift=    0.000
 RMSDP=2.43D-07 MaxDP=1.39D-05 DE=-2.41D-09 OVMax= 1.65D-05

 Cycle   9  Pass 1  IDiag  1:
 RMSU=  9.55D-08    CP:  9.99D-01  9.04D-01  1.09D+00  1.28D+00  1.29D+00
                    CP:  1.41D+00  1.17D+00  1.10D+00
 E= -633.330050502356     Delta-E=       -0.000000000326 Rises=F Damp=F
 DIIS: error= 3.68D-07 at cycle   9 NSaved=   9.
 NSaved= 9 IEnMin= 9 EnMin= -633.330050502356     IErMin= 9 ErrMin= 3.68D-07
 ErrMax= 3.68D-07  0.00D+00 EMaxC= 1.00D-01 BMatC= 1.93D-11 BMatP= 1.54D-10
 IDIUse=1 WtCom= 1.00D+00 WtEn= 0.00D+00
 Coeff-Com:  0.141D-03 0.291D-03 0.137D-02 0.266D-03-0.136D-01-0.563D-01
 Coeff-Com: -0.273D-01 0.286D+00 0.809D+00
 Coeff:      0.141D-03 0.291D-03 0.137D-02 0.266D-03-0.136D-01-0.563D-01
 Coeff:     -0.273D-01 0.286D+00 0.809D+00
 Gap=     0.229 Goal=   None    Shift=    0.000
 RMSDP=6.62D-08 MaxDP=2.51D-06 DE=-3.26D-10 OVMax= 6.39D-06

 Cycle  10  Pass 1  IDiag  1:
 RMSU=  3.01D-08    CP:  9.99D-01  9.04D-01  1.09D+00  1.28D+00  1.29D+00
                    CP:  1.44D+00  1.23D+00  1.20D+00  1.19D+00
 E= -633.330050502409     Delta-E=       -0.000000000053 Rises=F Damp=F
 DIIS: error= 1.46D-07 at cycle  10 NSaved=  10.
 NSaved=10 IEnMin=10 EnMin= -633.330050502409     IErMin=10 ErrMin= 1.46D-07
 ErrMax= 1.46D-07  0.00D+00 EMaxC= 1.00D-01 BMatC= 3.59D-12 BMatP= 1.93D-11
 IDIUse=1 WtCom= 1.00D+00 WtEn= 0.00D+00
 Coeff-Com: -0.185D-04 0.152D-03 0.456D-03 0.241D-02-0.733D-03-0.255D-01
 Coeff-Com: -0.345D-01 0.115D-01 0.329D+00 0.717D+00
 Coeff:     -0.185D-04 0.152D-03 0.456D-03 0.241D-02-0.733D-03-0.255D-01
 Coeff:     -0.345D-01 0.115D-01 0.329D+00 0.717D+00
 Gap=     0.229 Goal=   None    Shift=    0.000
 RMSDP=3.17D-08 MaxDP=1.69D-06 DE=-5.29D-11 OVMax= 2.39D-06

 Cycle  11  Pass 1  IDiag  1:
 RMSU=  1.52D-08    CP:  9.99D-01  9.04D-01  1.09D+00  1.28D+00  1.30D+00
                    CP:  1.44D+00  1.25D+00  1.22D+00  1.36D+00  1.20D+00
 E= -633.330050502408     Delta-E=        0.000000000002 Rises=F Damp=F
 DIIS: error= 7.73D-08 at cycle  11 NSaved=  11.
 NSaved=11 IEnMin=10 EnMin= -633.330050502409     IErMin=11 ErrMin= 7.73D-08
 ErrMax= 7.73D-08  0.00D+00 EMaxC= 1.00D-01 BMatC= 1.13D-12 BMatP= 3.59D-12
 IDIUse=1 WtCom= 1.00D+00 WtEn= 0.00D+00
 Coeff-Com: -0.374D-04 0.341D-04-0.104D-03 0.118D-02 0.272D-02 0.469D-03
 Coeff-Com: -0.952D-02-0.563D-01-0.217D-01 0.379D+00 0.704D+00
 Coeff:     -0.374D-04 0.341D-04-0.104D-03 0.118D-02 0.272D-02 0.469D-03
 Coeff:     -0.952D-02-0.563D-01-0.217D-01 0.379D+00 0.704D+00
 Gap=     0.229 Goal=   None    Shift=    0.000
 RMSDP=1.35D-08 MaxDP=5.60D-07 DE= 1.82D-12 OVMax= 1.23D-06

 Cycle  12  Pass 1  IDiag  1:
 RMSU=  5.88D-09    CP:  9.99D-01  9.04D-01  1.09D+00  1.28D+00  1.29D+00
                    CP:  1.44D+00  1.25D+00  1.23D+00  1.42D+00  1.42D+00
                    CP:  9.81D-01
 E= -633.330050502412     Delta-E=       -0.000000000005 Rises=F Damp=F
 DIIS: error= 2.58D-08 at cycle  12 NSaved=  12.
 NSaved=12 IEnMin=12 EnMin= -633.330050502412     IErMin=12 ErrMin= 2.58D-08
 ErrMax= 2.58D-08  0.00D+00 EMaxC= 1.00D-01 BMatC= 1.44D-13 BMatP= 1.13D-12
 IDIUse=1 WtCom= 1.00D+00 WtEn= 0.00D+00
 Coeff-Com: -0.150D-04-0.556D-06-0.146D-03 0.776D-04 0.125D-02 0.429D-02
 Coeff-Com:  0.223D-02-0.262D-01-0.733D-01 0.815D-02 0.266D+00 0.817D+00
 Coeff:     -0.150D-04-0.556D-06-0.146D-03 0.776D-04 0.125D-02 0.429D-02
 Coeff:      0.223D-02-0.262D-01-0.733D-01 0.815D-02 0.266D+00 0.817D+00
 Gap=     0.229 Goal=   None    Shift=    0.000
 RMSDP=8.65D-09 MaxDP=3.83D-07 DE=-4.55D-12 OVMax= 6.19D-07

 Error on total polarization charges =  0.00845
 SCF Done:  E(RCAM-B3LYP) =  -633.330050502     A.U. after   12 cycles
            NFock= 12  Conv=0.86D-08     -V/T= 2.0041
 KE= 6.307268675449D+02 PE=-3.277176468021D+03 EE= 1.112524243770D+03
 Leave Link  502 at Sat Jan 24 23:05:01 2026, MaxMem=  2147483648 cpu:             758.1 elap:              48.1
 (Enter /data/home/wyx/g16/l601.exe)
 Copying SCF densities to generalized density rwf, IOpCl= 0 IROHF=0.

 **********************************************************************

            Population analysis using the SCF density.

 **********************************************************************

 Orbital symmetries:
       Occupied  (A) (A) (A) (A) (A) (A) (A) (A) (A) (A) (A) (A)
                 (A) (A) (A) (A) (A) (A) (A) (A) (A) (A) (A) (A)
                 (A) (A) (A) (A) (A) (A) (A) (A) (A) (A) (A) (A)
                 (A) (A) (A) (A) (A) (A) (A) (A) (A) (A) (A) (A)
                 (A) (A) (A) (A)
       Virtual   (A) (A) (A) (A) (A) (A) (A) (A) (A) (A) (A) (A)
                 (A) (A) (A) (A) (A) (A) (A) (A) (A) (A) (A) (A)
                 (A) (A) (A) (A) (A) (A) (A) (A) (A) (A) (A) (A)
                 (A) (A) (A) (A) (A) (A) (A) (A) (A) (A) (A) (A)
                 (A) (A) (A) (A) (A) (A) (A) (A) (A) (A) (A) (A)
                 (A) (A) (A) (A) (A) (A) (A) (A) (A) (A) (A) (A)
                 (A) (A) (A) (A) (A) (A) (A) (A) (A) (A) (A) (A)
                 (A) (A) (A) (A) (A) (A) (A) (A) (A) (A) (A) (A)
                 (A) (A) (A) (A) (A) (A) (A) (A) (A) (A) (A) (A)
                 (A) (A) (A) (A) (A) (A) (A) (A) (A) (A) (A) (A)
                 (A) (A) (A) (A) (A) (A) (A) (A) (A) (A) (A) (A)
                 (A) (A) (A) (A) (A) (A) (A) (A) (A) (A) (A) (A)
                 (A) (A) (A) (A) (A) (A) (A) (A) (A) (A) (A) (A)
                 (A) (A) (A) (A) (A) (A) (A) (A) (A) (A) (A) (A)
                 (A) (A) (A) (A) (A) (A) (A) (A) (A) (A) (A) (A)
                 (A) (A) (A) (A) (A) (A) (A) (A) (A) (A) (A) (A)
                 (A) (A) (A) (A) (A) (A) (A) (A) (A) (A) (A) (A)
                 (A) (A) (A) (A) (A) (A) (A) (A) (A) (A) (A) (A)
                 (A) (A) (A) (A) (A) (A) (A) (A) (A) (A) (A) (A)
                 (A) (A) (A) (A) (A) (A) (A) (A) (A) (A) (A) (A)
                 (A) (A) (A) (A) (A) (A) (A) (A) (A) (A) (A) (A)
                 (A) (A) (A) (A) (A) (A) (A) (A) (A) (A) (A) (A)
                 (A) (A) (A) (A) (A) (A) (A) (A) (A) (A) (A) (A)
                 (A) (A) (A) (A) (A) (A) (A) (A) (A) (A) (A) (A)
                 (A) (A) (A) (A) (A) (A) (A) (A) (A) (A) (A) (A)
                 (A) (A) (A) (A)
 The electronic state is 1-A.
 Alpha  occ. eigenvalues --  -19.17916 -19.17248 -14.44064 -10.33440 -10.32949
 Alpha  occ. eigenvalues --  -10.32170 -10.31600 -10.25628 -10.24961 -10.24624
 Alpha  occ. eigenvalues --  -10.24401 -10.24375 -10.24284 -10.23617  -1.11802
 Alpha  occ. eigenvalues --   -1.11359  -1.07681  -0.91148  -0.90188  -0.83880
 Alpha  occ. eigenvalues --   -0.82486  -0.81577  -0.78448  -0.73682  -0.71438
 Alpha  occ. eigenvalues --   -0.68559  -0.61531  -0.58123  -0.56834  -0.55012
 Alpha  occ. eigenvalues --   -0.54326  -0.53962  -0.52518  -0.51835  -0.50715
 Alpha  occ. eigenvalues --   -0.49973  -0.49493  -0.49130  -0.48429  -0.47982
 Alpha  occ. eigenvalues --   -0.46868  -0.45313  -0.45036  -0.43378  -0.42966
 Alpha  occ. eigenvalues --   -0.42367  -0.42022  -0.41876  -0.32661  -0.32251
 Alpha  occ. eigenvalues --   -0.31316  -0.25505
 Alpha virt. eigenvalues --   -0.02651   0.02586   0.06664   0.08408   0.08868
 Alpha virt. eigenvalues --    0.10065   0.10890   0.11998   0.12774   0.13648
 Alpha virt. eigenvalues --    0.14207   0.15129   0.15844   0.16328   0.17051
 Alpha virt. eigenvalues --    0.17609   0.17977   0.18071   0.18281   0.19295
 Alpha virt. eigenvalues --    0.20152   0.22242   0.23186   0.23602   0.23794
 Alpha virt. eigenvalues --    0.24162   0.24838   0.25825   0.26128   0.26837
 Alpha virt. eigenvalues --    0.27095   0.27860   0.28915   0.29080   0.30343
 Alpha virt. eigenvalues --    0.31827   0.32175   0.32651   0.33751   0.34693
 Alpha virt. eigenvalues --    0.35324   0.36148   0.36809   0.38269   0.38772
 Alpha virt. eigenvalues --    0.39867   0.41223   0.41789   0.42345   0.42747
 Alpha virt. eigenvalues --    0.44247   0.44620   0.45503   0.46171   0.46326
 Alpha virt. eigenvalues --    0.47385   0.48025   0.48241   0.48398   0.49143
 Alpha virt. eigenvalues --    0.49678   0.50488   0.50987   0.51553   0.51743
 Alpha virt. eigenvalues --    0.52852   0.53167   0.53622   0.54117   0.54423
 Alpha virt. eigenvalues --    0.54763   0.55876   0.56245   0.56661   0.58593
 Alpha virt. eigenvalues --    0.58798   0.59293   0.60920   0.61261   0.63045
 Alpha virt. eigenvalues --    0.63655   0.65867   0.66323   0.66556   0.67979
 Alpha virt. eigenvalues --    0.68780   0.70141   0.71571   0.72267   0.72982
 Alpha virt. eigenvalues --    0.73405   0.74150   0.74859   0.76160   0.77944
 Alpha virt. eigenvalues --    0.78637   0.79914   0.82527   0.85413   0.86255
 Alpha virt. eigenvalues --    0.89728   0.93855   1.00409   1.01347   1.23946
 Alpha virt. eigenvalues --    1.25410   1.27241   1.28040   1.29605   1.31301
 Alpha virt. eigenvalues --    1.32735   1.33044   1.34170   1.35082   1.36240
 Alpha virt. eigenvalues --    1.36633   1.37470   1.38507   1.39274   1.39998
 Alpha virt. eigenvalues --    1.40110   1.40800   1.41038   1.41540   1.41912
 Alpha virt. eigenvalues --    1.43611   1.44326   1.44438   1.45318   1.47394
 Alpha virt. eigenvalues --    1.48299   1.49638   1.49927   1.50540   1.51216
 Alpha virt. eigenvalues --    1.51720   1.52581   1.53279   1.54720   1.58016
 Alpha virt. eigenvalues --    1.58520   1.60662   1.60815   1.61424   1.62526
 Alpha virt. eigenvalues --    1.62798   1.63456   1.64388   1.65321   1.65885
 Alpha virt. eigenvalues --    1.67070   1.67409   1.67873   1.68505   1.68654
 Alpha virt. eigenvalues --    1.69038   1.70119   1.70433   1.71775   1.72430
 Alpha virt. eigenvalues --    1.73921   1.75347   1.76419   1.76717   1.78917
 Alpha virt. eigenvalues --    1.80893   1.83419   1.84530   1.86254   1.86787
 Alpha virt. eigenvalues --    1.87054   1.87778   1.88673   1.89250   1.90856
 Alpha virt. eigenvalues --    1.91489   1.94830   1.95586   1.98864   1.99860
 Alpha virt. eigenvalues --    2.01436   2.03973   2.05238   2.07033   2.09886
 Alpha virt. eigenvalues --    2.11317   2.12803   2.15284   2.17446   2.19965
 Alpha virt. eigenvalues --    2.20555   2.21500   2.22140   2.23223   2.26182
 Alpha virt. eigenvalues --    2.27366   2.27894   2.29427   2.31320   2.32192
 Alpha virt. eigenvalues --    2.33706   2.34690   2.36846   2.37772   2.38421
 Alpha virt. eigenvalues --    2.39742   2.40446   2.41777   2.43633   2.45206
 Alpha virt. eigenvalues --    2.46302   2.47780   2.50277   2.50806   2.51781
 Alpha virt. eigenvalues --    2.52555   2.53954   2.55133   2.57023   2.58385
 Alpha virt. eigenvalues --    2.59206   2.60598   2.61590   2.62716   2.63228
 Alpha virt. eigenvalues --    2.64742   2.65992   2.67114   2.67599   2.68962
 Alpha virt. eigenvalues --    2.71882   2.72314   2.73193   2.74124   2.75473
 Alpha virt. eigenvalues --    2.76073   2.76981   2.77467   2.78009   2.79401
 Alpha virt. eigenvalues --    2.80720   2.81865   2.83310   2.83870   2.84452
 Alpha virt. eigenvalues --    2.85627   2.86533   2.88485   2.89928   2.91861
 Alpha virt. eigenvalues --    2.97526   2.99590   3.01013   3.05659   3.10941
 Alpha virt. eigenvalues --    3.12575   3.15692   3.17383   3.18107   3.20790
 Alpha virt. eigenvalues --    3.21605   3.22753   3.24499   3.25929   3.27018
 Alpha virt. eigenvalues --    3.27504   3.29839   3.33544   3.34534   3.36799
 Alpha virt. eigenvalues --    3.37428   3.39049   3.39980   3.40653   3.42070
 Alpha virt. eigenvalues --    3.42704   3.45021   3.45681   3.47214   3.48280
 Alpha virt. eigenvalues --    3.49555   3.49982   3.55517   3.58595   3.59897
 Alpha virt. eigenvalues --    3.60745   3.90742   4.00560   4.33576   4.36041
 Alpha virt. eigenvalues --   21.65434  21.80191  22.08429  22.11033  22.12026
 Alpha virt. eigenvalues --   22.15161  22.15463  22.18783  22.20653  22.24822
 Alpha virt. eigenvalues --   22.29443  31.92770  43.63281  43.65884
          Condensed to atoms (all electrons):
               1          2          3          4          5          6
     1  O    7.958047   0.000000  -0.000229   0.000018   0.017289   0.012369
     2  O    0.000000   7.991150   0.000345   0.000017  -0.204392   0.001109
     3  N   -0.000229   0.000345   6.364294   0.370810  -0.111532   0.334413
     4  H    0.000018   0.000017   0.370810   0.401042   0.016665  -0.044787
     5  C    0.017289  -0.204392  -0.111532   0.016665   7.027682  -0.077623
     6  C    0.012369   0.001109   0.334413  -0.044787  -0.077623   5.559946
     7  C   -0.000260  -0.037966   0.388062  -0.036889   0.420239  -0.100246
     8  C   -0.000411   0.715818   0.004289  -0.000769  -0.303464   0.030471
     9  C   -0.022813   0.021130   0.012544  -0.000049  -0.540014  -0.084815
    10  H    0.005333   0.000103   0.003805   0.000026  -0.030845  -0.018482
    11  H    0.014084   0.000007  -0.001483   0.000016  -0.116634   0.027009
    12  C   -0.228078  -0.002526  -0.087406   0.015081   0.171704  -0.102721
    13  C    0.718381  -0.000028   0.000742   0.000430   0.077534   0.149984
    14  C   -0.000007  -0.012458  -0.034421  -0.009859  -0.076873   0.010662
    15  H   -0.000000   0.004161   0.005258   0.001435   0.016342   0.006210
    16  H   -0.000000   0.002615  -0.003060   0.000916  -0.004417  -0.001750
    17  H    0.000000   0.002703   0.000819   0.000787  -0.006084  -0.000969
    18  C    0.000041  -0.105939  -0.000579   0.000017  -0.267956   0.000465
    19  H   -0.000003   0.008816   0.000004  -0.000001   0.026517   0.000022
    20  H    0.000007   0.000974   0.000013  -0.000000   0.002271   0.000230
    21  H    0.000087   0.003891   0.000125   0.000001   0.044395  -0.001171
    22  C   -0.107107   0.000000   0.000010   0.000110   0.003857  -0.015732
    23  H    0.004944  -0.000000   0.000009  -0.000054  -0.000640  -0.029881
    24  H    0.001369   0.000000  -0.000018  -0.000014  -0.000049   0.010103
    25  H    0.007236   0.000000   0.000030  -0.000002  -0.000149  -0.001227
    26  C    0.000831   0.000006  -0.027800  -0.006637   0.000030   0.181940
    27  H   -0.000235  -0.000000   0.002182   0.000834   0.000047  -0.047992
    28  H   -0.000051  -0.000000  -0.002440   0.000459   0.000410  -0.034514
    29  H    0.000025  -0.000000   0.001535   0.001223  -0.000420  -0.047262
               7          8          9         10         11         12
     1  O   -0.000260  -0.000411  -0.022813   0.005333   0.014084  -0.228078
     2  O   -0.037966   0.715818   0.021130   0.000103   0.000007  -0.002526
     3  N    0.388062   0.004289   0.012544   0.003805  -0.001483  -0.087406
     4  H   -0.036889  -0.000769  -0.000049   0.000026   0.000016   0.015081
     5  C    0.420239  -0.303464  -0.540014  -0.030845  -0.116634   0.171704
     6  C   -0.100246   0.030471  -0.084815  -0.018482   0.027009  -0.102721
     7  C    5.389298  -0.206439  -0.184117  -0.005456   0.018468   0.001612
     8  C   -0.206439   5.397477   0.126499  -0.004899  -0.008509  -0.038128
     9  C   -0.184117   0.126499   6.300095   0.398358   0.532867  -0.032270
    10  H   -0.005456  -0.004899   0.398358   0.552710  -0.040273  -0.017401
    11  H    0.018468  -0.008509   0.532867  -0.040273   0.520063  -0.109535
    12  C    0.001612  -0.038128  -0.032270  -0.017401  -0.109535   7.265914
    13  C    0.015563  -0.007808  -0.269188  -0.000201  -0.000647  -0.430473
    14  C    0.267650  -0.039554   0.008686  -0.001238   0.000580  -0.002909
    15  H   -0.074910   0.005472   0.000167   0.000062  -0.000003  -0.001222
    16  H   -0.023401  -0.000945   0.000697  -0.000067   0.000057   0.000653
    17  H   -0.030882  -0.007801  -0.000393   0.000201  -0.000061   0.000022
    18  C    0.001064   0.326491   0.001228  -0.010094   0.008561  -0.002673
    19  H    0.000468  -0.055082  -0.000766  -0.000001   0.000554  -0.000194
    20  H    0.000483  -0.023809  -0.009039   0.000869  -0.001929  -0.003139
    21  H    0.001820  -0.066645  -0.009629   0.002509  -0.006020   0.006554
    22  C    0.000150  -0.000082   0.005733   0.002044   0.000385  -0.256400
    23  H    0.000006  -0.000003   0.003420  -0.000150  -0.000032   0.064057
    24  H    0.000008   0.000002  -0.002079   0.000151  -0.000120  -0.011790
    25  H    0.000005   0.000004   0.000296  -0.000060  -0.000114   0.024120
    26  C    0.003166   0.000625   0.021541  -0.000756   0.000038  -0.079457
    27  H   -0.000769   0.000004  -0.000610  -0.000083   0.000004  -0.006153
    28  H   -0.000850  -0.000011  -0.000321  -0.000020   0.000047  -0.018260
    29  H    0.003384  -0.000008  -0.000518   0.000088  -0.000010   0.021718
              13         14         15         16         17         18
     1  O    0.718381  -0.000007  -0.000000  -0.000000   0.000000   0.000041
     2  O   -0.000028  -0.012458   0.004161   0.002615   0.002703  -0.105939
     3  N    0.000742  -0.034421   0.005258  -0.003060   0.000819  -0.000579
     4  H    0.000430  -0.009859   0.001435   0.000916   0.000787   0.000017
     5  C    0.077534  -0.076873   0.016342  -0.004417  -0.006084  -0.267956
     6  C    0.149984   0.010662   0.006210  -0.001750  -0.000969   0.000465
     7  C    0.015563   0.267650  -0.074910  -0.023401  -0.030882   0.001064
     8  C   -0.007808  -0.039554   0.005472  -0.000945  -0.007801   0.326491
     9  C   -0.269188   0.008686   0.000167   0.000697  -0.000393   0.001228
    10  H   -0.000201  -0.001238   0.000062  -0.000067   0.000201  -0.010094
    11  H   -0.000647   0.000580  -0.000003   0.000057  -0.000061   0.008561
    12  C   -0.430473  -0.002909  -0.001222   0.000653   0.000022  -0.002673
    13  C    5.511592   0.000017  -0.000028  -0.000015  -0.000002   0.000688
    14  C    0.000017   5.068858   0.389864   0.406265   0.421681   0.001280
    15  H   -0.000028   0.389864   0.564575  -0.024559  -0.027033   0.000256
    16  H   -0.000015   0.406265  -0.024559   0.513783  -0.028780   0.000042
    17  H   -0.000002   0.421681  -0.027033  -0.028780   0.515224  -0.000171
    18  C    0.000688   0.001280   0.000256   0.000042  -0.000171   5.339067
    19  H   -0.000011   0.000080  -0.000005  -0.000028   0.000034   0.391789
    20  H   -0.000101  -0.000253  -0.000005  -0.000007   0.000021   0.397883
    21  H    0.000618   0.000077  -0.000016   0.000002  -0.000039   0.381774
    22  C    0.292137  -0.000021   0.000002   0.000000  -0.000000   0.000027
    23  H   -0.093074   0.000001   0.000000   0.000000   0.000000   0.000002
    24  H   -0.023131  -0.000001   0.000000   0.000000   0.000000  -0.000002
    25  H   -0.041144   0.000000  -0.000000  -0.000000   0.000000  -0.000001
    26  C   -0.058009   0.001181   0.000102  -0.000145   0.000047   0.000018
    27  H   -0.004656   0.000087  -0.000011   0.000001  -0.000002  -0.000000
    28  H    0.006563  -0.000113   0.000000  -0.000009   0.000004  -0.000001
    29  H   -0.000563  -0.000228   0.000128   0.000001  -0.000003   0.000000
              19         20         21         22         23         24
     1  O   -0.000003   0.000007   0.000087  -0.107107   0.004944   0.001369
     2  O    0.008816   0.000974   0.003891   0.000000  -0.000000   0.000000
     3  N    0.000004   0.000013   0.000125   0.000010   0.000009  -0.000018
     4  H   -0.000001  -0.000000   0.000001   0.000110  -0.000054  -0.000014
     5  C    0.026517   0.002271   0.044395   0.003857  -0.000640  -0.000049
     6  C    0.000022   0.000230  -0.001171  -0.015732  -0.029881   0.010103
     7  C    0.000468   0.000483   0.001820   0.000150   0.000006   0.000008
     8  C   -0.055082  -0.023809  -0.066645  -0.000082  -0.000003   0.000002
     9  C   -0.000766  -0.009039  -0.009629   0.005733   0.003420  -0.002079
    10  H   -0.000001   0.000869   0.002509   0.002044  -0.000150   0.000151
    11  H    0.000554  -0.001929  -0.006020   0.000385  -0.000032  -0.000120
    12  C   -0.000194  -0.003139   0.006554  -0.256400   0.064057  -0.011790
    13  C   -0.000011  -0.000101   0.000618   0.292137  -0.093074  -0.023131
    14  C    0.000080  -0.000253   0.000077  -0.000021   0.000001  -0.000001
    15  H   -0.000005  -0.000005  -0.000016   0.000002   0.000000   0.000000
    16  H   -0.000028  -0.000007   0.000002   0.000000   0.000000   0.000000
    17  H    0.000034   0.000021  -0.000039  -0.000000   0.000000   0.000000
    18  C    0.391789   0.397883   0.381774   0.000027   0.000002  -0.000002
    19  H    0.511027  -0.010483  -0.022620  -0.000000   0.000000   0.000000
    20  H   -0.010483   0.495888  -0.024419  -0.000012  -0.000000   0.000000
    21  H   -0.022620  -0.024419   0.531589   0.000020  -0.000000  -0.000000
    22  C   -0.000000  -0.000012   0.000020   5.418649   0.397909   0.402250
    23  H    0.000000  -0.000000  -0.000000   0.397909   0.537666  -0.025947
    24  H    0.000000   0.000000  -0.000000   0.402250  -0.025947   0.491093
    25  H   -0.000000   0.000000  -0.000000   0.382809  -0.022232  -0.008738
    26  C    0.000000   0.000004  -0.000016  -0.030763   0.015947  -0.012735
    27  H   -0.000000   0.000000  -0.000000   0.007417  -0.009080  -0.000720
    28  H    0.000000  -0.000000  -0.000000  -0.011226  -0.001449   0.001016
    29  H    0.000000  -0.000000   0.000000   0.001874   0.000669   0.000182
              25         26         27         28         29
     1  O    0.007236   0.000831  -0.000235  -0.000051   0.000025
     2  O    0.000000   0.000006  -0.000000  -0.000000  -0.000000
     3  N    0.000030  -0.027800   0.002182  -0.002440   0.001535
     4  H   -0.000002  -0.006637   0.000834   0.000459   0.001223
     5  C   -0.000149   0.000030   0.000047   0.000410  -0.000420
     6  C   -0.001227   0.181940  -0.047992  -0.034514  -0.047262
     7  C    0.000005   0.003166  -0.000769  -0.000850   0.003384
     8  C    0.000004   0.000625   0.000004  -0.000011  -0.000008
     9  C    0.000296   0.021541  -0.000610  -0.000321  -0.000518
    10  H   -0.000060  -0.000756  -0.000083  -0.000020   0.000088
    11  H   -0.000114   0.000038   0.000004   0.000047  -0.000010
    12  C    0.024120  -0.079457  -0.006153  -0.018260   0.021718
    13  C   -0.041144  -0.058009  -0.004656   0.006563  -0.000563
    14  C    0.000000   0.001181   0.000087  -0.000113  -0.000228
    15  H   -0.000000   0.000102  -0.000011   0.000000   0.000128
    16  H   -0.000000  -0.000145   0.000001  -0.000009   0.000001
    17  H    0.000000   0.000047  -0.000002   0.000004  -0.000003
    18  C   -0.000001   0.000018  -0.000000  -0.000001   0.000000
    19  H   -0.000000   0.000000  -0.000000   0.000000   0.000000
    20  H    0.000000   0.000004   0.000000  -0.000000  -0.000000
    21  H   -0.000000  -0.000016  -0.000000  -0.000000   0.000000
    22  C    0.382809  -0.030763   0.007417  -0.011226   0.001874
    23  H   -0.022232   0.015947  -0.009080  -0.001449   0.000669
    24  H   -0.008738  -0.012735  -0.000720   0.001016   0.000182
    25  H    0.499747   0.002050   0.000757   0.000120  -0.000041
    26  C    0.002050   5.256068   0.428900   0.428213   0.390226
    27  H    0.000757   0.428900   0.511312  -0.027191  -0.025659
    28  H    0.000120   0.428213  -0.027191   0.480068  -0.016884
    29  H   -0.000041   0.390226  -0.025659  -0.016884   0.510031
 Mulliken charges:
               1
     1  O   -0.380867
     2  O   -0.389538
     3  N   -0.220322
     4  H    0.289175
     5  C   -0.083888
     6  C    0.284238
     7  C    0.190738
     8  C    0.157214
     9  C   -0.276637
    10  H    0.163769
    11  H    0.162629
    12  C   -0.140699
    13  C    0.154828
    14  C   -0.399034
    15  H    0.133759
    16  H    0.162152
    17  H    0.160681
    18  C   -0.463277
    19  H    0.149884
    20  H    0.174554
    21  H    0.157112
    22  C   -0.494040
    23  H    0.157914
    24  H    0.179167
    25  H    0.156533
    26  C   -0.514614
    27  H    0.171617
    28  H    0.196440
    29  H    0.160513
 Sum of Mulliken charges =  -0.00000
 Mulliken charges with hydrogens summed into heavy atoms:
               1
     1  O   -0.380867
     2  O   -0.389538
     3  N    0.068853
     5  C   -0.083888
     6  C    0.284238
     7  C    0.190738
     8  C    0.157214
     9  C    0.049761
    12  C   -0.140699
    13  C    0.154828
    14  C    0.057558
    18  C    0.018274
    22  C   -0.000426
    26  C    0.013955
 Electronic spatial extent (au):  <R**2>=           3191.4703
 Charge=             -0.0000 electrons
 Dipole moment (field-independent basis, Debye):
    X=             -4.0684    Y=              7.8565    Z=             -0.2841  Tot=              8.8520
 Quadrupole moment (field-independent basis, Debye-Ang):
   XX=            -99.6465   YY=            -78.1418   ZZ=            -84.8664
   XY=            -12.9700   XZ=             -5.2922   YZ=             -1.8493
 Traceless Quadrupole moment (field-independent basis, Debye-Ang):
   XX=            -12.0949   YY=              9.4097   ZZ=              2.6852
   XY=            -12.9700   XZ=             -5.2922   YZ=             -1.8493
 Octapole moment (field-independent basis, Debye-Ang**2):
  XXX=           -111.5555  YYY=             67.7034  ZZZ=              1.4872  XYY=             35.5303
  XXY=             33.3065  XXZ=             -9.2699  XZZ=             -1.9220  YZZ=             -0.9837
  YYZ=              3.3923  XYZ=              5.3444
 Hexadecapole moment (field-independent basis, Debye-Ang**3):
 XXXX=          -3066.9421 YYYY=          -1275.8402 ZZZZ=           -151.2487 XXXY=            -39.6633
 XXXZ=            -60.6919 YYYX=            -90.9872 YYYZ=            -21.8122 ZZZX=              2.7615
 ZZZY=              4.5022 XXYY=           -694.8797 XXZZ=           -484.5791 YYZZ=           -242.9184
 XXYZ=             -7.3621 YYXZ=             -8.1429 ZZXY=              0.4681
 N-N= 9.005953062037D+02 E-N=-3.277176467455D+03  KE= 6.307268675449D+02
 No NMR shielding tensors so no spin-rotation constants.
 Leave Link  601 at Sat Jan 24 23:05:02 2026, MaxMem=  2147483648 cpu:               1.8 elap:               0.1
 (Enter /data/home/wyx/g16/l9999.exe)
 1\1\GINC-CN012\SP\RCAM-B3LYP\TZVP\C11H15N1O2\WYX\24-Jan-2026\0\\#p CAM
 -B3LYP TZVP em=gd3bj scrf=(Solvent=Water,NonEquilibrium=Read) Geom=Che
 ck Guess=Read\\Title Card Required\\0,1\O,0,2.734014,-1.5589,0.793923\
 O,0,-3.259804,-1.649664,-1.022918\N,0,-0.698803,1.514889,0.048595\H,0,
 -1.007133,2.47372,-0.013227\C,0,-1.250234,-0.760451,-0.161152\C,0,0.64
 2107,1.314882,0.24953\C,0,-1.62307,0.557362,-0.253139\C,0,-2.157038,-1
 .841258,-0.513425\C,0,0.106747,-1.095213,0.369667\H,0,0.025487,-1.4659
 38,1.402961\H,0,0.530347,-1.9433,-0.169918\C,0,1.098267,0.025718,0.340
 27\C,0,2.48697,-0.39262,0.480434\C,0,-2.956238,1.091804,-0.645477\H,0,
 -3.028011,2.156977,-0.438305\H,0,-3.139188,0.940961,-1.705527\H,0,-3.7
 55054,0.580038,-0.122441\C,0,-1.714567,-3.255362,-0.252065\H,0,-2.5632
 96,-3.924083,-0.337708\H,0,-0.968567,-3.561565,-0.983194\H,0,-1.263597
 ,-3.376512,0.728249\C,0,3.648083,0.532705,0.213092\H,0,3.456938,1.2391
 05,-0.590126\H,0,3.898485,1.098535,1.112426\H,0,4.508692,-0.081325,-0.
 042984\C,0,1.416357,2.588057,0.357753\H,0,2.21049,2.520251,1.091003\H,
 0,1.860168,2.8679,-0.597243\H,0,0.761446,3.403289,0.660945\\Version=ES
 64L-G16RevA.03\State=1-A\HF=-633.3300505\RMSD=8.646e-09\Dipole=0.43287
 82,3.4512174,0.1745156\Quadrupole=-11.1089357,11.307256,-0.1983203,2.2
 780659,-6.803797,0.3448069\PG=C01 [X(C11H15N1O2)]\\@


 THE MOST SERIOUS THREAT TO THE SURVIVAL OF MANKIND IS NOT NOW
 IGNORANCE IN THE TRADITIONAL SENSE,
 BUT A MORALLY NEUTRAL, AN INSENSITIVE OR INHIBITED HUMAN INTELLIGENCE.

                     -- MARGO JEFFERSON IN NEWSWEEK, SEPTEMBER 2, 1974
 Job cpu time:       0 days  0 hours 12 minutes 48.4 seconds.
 Elapsed time:       0 days  0 hours  0 minutes 48.9 seconds.
 File lengths (MBytes):  RWF=    340 Int=      0 D2E=      0 Chk=     67 Scr=      1
 Normal termination of Gaussian 16 at Sat Jan 24 23:05:03 2026.
