 Entering Gaussian System, Link 0=g16
 Input=DDL-S2-cLR-gs-5.gjf
 Output=DDL-S2-cLR-gs-5.log
 Initial command:
 /data/home/wyx/g16/l1.exe "/scr/tmp/wyx/13117/Gau-2032500.inp" -scrdir="/scr/tmp/wyx/13117/"
 Entering Link 1 = /data/home/wyx/g16/l1.exe PID=   2032501.
  
 Copyright (c) 1988,1990,1992,1993,1995,1998,2003,2009,2016,
            Gaussian, Inc.  All Rights Reserved.
  
 This is part of the Gaussian(R) 16 program.  It is based on
 the Gaussian(R) 09 system (copyright 2009, Gaussian, Inc.),
 the Gaussian(R) 03 system (copyright 2003, Gaussian, Inc.),
 the Gaussian(R) 98 system (copyright 1998, Gaussian, Inc.),
 the Gaussian(R) 94 system (copyright 1995, Gaussian, Inc.),
 the Gaussian 92(TM) system (copyright 1992, Gaussian, Inc.),
 the Gaussian 90(TM) system (copyright 1990, Gaussian, Inc.),
 the Gaussian 88(TM) system (copyright 1988, Gaussian, Inc.),
 the Gaussian 86(TM) system (copyright 1986, Carnegie Mellon
 University), and the Gaussian 82(TM) system (copyright 1983,
 Carnegie Mellon University). Gaussian is a federally registered
 trademark of Gaussian, Inc.
  
 This software contains proprietary and confidential information,
 including trade secrets, belonging to Gaussian, Inc.
  
 This software is provided under written license and may be
 used, copied, transmitted, or stored only in accord with that
 written license.
  
 The following legend is applicable only to US Government
 contracts under FAR:
  
                    RESTRICTED RIGHTS LEGEND
  
 Use, reproduction and disclosure by the US Government is
 subject to restrictions as set forth in subparagraphs (a)
 and (c) of the Commercial Computer Software - Restricted
 Rights clause in FAR 52.227-19.
  
 Gaussian, Inc.
 340 Quinnipiac St., Bldg. 40, Wallingford CT 06492
  
  
 ---------------------------------------------------------------
 Warning -- This program may not be used in any manner that
 competes with the business of Gaussian, Inc. or will provide
 assistance to any competitor of Gaussian, Inc.  The licensee
 of this program is prohibited from giving any competitor of
 Gaussian, Inc. access to this program.  By using this program,
 the user acknowledges that Gaussian, Inc. is engaged in the
 business of creating and licensing software in the field of
 computational chemistry and represents and warrants to the
 licensee that it is not a competitor of Gaussian, Inc. and that
 it will not use this program in any manner prohibited above.
 ---------------------------------------------------------------
  

 Cite this work as:
 Gaussian 16, Revision A.03,
 M. J. Frisch, G. W. Trucks, H. B. Schlegel, G. E. Scuseria, 
 M. A. Robb, J. R. Cheeseman, G. Scalmani, V. Barone, 
 G. A. Petersson, H. Nakatsuji, X. Li, M. Caricato, A. V. Marenich, 
 J. Bloino, B. G. Janesko, R. Gomperts, B. Mennucci, H. P. Hratchian, 
 J. V. Ortiz, A. F. Izmaylov, J. L. Sonnenberg, D. Williams-Young, 
 F. Ding, F. Lipparini, F. Egidi, J. Goings, B. Peng, A. Petrone, 
 T. Henderson, D. Ranasinghe, V. G. Zakrzewski, J. Gao, N. Rega, 
 G. Zheng, W. Liang, M. Hada, M. Ehara, K. Toyota, R. Fukuda, 
 J. Hasegawa, M. Ishida, T. Nakajima, Y. Honda, O. Kitao, H. Nakai, 
 T. Vreven, K. Throssell, J. A. Montgomery, Jr., J. E. Peralta, 
 F. Ogliaro, M. J. Bearpark, J. J. Heyd, E. N. Brothers, K. N. Kudin, 
 V. N. Staroverov, T. A. Keith, R. Kobayashi, J. Normand, 
 K. Raghavachari, A. P. Rendell, J. C. Burant, S. S. Iyengar, 
 J. Tomasi, M. Cossi, J. M. Millam, M. Klene, C. Adamo, R. Cammi, 
 J. W. Ochterski, R. L. Martin, K. Morokuma, O. Farkas, 
 J. B. Foresman, and D. J. Fox, Gaussian, Inc., Wallingford CT, 2016.
 
 ******************************************
 Gaussian 16:  ES64L-G16RevA.03 25-Dec-2016
                24-Jan-2026 
 ******************************************
 %nprocshared=16
 Will use up to   16 processors via shared memory.
 %mem=16GB
 %oldchk=DDL-S2-cLR-5.chk
 %chk=DDL-S2-cLR-gs-5.chk
 Copying data from "DDL-S2-cLR-5.chk" to current chk file "DDL-S2-cLR-gs-5.chk"
 IOpt=  2 FromEx=T IUOpen= 4 IOptOp= 5 NList=   0 IFRang= 0 IUIn= 4 IUOut= 2.
 ----------------------------------------------------------------------
 #p CAM-B3LYP TZVP em=gd3bj scrf=(Solvent=Water,NonEquilibrium=Read) Ge
 om=Check Guess=Read
 ----------------------------------------------------------------------
 1/29=2,38=1,172=1/1;
 2/12=2,40=1/2;
 3/5=19,7=101,11=2,14=-4,25=1,30=1,70=6002201,72=1,74=-40,116=-2,124=41/1,2,3;
 4/5=1/1;
 5/5=2,38=6,53=1/2;
 6/7=2,8=2,9=2,10=2,28=1/1;
 99/5=1,9=1/99;
 Leave Link    1 at Sat Jan 24 22:55:47 2026, MaxMem=  2147483648 cpu:               0.8 elap:               0.1
 (Enter /data/home/wyx/g16/l101.exe)
 -------------------
 Title Card Required
 -------------------
 Structure from the checkpoint file:  "DDL-S2-cLR-gs-5.chk"
 Charge =  0 Multiplicity = 1
 Z-Matrix found in chk file.
 O,0,2.720956,-1.559423,0.849765
 O,0,-3.294889,-1.659465,-0.930321
 N,0,-0.686565,1.5162,-0.032006
 H,0,-0.994989,2.476539,-0.098671
 C,0,-1.252221,-0.762919,-0.171068
 C,0,0.643454,1.330057,0.213659
 C,0,-1.626893,0.571178,-0.282063
 C,0,-2.163329,-1.848374,-0.475593
 C,0,0.117312,-1.083983,0.300604
 H,0,0.06685,-1.505911,1.319428
 H,0,0.536084,-1.917138,-0.271218
 C,0,1.103584,0.026584,0.319178
 C,0,2.481485,-0.39504,0.506718
 C,0,-2.973124,1.10017,-0.632911
 H,0,-3.01493,2.179714,-0.504687
 H,0,-3.230283,0.870878,-1.662921
 H,0,-3.744737,0.649353,-0.018359
 C,0,-1.702628,-3.264746,-0.251527
 H,0,-2.563536,-3.924056,-0.240095
 H,0,-1.049015,-3.58383,-1.062288
 H,0,-1.148874,-3.392622,0.673304
 C,0,3.649213,0.525774,0.252183
 H,0,3.466512,1.241698,-0.544475
 H,0,3.903236,1.080532,1.157805
 H,0,4.506434,-0.091317,-0.009159
 C,0,1.415077,2.598683,0.36703
 H,0,2.156797,2.523341,1.154674
 H,0,1.930187,2.877522,-0.552311
 H,0,0.748835,3.420602,0.625326
 Recover connectivity data from disk.
 ITRead=  0  0  0  0  0  0  0  0  0  0  0  0  0  0  0  0  0  0  0  0
 ITRead=  0  0  0  0  0  0  0  0  0
 MicOpt= -1 -1 -1 -1 -1 -1 -1 -1 -1 -1 -1 -1 -1 -1 -1 -1 -1 -1 -1 -1
 MicOpt= -1 -1 -1 -1 -1 -1 -1 -1 -1
 NAtoms=     29 NQM=       29 NQMF=       0 NMMI=      0 NMMIF=      0
                NMic=       0 NMicF=      0.
                    Isotopes and Nuclear Properties:
 (Nuclear quadrupole moments (NQMom) in fm**2, nuclear magnetic moments (NMagM)
  in nuclear magnetons)

  Atom         1           2           3           4           5           6           7           8           9          10
 IAtWgt=          16          16          14           1          12          12          12          12          12           1
 AtmWgt=  15.9949146  15.9949146  14.0030740   1.0078250  12.0000000  12.0000000  12.0000000  12.0000000  12.0000000   1.0078250
 NucSpn=           0           0           2           1           0           0           0           0           0           1
 AtZEff=   5.6000000   5.6000000   4.5500000   1.0000000   3.6000000   3.6000000   3.6000000   3.6000000   3.6000000   1.0000000
 NQMom=    0.0000000   0.0000000   2.0440000   0.0000000   0.0000000   0.0000000   0.0000000   0.0000000   0.0000000   0.0000000
 NMagM=    0.0000000   0.0000000   0.4037610   2.7928460   0.0000000   0.0000000   0.0000000   0.0000000   0.0000000   2.7928460
 AtZNuc=   8.0000000   8.0000000   7.0000000   1.0000000   6.0000000   6.0000000   6.0000000   6.0000000   6.0000000   1.0000000

  Atom        11          12          13          14          15          16          17          18          19          20
 IAtWgt=           1          12          12          12           1           1           1          12           1           1
 AtmWgt=   1.0078250  12.0000000  12.0000000  12.0000000   1.0078250   1.0078250   1.0078250  12.0000000   1.0078250   1.0078250
 NucSpn=           1           0           0           0           1           1           1           0           1           1
 AtZEff=   1.0000000   3.6000000   3.6000000   3.6000000   1.0000000   1.0000000   1.0000000   3.6000000   1.0000000   1.0000000
 NQMom=    0.0000000   0.0000000   0.0000000   0.0000000   0.0000000   0.0000000   0.0000000   0.0000000   0.0000000   0.0000000
 NMagM=    2.7928460   0.0000000   0.0000000   0.0000000   2.7928460   2.7928460   2.7928460   0.0000000   2.7928460   2.7928460
 AtZNuc=   1.0000000   6.0000000   6.0000000   6.0000000   1.0000000   1.0000000   1.0000000   6.0000000   1.0000000   1.0000000

  Atom        21          22          23          24          25          26          27          28          29
 IAtWgt=           1          12           1           1           1          12           1           1           1
 AtmWgt=   1.0078250  12.0000000   1.0078250   1.0078250   1.0078250  12.0000000   1.0078250   1.0078250   1.0078250
 NucSpn=           1           0           1           1           1           0           1           1           1
 AtZEff=   1.0000000   3.6000000   1.0000000   1.0000000   1.0000000   3.6000000   1.0000000   1.0000000   1.0000000
 NQMom=    0.0000000   0.0000000   0.0000000   0.0000000   0.0000000   0.0000000   0.0000000   0.0000000   0.0000000
 NMagM=    2.7928460   0.0000000   2.7928460   2.7928460   2.7928460   0.0000000   2.7928460   2.7928460   2.7928460
 AtZNuc=   1.0000000   6.0000000   1.0000000   1.0000000   1.0000000   6.0000000   1.0000000   1.0000000   1.0000000
 Leave Link  101 at Sat Jan 24 22:55:50 2026, MaxMem=  2147483648 cpu:               0.9 elap:               0.1
 (Enter /data/home/wyx/g16/l202.exe)
                          Input orientation:                          
 ---------------------------------------------------------------------
 Center     Atomic      Atomic             Coordinates (Angstroms)
 Number     Number       Type             X           Y           Z
 ---------------------------------------------------------------------
      1          8           0        2.720956   -1.559423    0.849765
      2          8           0       -3.294889   -1.659465   -0.930321
      3          7           0       -0.686565    1.516200   -0.032006
      4          1           0       -0.994989    2.476539   -0.098671
      5          6           0       -1.252221   -0.762919   -0.171068
      6          6           0        0.643454    1.330057    0.213659
      7          6           0       -1.626893    0.571178   -0.282063
      8          6           0       -2.163329   -1.848374   -0.475593
      9          6           0        0.117312   -1.083983    0.300604
     10          1           0        0.066850   -1.505911    1.319428
     11          1           0        0.536084   -1.917138   -0.271218
     12          6           0        1.103584    0.026584    0.319178
     13          6           0        2.481485   -0.395040    0.506718
     14          6           0       -2.973124    1.100170   -0.632911
     15          1           0       -3.014930    2.179714   -0.504687
     16          1           0       -3.230283    0.870878   -1.662921
     17          1           0       -3.744737    0.649353   -0.018359
     18          6           0       -1.702628   -3.264746   -0.251527
     19          1           0       -2.563536   -3.924056   -0.240095
     20          1           0       -1.049015   -3.583830   -1.062288
     21          1           0       -1.148874   -3.392622    0.673304
     22          6           0        3.649213    0.525774    0.252183
     23          1           0        3.466512    1.241698   -0.544475
     24          1           0        3.903236    1.080532    1.157805
     25          1           0        4.506434   -0.091317   -0.009159
     26          6           0        1.415077    2.598683    0.367030
     27          1           0        2.156797    2.523341    1.154674
     28          1           0        1.930187    2.877522   -0.552311
     29          1           0        0.748835    3.420602    0.625326
 ---------------------------------------------------------------------
                    Distance matrix (angstroms):
                    1          2          3          4          5
     1  O    0.000000
     2  O    6.274481   0.000000
     3  N    4.674203   4.206563   0.000000
     4  H    5.567474   4.804967   1.010851   0.000000
     5  C    4.178834   2.356428   2.352379   3.250461   0.000000
     6  C    3.615210   5.075084   1.365266   2.023973   2.849938
     7  C    4.972352   2.859758   1.356397   2.015772   1.390149
     8  C    5.069152   1.234055   3.701075   4.495771   1.449505
     9  C    2.703069   3.672802   2.741861   3.751526   1.483636
    10  H    2.695872   4.047992   3.395168   4.358717   2.124515
    11  H    2.481578   3.895788   3.652383   4.656002   2.130795
    12  C    2.326550   4.873456   2.355190   3.252827   2.532484
    13  C    1.237261   6.085257   3.738931   4.549542   3.812517
    14  C    6.457113   2.794203   2.400525   2.468364   2.577966
    15  H    6.979690   3.872833   2.466772   2.081614   3.446380
    16  H    6.901971   2.635055   3.089794   3.165685   2.967768
    17  H    6.887490   2.522831   3.178683   3.302450   2.868879
    18  C    4.867141   2.360717   4.892649   5.786750   2.543320
    19  H    5.891107   2.477834   5.758707   6.591506   3.423025
    20  H    4.686881   2.960498   5.215665   6.136738   2.965317
    21  H    4.285714   3.190741   4.980735   5.921712   2.763871
    22  C    2.359409   7.375238   4.456532   5.049475   5.085659
    23  H    3.216526   7.367643   4.193569   4.650652   5.140463
    24  H    2.908958   7.980029   4.761484   5.245968   5.634088
    25  H    2.465972   8.010510   5.436163   6.071866   5.799946
    26  C    4.384997   6.480642   2.397477   2.457685   4.324858
    27  H    4.132821   7.180804   3.241489   3.392170   4.917164
    28  H    4.719917   6.930264   2.995214   2.987178   4.850348
    29  H    5.360996   6.676737   2.473703   2.111007   4.705350
                    6          7          8          9         10
     6  C    0.000000
     7  C    2.444609   0.000000
     8  C    4.295989   2.485850   0.000000
     9  C    2.472241   2.474128   2.527469   0.000000
    10  H    3.098050   3.122153   2.883241   1.103889   0.000000
    11  H    3.284952   3.297014   2.708012   1.093845   1.708638
    12  C    1.386325   2.848434   3.849656   1.485408   2.103297
    13  C    2.537755   4.293544   4.965019   2.471121   2.779387
    14  C    3.721447   1.488377   3.061769   3.897790   4.454742
    15  H    3.823835   2.136258   4.117228   4.594687   5.138929
    16  H    4.328768   2.137159   3.153168   4.345492   5.041291
    17  H    4.446730   2.135630   2.991413   4.245187   4.578540
    18  C    5.180030   3.836793   1.506174   2.893572   2.948297
    19  H    6.172227   4.591970   2.126989   3.942755   3.898521
    20  H    5.351521   4.266941   2.144228   3.076854   3.351936
    21  H    5.072219   4.105233   2.175726   2.659313   2.335624
    22  C    3.111743   5.303280   6.320750   3.881750   4.254419
    23  H    2.924420   5.144048   6.422492   4.164144   4.751967
    24  H    3.402918   5.737159   6.931788   4.444450   4.629651
    25  H    4.122204   6.175037   6.913071   4.510624   4.845217
    26  C    1.492761   3.712907   5.769863   3.905206   4.424078
    27  H    2.144678   4.493491   6.358707   4.231043   4.542014
    28  H    2.153379   4.247949   6.252748   4.439313   5.117608
    29  H    2.133296   3.819248   6.120035   4.560214   5.021694
                   11         12         13         14         15
    11  H    0.000000
    12  C    2.109189   0.000000
    13  C    2.589701   1.453117   0.000000
    14  C    4.642145   4.321876   5.769503   0.000000
    15  H    5.426638   4.719839   6.153282   1.087936   0.000000
    16  H    4.888291   4.839830   6.239726   1.086106   1.760947
    17  H    4.997624   4.899795   6.335006   1.084572   1.763842
    18  C    2.613095   4.362727   5.130005   4.562029   5.606101
    19  H    3.692741   5.419235   6.201929   5.056176   6.126155
    20  H    2.432323   4.424615   5.009450   5.081970   6.115078
    21  H    2.430691   4.109737   4.710919   5.021879   5.993393
    22  C    3.991659   2.594977   1.508733   6.705868   6.907906
    23  H    4.317444   2.793891   2.180412   6.441798   6.549088
    24  H    4.729254   3.106791   2.150024   7.105728   7.199521
    25  H    4.377896   3.420686   2.111586   7.599506   7.872360
    26  C    4.644634   2.591334   3.181056   4.743599   4.534356
    27  H    4.937381   2.835685   3.007028   5.615778   5.442271
    28  H    5.001130   3.093641   3.483552   5.216123   4.994335
    29  H    5.416689   3.426212   4.192287   4.562953   4.121002
                   16         17         18         19         20
    16  H    0.000000
    17  H    1.737331   0.000000
    18  C    4.629163   4.420944   0.000000
    19  H    5.045828   4.728686   1.084427   0.000000
    20  H    4.996310   5.126065   1.089201   1.756567   0.000000
    21  H    5.288444   4.853294   1.085499   1.765783   1.748946
    22  C    7.149419   7.399930   6.577535   7.657779   6.378873
    23  H    6.799669   7.254639   6.863954   7.946014   6.629015
    24  H    7.673822   7.749888   7.231415   8.295732   7.156108
    25  H    7.969789   8.284353   6.977238   8.045352   6.646032
    26  C    5.355873   5.529204   6.669520   7.664469   6.807214
    27  H    6.300008   6.302058   7.097501   8.111464   7.244977
    28  H    5.647170   6.120017   7.142498   8.157971   7.133358
    29  H    5.250766   5.318490   7.174428   8.103379   7.425791
                   21         22         23         24         25
    21  H    0.000000
    22  C    6.209091   0.000000
    23  H    6.652946   1.086550   0.000000
    24  H    6.765180   1.091987   1.764783   0.000000
    25  H    6.583835   1.088085   1.773395   1.760364   0.000000
    26  C    6.524062   3.049837   2.623096   3.020106   4.115107
    27  H    6.793953   2.651805   2.499014   2.265338   3.702936
    28  H    7.092070   3.022082   2.244165   3.169636   3.968132
    29  H    7.072738   4.114785   3.674483   3.963547   5.182248
                   26         27         28         29
    26  C    0.000000
    27  H    1.084531   0.000000
    28  H    1.090081   1.758009   0.000000
    29  H    1.089103   1.751469   1.754240   0.000000
 Stoichiometry    C11H15NO2
 Framework group  C1[X(C11H15NO2)]
 Deg. of freedom    81
 Full point group                 C1      NOp   1
 RotChk:  IX=0 Diff= 7.29D-16
 Largest Abelian subgroup         C1      NOp   1
 Largest concise Abelian subgroup C1      NOp   1
                         Standard orientation:                         
 ---------------------------------------------------------------------
 Center     Atomic      Atomic             Coordinates (Angstroms)
 Number     Number       Type             X           Y           Z
 ---------------------------------------------------------------------
      1          8           0       -2.288426   -2.285132   -0.256834
      2          8           0        3.623122   -0.257841    0.302457
      3          7           0       -0.022057    1.800307   -0.112120
      4          1           0       -0.049909    2.810722   -0.122374
      5          6           0        1.296209   -0.147077   -0.052453
      6          6           0       -1.231878    1.168100   -0.087613
      7          6           0        1.211160    1.240393   -0.038063
      8          6           0        2.559767   -0.844331    0.082916
      9          6           0        0.054694   -0.937512   -0.239614
     10          1           0        0.059943   -1.400371   -1.241765
     11          1           0        0.052955   -1.812868    0.416318
     12          6           0       -1.235123   -0.218201   -0.080242
     13          6           0       -2.399037   -1.083023    0.014302
     14          6           0        2.339015    2.209047    0.032072
     15          1           0        1.989403    3.228225   -0.118432
     16          1           0        2.840120    2.161152    0.994479
     17          1           0        3.093106    1.988754   -0.715667
     18          6           0        2.572758   -2.346644   -0.024069
     19          1           0        3.588772   -2.684974   -0.195041
     20          1           0        2.223443   -2.796139    0.904528
     21          1           0        1.937501   -2.723813   -0.819369
     22          6           0       -3.742944   -0.579811    0.480099
     23          1           0       -3.672396    0.218354    1.213956
     24          1           0       -4.328744   -0.214571   -0.365994
     25          1           0       -4.278778   -1.421095    0.914898
     26          6           0       -2.401246    2.095789   -0.105155
     27          1           0       -3.203090    1.717367   -0.729695
     28          1           0       -2.805222    2.263228    0.893367
     29          1           0       -2.110512    3.067280   -0.502425
 ---------------------------------------------------------------------
 Rotational constants (GHZ):           1.0753577           0.4901393           0.3437541
 Leave Link  202 at Sat Jan 24 22:55:50 2026, MaxMem=  2147483648 cpu:               0.0 elap:               0.0
 (Enter /data/home/wyx/g16/l301.exe)
 Standard basis: TZVP (5D, 7F)
 Ernie: Thresh=  0.10000D-02 Tol=  0.10000D-05 Strict=F.
 There are   370 symmetry adapted cartesian basis functions of A   symmetry.
 There are   356 symmetry adapted basis functions of A   symmetry.
   356 basis functions,   610 primitive gaussians,   370 cartesian basis functions
    52 alpha electrons       52 beta electrons
       nuclear repulsion energy       899.7021803292 Hartrees.
 IExCor=20419 DFT=T Ex+Corr=CAM-B3LYP ExCW=0 ScaHFX=  1.000000
 ScaDFX=  1.000000  1.000000  1.000000  0.810000 ScalE2=  1.000000  1.000000
 IRadAn=      5 IRanWt=     -1 IRanGd=            0 ICorTp=0 IEmpDi=141
 HFx  wShort=  0.000000 wLong=  0.330000 cFull=  0.190000 cShort=  0.000000 cLong=  0.460000
 DFx  wShort=  0.000000 wLong=  0.330000 cFull=  0.190000 cShort=  0.000000 cLong=  0.460000
 NAtoms=   29 NActive=   29 NUniq=   29 SFac= 1.00D+00 NAtFMM=   60 NAOKFM=F Big=F
 Integral buffers will be    131072 words long.
 Raffenetti 2 integral format.
 Two-electron integral symmetry is turned on.
 R6Disp:  Grimme-D3(BJ) Dispersion energy=       -0.0261494983 Hartrees.
 Nuclear repulsion after empirical dispersion term =      899.6760308309 Hartrees.
 ------------------------------------------------------------------------------
 Polarizable Continuum Model (PCM)
 =================================
 Model                : PCM.
 Atomic radii         : UFF (Universal Force Field).
 Polarization charges : Total charges.
 Charge compensation  : None.
 Solution method      : On-the-fly selection.
 Cavity type          : Scaled VdW (van der Waals Surface) (Alpha=1.100).
 Cavity algorithm     : GePol (No added spheres)
                        Default sphere list used, NSphG=   29.
                        Lebedev-Laikov grids with approx.  5.0 points / Ang**2.
                        Smoothing algorithm: York/Karplus (Gamma=1.0000).
                        Polarization charges: spherical gaussians, with
                                              point-specific exponents (IZeta= 3).
                        Self-potential: point-specific (ISelfS= 7).
                        Self-field    : sphere-specific E.n sum rule (ISelfD= 2).
 Solvent              : Water, Eps=  78.355300 Eps(inf)=   1.777849
 ------------------------------------------------------------------------------
 GePol: Number of generator spheres                  =      29
 GePol: Total number of spheres                      =      29
 GePol: Number of exposed spheres                    =      29 (100.00%)
 GePol: Number of points                             =    2118
 GePol: Average weight of points                     =       0.13
 GePol: Minimum weight of points                     =   0.39D-11
 GePol: Maximum weight of points                     =    0.20577
 GePol: Number of points with low weight             =     135
 GePol: Fraction of low-weight points (<1% of avg)   =       6.37%
 GePol: Cavity surface area                          =    269.079 Ang**2
 GePol: Cavity volume                                =    287.080 Ang**3
 Leave Link  301 at Sat Jan 24 22:55:50 2026, MaxMem=  2147483648 cpu:               0.6 elap:               0.0
 (Enter /data/home/wyx/g16/l302.exe)
 NPDir=0 NMtPBC=     1 NCelOv=     1 NCel=       1 NClECP=     1 NCelD=      1
         NCelK=      1 NCelE2=     1 NClLst=     1 CellRange=     0.0.
 One-electron integrals computed using PRISM.
 One-electron integral symmetry used in STVInt
 NBasis=   356 RedAO= T EigKep=  4.36D-05  NBF=   356
 NBsUse=   356 1.00D-06 EigRej= -1.00D+00 NBFU=   356
 Precomputing XC quadrature grid using
 IXCGrd= 4 IRadAn=           5 IRanWt=          -1 IRanGd=           0 AccXCQ= 0.00D+00.
 Generated NRdTot=       0 NPtTot=           0 NUsed=           0 NTot=          32
 NSgBfM=   366   366   366   366   366 MxSgAt=    29 MxSgA2=    29.
 Leave Link  302 at Sat Jan 24 22:55:51 2026, MaxMem=  2147483648 cpu:               3.2 elap:               0.2
 (Enter /data/home/wyx/g16/l303.exe)
 DipDrv:  MaxL=1.
 Leave Link  303 at Sat Jan 24 22:55:51 2026, MaxMem=  2147483648 cpu:               0.6 elap:               0.0
 (Enter /data/home/wyx/g16/l401.exe)
 Initial guess from the checkpoint file:  "DDL-S2-cLR-gs-5.chk"
 B after Tr=    -0.000000   -0.000000   -0.000000
         Rot=    1.000000    0.000000   -0.000000   -0.000000 Ang=   0.00 deg.
 Guess basis will be translated and rotated to current coordinates.
 JPrj=2 DoOrth=T DoCkMO=T.
 Leave Link  401 at Sat Jan 24 22:55:51 2026, MaxMem=  2147483648 cpu:               2.2 elap:               0.2
 (Enter /data/home/wyx/g16/l502.exe)
 Integral symmetry usage will be decided dynamically.
 Closed shell SCF:
 Using DIIS extrapolation, IDIIS=  1040.
 NGot=  2147483648 LenX=  2147200095 LenY=  2147062754
 Requested convergence on RMS density matrix=1.00D-08 within 128 cycles.
 Requested convergence on MAX density matrix=1.00D-06.
 Requested convergence on             energy=1.00D-06.
 No special actions if energy rises.
 Fock matrices will be formed incrementally for  20 cycles.

 Cycle   1  Pass 1  IDiag  1:
 FoFJK:  IHMeth= 1 ICntrl=       0 DoSepK=T KAlg= 0 I1Cent=           0 FoldK=F
 IRaf=         1 NMat=       1 IRICut=       1 DoRegI=T DoRafI=F ISym2E= 0 IDoP0=0 IntGTp=1.
 FoFCou: FMM=F IPFlag=           0 FMFlag=      100000 FMFlg1=           0
         NFxFlg=           0 DoJE=T BraDBF=F KetDBF=F FulRan=T
         wScrn=  0.000000 ICntrl=       500 IOpCl=  0 I1Cent=           0 NGrid=           0
         NMat0=    1 NMatS0=      1 NMatT0=    0 NMatD0=    1 NMtDS0=    0 NMtDT0=    0
 Symmetry not used in FoFCou.
 Inv3:  Mode=1 IEnd=    13457772.
 Iteration    1 A*A^-1 deviation from unit magnitude is 3.77D-15 for    148.
 Iteration    1 A*A^-1 deviation from orthogonality  is 2.00D-15 for   2023    560.
 Iteration    1 A^-1*A deviation from unit magnitude is 2.89D-15 for   1225.
 Iteration    1 A^-1*A deviation from orthogonality  is 2.22D-15 for   2031   1568.
 NEqPCM:  Using non-equilibrium solvation (IEInf=1, Eps=  78.3553, EpsInf=   1.7778)
 Inv3:  Mode=1 IEnd=    13457772.
 Iteration    1 A*A^-1 deviation from unit magnitude is 3.11D-15 for    717.
 Iteration    1 A*A^-1 deviation from orthogonality  is 1.47D-15 for   1353      3.
 Iteration    1 A^-1*A deviation from unit magnitude is 3.33D-15 for    717.
 Iteration    1 A^-1*A deviation from orthogonality  is 1.89D-15 for   1953    349.
 E= -633.324081226066    
 DIIS: error= 8.32D-04 at cycle   1 NSaved=   1.
 NSaved= 1 IEnMin= 1 EnMin= -633.324081226066     IErMin= 1 ErrMin= 8.32D-04
 ErrMax= 8.32D-04  0.00D+00 EMaxC= 1.00D-01 BMatC= 1.39D-04 BMatP= 1.39D-04
 IDIUse=3 WtCom= 9.92D-01 WtEn= 8.32D-03
 Coeff-Com:  0.100D+01
 Coeff-En:   0.100D+01
 Coeff:      0.100D+01
 Gap=     0.222 Goal=   None    Shift=    0.000
 RMSDP=5.08D-04 MaxDP=3.43D-02              OVMax= 1.44D-02

 Cycle   2  Pass 1  IDiag  1:
 RMSU=  5.04D-04    CP:  1.01D+00
 E= -633.324334532577     Delta-E=       -0.000253306511 Rises=F Damp=F
 DIIS: error= 5.53D-04 at cycle   2 NSaved=   2.
 NSaved= 2 IEnMin= 2 EnMin= -633.324334532577     IErMin= 2 ErrMin= 5.53D-04
 ErrMax= 5.53D-04  0.00D+00 EMaxC= 1.00D-01 BMatC= 1.41D-04 BMatP= 1.39D-04
 IDIUse=3 WtCom= 9.94D-01 WtEn= 5.53D-03
 Coeff-Com:  0.503D+00 0.497D+00
 Coeff-En:   0.000D+00 0.100D+01
 Coeff:      0.500D+00 0.500D+00
 Gap=     0.222 Goal=   None    Shift=    0.000
 RMSDP=1.43D-04 MaxDP=7.99D-03 DE=-2.53D-04 OVMax= 3.01D-03

 Cycle   3  Pass 1  IDiag  1:
 RMSU=  1.31D-04    CP:  1.00D+00  9.65D-01
 E= -633.324445698020     Delta-E=       -0.000111165443 Rises=F Damp=F
 DIIS: error= 2.10D-04 at cycle   3 NSaved=   3.
 NSaved= 3 IEnMin= 3 EnMin= -633.324445698020     IErMin= 3 ErrMin= 2.10D-04
 ErrMax= 2.10D-04  0.00D+00 EMaxC= 1.00D-01 BMatC= 1.71D-05 BMatP= 1.39D-04
 IDIUse=3 WtCom= 9.98D-01 WtEn= 2.10D-03
 Coeff-Com:  0.714D-01 0.235D+00 0.693D+00
 Coeff-En:   0.000D+00 0.000D+00 0.100D+01
 Coeff:      0.712D-01 0.235D+00 0.694D+00
 Gap=     0.222 Goal=   None    Shift=    0.000
 RMSDP=3.72D-05 MaxDP=1.78D-03 DE=-1.11D-04 OVMax= 2.06D-03

 Cycle   4  Pass 1  IDiag  1:
 RMSU=  2.81D-05    CP:  1.00D+00  9.83D-01  1.17D+00
 E= -633.324460849689     Delta-E=       -0.000015151669 Rises=F Damp=F
 DIIS: error= 1.06D-04 at cycle   4 NSaved=   4.
 NSaved= 4 IEnMin= 4 EnMin= -633.324460849689     IErMin= 4 ErrMin= 1.06D-04
 ErrMax= 1.06D-04  0.00D+00 EMaxC= 1.00D-01 BMatC= 1.52D-06 BMatP= 1.71D-05
 IDIUse=3 WtCom= 9.99D-01 WtEn= 1.06D-03
 Coeff-Com: -0.115D-01 0.161D-01 0.216D+00 0.779D+00
 Coeff-En:   0.000D+00 0.000D+00 0.000D+00 0.100D+01
 Coeff:     -0.115D-01 0.161D-01 0.216D+00 0.779D+00
 Gap=     0.222 Goal=   None    Shift=    0.000
 RMSDP=2.60D-05 MaxDP=1.40D-03 DE=-1.52D-05 OVMax= 1.30D-03

 Cycle   5  Pass 1  IDiag  1:
 RMSU=  1.27D-05    CP:  1.00D+00  9.92D-01  1.33D+00  1.05D+00
 E= -633.324463120412     Delta-E=       -0.000002270723 Rises=F Damp=F
 DIIS: error= 3.66D-05 at cycle   5 NSaved=   5.
 NSaved= 5 IEnMin= 5 EnMin= -633.324463120412     IErMin= 5 ErrMin= 3.66D-05
 ErrMax= 3.66D-05  0.00D+00 EMaxC= 1.00D-01 BMatC= 4.31D-07 BMatP= 1.52D-06
 IDIUse=1 WtCom= 1.00D+00 WtEn= 0.00D+00
 Coeff-Com: -0.138D-01-0.340D-01-0.661D-02 0.361D+00 0.694D+00
 Coeff:     -0.138D-01-0.340D-01-0.661D-02 0.361D+00 0.694D+00
 Gap=     0.222 Goal=   None    Shift=    0.000
 RMSDP=1.06D-05 MaxDP=4.92D-04 DE=-2.27D-06 OVMax= 5.16D-04

 Cycle   6  Pass 1  IDiag  1:
 RMSU=  4.25D-06    CP:  1.00D+00  9.90D-01  1.39D+00  1.23D+00  1.07D+00
 E= -633.324463829393     Delta-E=       -0.000000708981 Rises=F Damp=F
 DIIS: error= 2.89D-05 at cycle   6 NSaved=   6.
 NSaved= 6 IEnMin= 6 EnMin= -633.324463829393     IErMin= 6 ErrMin= 2.89D-05
 ErrMax= 2.89D-05  0.00D+00 EMaxC= 1.00D-01 BMatC= 4.85D-08 BMatP= 4.31D-07
 IDIUse=1 WtCom= 1.00D+00 WtEn= 0.00D+00
 Coeff-Com: -0.914D-03-0.170D-01-0.275D-01 0.181D-03 0.179D+00 0.866D+00
 Coeff:     -0.914D-03-0.170D-01-0.275D-01 0.181D-03 0.179D+00 0.866D+00
 Gap=     0.222 Goal=   None    Shift=    0.000
 RMSDP=4.84D-06 MaxDP=1.94D-04 DE=-7.09D-07 OVMax= 4.20D-04

 Cycle   7  Pass 1  IDiag  1:
 RMSU=  1.91D-06    CP:  1.00D+00  9.87D-01  1.41D+00  1.31D+00  1.17D+00
                    CP:  1.29D+00
 E= -633.324463982777     Delta-E=       -0.000000153384 Rises=F Damp=F
 DIIS: error= 1.16D-05 at cycle   7 NSaved=   7.
 NSaved= 7 IEnMin= 7 EnMin= -633.324463982777     IErMin= 7 ErrMin= 1.16D-05
 ErrMax= 1.16D-05  0.00D+00 EMaxC= 1.00D-01 BMatC= 2.57D-08 BMatP= 4.85D-08
 IDIUse=1 WtCom= 1.00D+00 WtEn= 0.00D+00
 Coeff-Com:  0.259D-02-0.340D-02-0.862D-02-0.757D-01-0.106D+00 0.457D+00
 Coeff-Com:  0.734D+00
 Coeff:      0.259D-02-0.340D-02-0.862D-02-0.757D-01-0.106D+00 0.457D+00
 Coeff:      0.734D+00
 Gap=     0.222 Goal=   None    Shift=    0.000
 RMSDP=2.27D-06 MaxDP=8.56D-05 DE=-1.53D-07 OVMax= 2.21D-04

 Cycle   8  Pass 1  IDiag  1:
 RMSU=  7.38D-07    CP:  1.00D+00  9.86D-01  1.42D+00  1.35D+00  1.22D+00
                    CP:  1.53D+00  1.13D+00
 E= -633.324464032983     Delta-E=       -0.000000050206 Rises=F Damp=F
 DIIS: error= 3.84D-06 at cycle   8 NSaved=   8.
 NSaved= 8 IEnMin= 8 EnMin= -633.324464032983     IErMin= 8 ErrMin= 3.84D-06
 ErrMax= 3.84D-06  0.00D+00 EMaxC= 1.00D-01 BMatC= 2.49D-09 BMatP= 2.57D-08
 IDIUse=1 WtCom= 1.00D+00 WtEn= 0.00D+00
 Coeff-Com:  0.111D-02 0.746D-03 0.245D-02-0.244D-01-0.844D-01 0.178D-01
 Coeff-Com:  0.247D+00 0.840D+00
 Coeff:      0.111D-02 0.746D-03 0.245D-02-0.244D-01-0.844D-01 0.178D-01
 Coeff:      0.247D+00 0.840D+00
 Gap=     0.222 Goal=   None    Shift=    0.000
 RMSDP=9.29D-07 MaxDP=3.42D-05 DE=-5.02D-08 OVMax= 8.69D-05

 Cycle   9  Pass 1  IDiag  1:
 RMSU=  2.57D-07    CP:  1.00D+00  9.86D-01  1.43D+00  1.36D+00  1.22D+00
                    CP:  1.66D+00  1.33D+00  1.15D+00
 E= -633.324464039095     Delta-E=       -0.000000006112 Rises=F Damp=F
 DIIS: error= 1.29D-06 at cycle   9 NSaved=   9.
 NSaved= 9 IEnMin= 9 EnMin= -633.324464039095     IErMin= 9 ErrMin= 1.29D-06
 ErrMax= 1.29D-06  0.00D+00 EMaxC= 1.00D-01 BMatC= 3.07D-10 BMatP= 2.49D-09
 IDIUse=1 WtCom= 1.00D+00 WtEn= 0.00D+00
 Coeff-Com:  0.396D-04 0.657D-03 0.217D-02 0.402D-02-0.188D-01-0.595D-01
 Coeff-Com: -0.235D-02 0.332D+00 0.742D+00
 Coeff:      0.396D-04 0.657D-03 0.217D-02 0.402D-02-0.188D-01-0.595D-01
 Coeff:     -0.235D-02 0.332D+00 0.742D+00
 Gap=     0.222 Goal=   None    Shift=    0.000
 RMSDP=3.02D-07 MaxDP=1.65D-05 DE=-6.11D-09 OVMax= 2.59D-05

 Cycle  10  Pass 1  IDiag  1:
 RMSU=  1.14D-07    CP:  1.00D+00  9.86D-01  1.43D+00  1.37D+00  1.21D+00
                    CP:  1.70D+00  1.39D+00  1.26D+00  9.97D-01
 E= -633.324464039673     Delta-E=       -0.000000000578 Rises=F Damp=F
 DIIS: error= 3.86D-07 at cycle  10 NSaved=  10.
 NSaved=10 IEnMin=10 EnMin= -633.324464039673     IErMin=10 ErrMin= 3.86D-07
 ErrMax= 3.86D-07  0.00D+00 EMaxC= 1.00D-01 BMatC= 6.34D-11 BMatP= 3.07D-10
 IDIUse=1 WtCom= 1.00D+00 WtEn= 0.00D+00
 Coeff-Com: -0.934D-04 0.322D-03 0.255D-03 0.424D-02 0.200D-02-0.257D-01
 Coeff-Com: -0.269D-01 0.115D-01 0.299D+00 0.736D+00
 Coeff:     -0.934D-04 0.322D-03 0.255D-03 0.424D-02 0.200D-02-0.257D-01
 Coeff:     -0.269D-01 0.115D-01 0.299D+00 0.736D+00
 Gap=     0.222 Goal=   None    Shift=    0.000
 RMSDP=1.07D-07 MaxDP=6.40D-06 DE=-5.78D-10 OVMax= 7.11D-06

 Cycle  11  Pass 1  IDiag  1:
 RMSU=  3.34D-08    CP:  1.00D+00  9.86D-01  1.42D+00  1.37D+00  1.21D+00
                    CP:  1.70D+00  1.41D+00  1.29D+00  1.14D+00  1.12D+00
 E= -633.324464039764     Delta-E=       -0.000000000091 Rises=F Damp=F
 DIIS: error= 1.70D-07 at cycle  11 NSaved=  11.
 NSaved=11 IEnMin=11 EnMin= -633.324464039764     IErMin=11 ErrMin= 1.70D-07
 ErrMax= 1.70D-07  0.00D+00 EMaxC= 1.00D-01 BMatC= 1.08D-11 BMatP= 6.34D-11
 IDIUse=1 WtCom= 1.00D+00 WtEn= 0.00D+00
 Coeff-Com: -0.577D-04 0.945D-04-0.317D-03 0.152D-02 0.436D-02-0.142D-02
 Coeff-Com: -0.103D-01-0.567D-01 0.202D-01 0.320D+00 0.723D+00
 Coeff:     -0.577D-04 0.945D-04-0.317D-03 0.152D-02 0.436D-02-0.142D-02
 Coeff:     -0.103D-01-0.567D-01 0.202D-01 0.320D+00 0.723D+00
 Gap=     0.222 Goal=   None    Shift=    0.000
 RMSDP=5.17D-08 MaxDP=4.15D-06 DE=-9.11D-11 OVMax= 2.30D-06

 Cycle  12  Pass 1  IDiag  1:
 RMSU=  1.83D-08    CP:  1.00D+00  9.86D-01  1.42D+00  1.37D+00  1.21D+00
                    CP:  1.71D+00  1.41D+00  1.30D+00  1.17D+00  1.27D+00
                    CP:  1.01D+00
 E= -633.324464039774     Delta-E=       -0.000000000010 Rises=F Damp=F
 DIIS: error= 7.02D-08 at cycle  12 NSaved=  12.
 NSaved=12 IEnMin=12 EnMin= -633.324464039774     IErMin=12 ErrMin= 7.02D-08
 ErrMax= 7.02D-08  0.00D+00 EMaxC= 1.00D-01 BMatC= 1.68D-12 BMatP= 1.08D-11
 IDIUse=1 WtCom= 1.00D+00 WtEn= 0.00D+00
 Coeff-Com: -0.137D-04 0.223D-04-0.176D-03 0.114D-03 0.157D-02 0.253D-02
 Coeff-Com: -0.205D-03-0.259D-01-0.246D-01 0.320D-01 0.335D+00 0.680D+00
 Coeff:     -0.137D-04 0.223D-04-0.176D-03 0.114D-03 0.157D-02 0.253D-02
 Coeff:     -0.205D-03-0.259D-01-0.246D-01 0.320D-01 0.335D+00 0.680D+00
 Gap=     0.222 Goal=   None    Shift=    0.000
 RMSDP=1.16D-08 MaxDP=6.83D-07 DE=-1.05D-11 OVMax= 8.33D-07

 Cycle  13  Pass 1  IDiag  1:
 RMSU=  6.82D-09    CP:  1.00D+00  9.86D-01  1.42D+00  1.37D+00  1.21D+00
                    CP:  1.71D+00  1.41D+00  1.30D+00  1.19D+00  1.29D+00
                    CP:  1.13D+00  8.82D-01
 E= -633.324464039781     Delta-E=       -0.000000000007 Rises=F Damp=F
 DIIS: error= 2.25D-08 at cycle  13 NSaved=  13.
 NSaved=13 IEnMin=13 EnMin= -633.324464039781     IErMin=13 ErrMin= 2.25D-08
 ErrMax= 2.25D-08  0.00D+00 EMaxC= 1.00D-01 BMatC= 3.31D-13 BMatP= 1.68D-12
 IDIUse=1 WtCom= 1.00D+00 WtEn= 0.00D+00
 Coeff-Com: -0.247D-06 0.373D-07-0.427D-04-0.192D-03 0.155D-03 0.129D-02
 Coeff-Com:  0.143D-02-0.560D-02-0.182D-01-0.424D-01 0.505D-01 0.366D+00
 Coeff-Com:  0.647D+00
 Coeff:     -0.247D-06 0.373D-07-0.427D-04-0.192D-03 0.155D-03 0.129D-02
 Coeff:      0.143D-02-0.560D-02-0.182D-01-0.424D-01 0.505D-01 0.366D+00
 Coeff:      0.647D+00
 Gap=     0.222 Goal=   None    Shift=    0.000
 RMSDP=8.71D-09 MaxDP=4.92D-07 DE=-7.28D-12 OVMax= 4.01D-07

 Error on total polarization charges =  0.00827
 SCF Done:  E(RCAM-B3LYP) =  -633.324464040     A.U. after   13 cycles
            NFock= 13  Conv=0.87D-08     -V/T= 2.0042
 KE= 6.306820654776D+02 PE=-3.275457535245D+03 EE= 1.111774974897D+03
 Leave Link  502 at Sat Jan 24 22:56:43 2026, MaxMem=  2147483648 cpu:             814.5 elap:              51.6
 (Enter /data/home/wyx/g16/l601.exe)
 Copying SCF densities to generalized density rwf, IOpCl= 0 IROHF=0.

 **********************************************************************

            Population analysis using the SCF density.

 **********************************************************************

 Orbital symmetries:
       Occupied  (A) (A) (A) (A) (A) (A) (A) (A) (A) (A) (A) (A)
                 (A) (A) (A) (A) (A) (A) (A) (A) (A) (A) (A) (A)
                 (A) (A) (A) (A) (A) (A) (A) (A) (A) (A) (A) (A)
                 (A) (A) (A) (A) (A) (A) (A) (A) (A) (A) (A) (A)
                 (A) (A) (A) (A)
       Virtual   (A) (A) (A) (A) (A) (A) (A) (A) (A) (A) (A) (A)
                 (A) (A) (A) (A) (A) (A) (A) (A) (A) (A) (A) (A)
                 (A) (A) (A) (A) (A) (A) (A) (A) (A) (A) (A) (A)
                 (A) (A) (A) (A) (A) (A) (A) (A) (A) (A) (A) (A)
                 (A) (A) (A) (A) (A) (A) (A) (A) (A) (A) (A) (A)
                 (A) (A) (A) (A) (A) (A) (A) (A) (A) (A) (A) (A)
                 (A) (A) (A) (A) (A) (A) (A) (A) (A) (A) (A) (A)
                 (A) (A) (A) (A) (A) (A) (A) (A) (A) (A) (A) (A)
                 (A) (A) (A) (A) (A) (A) (A) (A) (A) (A) (A) (A)
                 (A) (A) (A) (A) (A) (A) (A) (A) (A) (A) (A) (A)
                 (A) (A) (A) (A) (A) (A) (A) (A) (A) (A) (A) (A)
                 (A) (A) (A) (A) (A) (A) (A) (A) (A) (A) (A) (A)
                 (A) (A) (A) (A) (A) (A) (A) (A) (A) (A) (A) (A)
                 (A) (A) (A) (A) (A) (A) (A) (A) (A) (A) (A) (A)
                 (A) (A) (A) (A) (A) (A) (A) (A) (A) (A) (A) (A)
                 (A) (A) (A) (A) (A) (A) (A) (A) (A) (A) (A) (A)
                 (A) (A) (A) (A) (A) (A) (A) (A) (A) (A) (A) (A)
                 (A) (A) (A) (A) (A) (A) (A) (A) (A) (A) (A) (A)
                 (A) (A) (A) (A) (A) (A) (A) (A) (A) (A) (A) (A)
                 (A) (A) (A) (A) (A) (A) (A) (A) (A) (A) (A) (A)
                 (A) (A) (A) (A) (A) (A) (A) (A) (A) (A) (A) (A)
                 (A) (A) (A) (A) (A) (A) (A) (A) (A) (A) (A) (A)
                 (A) (A) (A) (A) (A) (A) (A) (A) (A) (A) (A) (A)
                 (A) (A) (A) (A) (A) (A) (A) (A) (A) (A) (A) (A)
                 (A) (A) (A) (A) (A) (A) (A) (A) (A) (A) (A) (A)
                 (A) (A) (A) (A)
 The electronic state is 1-A.
 Alpha  occ. eigenvalues --  -19.18343 -19.16715 -14.44905 -10.33868 -10.33117
 Alpha  occ. eigenvalues --  -10.32594 -10.32169 -10.26353 -10.25664 -10.24883
 Alpha  occ. eigenvalues --  -10.24852 -10.24818 -10.24626 -10.23181  -1.11974
 Alpha  occ. eigenvalues --   -1.10601  -1.08631  -0.91707  -0.90734  -0.84141
 Alpha  occ. eigenvalues --   -0.82764  -0.81849  -0.78593  -0.74150  -0.72219
 Alpha  occ. eigenvalues --   -0.68918  -0.61789  -0.58482  -0.57246  -0.55451
 Alpha  occ. eigenvalues --   -0.54840  -0.54065  -0.52631  -0.51955  -0.51107
 Alpha  occ. eigenvalues --   -0.50161  -0.49477  -0.49222  -0.48772  -0.48233
 Alpha  occ. eigenvalues --   -0.47221  -0.45436  -0.44835  -0.44121  -0.43521
 Alpha  occ. eigenvalues --   -0.42488  -0.42308  -0.41468  -0.33036  -0.32585
 Alpha  occ. eigenvalues --   -0.30884  -0.25587
 Alpha virt. eigenvalues --   -0.03415   0.02354   0.06101   0.08043   0.08390
 Alpha virt. eigenvalues --    0.09576   0.10832   0.11606   0.12404   0.13294
 Alpha virt. eigenvalues --    0.13763   0.14785   0.15502   0.16337   0.16976
 Alpha virt. eigenvalues --    0.17621   0.17843   0.17958   0.18261   0.19288
 Alpha virt. eigenvalues --    0.19839   0.22017   0.22623   0.23232   0.23587
 Alpha virt. eigenvalues --    0.23752   0.24680   0.25538   0.26275   0.26657
 Alpha virt. eigenvalues --    0.27004   0.27868   0.28318   0.29077   0.30209
 Alpha virt. eigenvalues --    0.31471   0.31737   0.32212   0.33281   0.34270
 Alpha virt. eigenvalues --    0.34695   0.35836   0.36659   0.37686   0.38262
 Alpha virt. eigenvalues --    0.39520   0.40694   0.41259   0.41648   0.42205
 Alpha virt. eigenvalues --    0.43942   0.44592   0.45309   0.45992   0.46481
 Alpha virt. eigenvalues --    0.47096   0.47671   0.47890   0.48328   0.48899
 Alpha virt. eigenvalues --    0.49349   0.50541   0.51249   0.51423   0.51572
 Alpha virt. eigenvalues --    0.52653   0.52802   0.53222   0.53755   0.54194
 Alpha virt. eigenvalues --    0.54328   0.55230   0.55785   0.56509   0.58119
 Alpha virt. eigenvalues --    0.58283   0.59568   0.60808   0.61257   0.62912
 Alpha virt. eigenvalues --    0.63665   0.65176   0.66203   0.66761   0.67416
 Alpha virt. eigenvalues --    0.68502   0.69531   0.70752   0.71257   0.71938
 Alpha virt. eigenvalues --    0.72997   0.74238   0.74734   0.75576   0.77298
 Alpha virt. eigenvalues --    0.78674   0.79957   0.82762   0.85910   0.87106
 Alpha virt. eigenvalues --    0.90405   0.95069   1.01241   1.03694   1.22543
 Alpha virt. eigenvalues --    1.24425   1.26888   1.28466   1.29155   1.30420
 Alpha virt. eigenvalues --    1.31892   1.32927   1.34150   1.35007   1.36044
 Alpha virt. eigenvalues --    1.36578   1.37949   1.38265   1.38669   1.39496
 Alpha virt. eigenvalues --    1.39837   1.40371   1.40710   1.41157   1.41787
 Alpha virt. eigenvalues --    1.43286   1.43476   1.44237   1.45225   1.47257
 Alpha virt. eigenvalues --    1.47867   1.49346   1.49770   1.50162   1.50348
 Alpha virt. eigenvalues --    1.50955   1.52154   1.52444   1.54958   1.58169
 Alpha virt. eigenvalues --    1.58892   1.60093   1.60735   1.61338   1.62364
 Alpha virt. eigenvalues --    1.62452   1.63021   1.64103   1.64475   1.65905
 Alpha virt. eigenvalues --    1.66441   1.66966   1.67397   1.67924   1.68469
 Alpha virt. eigenvalues --    1.69015   1.69699   1.70093   1.70905   1.72052
 Alpha virt. eigenvalues --    1.74009   1.74684   1.75771   1.76674   1.78384
 Alpha virt. eigenvalues --    1.81142   1.82735   1.83820   1.85647   1.86605
 Alpha virt. eigenvalues --    1.86831   1.88098   1.88703   1.88926   1.90220
 Alpha virt. eigenvalues --    1.91048   1.94410   1.95022   1.98952   1.99699
 Alpha virt. eigenvalues --    2.01382   2.03637   2.05279   2.06778   2.09383
 Alpha virt. eigenvalues --    2.10479   2.11807   2.15464   2.17512   2.19588
 Alpha virt. eigenvalues --    2.20393   2.21031   2.21909   2.22788   2.26458
 Alpha virt. eigenvalues --    2.27146   2.27352   2.29141   2.31177   2.32024
 Alpha virt. eigenvalues --    2.33827   2.34105   2.36576   2.37852   2.38875
 Alpha virt. eigenvalues --    2.39417   2.40171   2.41254   2.42760   2.44860
 Alpha virt. eigenvalues --    2.45922   2.47619   2.49269   2.50103   2.51030
 Alpha virt. eigenvalues --    2.52269   2.54021   2.54721   2.56531   2.57475
 Alpha virt. eigenvalues --    2.58588   2.61124   2.61479   2.62469   2.63312
 Alpha virt. eigenvalues --    2.64721   2.65689   2.66412   2.67442   2.68392
 Alpha virt. eigenvalues --    2.71809   2.71822   2.73610   2.74698   2.75312
 Alpha virt. eigenvalues --    2.76141   2.76952   2.77034   2.77871   2.78896
 Alpha virt. eigenvalues --    2.80844   2.81815   2.82992   2.83791   2.84572
 Alpha virt. eigenvalues --    2.85470   2.86342   2.88637   2.89126   2.91992
 Alpha virt. eigenvalues --    2.96935   2.99057   3.00670   3.06572   3.10589
 Alpha virt. eigenvalues --    3.12059   3.15111   3.17448   3.18744   3.21266
 Alpha virt. eigenvalues --    3.21730   3.23227   3.24359   3.25165   3.26845
 Alpha virt. eigenvalues --    3.27872   3.30205   3.32715   3.34604   3.36322
 Alpha virt. eigenvalues --    3.37714   3.38638   3.39812   3.40108   3.41922
 Alpha virt. eigenvalues --    3.42075   3.44212   3.45105   3.47626   3.48461
 Alpha virt. eigenvalues --    3.49362   3.49860   3.55325   3.58087   3.59823
 Alpha virt. eigenvalues --    3.60797   3.90686   4.00477   4.32518   4.36353
 Alpha virt. eigenvalues --   21.66904  21.80342  22.07943  22.10338  22.11952
 Alpha virt. eigenvalues --   22.14839  22.15260  22.18402  22.19279  22.24435
 Alpha virt. eigenvalues --   22.27893  31.91489  43.63457  43.66758
          Condensed to atoms (all electrons):
               1          2          3          4          5          6
     1  O    7.952409   0.000000  -0.000203   0.000019   0.019168   0.009020
     2  O    0.000000   7.958523   0.000500   0.000018  -0.191197   0.001195
     3  N   -0.000203   0.000500   6.379783   0.369969  -0.122951   0.333581
     4  H    0.000019   0.000018   0.369969   0.404066   0.015431  -0.045779
     5  C    0.019168  -0.191197  -0.122951   0.015431   7.128387  -0.085254
     6  C    0.009020   0.001195   0.333581  -0.045779  -0.085254   5.580020
     7  C   -0.000085  -0.045955   0.386731  -0.035936   0.451800  -0.121418
     8  C   -0.000670   0.700211   0.004471  -0.000788  -0.297875   0.031069
     9  C   -0.009677   0.025443   0.013982   0.000050  -0.699654  -0.046749
    10  H    0.007520   0.000114   0.003637   0.000033  -0.043626  -0.021391
    11  H    0.010390  -0.000009  -0.001301   0.000021  -0.118659   0.028982
    12  C   -0.234086  -0.002953  -0.093660   0.014610   0.202432  -0.093243
    13  C    0.716615  -0.000014   0.001533   0.000528   0.084011   0.129334
    14  C   -0.000007   0.001096  -0.033450  -0.009724  -0.085254   0.012296
    15  H   -0.000000   0.004078   0.004955   0.001705   0.020060   0.006424
    16  H   -0.000000   0.002333  -0.002410   0.000938  -0.008501  -0.001484
    17  H    0.000000   0.001562   0.000294   0.000811  -0.007727  -0.001225
    18  C    0.000229  -0.101808  -0.000462   0.000020  -0.255828  -0.000153
    19  H   -0.000001   0.007562   0.000005  -0.000001   0.021046   0.000023
    20  H   -0.000005   0.000777   0.000011  -0.000001   0.002668   0.000222
    21  H    0.000121   0.004157   0.000117   0.000001   0.044812  -0.001240
    22  C   -0.105475   0.000000  -0.000172   0.000111   0.003904  -0.025982
    23  H    0.005168  -0.000000   0.000138  -0.000056  -0.000751  -0.026648
    24  H    0.001438   0.000000   0.000002  -0.000011  -0.000016   0.009038
    25  H    0.006342   0.000000   0.000027  -0.000002  -0.000146  -0.000804
    26  C    0.000815   0.000009  -0.025903  -0.006518   0.000205   0.189991
    27  H   -0.000255  -0.000000   0.001588   0.000772   0.000073  -0.047656
    28  H   -0.000055  -0.000000  -0.002625   0.000483   0.000407  -0.031462
    29  H    0.000024   0.000000   0.001553   0.001687  -0.000382  -0.048307
               7          8          9         10         11         12
     1  O   -0.000085  -0.000670  -0.009677   0.007520   0.010390  -0.234086
     2  O   -0.045955   0.700211   0.025443   0.000114  -0.000009  -0.002953
     3  N    0.386731   0.004471   0.013982   0.003637  -0.001301  -0.093660
     4  H   -0.035936  -0.000788   0.000050   0.000033   0.000021   0.014610
     5  C    0.451800  -0.297875  -0.699654  -0.043626  -0.118659   0.202432
     6  C   -0.121418   0.031069  -0.046749  -0.021391   0.028982  -0.093243
     7  C    5.424998  -0.214604  -0.221462  -0.005085   0.016470   0.024631
     8  C   -0.214604   5.352471   0.191268  -0.004703  -0.007001  -0.050172
     9  C   -0.221462   0.191268   6.479428   0.410407   0.539286  -0.154760
    10  H   -0.005085  -0.004703   0.410407   0.581849  -0.047494  -0.021515
    11  H    0.016470  -0.007001   0.539286  -0.047494   0.530017  -0.110551
    12  C    0.024631  -0.050172  -0.154760  -0.021515  -0.110551   7.403793
    13  C    0.017401  -0.008511  -0.259812  -0.004446  -0.000586  -0.476127
    14  C    0.275670  -0.022650   0.008881  -0.000947   0.000497  -0.002273
    15  H   -0.087886   0.005176   0.000656   0.000052  -0.000006  -0.001462
    16  H   -0.015294  -0.001691   0.000852  -0.000066   0.000060   0.000386
    17  H   -0.022043  -0.007360  -0.000599   0.000193  -0.000058   0.000208
    18  C    0.000634   0.320203   0.001000  -0.011360   0.004976  -0.000998
    19  H    0.000139  -0.048204  -0.001822   0.000120   0.000520  -0.000193
    20  H   -0.000227  -0.024071  -0.009913   0.000774  -0.000571  -0.003006
    21  H    0.003131  -0.071776  -0.007252   0.002089  -0.006654   0.008011
    22  C    0.000349  -0.000091   0.009808   0.002952  -0.000838  -0.247013
    23  H   -0.000009   0.000005   0.003202  -0.000208   0.000053   0.064252
    24  H   -0.000005   0.000002  -0.002146   0.000179  -0.000123  -0.012402
    25  H    0.000004   0.000003   0.000169  -0.000093  -0.000052   0.021813
    26  C    0.002132   0.000787   0.022964  -0.000722   0.000093  -0.084268
    27  H   -0.000746   0.000003  -0.000357  -0.000113   0.000015  -0.008569
    28  H   -0.000838  -0.000013  -0.000516  -0.000007   0.000038  -0.017617
    29  H    0.003125  -0.000007  -0.000453   0.000090  -0.000014   0.023229
              13         14         15         16         17         18
     1  O    0.716615  -0.000007  -0.000000  -0.000000   0.000000   0.000229
     2  O   -0.000014   0.001096   0.004078   0.002333   0.001562  -0.101808
     3  N    0.001533  -0.033450   0.004955  -0.002410   0.000294  -0.000462
     4  H    0.000528  -0.009724   0.001705   0.000938   0.000811   0.000020
     5  C    0.084011  -0.085254   0.020060  -0.008501  -0.007727  -0.255828
     6  C    0.129334   0.012296   0.006424  -0.001484  -0.001225  -0.000153
     7  C    0.017401   0.275670  -0.087886  -0.015294  -0.022043   0.000634
     8  C   -0.008511  -0.022650   0.005176  -0.001691  -0.007360   0.320203
     9  C   -0.259812   0.008881   0.000656   0.000852  -0.000599   0.001000
    10  H   -0.004446  -0.000947   0.000052  -0.000066   0.000193  -0.011360
    11  H   -0.000586   0.000497  -0.000006   0.000060  -0.000058   0.004976
    12  C   -0.476127  -0.002273  -0.001462   0.000386   0.000208  -0.000998
    13  C    5.568742   0.000041  -0.000036  -0.000009  -0.000002   0.001335
    14  C    0.000041   5.021205   0.396281   0.404461   0.416886   0.001884
    15  H   -0.000036   0.396281   0.575677  -0.026373  -0.028723   0.000243
    16  H   -0.000009   0.404461  -0.026373   0.502934  -0.024069   0.000018
    17  H   -0.000002   0.416886  -0.028723  -0.024069   0.505333  -0.000230
    18  C    0.001335   0.001884   0.000243   0.000018  -0.000230   5.317943
    19  H   -0.000015  -0.000022  -0.000004  -0.000027   0.000043   0.396958
    20  H   -0.000160  -0.000240  -0.000005  -0.000005   0.000015   0.399936
    21  H    0.000810   0.000056  -0.000015   0.000002  -0.000029   0.379347
    22  C    0.284379  -0.000010   0.000002  -0.000000  -0.000000   0.000043
    23  H   -0.098665   0.000002   0.000000   0.000000   0.000000   0.000001
    24  H   -0.021478  -0.000001   0.000000   0.000000   0.000000  -0.000001
    25  H   -0.036949   0.000000   0.000000  -0.000000  -0.000000  -0.000001
    26  C   -0.056639   0.000905   0.000223  -0.000092   0.000020   0.000008
    27  H   -0.002724   0.000063  -0.000010   0.000001  -0.000002  -0.000000
    28  H    0.006899  -0.000110  -0.000003  -0.000006   0.000004  -0.000000
    29  H   -0.001090  -0.000157   0.000108  -0.000001  -0.000001   0.000000
              19         20         21         22         23         24
     1  O   -0.000001  -0.000005   0.000121  -0.105475   0.005168   0.001438
     2  O    0.007562   0.000777   0.004157   0.000000  -0.000000   0.000000
     3  N    0.000005   0.000011   0.000117  -0.000172   0.000138   0.000002
     4  H   -0.000001  -0.000001   0.000001   0.000111  -0.000056  -0.000011
     5  C    0.021046   0.002668   0.044812   0.003904  -0.000751  -0.000016
     6  C    0.000023   0.000222  -0.001240  -0.025982  -0.026648   0.009038
     7  C    0.000139  -0.000227   0.003131   0.000349  -0.000009  -0.000005
     8  C   -0.048204  -0.024071  -0.071776  -0.000091   0.000005   0.000002
     9  C   -0.001822  -0.009913  -0.007252   0.009808   0.003202  -0.002146
    10  H    0.000120   0.000774   0.002089   0.002952  -0.000208   0.000179
    11  H    0.000520  -0.000571  -0.006654  -0.000838   0.000053  -0.000123
    12  C   -0.000193  -0.003006   0.008011  -0.247013   0.064252  -0.012402
    13  C   -0.000015  -0.000160   0.000810   0.284379  -0.098665  -0.021478
    14  C   -0.000022  -0.000240   0.000056  -0.000010   0.000002  -0.000001
    15  H   -0.000004  -0.000005  -0.000015   0.000002   0.000000   0.000000
    16  H   -0.000027  -0.000005   0.000002  -0.000000   0.000000   0.000000
    17  H    0.000043   0.000015  -0.000029  -0.000000   0.000000   0.000000
    18  C    0.396958   0.399936   0.379347   0.000043   0.000001  -0.000001
    19  H    0.493088  -0.007946  -0.024727  -0.000000   0.000000   0.000000
    20  H   -0.007946   0.494241  -0.025404  -0.000013   0.000000   0.000000
    21  H   -0.024727  -0.025404   0.546115   0.000027  -0.000000  -0.000000
    22  C   -0.000000  -0.000013   0.000027   5.421650   0.398436   0.401232
    23  H    0.000000   0.000000  -0.000000   0.398436   0.542557  -0.026220
    24  H    0.000000   0.000000  -0.000000   0.401232  -0.026220   0.489745
    25  H   -0.000000   0.000000  -0.000000   0.382150  -0.022549  -0.008429
    26  C    0.000000   0.000004  -0.000018  -0.033087   0.016346  -0.010533
    27  H   -0.000000   0.000000  -0.000000   0.004718  -0.007872  -0.000194
    28  H    0.000000  -0.000000   0.000000  -0.011029  -0.001616   0.000874
    29  H    0.000000  -0.000000   0.000000   0.002017   0.000615   0.000165
              25         26         27         28         29
     1  O    0.006342   0.000815  -0.000255  -0.000055   0.000024
     2  O    0.000000   0.000009  -0.000000  -0.000000   0.000000
     3  N    0.000027  -0.025903   0.001588  -0.002625   0.001553
     4  H   -0.000002  -0.006518   0.000772   0.000483   0.001687
     5  C   -0.000146   0.000205   0.000073   0.000407  -0.000382
     6  C   -0.000804   0.189991  -0.047656  -0.031462  -0.048307
     7  C    0.000004   0.002132  -0.000746  -0.000838   0.003125
     8  C    0.000003   0.000787   0.000003  -0.000013  -0.000007
     9  C    0.000169   0.022964  -0.000357  -0.000516  -0.000453
    10  H   -0.000093  -0.000722  -0.000113  -0.000007   0.000090
    11  H   -0.000052   0.000093   0.000015   0.000038  -0.000014
    12  C    0.021813  -0.084268  -0.008569  -0.017617   0.023229
    13  C   -0.036949  -0.056639  -0.002724   0.006899  -0.001090
    14  C    0.000000   0.000905   0.000063  -0.000110  -0.000157
    15  H    0.000000   0.000223  -0.000010  -0.000003   0.000108
    16  H   -0.000000  -0.000092   0.000001  -0.000006  -0.000001
    17  H   -0.000000   0.000020  -0.000002   0.000004  -0.000001
    18  C   -0.000001   0.000008  -0.000000  -0.000000   0.000000
    19  H   -0.000000   0.000000  -0.000000   0.000000   0.000000
    20  H    0.000000   0.000004   0.000000  -0.000000  -0.000000
    21  H   -0.000000  -0.000018  -0.000000   0.000000   0.000000
    22  C    0.382150  -0.033087   0.004718  -0.011029   0.002017
    23  H   -0.022549   0.016346  -0.007872  -0.001616   0.000615
    24  H   -0.008429  -0.010533  -0.000194   0.000874   0.000165
    25  H    0.495478   0.002020   0.000634   0.000121  -0.000037
    26  C    0.002020   5.243491   0.432403   0.425418   0.388984
    27  H    0.000634   0.432403   0.505507  -0.027152  -0.025281
    28  H    0.000121   0.425418  -0.027152   0.476658  -0.016012
    29  H   -0.000037   0.388984  -0.025281  -0.016012   0.510879
 Mulliken charges:
               1
     1  O   -0.378757
     2  O   -0.365642
     3  N   -0.219737
     4  H    0.287544
     5  C   -0.076583
     6  C    0.267599
     7  C    0.164377
     8  C    0.154517
     9  C   -0.292227
    10  H    0.151768
    11  H    0.162501
    12  C   -0.148497
    13  C    0.155637
    14  C   -0.385380
    15  H    0.128884
    16  H    0.168046
    17  H    0.166700
    18  C   -0.453933
    19  H    0.163460
    20  H    0.172919
    21  H    0.148320
    22  C   -0.488069
    23  H    0.153819
    24  H    0.178888
    25  H    0.160301
    26  C   -0.509036
    27  H    0.175153
    28  H    0.198161
    29  H    0.159269
 Sum of Mulliken charges =  -0.00000
 Mulliken charges with hydrogens summed into heavy atoms:
               1
     1  O   -0.378757
     2  O   -0.365642
     3  N    0.067807
     5  C   -0.076583
     6  C    0.267599
     7  C    0.164377
     8  C    0.154517
     9  C    0.022042
    12  C   -0.148497
    13  C    0.155637
    14  C    0.078249
    18  C    0.030766
    22  C    0.004938
    26  C    0.023547
 Electronic spatial extent (au):  <R**2>=           3199.4300
 Charge=             -0.0000 electrons
 Dipole moment (field-independent basis, Debye):
    X=             -3.5361    Y=              7.8054    Z=              0.1081  Tot=              8.5697
 Quadrupole moment (field-independent basis, Debye-Ang):
   XX=            -96.7681   YY=            -78.0161   ZZ=            -84.9679
   XY=            -13.2906   XZ=             -4.3820   YZ=             -2.2581
 Traceless Quadrupole moment (field-independent basis, Debye-Ang):
   XX=            -10.1841   YY=              8.5679   ZZ=              1.6161
   XY=            -13.2906   XZ=             -4.3820   YZ=             -2.2581
 Octapole moment (field-independent basis, Debye-Ang**2):
  XXX=           -103.6323  YYY=             66.8894  ZZZ=              1.5491  XYY=             37.0420
  XXY=             32.4303  XXZ=             -5.3168  XZZ=             -0.6314  YZZ=             -0.9827
  YYZ=              4.6463  XYZ=              5.4671
 Hexadecapole moment (field-independent basis, Debye-Ang**3):
 XXXX=          -3027.0266 YYYY=          -1285.7163 ZZZZ=           -145.6676 XXXY=            -44.4384
 XXXZ=            -48.5555 YYYX=            -94.7781 YYYZ=            -21.0003 ZZZX=              3.6763
 ZZZY=              2.6791 XXYY=           -686.6896 XXZZ=           -479.2914 YYZZ=           -244.5586
 XXYZ=             -9.6639 YYXZ=             -9.3894 ZZXY=             -0.2132
 N-N= 8.996760308309D+02 E-N=-3.275457533159D+03  KE= 6.306820654776D+02
 No NMR shielding tensors so no spin-rotation constants.
 Leave Link  601 at Sat Jan 24 22:56:43 2026, MaxMem=  2147483648 cpu:               1.8 elap:               0.1
 (Enter /data/home/wyx/g16/l9999.exe)
 1\1\GINC-CN012\SP\RCAM-B3LYP\TZVP\C11H15N1O2\WYX\24-Jan-2026\0\\#p CAM
 -B3LYP TZVP em=gd3bj scrf=(Solvent=Water,NonEquilibrium=Read) Geom=Che
 ck Guess=Read\\Title Card Required\\0,1\O,0,2.720956,-1.559423,0.84976
 5\O,0,-3.294889,-1.659465,-0.930321\N,0,-0.686565,1.5162,-0.032006\H,0
 ,-0.994989,2.476539,-0.098671\C,0,-1.252221,-0.762919,-0.171068\C,0,0.
 643454,1.330057,0.213659\C,0,-1.626893,0.571178,-0.282063\C,0,-2.16332
 9,-1.848374,-0.475593\C,0,0.117312,-1.083983,0.300604\H,0,0.06685,-1.5
 05911,1.319428\H,0,0.536084,-1.917138,-0.271218\C,0,1.103584,0.026584,
 0.319178\C,0,2.481485,-0.39504,0.506718\C,0,-2.973124,1.10017,-0.63291
 1\H,0,-3.01493,2.179714,-0.504687\H,0,-3.230283,0.870878,-1.662921\H,0
 ,-3.744737,0.649353,-0.018359\C,0,-1.702628,-3.264746,-0.251527\H,0,-2
 .563536,-3.924056,-0.240095\H,0,-1.049015,-3.58383,-1.062288\H,0,-1.14
 8874,-3.392622,0.673304\C,0,3.649213,0.525774,0.252183\H,0,3.466512,1.
 241698,-0.544475\H,0,3.903236,1.080532,1.157805\H,0,4.506434,-0.091317
 ,-0.009159\C,0,1.415077,2.598683,0.36703\H,0,2.156797,2.523341,1.15467
 4\H,0,1.930187,2.877522,-0.552311\H,0,0.748835,3.420602,0.625326\\Vers
 ion=ES64L-G16RevA.03\State=1-A\HF=-633.324464\RMSD=8.714e-09\Dipole=0.
 2839006,3.3593897,-0.0388289\Quadrupole=-10.3179272,11.0776241,-0.7596
 969,3.0014457,-5.998684,0.9373169\PG=C01 [X(C11H15N1O2)]\\@


 MY DESCRIPTION OF EXPERIENCE IS NOT WHAT HAPPENS
 TO A MAN.  EXPERIENCE IS WHAT A MAN DOES WITH WHAT
 HAPPENS TO HIM.
                         - CHUCK KNOX, SEATTLE SEAHAWKS, 1985
 Job cpu time:       0 days  0 hours 13 minutes 44.8 seconds.
 Elapsed time:       0 days  0 hours  0 minutes 52.4 seconds.
 File lengths (MBytes):  RWF=    344 Int=      0 D2E=      0 Chk=     67 Scr=      1
 Normal termination of Gaussian 16 at Sat Jan 24 22:56:44 2026.
