 Entering Gaussian System, Link 0=g16
 Input=DDL-S1-cLR-gs-4.gjf
 Output=DDL-S1-cLR-gs-4.log
 Initial command:
 /data/home/wyx/g16/l1.exe "/scr/tmp/wyx/13117/Gau-2032014.inp" -scrdir="/scr/tmp/wyx/13117/"
 Entering Link 1 = /data/home/wyx/g16/l1.exe PID=   2032015.
  
 Copyright (c) 1988,1990,1992,1993,1995,1998,2003,2009,2016,
            Gaussian, Inc.  All Rights Reserved.
  
 This is part of the Gaussian(R) 16 program.  It is based on
 the Gaussian(R) 09 system (copyright 2009, Gaussian, Inc.),
 the Gaussian(R) 03 system (copyright 2003, Gaussian, Inc.),
 the Gaussian(R) 98 system (copyright 1998, Gaussian, Inc.),
 the Gaussian(R) 94 system (copyright 1995, Gaussian, Inc.),
 the Gaussian 92(TM) system (copyright 1992, Gaussian, Inc.),
 the Gaussian 90(TM) system (copyright 1990, Gaussian, Inc.),
 the Gaussian 88(TM) system (copyright 1988, Gaussian, Inc.),
 the Gaussian 86(TM) system (copyright 1986, Carnegie Mellon
 University), and the Gaussian 82(TM) system (copyright 1983,
 Carnegie Mellon University). Gaussian is a federally registered
 trademark of Gaussian, Inc.
  
 This software contains proprietary and confidential information,
 including trade secrets, belonging to Gaussian, Inc.
  
 This software is provided under written license and may be
 used, copied, transmitted, or stored only in accord with that
 written license.
  
 The following legend is applicable only to US Government
 contracts under FAR:
  
                    RESTRICTED RIGHTS LEGEND
  
 Use, reproduction and disclosure by the US Government is
 subject to restrictions as set forth in subparagraphs (a)
 and (c) of the Commercial Computer Software - Restricted
 Rights clause in FAR 52.227-19.
  
 Gaussian, Inc.
 340 Quinnipiac St., Bldg. 40, Wallingford CT 06492
  
  
 ---------------------------------------------------------------
 Warning -- This program may not be used in any manner that
 competes with the business of Gaussian, Inc. or will provide
 assistance to any competitor of Gaussian, Inc.  The licensee
 of this program is prohibited from giving any competitor of
 Gaussian, Inc. access to this program.  By using this program,
 the user acknowledges that Gaussian, Inc. is engaged in the
 business of creating and licensing software in the field of
 computational chemistry and represents and warrants to the
 licensee that it is not a competitor of Gaussian, Inc. and that
 it will not use this program in any manner prohibited above.
 ---------------------------------------------------------------
  

 Cite this work as:
 Gaussian 16, Revision A.03,
 M. J. Frisch, G. W. Trucks, H. B. Schlegel, G. E. Scuseria, 
 M. A. Robb, J. R. Cheeseman, G. Scalmani, V. Barone, 
 G. A. Petersson, H. Nakatsuji, X. Li, M. Caricato, A. V. Marenich, 
 J. Bloino, B. G. Janesko, R. Gomperts, B. Mennucci, H. P. Hratchian, 
 J. V. Ortiz, A. F. Izmaylov, J. L. Sonnenberg, D. Williams-Young, 
 F. Ding, F. Lipparini, F. Egidi, J. Goings, B. Peng, A. Petrone, 
 T. Henderson, D. Ranasinghe, V. G. Zakrzewski, J. Gao, N. Rega, 
 G. Zheng, W. Liang, M. Hada, M. Ehara, K. Toyota, R. Fukuda, 
 J. Hasegawa, M. Ishida, T. Nakajima, Y. Honda, O. Kitao, H. Nakai, 
 T. Vreven, K. Throssell, J. A. Montgomery, Jr., J. E. Peralta, 
 F. Ogliaro, M. J. Bearpark, J. J. Heyd, E. N. Brothers, K. N. Kudin, 
 V. N. Staroverov, T. A. Keith, R. Kobayashi, J. Normand, 
 K. Raghavachari, A. P. Rendell, J. C. Burant, S. S. Iyengar, 
 J. Tomasi, M. Cossi, J. M. Millam, M. Klene, C. Adamo, R. Cammi, 
 J. W. Ochterski, R. L. Martin, K. Morokuma, O. Farkas, 
 J. B. Foresman, and D. J. Fox, Gaussian, Inc., Wallingford CT, 2016.
 
 ******************************************
 Gaussian 16:  ES64L-G16RevA.03 25-Dec-2016
                24-Jan-2026 
 ******************************************
 %nprocshared=16
 Will use up to   16 processors via shared memory.
 %mem=16GB
 %oldchk=DDL-S1-cLR-4.chk
 %chk=DDL-S1-cLR-gs-4.chk
 Copying data from "DDL-S1-cLR-4.chk" to current chk file "DDL-S1-cLR-gs-4.chk"
 IOpt=  2 FromEx=T IUOpen= 4 IOptOp= 5 NList=   0 IFRang= 0 IUIn= 4 IUOut= 2.
 ----------------------------------------------------------------------
 #p CAM-B3LYP TZVP em=gd3bj scrf=(Solvent=Water,NonEquilibrium=Read) Ge
 om=Check Guess=Read
 ----------------------------------------------------------------------
 1/29=2,38=1,172=1/1;
 2/12=2,40=1/2;
 3/5=19,7=101,11=2,14=-4,25=1,30=1,70=6002201,72=1,74=-40,116=-2,124=41/1,2,3;
 4/5=1/1;
 5/5=2,38=6,53=1/2;
 6/7=2,8=2,9=2,10=2,28=1/1;
 99/5=1,9=1/99;
 Leave Link    1 at Sat Jan 24 22:53:02 2026, MaxMem=  2147483648 cpu:               0.8 elap:               0.1
 (Enter /data/home/wyx/g16/l101.exe)
 -------------------
 Title Card Required
 -------------------
 Structure from the checkpoint file:  "DDL-S1-cLR-gs-4.chk"
 Charge =  0 Multiplicity = 1
 Z-Matrix found in chk file.
 O,0,2.718277,-1.559497,0.860925
 O,0,-3.301746,-1.66144,-0.911702
 N,0,-0.684117,1.516403,-0.04816
 H,0,-0.992546,2.477061,-0.115788
 C,0,-1.252593,-0.763454,-0.17304
 C,0,0.64373,1.333143,0.20647
 C,0,-1.627723,0.573989,-0.287871
 C,0,-2.164575,-1.849851,-0.468011
 C,0,0.119411,-1.081788,0.286854
 H,0,0.075146,-1.513853,1.302495
 H,0,0.537181,-1.911825,-0.291428
 C,0,1.104649,0.026718,0.314956
 C,0,2.480332,-0.395539,0.511975
 C,0,-2.976931,1.101821,-0.630508
 H,0,-3.012381,2.183685,-0.518062
 H,0,-3.248368,0.857054,-1.653579
 H,0,-3.742106,0.66359,0.001949
 C,0,-1.699932,-3.267048,-0.251406
 H,0,-2.562912,-3.923689,-0.220564
 H,0,-1.065681,-3.588076,-1.077334
 H,0,-1.126364,-3.395774,0.661491
 C,0,3.649423,0.524387,0.260009
 H,0,3.468415,1.242209,-0.535322
 H,0,3.904173,1.076921,1.166879
 H,0,4.505969,-0.093316,-0.002387
 C,0,1.414994,2.600889,0.368861
 H,0,2.1458,2.523987,1.167131
 H,0,1.944021,2.879357,-0.542969
 H,0,0.746455,3.423934,0.618134
 Recover connectivity data from disk.
 ITRead=  0  0  0  0  0  0  0  0  0  0  0  0  0  0  0  0  0  0  0  0
 ITRead=  0  0  0  0  0  0  0  0  0
 MicOpt= -1 -1 -1 -1 -1 -1 -1 -1 -1 -1 -1 -1 -1 -1 -1 -1 -1 -1 -1 -1
 MicOpt= -1 -1 -1 -1 -1 -1 -1 -1 -1
 NAtoms=     29 NQM=       29 NQMF=       0 NMMI=      0 NMMIF=      0
                NMic=       0 NMicF=      0.
                    Isotopes and Nuclear Properties:
 (Nuclear quadrupole moments (NQMom) in fm**2, nuclear magnetic moments (NMagM)
  in nuclear magnetons)

  Atom         1           2           3           4           5           6           7           8           9          10
 IAtWgt=          16          16          14           1          12          12          12          12          12           1
 AtmWgt=  15.9949146  15.9949146  14.0030740   1.0078250  12.0000000  12.0000000  12.0000000  12.0000000  12.0000000   1.0078250
 NucSpn=           0           0           2           1           0           0           0           0           0           1
 AtZEff=   5.6000000   5.6000000   4.5500000   1.0000000   3.6000000   3.6000000   3.6000000   3.6000000   3.6000000   1.0000000
 NQMom=    0.0000000   0.0000000   2.0440000   0.0000000   0.0000000   0.0000000   0.0000000   0.0000000   0.0000000   0.0000000
 NMagM=    0.0000000   0.0000000   0.4037610   2.7928460   0.0000000   0.0000000   0.0000000   0.0000000   0.0000000   2.7928460
 AtZNuc=   8.0000000   8.0000000   7.0000000   1.0000000   6.0000000   6.0000000   6.0000000   6.0000000   6.0000000   1.0000000

  Atom        11          12          13          14          15          16          17          18          19          20
 IAtWgt=           1          12          12          12           1           1           1          12           1           1
 AtmWgt=   1.0078250  12.0000000  12.0000000  12.0000000   1.0078250   1.0078250   1.0078250  12.0000000   1.0078250   1.0078250
 NucSpn=           1           0           0           0           1           1           1           0           1           1
 AtZEff=   1.0000000   3.6000000   3.6000000   3.6000000   1.0000000   1.0000000   1.0000000   3.6000000   1.0000000   1.0000000
 NQMom=    0.0000000   0.0000000   0.0000000   0.0000000   0.0000000   0.0000000   0.0000000   0.0000000   0.0000000   0.0000000
 NMagM=    2.7928460   0.0000000   0.0000000   0.0000000   2.7928460   2.7928460   2.7928460   0.0000000   2.7928460   2.7928460
 AtZNuc=   1.0000000   6.0000000   6.0000000   6.0000000   1.0000000   1.0000000   1.0000000   6.0000000   1.0000000   1.0000000

  Atom        21          22          23          24          25          26          27          28          29
 IAtWgt=           1          12           1           1           1          12           1           1           1
 AtmWgt=   1.0078250  12.0000000   1.0078250   1.0078250   1.0078250  12.0000000   1.0078250   1.0078250   1.0078250
 NucSpn=           1           0           1           1           1           0           1           1           1
 AtZEff=   1.0000000   3.6000000   1.0000000   1.0000000   1.0000000   3.6000000   1.0000000   1.0000000   1.0000000
 NQMom=    0.0000000   0.0000000   0.0000000   0.0000000   0.0000000   0.0000000   0.0000000   0.0000000   0.0000000
 NMagM=    2.7928460   0.0000000   2.7928460   2.7928460   2.7928460   0.0000000   2.7928460   2.7928460   2.7928460
 AtZNuc=   1.0000000   6.0000000   1.0000000   1.0000000   1.0000000   6.0000000   1.0000000   1.0000000   1.0000000
 Leave Link  101 at Sat Jan 24 22:53:04 2026, MaxMem=  2147483648 cpu:               0.8 elap:               0.1
 (Enter /data/home/wyx/g16/l202.exe)
                          Input orientation:                          
 ---------------------------------------------------------------------
 Center     Atomic      Atomic             Coordinates (Angstroms)
 Number     Number       Type             X           Y           Z
 ---------------------------------------------------------------------
      1          8           0        2.718277   -1.559497    0.860925
      2          8           0       -3.301746   -1.661440   -0.911702
      3          7           0       -0.684117    1.516403   -0.048160
      4          1           0       -0.992546    2.477061   -0.115788
      5          6           0       -1.252593   -0.763454   -0.173040
      6          6           0        0.643730    1.333143    0.206470
      7          6           0       -1.627723    0.573989   -0.287871
      8          6           0       -2.164575   -1.849851   -0.468011
      9          6           0        0.119411   -1.081788    0.286854
     10          1           0        0.075146   -1.513853    1.302495
     11          1           0        0.537181   -1.911825   -0.291428
     12          6           0        1.104649    0.026718    0.314956
     13          6           0        2.480332   -0.395539    0.511975
     14          6           0       -2.976931    1.101821   -0.630508
     15          1           0       -3.012381    2.183685   -0.518062
     16          1           0       -3.248368    0.857054   -1.653579
     17          1           0       -3.742106    0.663590    0.001949
     18          6           0       -1.699932   -3.267048   -0.251406
     19          1           0       -2.562912   -3.923689   -0.220564
     20          1           0       -1.065681   -3.588076   -1.077334
     21          1           0       -1.126364   -3.395774    0.661491
     22          6           0        3.649423    0.524387    0.260009
     23          1           0        3.468415    1.242209   -0.535322
     24          1           0        3.904173    1.076921    1.166879
     25          1           0        4.505969   -0.093316   -0.002387
     26          6           0        1.414994    2.600889    0.368861
     27          1           0        2.145800    2.523987    1.167131
     28          1           0        1.944021    2.879357   -0.542969
     29          1           0        0.746455    3.423934    0.618134
 ---------------------------------------------------------------------
                    Distance matrix (angstroms):
                    1          2          3          4          5
     1  O    0.000000
     2  O    6.276406   0.000000
     3  N    4.675883   4.206706   0.000000
     4  H    5.569378   4.805525   1.011220   0.000000
     5  C    4.179782   2.356062   2.352979   3.251437   0.000000
     6  C    3.619312   5.077856   1.364404   2.022325   2.852330
     7  C    4.975863   2.861584   1.354990   2.013640   1.393794
     8  C    5.068789   1.235119   3.701310   4.496652   1.448785
     9  C    2.704047   3.671083   2.740162   3.750197   1.481632
    10  H    2.680151   4.040773   3.403410   4.367939   2.122073
    11  H    2.491833   3.896767   3.647396   4.651154   2.129803
    12  C    2.327650   4.875539   2.355992   3.253913   2.533595
    13  C    1.238217   6.087839   3.739386   4.550472   3.813048
    14  C    6.460834   2.796460   2.401667   2.468604   2.581060
    15  H    6.982368   3.876038   2.467162   2.080295   3.449858
    16  H    6.911100   2.626032   3.096368   3.174580   2.966675
    17  H    6.885964   2.536620   3.175074   3.295849   2.874848
    18  C    4.865550   2.362155   4.894343   5.789091   2.544452
    19  H    5.886423   2.478168   5.757968   6.591406   3.421444
    20  H    4.710660   2.956239   5.221158   6.141320   2.971729
    21  H    4.265320   3.196113   4.982838   5.925560   2.764323
    22  C    2.360234   7.380345   4.456303   5.049954   5.086829
    23  H    3.218970   7.376172   4.189992   4.647692   5.142164
    24  H    2.907001   7.984008   4.766746   5.251998   5.636896
    25  H    2.467962   8.015378   5.434177   6.070697   5.799935
    26  C    4.387424   6.484977   2.399226   2.458956   4.327641
    27  H    4.134771   7.177402   3.240461   3.390767   4.914509
    28  H    4.719514   6.947868   3.001598   2.994620   4.860582
    29  H    5.364850   6.677526   2.475714   2.111714   4.707055
                    6          7          8          9         10
     6  C    0.000000
     7  C    2.445442   0.000000
     8  C    4.298017   2.489108   0.000000
     9  C    2.472502   2.474749   2.525140   0.000000
    10  H    3.103215   3.128596   2.874706   1.104611   0.000000
    11  H    3.284672   3.296376   2.708230   1.094488   1.706590
    12  C    1.389591   2.851099   3.849984   1.483330   2.099635
    13  C    2.540626   4.296028   4.964933   2.468920   2.767755
    14  C    3.723336   1.488747   3.065729   3.898337   4.460205
    15  H    3.823024   2.135740   4.121977   4.595577   5.149664
    16  H    4.339916   2.138171   3.147620   4.343538   5.040369
    17  H    4.441361   2.136034   3.004472   4.247214   4.583022
    18  C    5.183065   3.841889   1.507069   2.893975   2.939252
    19  H    6.172454   4.594368   2.126195   3.940651   3.884117
    20  H    5.365504   4.273398   2.144824   3.089811   3.356706
    21  H    5.069806   4.112380   2.177966   2.654588   2.322959
    22  C    3.113060   5.305742   6.322151   3.878338   4.244603
    23  H    2.921878   5.145714   6.426192   4.158457   4.742122
    24  H    3.408596   5.742048   6.933149   4.445098   4.625143
    25  H    4.122535   6.176486   6.913637   4.505844   4.832477
    26  C    1.492782   3.714532   5.772587   3.904788   4.426959
    27  H    2.144107   4.489877   6.354800   4.228800   4.539833
    28  H    2.154807   4.258774   6.265109   4.439423   5.118469
    29  H    2.133407   3.818344   6.120998   4.561191   5.029985
                   11         12         13         14         15
    11  H    0.000000
    12  C    2.108950   0.000000
    13  C    2.592376   1.452454   0.000000
    14  C    4.641769   4.325395   5.773134   0.000000
    15  H    5.424385   4.721902   6.154939   1.088270   0.000000
    16  H    4.883905   4.849056   6.251129   1.086399   1.762112
    17  H    5.003112   4.898430   6.332505   1.085146   1.764539
    18  C    2.615895   4.362950   5.128637   4.567435   5.612853
    19  H    3.696376   5.416964   6.198287   5.059172   6.131113
    20  H    2.448802   4.440218   5.029155   5.084060   6.116833
    21  H    2.424364   4.100117   4.693828   5.032119   6.006560
    22  C    3.990647   2.593563   1.508816   6.710814   6.909291
    23  H    4.312719   2.790660   2.180678   6.447577   6.548847
    24  H    4.732430   3.109025   2.150433   7.112019   7.204351
    25  H    4.375134   3.418200   2.111661   7.603728   7.872499
    26  C    4.644473   2.593372   3.183396   4.747099   4.534572
    27  H    4.938773   2.836644   3.010776   5.612168   5.437142
    28  H    4.999790   3.094855   3.482166   5.232883   5.005048
    29  H    5.416772   3.429475   4.195947   4.562337   4.118010
                   16         17         18         19         20
    16  H    0.000000
    17  H    1.738384   0.000000
    18  C    4.622982   4.436731   0.000000
    19  H    5.037746   4.741639   1.084833   0.000000
    20  H    4.985515   5.138557   1.089720   1.757382   0.000000
    21  H    5.286681   4.873965   1.085786   1.766461   1.750478
    22  C    7.166031   7.397342   6.576635   7.655680   6.397894
    23  H    6.820119   7.253625   6.864825   7.947483   6.647064
    24  H    7.691695   7.745546   7.231016   8.291820   7.176220
    25  H    7.984947   8.282733   6.974797   8.042912   6.664244
    26  C    5.373841   5.521180   6.672344   7.664286   6.822647
    27  H    6.311269   6.283802   7.094927   8.103715   7.260065
    28  H    5.681907   6.126875   7.151342   8.166874   7.153429
    29  H    5.263854   5.305315   7.177057   8.102030   7.438194
                   21         22         23         24         25
    21  H    0.000000
    22  C    6.191687   0.000000
    23  H    6.637412   1.086547   0.000000
    24  H    6.750313   1.092064   1.764849   0.000000
    25  H    6.562784   1.088154   1.773179   1.760340   0.000000
    26  C    6.519517   3.052275   2.622994   3.025776   4.117122
    27  H    6.782794   2.661231   2.508109   2.277252   3.713280
    28  H    7.089094   3.016464   2.236982   3.164578   3.961388
    29  H    7.072323   4.118598   3.674160   3.972502   5.185561
                   26         27         28         29
    26  C    0.000000
    27  H    1.085001   0.000000
    28  H    1.090343   1.758250   0.000000
    29  H    1.089259   1.751990   1.754676   0.000000
 Stoichiometry    C11H15NO2
 Framework group  C1[X(C11H15NO2)]
 Deg. of freedom    81
 Full point group                 C1      NOp   1
 RotChk:  IX=0 Diff= 3.58D-16
 Largest Abelian subgroup         C1      NOp   1
 Largest concise Abelian subgroup C1      NOp   1
                         Standard orientation:                         
 ---------------------------------------------------------------------
 Center     Atomic      Atomic             Coordinates (Angstroms)
 Number     Number       Type             X           Y           Z
 ---------------------------------------------------------------------
      1          8           0       -2.288470   -2.285655   -0.264503
      2          8           0        3.626315   -0.259194    0.285084
      3          7           0       -0.021568    1.800575   -0.097887
      4          1           0       -0.049229    2.811357   -0.108819
      5          6           0        1.296751   -0.147802   -0.049203
      6          6           0       -1.232054    1.171235   -0.081973
      7          6           0        1.211843    1.243314   -0.033432
      8          6           0        2.559592   -0.846373    0.078103
      9          6           0        0.054114   -0.935662   -0.223462
     10          1           0        0.057862   -1.411426   -1.220357
     11          1           0        0.053129   -1.806176    0.439943
     12          6           0       -1.235730   -0.218333   -0.075099
     13          6           0       -2.399217   -1.083517    0.010782
     14          6           0        2.341452    2.211156    0.026856
     15          1           0        1.988191    3.231531   -0.108686
     16          1           0        2.859455    2.154288    0.980115
     17          1           0        3.082293    1.997840   -0.736814
     18          6           0        2.570421   -2.350312   -0.018382
     19          1           0        3.583953   -2.687440   -0.208014
     20          1           0        2.242076   -2.792510    0.921905
     21          1           0        1.919478   -2.734992   -0.797629
     22          6           0       -3.744616   -0.580904    0.473174
     23          1           0       -3.676622    0.219541    1.204782
     24          1           0       -4.330285   -0.219377   -0.374702
     25          1           0       -4.279647   -1.421700    0.910074
     26          6           0       -2.402308    2.097576   -0.110210
     27          1           0       -3.195332    1.719493   -0.746913
     28          1           0       -2.820624    2.261114    0.883327
     29          1           0       -2.107983    3.070958   -0.500575
 ---------------------------------------------------------------------
 Rotational constants (GHZ):           1.0744364           0.4899802           0.3433974
 Leave Link  202 at Sat Jan 24 22:53:05 2026, MaxMem=  2147483648 cpu:               0.0 elap:               0.0
 (Enter /data/home/wyx/g16/l301.exe)
 Standard basis: TZVP (5D, 7F)
 Ernie: Thresh=  0.10000D-02 Tol=  0.10000D-05 Strict=F.
 There are   370 symmetry adapted cartesian basis functions of A   symmetry.
 There are   356 symmetry adapted basis functions of A   symmetry.
   356 basis functions,   610 primitive gaussians,   370 cartesian basis functions
    52 alpha electrons       52 beta electrons
       nuclear repulsion energy       899.4300338985 Hartrees.
 IExCor=20419 DFT=T Ex+Corr=CAM-B3LYP ExCW=0 ScaHFX=  1.000000
 ScaDFX=  1.000000  1.000000  1.000000  0.810000 ScalE2=  1.000000  1.000000
 IRadAn=      5 IRanWt=     -1 IRanGd=            0 ICorTp=0 IEmpDi=141
 HFx  wShort=  0.000000 wLong=  0.330000 cFull=  0.190000 cShort=  0.000000 cLong=  0.460000
 DFx  wShort=  0.000000 wLong=  0.330000 cFull=  0.190000 cShort=  0.000000 cLong=  0.460000
 NAtoms=   29 NActive=   29 NUniq=   29 SFac= 1.00D+00 NAtFMM=   60 NAOKFM=F Big=F
 Integral buffers will be    131072 words long.
 Raffenetti 2 integral format.
 Two-electron integral symmetry is turned on.
 R6Disp:  Grimme-D3(BJ) Dispersion energy=       -0.0261398595 Hartrees.
 Nuclear repulsion after empirical dispersion term =      899.4038940390 Hartrees.
 ------------------------------------------------------------------------------
 Polarizable Continuum Model (PCM)
 =================================
 Model                : PCM.
 Atomic radii         : UFF (Universal Force Field).
 Polarization charges : Total charges.
 Charge compensation  : None.
 Solution method      : On-the-fly selection.
 Cavity type          : Scaled VdW (van der Waals Surface) (Alpha=1.100).
 Cavity algorithm     : GePol (No added spheres)
                        Default sphere list used, NSphG=   29.
                        Lebedev-Laikov grids with approx.  5.0 points / Ang**2.
                        Smoothing algorithm: York/Karplus (Gamma=1.0000).
                        Polarization charges: spherical gaussians, with
                                              point-specific exponents (IZeta= 3).
                        Self-potential: point-specific (ISelfS= 7).
                        Self-field    : sphere-specific E.n sum rule (ISelfD= 2).
 Solvent              : Water, Eps=  78.355300 Eps(inf)=   1.777849
 ------------------------------------------------------------------------------
 GePol: Number of generator spheres                  =      29
 GePol: Total number of spheres                      =      29
 GePol: Number of exposed spheres                    =      29 (100.00%)
 GePol: Number of points                             =    2104
 GePol: Average weight of points                     =       0.13
 GePol: Minimum weight of points                     =   0.47D-11
 GePol: Maximum weight of points                     =    0.20577
 GePol: Number of points with low weight             =     127
 GePol: Fraction of low-weight points (<1% of avg)   =       6.04%
 GePol: Cavity surface area                          =    269.253 Ang**2
 GePol: Cavity volume                                =    287.235 Ang**3
 Leave Link  301 at Sat Jan 24 22:53:05 2026, MaxMem=  2147483648 cpu:               0.6 elap:               0.0
 (Enter /data/home/wyx/g16/l302.exe)
 NPDir=0 NMtPBC=     1 NCelOv=     1 NCel=       1 NClECP=     1 NCelD=      1
         NCelK=      1 NCelE2=     1 NClLst=     1 CellRange=     0.0.
 One-electron integrals computed using PRISM.
 One-electron integral symmetry used in STVInt
 NBasis=   356 RedAO= T EigKep=  4.26D-05  NBF=   356
 NBsUse=   356 1.00D-06 EigRej= -1.00D+00 NBFU=   356
 Precomputing XC quadrature grid using
 IXCGrd= 4 IRadAn=           5 IRanWt=          -1 IRanGd=           0 AccXCQ= 0.00D+00.
 Generated NRdTot=       0 NPtTot=           0 NUsed=           0 NTot=          32
 NSgBfM=   366   366   366   366   366 MxSgAt=    29 MxSgA2=    29.
 Leave Link  302 at Sat Jan 24 22:53:05 2026, MaxMem=  2147483648 cpu:               3.1 elap:               0.2
 (Enter /data/home/wyx/g16/l303.exe)
 DipDrv:  MaxL=1.
 Leave Link  303 at Sat Jan 24 22:53:05 2026, MaxMem=  2147483648 cpu:               0.5 elap:               0.0
 (Enter /data/home/wyx/g16/l401.exe)
 Initial guess from the checkpoint file:  "DDL-S1-cLR-gs-4.chk"
 B after Tr=    -0.000000    0.000000   -0.000000
         Rot=    1.000000    0.000000   -0.000000   -0.000000 Ang=   0.00 deg.
 Guess basis will be translated and rotated to current coordinates.
 JPrj=2 DoOrth=T DoCkMO=T.
 Leave Link  401 at Sat Jan 24 22:53:05 2026, MaxMem=  2147483648 cpu:               2.2 elap:               0.2
 (Enter /data/home/wyx/g16/l502.exe)
 Integral symmetry usage will be decided dynamically.
 Closed shell SCF:
 Using DIIS extrapolation, IDIIS=  1040.
 NGot=  2147483648 LenX=  2147200095 LenY=  2147062754
 Requested convergence on RMS density matrix=1.00D-08 within 128 cycles.
 Requested convergence on MAX density matrix=1.00D-06.
 Requested convergence on             energy=1.00D-06.
 No special actions if energy rises.
 Fock matrices will be formed incrementally for  20 cycles.

 Cycle   1  Pass 1  IDiag  1:
 FoFJK:  IHMeth= 1 ICntrl=       0 DoSepK=T KAlg= 0 I1Cent=           0 FoldK=F
 IRaf=         1 NMat=       1 IRICut=       1 DoRegI=T DoRafI=F ISym2E= 0 IDoP0=0 IntGTp=1.
 FoFCou: FMM=F IPFlag=           0 FMFlag=      100000 FMFlg1=           0
         NFxFlg=           0 DoJE=T BraDBF=F KetDBF=F FulRan=T
         wScrn=  0.000000 ICntrl=       500 IOpCl=  0 I1Cent=           0 NGrid=           0
         NMat0=    1 NMatS0=      1 NMatT0=    0 NMatD0=    1 NMtDS0=    0 NMtDT0=    0
 Symmetry not used in FoFCou.
 Inv3:  Mode=1 IEnd=    13280448.
 Iteration    1 A*A^-1 deviation from unit magnitude is 3.11D-15 for    339.
 Iteration    1 A*A^-1 deviation from orthogonality  is 2.33D-15 for   1768    165.
 Iteration    1 A^-1*A deviation from unit magnitude is 2.89D-15 for    339.
 Iteration    1 A^-1*A deviation from orthogonality  is 1.87D-15 for   1779    252.
 NEqPCM:  Using non-equilibrium solvation (IEInf=1, Eps=  78.3553, EpsInf=   1.7778)
 Inv3:  Mode=1 IEnd=    13280448.
 Iteration    1 A*A^-1 deviation from unit magnitude is 3.33D-15 for    498.
 Iteration    1 A*A^-1 deviation from orthogonality  is 1.78D-15 for   1918    106.
 Iteration    1 A^-1*A deviation from unit magnitude is 3.55D-15 for    498.
 Iteration    1 A^-1*A deviation from orthogonality  is 2.55D-15 for   1535   1120.
 E= -633.325138605857    
 DIIS: error= 3.17D-04 at cycle   1 NSaved=   1.
 NSaved= 1 IEnMin= 1 EnMin= -633.325138605857     IErMin= 1 ErrMin= 3.17D-04
 ErrMax= 3.17D-04  0.00D+00 EMaxC= 1.00D-01 BMatC= 2.57D-05 BMatP= 2.57D-05
 IDIUse=3 WtCom= 9.97D-01 WtEn= 3.17D-03
 Coeff-Com:  0.100D+01
 Coeff-En:   0.100D+01
 Coeff:      0.100D+01
 Gap=     0.218 Goal=   None    Shift=    0.000
 RMSDP=2.27D-04 MaxDP=1.31D-02              OVMax= 4.50D-03

 Cycle   2  Pass 1  IDiag  1:
 RMSU=  2.26D-04    CP:  9.98D-01
 E= -633.325185473016     Delta-E=       -0.000046867159 Rises=F Damp=F
 DIIS: error= 1.64D-04 at cycle   2 NSaved=   2.
 NSaved= 2 IEnMin= 2 EnMin= -633.325185473016     IErMin= 2 ErrMin= 1.64D-04
 ErrMax= 1.64D-04  0.00D+00 EMaxC= 1.00D-01 BMatC= 1.52D-05 BMatP= 2.57D-05
 IDIUse=3 WtCom= 9.98D-01 WtEn= 1.64D-03
 Coeff-Com:  0.411D+00 0.589D+00
 Coeff-En:   0.000D+00 0.100D+01
 Coeff:      0.411D+00 0.589D+00
 Gap=     0.219 Goal=   None    Shift=    0.000
 RMSDP=4.34D-05 MaxDP=3.58D-03 DE=-4.69D-05 OVMax= 1.30D-03

 Cycle   3  Pass 1  IDiag  1:
 RMSU=  3.31D-05    CP:  1.00D+00  8.99D-01
 E= -633.325197679951     Delta-E=       -0.000012206935 Rises=F Damp=F
 DIIS: error= 1.24D-04 at cycle   3 NSaved=   3.
 NSaved= 3 IEnMin= 3 EnMin= -633.325197679951     IErMin= 3 ErrMin= 1.24D-04
 ErrMax= 1.24D-04  0.00D+00 EMaxC= 1.00D-01 BMatC= 3.80D-06 BMatP= 1.52D-05
 IDIUse=3 WtCom= 9.99D-01 WtEn= 1.24D-03
 Coeff-Com:  0.825D-01 0.318D+00 0.599D+00
 Coeff-En:   0.000D+00 0.988D-01 0.901D+00
 Coeff:      0.824D-01 0.318D+00 0.599D+00
 Gap=     0.219 Goal=   None    Shift=    0.000
 RMSDP=1.62D-05 MaxDP=8.69D-04 DE=-1.22D-05 OVMax= 6.81D-04

 Cycle   4  Pass 1  IDiag  1:
 RMSU=  1.47D-05    CP:  9.99D-01  8.95D-01  8.82D-01
 E= -633.325200566493     Delta-E=       -0.000002886542 Rises=F Damp=F
 DIIS: error= 2.63D-05 at cycle   4 NSaved=   4.
 NSaved= 4 IEnMin= 4 EnMin= -633.325200566493     IErMin= 4 ErrMin= 2.63D-05
 ErrMax= 2.63D-05  0.00D+00 EMaxC= 1.00D-01 BMatC= 2.82D-07 BMatP= 3.80D-06
 IDIUse=1 WtCom= 1.00D+00 WtEn= 0.00D+00
 Coeff-Com: -0.776D-02 0.601D-01 0.235D+00 0.712D+00
 Coeff:     -0.776D-02 0.601D-01 0.235D+00 0.712D+00
 Gap=     0.219 Goal=   None    Shift=    0.000
 RMSDP=7.57D-06 MaxDP=4.46D-04 DE=-2.89D-06 OVMax= 2.51D-04

 Cycle   5  Pass 1  IDiag  1:
 RMSU=  4.47D-06    CP:  9.99D-01  8.98D-01  1.04D+00  1.08D+00
 E= -633.325200810338     Delta-E=       -0.000000243845 Rises=F Damp=F
 DIIS: error= 8.08D-06 at cycle   5 NSaved=   5.
 NSaved= 5 IEnMin= 5 EnMin= -633.325200810338     IErMin= 5 ErrMin= 8.08D-06
 ErrMax= 8.08D-06  0.00D+00 EMaxC= 1.00D-01 BMatC= 4.89D-08 BMatP= 2.82D-07
 IDIUse=1 WtCom= 1.00D+00 WtEn= 0.00D+00
 Coeff-Com: -0.120D-01-0.163D-01 0.232D-01 0.318D+00 0.687D+00
 Coeff:     -0.120D-01-0.163D-01 0.232D-01 0.318D+00 0.687D+00
 Gap=     0.219 Goal=   None    Shift=    0.000
 RMSDP=2.00D-06 MaxDP=1.26D-04 DE=-2.44D-07 OVMax= 1.07D-04

 Cycle   6  Pass 1  IDiag  1:
 RMSU=  1.42D-06    CP:  9.99D-01  8.97D-01  1.06D+00  1.15D+00  1.08D+00
 E= -633.325200865890     Delta-E=       -0.000000055552 Rises=F Damp=F
 DIIS: error= 4.71D-06 at cycle   6 NSaved=   6.
 NSaved= 6 IEnMin= 6 EnMin= -633.325200865890     IErMin= 6 ErrMin= 4.71D-06
 ErrMax= 4.71D-06  0.00D+00 EMaxC= 1.00D-01 BMatC= 3.15D-09 BMatP= 4.89D-08
 IDIUse=1 WtCom= 1.00D+00 WtEn= 0.00D+00
 Coeff-Com: -0.181D-02-0.103D-01-0.126D-01 0.451D-02 0.173D+00 0.848D+00
 Coeff:     -0.181D-02-0.103D-01-0.126D-01 0.451D-02 0.173D+00 0.848D+00
 Gap=     0.219 Goal=   None    Shift=    0.000
 RMSDP=1.26D-06 MaxDP=8.30D-05 DE=-5.56D-08 OVMax= 7.35D-05

 Cycle   7  Pass 1  IDiag  1:
 RMSU=  5.04D-07    CP:  9.99D-01  8.95D-01  1.08D+00  1.19D+00  1.23D+00
                    CP:  1.29D+00
 E= -633.325200872239     Delta-E=       -0.000000006349 Rises=F Damp=F
 DIIS: error= 2.59D-06 at cycle   7 NSaved=   7.
 NSaved= 7 IEnMin= 7 EnMin= -633.325200872239     IErMin= 7 ErrMin= 2.59D-06
 ErrMax= 2.59D-06  0.00D+00 EMaxC= 1.00D-01 BMatC= 1.30D-09 BMatP= 3.15D-09
 IDIUse=1 WtCom= 1.00D+00 WtEn= 0.00D+00
 Coeff-Com:  0.717D-03-0.348D-02-0.729D-02-0.401D-01-0.134D-01 0.435D+00
 Coeff-Com:  0.628D+00
 Coeff:      0.717D-03-0.348D-02-0.729D-02-0.401D-01-0.134D-01 0.435D+00
 Coeff:      0.628D+00
 Gap=     0.219 Goal=   None    Shift=    0.000
 RMSDP=3.58D-07 MaxDP=1.93D-05 DE=-6.35D-09 OVMax= 3.01D-05

 Cycle   8  Pass 1  IDiag  1:
 RMSU=  1.89D-07    CP:  9.99D-01  8.95D-01  1.08D+00  1.19D+00  1.27D+00
                    CP:  1.39D+00  1.03D+00
 E= -633.325200874082     Delta-E=       -0.000000001843 Rises=F Damp=F
 DIIS: error= 1.10D-06 at cycle   8 NSaved=   8.
 NSaved= 8 IEnMin= 8 EnMin= -633.325200874082     IErMin= 8 ErrMin= 1.10D-06
 ErrMax= 1.10D-06  0.00D+00 EMaxC= 1.00D-01 BMatC= 1.67D-10 BMatP= 1.30D-09
 IDIUse=1 WtCom= 1.00D+00 WtEn= 0.00D+00
 Coeff-Com:  0.685D-03 0.174D-03 0.482D-03-0.167D-01-0.474D-01-0.128D-01
 Coeff-Com:  0.237D+00 0.839D+00
 Coeff:      0.685D-03 0.174D-03 0.482D-03-0.167D-01-0.474D-01-0.128D-01
 Coeff:      0.237D+00 0.839D+00
 Gap=     0.219 Goal=   None    Shift=    0.000
 RMSDP=2.67D-07 MaxDP=1.65D-05 DE=-1.84D-09 OVMax= 2.05D-05

 Cycle   9  Pass 1  IDiag  1:
 RMSU=  1.04D-07    CP:  9.99D-01  8.95D-01  1.08D+00  1.20D+00  1.29D+00
                    CP:  1.50D+00  1.26D+00  1.16D+00
 E= -633.325200874507     Delta-E=       -0.000000000425 Rises=F Damp=F
 DIIS: error= 5.31D-07 at cycle   9 NSaved=   9.
 NSaved= 9 IEnMin= 9 EnMin= -633.325200874507     IErMin= 9 ErrMin= 5.31D-07
 ErrMax= 5.31D-07  0.00D+00 EMaxC= 1.00D-01 BMatC= 2.43D-11 BMatP= 1.67D-10
 IDIUse=1 WtCom= 1.00D+00 WtEn= 0.00D+00
 Coeff-Com:  0.154D-03 0.503D-03 0.155D-02 0.108D-02-0.162D-01-0.788D-01
 Coeff-Com: -0.149D-01 0.311D+00 0.796D+00
 Coeff:      0.154D-03 0.503D-03 0.155D-02 0.108D-02-0.162D-01-0.788D-01
 Coeff:     -0.149D-01 0.311D+00 0.796D+00
 Gap=     0.219 Goal=   None    Shift=    0.000
 RMSDP=8.25D-08 MaxDP=3.36D-06 DE=-4.25D-10 OVMax= 8.52D-06

 Cycle  10  Pass 1  IDiag  1:
 RMSU=  3.64D-08    CP:  9.99D-01  8.94D-01  1.08D+00  1.19D+00  1.30D+00
                    CP:  1.54D+00  1.34D+00  1.29D+00  1.20D+00
 E= -633.325200874578     Delta-E=       -0.000000000070 Rises=F Damp=F
 DIIS: error= 2.08D-07 at cycle  10 NSaved=  10.
 NSaved=10 IEnMin=10 EnMin= -633.325200874578     IErMin=10 ErrMin= 2.08D-07
 ErrMax= 2.08D-07  0.00D+00 EMaxC= 1.00D-01 BMatC= 4.38D-12 BMatP= 2.43D-11
 IDIUse=1 WtCom= 1.00D+00 WtEn= 0.00D+00
 Coeff-Com: -0.413D-04 0.204D-03 0.446D-03 0.311D-02 0.573D-03-0.307D-01
 Coeff-Com: -0.395D-01-0.678D-02 0.298D+00 0.774D+00
 Coeff:     -0.413D-04 0.204D-03 0.446D-03 0.311D-02 0.573D-03-0.307D-01
 Coeff:     -0.395D-01-0.678D-02 0.298D+00 0.774D+00
 Gap=     0.219 Goal=   None    Shift=    0.000
 RMSDP=4.23D-08 MaxDP=2.22D-06 DE=-7.03D-11 OVMax= 3.48D-06

 Cycle  11  Pass 1  IDiag  1:
 RMSU=  1.45D-08    CP:  9.99D-01  8.95D-01  1.08D+00  1.19D+00  1.30D+00
                    CP:  1.55D+00  1.38D+00  1.32D+00  1.43D+00  1.20D+00
 E= -633.325200874582     Delta-E=       -0.000000000005 Rises=F Damp=F
 DIIS: error= 8.74D-08 at cycle  11 NSaved=  11.
 NSaved=11 IEnMin=11 EnMin= -633.325200874582     IErMin=11 ErrMin= 8.74D-08
 ErrMax= 8.74D-08  0.00D+00 EMaxC= 1.00D-01 BMatC= 1.55D-12 BMatP= 4.38D-12
 IDIUse=1 WtCom= 1.00D+00 WtEn= 0.00D+00
 Coeff-Com: -0.493D-04 0.379D-04-0.123D-03 0.142D-02 0.359D-02 0.933D-03
 Coeff-Com: -0.145D-01-0.644D-01-0.152D-01 0.418D+00 0.670D+00
 Coeff:     -0.493D-04 0.379D-04-0.123D-03 0.142D-02 0.359D-02 0.933D-03
 Coeff:     -0.145D-01-0.644D-01-0.152D-01 0.418D+00 0.670D+00
 Gap=     0.219 Goal=   None    Shift=    0.000
 RMSDP=1.53D-08 MaxDP=6.46D-07 DE=-4.55D-12 OVMax= 1.34D-06

 Cycle  12  Pass 1  IDiag  1:
 RMSU=  6.44D-09    CP:  9.99D-01  8.95D-01  1.08D+00  1.19D+00  1.29D+00
                    CP:  1.55D+00  1.38D+00  1.34D+00  1.48D+00  1.39D+00
                    CP:  9.83D-01
 E= -633.325200874587     Delta-E=       -0.000000000005 Rises=F Damp=F
 DIIS: error= 2.91D-08 at cycle  12 NSaved=  12.
 NSaved=12 IEnMin=12 EnMin= -633.325200874587     IErMin=12 ErrMin= 2.91D-08
 ErrMax= 2.91D-08  0.00D+00 EMaxC= 1.00D-01 BMatC= 1.76D-13 BMatP= 1.55D-12
 IDIUse=1 WtCom= 1.00D+00 WtEn= 0.00D+00
 Coeff-Com: -0.167D-04-0.501D-05-0.157D-03 0.749D-04 0.142D-02 0.522D-02
 Coeff-Com:  0.107D-02-0.274D-01-0.653D-01 0.224D-01 0.254D+00 0.808D+00
 Coeff:     -0.167D-04-0.501D-05-0.157D-03 0.749D-04 0.142D-02 0.522D-02
 Coeff:      0.107D-02-0.274D-01-0.653D-01 0.224D-01 0.254D+00 0.808D+00
 Gap=     0.219 Goal=   None    Shift=    0.000
 RMSDP=9.57D-09 MaxDP=4.26D-07 DE=-4.89D-12 OVMax= 7.07D-07

 Error on total polarization charges =  0.00853
 SCF Done:  E(RCAM-B3LYP) =  -633.325200875     A.U. after   12 cycles
            NFock= 12  Conv=0.96D-08     -V/T= 2.0042
 KE= 6.306527766750D+02 PE=-3.274691852286D+03 EE= 1.111309980698D+03
 Leave Link  502 at Sat Jan 24 22:53:53 2026, MaxMem=  2147483648 cpu:             746.5 elap:              47.3
 (Enter /data/home/wyx/g16/l601.exe)
 Copying SCF densities to generalized density rwf, IOpCl= 0 IROHF=0.

 **********************************************************************

            Population analysis using the SCF density.

 **********************************************************************

 Orbital symmetries:
       Occupied  (A) (A) (A) (A) (A) (A) (A) (A) (A) (A) (A) (A)
                 (A) (A) (A) (A) (A) (A) (A) (A) (A) (A) (A) (A)
                 (A) (A) (A) (A) (A) (A) (A) (A) (A) (A) (A) (A)
                 (A) (A) (A) (A) (A) (A) (A) (A) (A) (A) (A) (A)
                 (A) (A) (A) (A)
       Virtual   (A) (A) (A) (A) (A) (A) (A) (A) (A) (A) (A) (A)
                 (A) (A) (A) (A) (A) (A) (A) (A) (A) (A) (A) (A)
                 (A) (A) (A) (A) (A) (A) (A) (A) (A) (A) (A) (A)
                 (A) (A) (A) (A) (A) (A) (A) (A) (A) (A) (A) (A)
                 (A) (A) (A) (A) (A) (A) (A) (A) (A) (A) (A) (A)
                 (A) (A) (A) (A) (A) (A) (A) (A) (A) (A) (A) (A)
                 (A) (A) (A) (A) (A) (A) (A) (A) (A) (A) (A) (A)
                 (A) (A) (A) (A) (A) (A) (A) (A) (A) (A) (A) (A)
                 (A) (A) (A) (A) (A) (A) (A) (A) (A) (A) (A) (A)
                 (A) (A) (A) (A) (A) (A) (A) (A) (A) (A) (A) (A)
                 (A) (A) (A) (A) (A) (A) (A) (A) (A) (A) (A) (A)
                 (A) (A) (A) (A) (A) (A) (A) (A) (A) (A) (A) (A)
                 (A) (A) (A) (A) (A) (A) (A) (A) (A) (A) (A) (A)
                 (A) (A) (A) (A) (A) (A) (A) (A) (A) (A) (A) (A)
                 (A) (A) (A) (A) (A) (A) (A) (A) (A) (A) (A) (A)
                 (A) (A) (A) (A) (A) (A) (A) (A) (A) (A) (A) (A)
                 (A) (A) (A) (A) (A) (A) (A) (A) (A) (A) (A) (A)
                 (A) (A) (A) (A) (A) (A) (A) (A) (A) (A) (A) (A)
                 (A) (A) (A) (A) (A) (A) (A) (A) (A) (A) (A) (A)
                 (A) (A) (A) (A) (A) (A) (A) (A) (A) (A) (A) (A)
                 (A) (A) (A) (A) (A) (A) (A) (A) (A) (A) (A) (A)
                 (A) (A) (A) (A) (A) (A) (A) (A) (A) (A) (A) (A)
                 (A) (A) (A) (A) (A) (A) (A) (A) (A) (A) (A) (A)
                 (A) (A) (A) (A) (A) (A) (A) (A) (A) (A) (A) (A)
                 (A) (A) (A) (A) (A) (A) (A) (A) (A) (A) (A) (A)
                 (A) (A) (A) (A)
 The electronic state is 1-A.
 Alpha  occ. eigenvalues --  -19.17881 -19.17039 -14.44450 -10.33407 -10.32852
 Alpha  occ. eigenvalues --  -10.32611 -10.32028 -10.25836 -10.25161 -10.24832
 Alpha  occ. eigenvalues --  -10.24529 -10.24263 -10.24256 -10.23608  -1.11461
 Alpha  occ. eigenvalues --   -1.10926  -1.08179  -0.91245  -0.90324  -0.83922
 Alpha  occ. eigenvalues --   -0.82523  -0.81635  -0.78450  -0.73608  -0.71940
 Alpha  occ. eigenvalues --   -0.68629  -0.61518  -0.58163  -0.56950  -0.54998
 Alpha  occ. eigenvalues --   -0.54364  -0.53972  -0.52462  -0.51745  -0.50781
 Alpha  occ. eigenvalues --   -0.49821  -0.49454  -0.49225  -0.48470  -0.47923
 Alpha  occ. eigenvalues --   -0.47054  -0.45183  -0.45139  -0.43697  -0.43125
 Alpha  occ. eigenvalues --   -0.42212  -0.41987  -0.41619  -0.32594  -0.32195
 Alpha  occ. eigenvalues --   -0.31267  -0.25046
 Alpha virt. eigenvalues --   -0.03176   0.02565   0.06614   0.08397   0.08743
 Alpha virt. eigenvalues --    0.09905   0.10874   0.11742   0.12674   0.13544
 Alpha virt. eigenvalues --    0.14062   0.15113   0.15791   0.16396   0.16994
 Alpha virt. eigenvalues --    0.17559   0.17912   0.18179   0.18427   0.19294
 Alpha virt. eigenvalues --    0.20090   0.22118   0.23081   0.23625   0.23878
 Alpha virt. eigenvalues --    0.24134   0.24757   0.25813   0.26379   0.26784
 Alpha virt. eigenvalues --    0.27473   0.28207   0.28659   0.29404   0.30310
 Alpha virt. eigenvalues --    0.31785   0.32111   0.32477   0.33644   0.34491
 Alpha virt. eigenvalues --    0.35055   0.35950   0.36765   0.37896   0.38633
 Alpha virt. eigenvalues --    0.39729   0.41180   0.41588   0.42149   0.42626
 Alpha virt. eigenvalues --    0.44175   0.44881   0.45515   0.46244   0.46457
 Alpha virt. eigenvalues --    0.47345   0.47932   0.48106   0.48500   0.49218
 Alpha virt. eigenvalues --    0.49737   0.50658   0.51122   0.51542   0.51674
 Alpha virt. eigenvalues --    0.52757   0.52799   0.53500   0.53756   0.54355
 Alpha virt. eigenvalues --    0.54573   0.55475   0.56053   0.56766   0.58435
 Alpha virt. eigenvalues --    0.58576   0.59943   0.61059   0.61653   0.63121
 Alpha virt. eigenvalues --    0.64203   0.65380   0.66538   0.66744   0.67691
 Alpha virt. eigenvalues --    0.68565   0.69569   0.71120   0.71601   0.72379
 Alpha virt. eigenvalues --    0.73321   0.74499   0.75146   0.76033   0.77616
 Alpha virt. eigenvalues --    0.79087   0.80399   0.83033   0.86442   0.87492
 Alpha virt. eigenvalues --    0.90792   0.95264   1.01768   1.03529   1.22568
 Alpha virt. eigenvalues --    1.24831   1.27348   1.28425   1.29375   1.30682
 Alpha virt. eigenvalues --    1.32132   1.33171   1.34455   1.35182   1.36410
 Alpha virt. eigenvalues --    1.36762   1.37781   1.38621   1.39113   1.39854
 Alpha virt. eigenvalues --    1.40030   1.40454   1.41028   1.41415   1.42067
 Alpha virt. eigenvalues --    1.43577   1.43855   1.44398   1.45483   1.47476
 Alpha virt. eigenvalues --    1.48276   1.49735   1.50308   1.50472   1.50583
 Alpha virt. eigenvalues --    1.51367   1.52462   1.52884   1.55280   1.58428
 Alpha virt. eigenvalues --    1.59232   1.60336   1.60936   1.61567   1.62677
 Alpha virt. eigenvalues --    1.62789   1.63108   1.64159   1.64688   1.65952
 Alpha virt. eigenvalues --    1.66650   1.67186   1.67704   1.68128   1.68722
 Alpha virt. eigenvalues --    1.69245   1.70069   1.70243   1.71301   1.72500
 Alpha virt. eigenvalues --    1.74353   1.75011   1.75964   1.76780   1.78650
 Alpha virt. eigenvalues --    1.81562   1.83276   1.84225   1.86038   1.86735
 Alpha virt. eigenvalues --    1.86797   1.88110   1.88731   1.89158   1.90443
 Alpha virt. eigenvalues --    1.91470   1.94769   1.95473   1.99216   1.99805
 Alpha virt. eigenvalues --    2.01760   2.03956   2.05753   2.07097   2.09766
 Alpha virt. eigenvalues --    2.10705   2.12061   2.15874   2.17703   2.19991
 Alpha virt. eigenvalues --    2.20611   2.21450   2.22223   2.23162   2.26420
 Alpha virt. eigenvalues --    2.27319   2.27695   2.29432   2.31433   2.32377
 Alpha virt. eigenvalues --    2.33978   2.34526   2.37012   2.38094   2.39115
 Alpha virt. eigenvalues --    2.39736   2.40331   2.41505   2.43010   2.45315
 Alpha virt. eigenvalues --    2.46091   2.47861   2.49452   2.50007   2.51357
 Alpha virt. eigenvalues --    2.52531   2.54260   2.54916   2.56628   2.57765
 Alpha virt. eigenvalues --    2.58928   2.60936   2.61894   2.62720   2.63584
 Alpha virt. eigenvalues --    2.64871   2.65921   2.66702   2.67662   2.68481
 Alpha virt. eigenvalues --    2.72075   2.72126   2.73876   2.74932   2.75180
 Alpha virt. eigenvalues --    2.76606   2.77087   2.77473   2.78145   2.78964
 Alpha virt. eigenvalues --    2.80661   2.81997   2.83038   2.83877   2.84896
 Alpha virt. eigenvalues --    2.85502   2.86645   2.89023   2.89086   2.91869
 Alpha virt. eigenvalues --    2.97270   2.98750   3.01165   3.07059   3.11036
 Alpha virt. eigenvalues --    3.12459   3.14656   3.17937   3.19114   3.21668
 Alpha virt. eigenvalues --    3.21919   3.23573   3.24793   3.25543   3.26371
 Alpha virt. eigenvalues --    3.28478   3.30119   3.32799   3.34489   3.36711
 Alpha virt. eigenvalues --    3.38008   3.39032   3.39540   3.40060   3.42077
 Alpha virt. eigenvalues --    3.42212   3.44436   3.45333   3.47657   3.48604
 Alpha virt. eigenvalues --    3.49743   3.50128   3.55798   3.58493   3.59891
 Alpha virt. eigenvalues --    3.61251   3.91203   4.01060   4.32822   4.35865
 Alpha virt. eigenvalues --   21.67669  21.80711  22.08156  22.10634  22.11751
 Alpha virt. eigenvalues --   22.15110  22.15145  22.18468  22.19463  22.25010
 Alpha virt. eigenvalues --   22.27871  31.91878  43.63834  43.66613
          Condensed to atoms (all electrons):
               1          2          3          4          5          6
     1  O    7.956096   0.000000  -0.000197   0.000018   0.018709   0.008269
     2  O    0.000000   7.998653   0.000301   0.000006  -0.200786   0.001331
     3  N   -0.000197   0.000301   6.345754   0.368109  -0.114873   0.334822
     4  H    0.000018   0.000006   0.368109   0.401918   0.016103  -0.044193
     5  C    0.018709  -0.200786  -0.114873   0.016103   7.125434  -0.084908
     6  C    0.008269   0.001331   0.334822  -0.044193  -0.084908   5.527074
     7  C   -0.000057  -0.046708   0.397411  -0.034785   0.470637  -0.122256
     8  C   -0.000708   0.708928   0.003872  -0.000908  -0.369328   0.034833
     9  C   -0.010821   0.025645   0.012962   0.000152  -0.657973  -0.042923
    10  H    0.007930   0.000117   0.003503   0.000036  -0.051970  -0.020071
    11  H    0.010069   0.000019  -0.001373   0.000019  -0.114078   0.028456
    12  C   -0.233918  -0.003032  -0.086135   0.014711   0.195521  -0.048143
    13  C    0.718874  -0.000021   0.001310   0.000519   0.081663   0.119479
    14  C   -0.000008  -0.010446  -0.032625  -0.010631  -0.083361   0.010943
    15  H   -0.000000   0.004087   0.005927   0.001864   0.018513   0.006177
    16  H   -0.000000   0.003741  -0.002491   0.000915  -0.007218  -0.001367
    17  H    0.000000   0.003032  -0.000219   0.000798  -0.004024  -0.001270
    18  C    0.000222  -0.102303  -0.000532   0.000017  -0.254063   0.000118
    19  H   -0.000001   0.007809   0.000007  -0.000001   0.026346   0.000014
    20  H   -0.000004   0.000783   0.000012  -0.000001   0.001174   0.000194
    21  H    0.000134   0.004280   0.000118   0.000001   0.045701  -0.001240
    22  C   -0.105953   0.000000  -0.000111   0.000109   0.003648  -0.024236
    23  H    0.005197  -0.000000   0.000151  -0.000056  -0.000730  -0.024895
    24  H    0.001470   0.000000   0.000008  -0.000011  -0.000013   0.008445
    25  H    0.006430   0.000000   0.000025  -0.000002  -0.000144  -0.000992
    26  C    0.000731   0.000010  -0.025650  -0.006831   0.000667   0.192253
    27  H   -0.000232  -0.000000   0.001232   0.000756   0.000092  -0.050498
    28  H   -0.000057  -0.000000  -0.002361   0.000492   0.000371  -0.032292
    29  H    0.000023   0.000000   0.002281   0.001703  -0.000315  -0.046335
               7          8          9         10         11         12
     1  O   -0.000057  -0.000708  -0.010821   0.007930   0.010069  -0.233918
     2  O   -0.046708   0.708928   0.025645   0.000117   0.000019  -0.003032
     3  N    0.397411   0.003872   0.012962   0.003503  -0.001373  -0.086135
     4  H   -0.034785  -0.000908   0.000152   0.000036   0.000019   0.014711
     5  C    0.470637  -0.369328  -0.657973  -0.051970  -0.114078   0.195521
     6  C   -0.122256   0.034833  -0.042923  -0.020071   0.028456  -0.048143
     7  C    5.388384  -0.239055  -0.214295  -0.005700   0.016438   0.019961
     8  C   -0.239055   5.447460   0.195349  -0.002886  -0.009035  -0.050143
     9  C   -0.214295   0.195349   6.385022   0.419481   0.531182  -0.117252
    10  H   -0.005700  -0.002886   0.419481   0.568062  -0.048352  -0.015724
    11  H    0.016438  -0.009035   0.531182  -0.048352   0.535444  -0.110060
    12  C    0.019961  -0.050143  -0.117252  -0.015724  -0.110060   7.330514
    13  C    0.020498  -0.010069  -0.256449  -0.005031   0.000692  -0.498658
    14  C    0.286310  -0.036214   0.004851  -0.000899   0.000497   0.000033
    15  H   -0.080898   0.005391   0.000645   0.000047  -0.000004  -0.001486
    16  H   -0.020689  -0.000767   0.000907  -0.000064   0.000063   0.000326
    17  H   -0.028528  -0.007125  -0.000234   0.000191  -0.000061   0.000191
    18  C   -0.001195   0.332260  -0.000094  -0.012861   0.007850  -0.000584
    19  H    0.000395  -0.055683  -0.001893   0.000099   0.000580  -0.000164
    20  H   -0.000187  -0.023503  -0.009241   0.000729  -0.000952  -0.002544
    21  H    0.003632  -0.070958  -0.008189   0.002913  -0.007307   0.006689
    22  C    0.000297  -0.000090   0.009261   0.003091  -0.000977  -0.249532
    23  H   -0.000007   0.000007   0.003001  -0.000209   0.000061   0.063737
    24  H   -0.000010   0.000002  -0.002092   0.000170  -0.000128  -0.011673
    25  H    0.000006   0.000003   0.000335  -0.000100  -0.000046   0.021931
    26  C    0.002812   0.000842   0.022493  -0.000754   0.000099  -0.083673
    27  H   -0.000783   0.000003  -0.000179  -0.000086   0.000008  -0.006204
    28  H   -0.000832  -0.000014  -0.000513  -0.000013   0.000044  -0.017165
    29  H    0.003031  -0.000005  -0.000488   0.000081  -0.000013   0.021331
              13         14         15         16         17         18
     1  O    0.718874  -0.000008  -0.000000  -0.000000   0.000000   0.000222
     2  O   -0.000021  -0.010446   0.004087   0.003741   0.003032  -0.102303
     3  N    0.001310  -0.032625   0.005927  -0.002491  -0.000219  -0.000532
     4  H    0.000519  -0.010631   0.001864   0.000915   0.000798   0.000017
     5  C    0.081663  -0.083361   0.018513  -0.007218  -0.004024  -0.254063
     6  C    0.119479   0.010943   0.006177  -0.001367  -0.001270   0.000118
     7  C    0.020498   0.286310  -0.080898  -0.020689  -0.028528  -0.001195
     8  C   -0.010069  -0.036214   0.005391  -0.000767  -0.007125   0.332260
     9  C   -0.256449   0.004851   0.000645   0.000907  -0.000234  -0.000094
    10  H   -0.005031  -0.000899   0.000047  -0.000064   0.000191  -0.012861
    11  H    0.000692   0.000497  -0.000004   0.000063  -0.000061   0.007850
    12  C   -0.498658   0.000033  -0.001486   0.000326   0.000191  -0.000584
    13  C    5.600088   0.000132  -0.000040  -0.000009  -0.000004   0.001209
    14  C    0.000132   5.046193   0.392176   0.405313   0.416508   0.000918
    15  H   -0.000040   0.392176   0.564639  -0.024294  -0.026430   0.000224
    16  H   -0.000009   0.405313  -0.024294   0.512101  -0.028519   0.000135
    17  H   -0.000004   0.416508  -0.026430  -0.028519   0.514990  -0.000144
    18  C    0.001209   0.000918   0.000224   0.000135  -0.000144   5.311238
    19  H   -0.000010   0.000062  -0.000005  -0.000037   0.000039   0.394815
    20  H   -0.000142  -0.000204  -0.000005  -0.000008   0.000012   0.400357
    21  H    0.000855   0.000106  -0.000015  -0.000002  -0.000034   0.380667
    22  C    0.286006  -0.000012   0.000002   0.000000  -0.000000   0.000031
    23  H   -0.097957   0.000003   0.000000   0.000000  -0.000000   0.000001
    24  H   -0.022962  -0.000001   0.000000   0.000000   0.000000  -0.000002
    25  H   -0.037179   0.000000  -0.000000  -0.000000  -0.000000  -0.000001
    26  C   -0.058132   0.000669   0.000251  -0.000084   0.000018   0.000007
    27  H   -0.002901   0.000060  -0.000009   0.000001  -0.000002   0.000000
    28  H    0.006897  -0.000100  -0.000004  -0.000006   0.000004  -0.000000
    29  H   -0.001026  -0.000155   0.000116  -0.000001  -0.000001  -0.000000
              19         20         21         22         23         24
     1  O   -0.000001  -0.000004   0.000134  -0.105953   0.005197   0.001470
     2  O    0.007809   0.000783   0.004280   0.000000  -0.000000   0.000000
     3  N    0.000007   0.000012   0.000118  -0.000111   0.000151   0.000008
     4  H   -0.000001  -0.000001   0.000001   0.000109  -0.000056  -0.000011
     5  C    0.026346   0.001174   0.045701   0.003648  -0.000730  -0.000013
     6  C    0.000014   0.000194  -0.001240  -0.024236  -0.024895   0.008445
     7  C    0.000395  -0.000187   0.003632   0.000297  -0.000007  -0.000010
     8  C   -0.055683  -0.023503  -0.070958  -0.000090   0.000007   0.000002
     9  C   -0.001893  -0.009241  -0.008189   0.009261   0.003001  -0.002092
    10  H    0.000099   0.000729   0.002913   0.003091  -0.000209   0.000170
    11  H    0.000580  -0.000952  -0.007307  -0.000977   0.000061  -0.000128
    12  C   -0.000164  -0.002544   0.006689  -0.249532   0.063737  -0.011673
    13  C   -0.000010  -0.000142   0.000855   0.286006  -0.097957  -0.022962
    14  C    0.000062  -0.000204   0.000106  -0.000012   0.000003  -0.000001
    15  H   -0.000005  -0.000005  -0.000015   0.000002   0.000000   0.000000
    16  H   -0.000037  -0.000008  -0.000002   0.000000   0.000000   0.000000
    17  H    0.000039   0.000012  -0.000034  -0.000000  -0.000000   0.000000
    18  C    0.394815   0.400357   0.380667   0.000031   0.000001  -0.000002
    19  H    0.513358  -0.010790  -0.024336  -0.000000   0.000000   0.000000
    20  H   -0.010790   0.490402  -0.022648  -0.000011   0.000000   0.000000
    21  H   -0.024336  -0.022648   0.533363   0.000030  -0.000000  -0.000000
    22  C   -0.000000  -0.000011   0.000030   5.424080   0.397091   0.402075
    23  H    0.000000   0.000000  -0.000000   0.397091   0.541466  -0.026054
    24  H    0.000000   0.000000  -0.000000   0.402075  -0.026054   0.491720
    25  H   -0.000000   0.000000  -0.000000   0.381317  -0.022464  -0.009116
    26  C    0.000000   0.000003  -0.000017  -0.033689   0.015973  -0.010042
    27  H   -0.000000   0.000000  -0.000000   0.004570  -0.007528  -0.000260
    28  H    0.000000  -0.000000   0.000000  -0.010996  -0.001680   0.000827
    29  H    0.000000  -0.000000   0.000000   0.001963   0.000601   0.000152
              25         26         27         28         29
     1  O    0.006430   0.000731  -0.000232  -0.000057   0.000023
     2  O    0.000000   0.000010  -0.000000  -0.000000   0.000000
     3  N    0.000025  -0.025650   0.001232  -0.002361   0.002281
     4  H   -0.000002  -0.006831   0.000756   0.000492   0.001703
     5  C   -0.000144   0.000667   0.000092   0.000371  -0.000315
     6  C   -0.000992   0.192253  -0.050498  -0.032292  -0.046335
     7  C    0.000006   0.002812  -0.000783  -0.000832   0.003031
     8  C    0.000003   0.000842   0.000003  -0.000014  -0.000005
     9  C    0.000335   0.022493  -0.000179  -0.000513  -0.000488
    10  H   -0.000100  -0.000754  -0.000086  -0.000013   0.000081
    11  H   -0.000046   0.000099   0.000008   0.000044  -0.000013
    12  C    0.021931  -0.083673  -0.006204  -0.017165   0.021331
    13  C   -0.037179  -0.058132  -0.002901   0.006897  -0.001026
    14  C    0.000000   0.000669   0.000060  -0.000100  -0.000155
    15  H   -0.000000   0.000251  -0.000009  -0.000004   0.000116
    16  H   -0.000000  -0.000084   0.000001  -0.000006  -0.000001
    17  H   -0.000000   0.000018  -0.000002   0.000004  -0.000001
    18  C   -0.000001   0.000007   0.000000  -0.000000  -0.000000
    19  H   -0.000000   0.000000  -0.000000   0.000000   0.000000
    20  H    0.000000   0.000003   0.000000  -0.000000  -0.000000
    21  H   -0.000000  -0.000017  -0.000000   0.000000   0.000000
    22  C    0.381317  -0.033689   0.004570  -0.010996   0.001963
    23  H   -0.022464   0.015973  -0.007528  -0.001680   0.000601
    24  H   -0.009116  -0.010042  -0.000260   0.000827   0.000152
    25  H    0.499971   0.002129   0.000606   0.000133  -0.000037
    26  C    0.002129   5.244538   0.432927   0.425245   0.388669
    27  H    0.000606   0.432927   0.507480  -0.028377  -0.024658
    28  H    0.000133   0.425245  -0.028377   0.480749  -0.015906
    29  H   -0.000037   0.388669  -0.024658  -0.015906   0.508293
 Mulliken charges:
               1
     1  O   -0.382217
     2  O   -0.395446
     3  N   -0.211238
     4  H    0.289173
     5  C   -0.060793
     6  C    0.273211
     7  C    0.186173
     8  C    0.147542
     9  C   -0.288647
    10  H    0.158271
    11  H    0.160866
    12  C   -0.138857
    13  C    0.152367
    14  C   -0.390118
    15  H    0.133128
    16  H    0.162055
    17  H    0.160811
    18  C   -0.458290
    19  H    0.149396
    20  H    0.176574
    21  H    0.156256
    22  C   -0.487963
    23  H    0.154292
    24  H    0.177495
    25  H    0.157195
    26  C   -0.511465
    27  H    0.173981
    28  H    0.195553
    29  H    0.160695
 Sum of Mulliken charges =  -0.00000
 Mulliken charges with hydrogens summed into heavy atoms:
               1
     1  O   -0.382217
     2  O   -0.395446
     3  N    0.077935
     5  C   -0.060793
     6  C    0.273211
     7  C    0.186173
     8  C    0.147542
     9  C    0.030491
    12  C   -0.138857
    13  C    0.152367
    14  C    0.065876
    18  C    0.023937
    22  C    0.001019
    26  C    0.018764
 Electronic spatial extent (au):  <R**2>=           3204.1364
 Charge=             -0.0000 electrons
 Dipole moment (field-independent basis, Debye):
    X=             -4.1795    Y=              8.1276    Z=              0.0289  Tot=              9.1393
 Quadrupole moment (field-independent basis, Debye-Ang):
   XX=           -100.3150   YY=            -77.8189   ZZ=            -84.8467
   XY=            -12.9567   XZ=             -4.4462   YZ=             -2.2943
 Traceless Quadrupole moment (field-independent basis, Debye-Ang):
   XX=            -12.6548   YY=              9.8413   ZZ=              2.8135
   XY=            -12.9567   XZ=             -4.4462   YZ=             -2.2943
 Octapole moment (field-independent basis, Debye-Ang**2):
  XXX=           -115.2428  YYY=             69.3308  ZZZ=              1.1374  XYY=             35.9938
  XXY=             35.0368  XXZ=             -5.7984  XZZ=             -0.8975  YZZ=             -0.8667
  YYZ=              4.4225  XYZ=              5.5055
 Hexadecapole moment (field-independent basis, Debye-Ang**3):
 XXXX=          -3097.7450 YYYY=          -1286.0152 ZZZZ=           -144.2028 XXXY=            -37.9116
 XXXZ=            -49.1053 YYYX=            -92.2469 YYYZ=            -20.8557 ZZZX=              3.3485
 ZZZY=              2.4890 XXYY=           -696.4450 XXZZ=           -481.2791 YYZZ=           -244.4607
 XXYZ=             -9.7886 YYXZ=             -9.9896 ZZXY=             -0.3083
 N-N= 8.994038940390D+02 E-N=-3.274691851179D+03  KE= 6.306527766750D+02
 No NMR shielding tensors so no spin-rotation constants.
 Leave Link  601 at Sat Jan 24 22:53:53 2026, MaxMem=  2147483648 cpu:               1.8 elap:               0.1
 (Enter /data/home/wyx/g16/l9999.exe)
 1\1\GINC-CN012\SP\RCAM-B3LYP\TZVP\C11H15N1O2\WYX\24-Jan-2026\0\\#p CAM
 -B3LYP TZVP em=gd3bj scrf=(Solvent=Water,NonEquilibrium=Read) Geom=Che
 ck Guess=Read\\Title Card Required\\0,1\O,0,2.718277,-1.559497,0.86092
 5\O,0,-3.301746,-1.66144,-0.911702\N,0,-0.684117,1.516403,-0.04816\H,0
 ,-0.992546,2.477061,-0.115788\C,0,-1.252593,-0.763454,-0.17304\C,0,0.6
 4373,1.333143,0.20647\C,0,-1.627723,0.573989,-0.287871\C,0,-2.164575,-
 1.849851,-0.468011\C,0,0.119411,-1.081788,0.286854\H,0,0.075146,-1.513
 853,1.302495\H,0,0.537181,-1.911825,-0.291428\C,0,1.104649,0.026718,0.
 314956\C,0,2.480332,-0.395539,0.511975\C,0,-2.976931,1.101821,-0.63050
 8\H,0,-3.012381,2.183685,-0.518062\H,0,-3.248368,0.857054,-1.653579\H,
 0,-3.742106,0.66359,0.001949\C,0,-1.699932,-3.267048,-0.251406\H,0,-2.
 562912,-3.923689,-0.220564\H,0,-1.065681,-3.588076,-1.077334\H,0,-1.12
 6364,-3.395774,0.661491\C,0,3.649423,0.524387,0.260009\H,0,3.468415,1.
 242209,-0.535322\H,0,3.904173,1.076921,1.166879\H,0,4.505969,-0.093316
 ,-0.002387\C,0,1.414994,2.600889,0.368861\H,0,2.1458,2.523987,1.167131
 \H,0,1.944021,2.879357,-0.542969\H,0,0.746455,3.423934,0.618134\\Versi
 on=ES64L-G16RevA.03\State=1-A\HF=-633.3252009\RMSD=9.569e-09\Dipole=0.
 4713724,3.5645618,0.0218485\Quadrupole=-11.5710022,11.5488678,0.022134
 4,1.9410626,-6.4745478,0.7253711\PG=C01 [X(C11H15N1O2)]\\@


 MANHOOD BEGINS BY TRYING TO SHAVE FACE,
 AND ENDS BY TRYING TO SAVE FACE.
 Job cpu time:       0 days  0 hours 12 minutes 36.7 seconds.
 Elapsed time:       0 days  0 hours  0 minutes 48.1 seconds.
 File lengths (MBytes):  RWF=    340 Int=      0 D2E=      0 Chk=     67 Scr=      1
 Normal termination of Gaussian 16 at Sat Jan 24 22:53:54 2026.
