 Entering Gaussian System, Link 0=g16
 Input=DDL-S2-cLR-1.gjf
 Output=DDL-S2-cLR-1.log
 Initial command:
 /data/home/wyx/g16/l1.exe "/scr/tmp/wyx/13117/Gau-2017403.inp" -scrdir="/scr/tmp/wyx/13117/"
 Entering Link 1 = /data/home/wyx/g16/l1.exe PID=   2017404.
  
 Copyright (c) 1988,1990,1992,1993,1995,1998,2003,2009,2016,
            Gaussian, Inc.  All Rights Reserved.
  
 This is part of the Gaussian(R) 16 program.  It is based on
 the Gaussian(R) 09 system (copyright 2009, Gaussian, Inc.),
 the Gaussian(R) 03 system (copyright 2003, Gaussian, Inc.),
 the Gaussian(R) 98 system (copyright 1998, Gaussian, Inc.),
 the Gaussian(R) 94 system (copyright 1995, Gaussian, Inc.),
 the Gaussian 92(TM) system (copyright 1992, Gaussian, Inc.),
 the Gaussian 90(TM) system (copyright 1990, Gaussian, Inc.),
 the Gaussian 88(TM) system (copyright 1988, Gaussian, Inc.),
 the Gaussian 86(TM) system (copyright 1986, Carnegie Mellon
 University), and the Gaussian 82(TM) system (copyright 1983,
 Carnegie Mellon University). Gaussian is a federally registered
 trademark of Gaussian, Inc.
  
 This software contains proprietary and confidential information,
 including trade secrets, belonging to Gaussian, Inc.
  
 This software is provided under written license and may be
 used, copied, transmitted, or stored only in accord with that
 written license.
  
 The following legend is applicable only to US Government
 contracts under FAR:
  
                    RESTRICTED RIGHTS LEGEND
  
 Use, reproduction and disclosure by the US Government is
 subject to restrictions as set forth in subparagraphs (a)
 and (c) of the Commercial Computer Software - Restricted
 Rights clause in FAR 52.227-19.
  
 Gaussian, Inc.
 340 Quinnipiac St., Bldg. 40, Wallingford CT 06492
  
  
 ---------------------------------------------------------------
 Warning -- This program may not be used in any manner that
 competes with the business of Gaussian, Inc. or will provide
 assistance to any competitor of Gaussian, Inc.  The licensee
 of this program is prohibited from giving any competitor of
 Gaussian, Inc. access to this program.  By using this program,
 the user acknowledges that Gaussian, Inc. is engaged in the
 business of creating and licensing software in the field of
 computational chemistry and represents and warrants to the
 licensee that it is not a competitor of Gaussian, Inc. and that
 it will not use this program in any manner prohibited above.
 ---------------------------------------------------------------
  

 Cite this work as:
 Gaussian 16, Revision A.03,
 M. J. Frisch, G. W. Trucks, H. B. Schlegel, G. E. Scuseria, 
 M. A. Robb, J. R. Cheeseman, G. Scalmani, V. Barone, 
 G. A. Petersson, H. Nakatsuji, X. Li, M. Caricato, A. V. Marenich, 
 J. Bloino, B. G. Janesko, R. Gomperts, B. Mennucci, H. P. Hratchian, 
 J. V. Ortiz, A. F. Izmaylov, J. L. Sonnenberg, D. Williams-Young, 
 F. Ding, F. Lipparini, F. Egidi, J. Goings, B. Peng, A. Petrone, 
 T. Henderson, D. Ranasinghe, V. G. Zakrzewski, J. Gao, N. Rega, 
 G. Zheng, W. Liang, M. Hada, M. Ehara, K. Toyota, R. Fukuda, 
 J. Hasegawa, M. Ishida, T. Nakajima, Y. Honda, O. Kitao, H. Nakai, 
 T. Vreven, K. Throssell, J. A. Montgomery, Jr., J. E. Peralta, 
 F. Ogliaro, M. J. Bearpark, J. J. Heyd, E. N. Brothers, K. N. Kudin, 
 V. N. Staroverov, T. A. Keith, R. Kobayashi, J. Normand, 
 K. Raghavachari, A. P. Rendell, J. C. Burant, S. S. Iyengar, 
 J. Tomasi, M. Cossi, J. M. Millam, M. Klene, C. Adamo, R. Cammi, 
 J. W. Ochterski, R. L. Martin, K. Morokuma, O. Farkas, 
 J. B. Foresman, and D. J. Fox, Gaussian, Inc., Wallingford CT, 2016.
 
 ******************************************
 Gaussian 16:  ES64L-G16RevA.03 25-Dec-2016
                24-Jan-2026 
 ******************************************
 %nprocshared=16
 Will use up to   16 processors via shared memory.
 %mem=16GB
 %oldchk=DDL-LR-1.chk
 %chk=DDL-S2-cLR-1.chk
 Copying data from "DDL-LR-1.chk" to current chk file "DDL-S2-cLR-1.chk"
 IOpt=  2 FromEx=T IUOpen= 4 IOptOp= 5 NList=   0 IFRang= 0 IUIn= 4 IUOut= 2.
 ----------------------------------------------------------------------
 #p CAM-B3LYP TZVP em=gd3bj td(nstates=6,root=2) scrf=(Solvent=Water,Co
 rrectedLR,NonEquilibrium=Save) Geom=Check Guess=Read
 ----------------------------------------------------------------------
 1/29=2,30=1,38=1,172=1/1;
 2/12=2,40=1/2;
 3/5=19,7=101,11=9,14=-4,25=1,30=1,70=9002201,71=1,72=1,74=-40,116=-2,124=41/1,2,3,8;
 4/5=1/1;
 5/5=2,38=6,53=1/2;
 8/6=1,10=1,107=2,108=6/1;
 9/8=2,15=1,41=6,42=1,70=2,73=22/14;
 10/5=4,13=10,28=2,74=20/2;
 6/7=2,8=2,9=2,10=2,22=-1/1;
 99/5=1,9=1/99;
 Leave Link    1 at Sat Jan 24 17:13:26 2026, MaxMem=  2147483648 cpu:               0.9 elap:               0.1
 (Enter /data/home/wyx/g16/l101.exe)
 -------------------
 Title Card Required
 -------------------
 Structure from the checkpoint file:  "DDL-S2-cLR-1.chk"
 Charge =  0 Multiplicity = 1
 Z-Matrix found in chk file.
 O,0,2.710105,-1.559656,0.894419
 O,0,-3.32203,-1.667401,-0.855584
 N,0,-0.676769,1.516899,-0.096726
 H,0,-0.985185,2.478547,-0.167257
 C,0,-1.253653,-0.765147,-0.178936
 C,0,0.644569,1.342515,0.184843
 C,0,-1.630336,0.582533,-0.305347
 C,0,-2.168296,-1.854384,-0.445198
 C,0,0.125696,-1.07531,0.245672
 H,0,0.100105,-1.537583,1.251184
 H,0,0.540371,-1.895721,-0.352014
 C,0,1.107848,0.027034,0.302259
 C,0,2.476757,-0.39707,0.527756
 C,0,-2.989216,1.106744,-0.623377
 H,0,-3.004913,2.194493,-0.558246
 H,0,-3.30225,0.816092,-1.624024
 H,0,-3.73322,0.706899,0.061788
 C,0,-1.691276,-3.274788,-0.251111
 H,0,-2.559749,-3.921926,-0.162109
 H,0,-1.116536,-3.600406,-1.120849
 H,0,-1.059872,-3.40507,0.624637
 C,0,3.650026,0.520215,0.283519
 H,0,3.474105,1.243728,-0.507795
 H,0,3.906971,1.06605,1.194112
 H,0,4.504546,-0.099325,0.017952
 C,0,1.415097,2.607671,0.374351
 H,0,2.112335,2.525993,1.203936
 H,0,1.985169,2.884692,-0.514271
 H,0,0.739601,3.433684,0.596419
 Recover connectivity data from disk.
 ITRead=  0  0  0  0  0  0  0  0  0  0  0  0  0  0  0  0  0  0  0  0
 ITRead=  0  0  0  0  0  0  0  0  0
 MicOpt= -1 -1 -1 -1 -1 -1 -1 -1 -1 -1 -1 -1 -1 -1 -1 -1 -1 -1 -1 -1
 MicOpt= -1 -1 -1 -1 -1 -1 -1 -1 -1
 NAtoms=     29 NQM=       29 NQMF=       0 NMMI=      0 NMMIF=      0
                NMic=       0 NMicF=      0.
                    Isotopes and Nuclear Properties:
 (Nuclear quadrupole moments (NQMom) in fm**2, nuclear magnetic moments (NMagM)
  in nuclear magnetons)

  Atom         1           2           3           4           5           6           7           8           9          10
 IAtWgt=          16          16          14           1          12          12          12          12          12           1
 AtmWgt=  15.9949146  15.9949146  14.0030740   1.0078250  12.0000000  12.0000000  12.0000000  12.0000000  12.0000000   1.0078250
 NucSpn=           0           0           2           1           0           0           0           0           0           1
 AtZEff=   5.6000000   5.6000000   4.5500000   1.0000000   3.6000000   3.6000000   3.6000000   3.6000000   3.6000000   1.0000000
 NQMom=    0.0000000   0.0000000   2.0440000   0.0000000   0.0000000   0.0000000   0.0000000   0.0000000   0.0000000   0.0000000
 NMagM=    0.0000000   0.0000000   0.4037610   2.7928460   0.0000000   0.0000000   0.0000000   0.0000000   0.0000000   2.7928460
 AtZNuc=   8.0000000   8.0000000   7.0000000   1.0000000   6.0000000   6.0000000   6.0000000   6.0000000   6.0000000   1.0000000

  Atom        11          12          13          14          15          16          17          18          19          20
 IAtWgt=           1          12          12          12           1           1           1          12           1           1
 AtmWgt=   1.0078250  12.0000000  12.0000000  12.0000000   1.0078250   1.0078250   1.0078250  12.0000000   1.0078250   1.0078250
 NucSpn=           1           0           0           0           1           1           1           0           1           1
 AtZEff=   1.0000000   3.6000000   3.6000000   3.6000000   1.0000000   1.0000000   1.0000000   3.6000000   1.0000000   1.0000000
 NQMom=    0.0000000   0.0000000   0.0000000   0.0000000   0.0000000   0.0000000   0.0000000   0.0000000   0.0000000   0.0000000
 NMagM=    2.7928460   0.0000000   0.0000000   0.0000000   2.7928460   2.7928460   2.7928460   0.0000000   2.7928460   2.7928460
 AtZNuc=   1.0000000   6.0000000   6.0000000   6.0000000   1.0000000   1.0000000   1.0000000   6.0000000   1.0000000   1.0000000

  Atom        21          22          23          24          25          26          27          28          29
 IAtWgt=           1          12           1           1           1          12           1           1           1
 AtmWgt=   1.0078250  12.0000000   1.0078250   1.0078250   1.0078250  12.0000000   1.0078250   1.0078250   1.0078250
 NucSpn=           1           0           1           1           1           0           1           1           1
 AtZEff=   1.0000000   3.6000000   1.0000000   1.0000000   1.0000000   3.6000000   1.0000000   1.0000000   1.0000000
 NQMom=    0.0000000   0.0000000   0.0000000   0.0000000   0.0000000   0.0000000   0.0000000   0.0000000   0.0000000
 NMagM=    2.7928460   0.0000000   2.7928460   2.7928460   2.7928460   0.0000000   2.7928460   2.7928460   2.7928460
 AtZNuc=   1.0000000   6.0000000   1.0000000   1.0000000   1.0000000   6.0000000   1.0000000   1.0000000   1.0000000
 Leave Link  101 at Sat Jan 24 17:13:29 2026, MaxMem=  2147483648 cpu:               0.8 elap:               0.1
 (Enter /data/home/wyx/g16/l202.exe)
                          Input orientation:                          
 ---------------------------------------------------------------------
 Center     Atomic      Atomic             Coordinates (Angstroms)
 Number     Number       Type             X           Y           Z
 ---------------------------------------------------------------------
      1          8           0        2.710105   -1.559656    0.894419
      2          8           0       -3.322030   -1.667401   -0.855584
      3          7           0       -0.676769    1.516899   -0.096726
      4          1           0       -0.985185    2.478547   -0.167257
      5          6           0       -1.253653   -0.765147   -0.178936
      6          6           0        0.644569    1.342515    0.184843
      7          6           0       -1.630336    0.582533   -0.305347
      8          6           0       -2.168296   -1.854384   -0.445198
      9          6           0        0.125696   -1.075310    0.245672
     10          1           0        0.100105   -1.537583    1.251184
     11          1           0        0.540371   -1.895721   -0.352014
     12          6           0        1.107848    0.027034    0.302259
     13          6           0        2.476757   -0.397070    0.527756
     14          6           0       -2.989216    1.106744   -0.623377
     15          1           0       -3.004913    2.194493   -0.558246
     16          1           0       -3.302250    0.816092   -1.624024
     17          1           0       -3.733220    0.706899    0.061788
     18          6           0       -1.691276   -3.274788   -0.251111
     19          1           0       -2.559749   -3.921926   -0.162109
     20          1           0       -1.116536   -3.600406   -1.120849
     21          1           0       -1.059872   -3.405070    0.624637
     22          6           0        3.650026    0.520215    0.283519
     23          1           0        3.474105    1.243728   -0.507795
     24          1           0        3.906971    1.066050    1.194112
     25          1           0        4.504546   -0.099325    0.017952
     26          6           0        1.415097    2.607671    0.374351
     27          1           0        2.112335    2.525993    1.203936
     28          1           0        1.985169    2.884692   -0.514271
     29          1           0        0.739601    3.433684    0.596419
 ---------------------------------------------------------------------
                    Distance matrix (angstroms):
                    1          2          3          4          5
     1  O    0.000000
     2  O    6.281781   0.000000
     3  N    4.681717   4.208686   0.000000
     4  H    5.575788   4.808692   1.012355   0.000000
     5  C    4.182668   2.355865   2.355268   3.254806   0.000000
     6  C    3.632153   5.086845   1.362213   2.017583   2.859689
     7  C    4.986767   2.868239   1.351241   2.007525   1.405031
     8  C    5.067567   1.238742   3.702922   4.500144   1.447033
     9  C    2.708253   3.667445   2.735093   3.746260   1.476176
    10  H    2.634363   4.020738   3.427864   4.395353   2.115316
    11  H    2.524734   3.901776   3.632159   4.636343   2.127599
    12  C    2.331409   4.882164   2.358759   3.257476   2.536885
    13  C    1.241169   6.095351   3.741388   4.553818   3.814558
    14  C    6.472685   2.803670   2.406865   2.471038   2.591078
    15  H    6.990372   3.886283   2.468276   2.076743   3.459806
    16  H    6.937950   2.599736   3.117197   3.202299   2.964008
    17  H    6.880914   2.578362   3.165931   3.277636   2.893634
    18  C    4.860666   2.368214   4.900339   5.797108   2.548533
    19  H    5.870940   2.478883   5.755928   6.591307   3.416347
    20  H    4.782170   2.944669   5.237273   6.154694   2.990768
    21  H    4.206074   3.213706   4.989280   5.937139   2.766311
    22  C    2.362734   7.395457   4.456357   5.052073   5.090392
    23  H    3.226277   7.401559   4.180114   4.639613   5.147370
    24  H    2.901144   7.995715   4.783325   5.270831   5.645404
    25  H    2.474021   8.029771   5.428753   6.067691   5.799909
    26  C    4.394784   6.498412   2.405743   2.464014   4.336387
    27  H    4.140732   7.166484   3.238687   3.387780   4.906507
    28  H    4.718280   7.000315   3.021774   3.018009   4.891190
    29  H    5.376350   6.680286   2.482059   2.114326   4.712156
                    6          7          8          9         10
     6  C    0.000000
     7  C    2.448071   0.000000
     8  C    4.304570   2.499505   0.000000
     9  C    2.473622   2.477037   2.519257   0.000000
    10  H    3.119053   3.148350   2.850214   1.106980   0.000000
    11  H    3.284090   3.294828   2.710585   1.096475   1.700688
    12  C    1.399609   2.859268   3.851175   1.477493   2.089026
    13  C    2.549639   4.303707   4.964567   2.463142   2.733604
    14  C    3.730040   1.490804   3.077976   3.901190   4.477762
    15  H    3.820572   2.133503   4.135954   4.597674   5.181078
    16  H    4.373386   2.142138   3.131601   4.338661   5.038117
    17  H    4.425402   2.138312   3.044042   4.254564   4.598559
    18  C    5.192852   3.858184   1.510882   2.895839   2.912699
    19  H    6.172712   4.601573   2.123230   3.934606   3.841525
    20  H    5.407290   4.292553   2.147393   3.128359   3.370756
    21  H    5.063408   4.134160   2.185813   2.641395   2.285961
    22  C    3.117481   5.313461   6.326343   3.868854   4.215785
    23  H    2.914752   5.151066   6.437306   4.142160   4.713128
    24  H    3.426124   5.757077   6.937229   4.447809   4.612417
    25  H    4.123855   6.181119   6.915313   4.492074   4.794637
    26  C    1.493401   3.719924   5.781202   3.904288   4.436347
    27  H    2.143247   4.479125   6.342803   4.223078   4.534749
    28  H    2.159694   4.291324   6.301975   4.440357   5.121212
    29  H    2.133404   3.815605   6.124091   4.564091   5.054816
                   11         12         13         14         15
    11  H    0.000000
    12  C    2.108812   0.000000
    13  C    2.601834   1.450733   0.000000
    14  C    4.641812   4.336878   5.784758   0.000000
    15  H    5.416772   4.727912   6.159895   1.089810   0.000000
    16  H    4.872133   4.876694   6.284810   1.088009   1.767564
    17  H    5.020801   4.894485   6.324531   1.087598   1.768561
    18  C    2.625311   4.363868   5.124490   4.584872   5.633206
    19  H    3.708411   5.409361   6.186026   5.068011   6.145378
    20  H    2.498479   4.486807   5.088321   5.090351   6.120731
    21  H    2.406815   4.072134   4.643834   5.063237   6.044626
    22  C    3.988810   2.589642   1.509180   6.726516   6.913754
    23  H    4.299675   2.781313   2.181579   6.465806   6.548601
    24  H    4.743057   3.116095   2.151804   7.131782   7.219299
    25  H    4.367905   3.410917   2.111985   7.617242   7.873092
    26  C    4.644706   2.599863   3.190474   4.758804   4.536181
    27  H    4.944048   2.840213   3.022304   5.601711   5.422306
    28  H    4.996611   3.098810   3.478138   5.283702   5.037780
    29  H    5.416805   3.439099   4.206792   4.561428   4.109773
                   16         17         18         19         20
    16  H    0.000000
    17  H    1.743451   0.000000
    18  C    4.606021   4.485674   0.000000
    19  H    5.013713   4.780500   1.086717   0.000000
    20  H    4.953381   5.176731   1.092153   1.762221   0.000000
    21  H    5.282324   4.936788   1.087464   1.770802   1.757296
    22  C    7.215290   7.388933   6.573993   7.648039   6.455376
    23  H    6.880976   7.249700   6.867608   7.950527   6.701899
    24  H    7.744497   7.731990   7.229932   8.278750   7.236745
    25  H    8.029953   8.277240   6.967365   8.034237   6.719449
    26  C    5.427395   5.496890   6.681623   7.663082   6.869134
    27  H    6.343410   6.227690   7.087572   8.078992   7.304998
    28  H    5.785107   6.146104   7.178070   8.192090   7.214223
    29  H    5.302708   5.265673   7.185476   8.097288   7.474803
                   21         22         23         24         25
    21  H    0.000000
    22  C    6.140632   0.000000
    23  H    6.591712   1.086553   0.000000
    24  H    6.707067   1.092308   1.765058   0.000000
    25  H    6.500674   1.088375   1.772572   1.760269   0.000000
    26  C    6.507009   3.059515   2.622601   3.042703   4.123050
    27  H    6.750999   2.689760   2.535477   2.313493   3.744533
    28  H    7.080289   2.999828   2.215792   3.149501   3.941431
    29  H    7.071595   4.129986   3.673242   3.999395   5.195343
                   26         27         28         29
    26  C    0.000000
    27  H    1.086749   0.000000
    28  H    1.091500   1.759850   0.000000
    29  H    1.089911   1.754246   1.756834   0.000000
 Stoichiometry    C11H15NO2
 Framework group  C1[X(C11H15NO2)]
 Deg. of freedom    81
 Full point group                 C1      NOp   1
 RotChk:  IX=0 Diff= 7.47D-16
 Largest Abelian subgroup         C1      NOp   1
 Largest concise Abelian subgroup C1      NOp   1
                         Standard orientation:                         
 ---------------------------------------------------------------------
 Center     Atomic      Atomic             Coordinates (Angstroms)
 Number     Number       Type             X           Y           Z
 ---------------------------------------------------------------------
      1          8           0       -2.288401   -2.287326   -0.287605
      2          8           0        3.635649   -0.263588    0.232873
      3          7           0       -0.020171    1.801627   -0.055064
      4          1           0       -0.047327    2.813535   -0.068007
      5          6           0        1.298335   -0.149933   -0.039420
      6          6           0       -1.232691    1.180885   -0.065055
      7          6           0        1.213911    1.252418   -0.019529
      8          6           0        2.559110   -0.852586    0.063680
      9          6           0        0.052387   -0.929866   -0.175118
     10          1           0        0.051592   -1.444026   -1.155447
     11          1           0        0.053660   -1.785452    0.510615
     12          6           0       -1.237537   -0.218705   -0.059652
     13          6           0       -2.399602   -1.085108    0.000157
     14          6           0        2.349516    2.217797    0.011150
     15          1           0        1.984951    3.240822   -0.079394
     16          1           0        2.916601    2.133783    0.935877
     17          1           0        3.048943    2.025222   -0.799151
     18          6           0        2.563235   -2.362076   -0.001043
     19          1           0        3.568241   -2.694745   -0.246497
     20          1           0        2.298360   -2.780730    0.972285
     21          1           0        1.866585   -2.767405   -0.731088
     22          6           0       -3.749587   -0.584402    0.452327
     23          1           0       -3.689300    0.222838    1.177120
     24          1           0       -4.334861   -0.234080   -0.400823
     25          1           0       -4.282191   -1.423731    0.895519
     26          6           0       -2.405941    2.102889   -0.125353
     27          1           0       -3.171544    1.725784   -0.798159
     28          1           0       -2.866645    2.254483    0.852473
     29          1           0       -2.100669    3.081745   -0.494887
 ---------------------------------------------------------------------
 Rotational constants (GHZ):           1.0710050           0.4894008           0.3423074
 Leave Link  202 at Sat Jan 24 17:13:29 2026, MaxMem=  2147483648 cpu:               0.0 elap:               0.0
 (Enter /data/home/wyx/g16/l301.exe)
 Standard basis: TZVP (5D, 7F)
 Ernie: Thresh=  0.10000D-02 Tol=  0.10000D-05 Strict=F.
 There are   370 symmetry adapted cartesian basis functions of A   symmetry.
 There are   356 symmetry adapted basis functions of A   symmetry.
   356 basis functions,   610 primitive gaussians,   370 cartesian basis functions
    52 alpha electrons       52 beta electrons
       nuclear repulsion energy       898.4344008727 Hartrees.
 IExCor=20419 DFT=T Ex+Corr=CAM-B3LYP ExCW=0 ScaHFX=  1.000000
 ScaDFX=  1.000000  1.000000  1.000000  0.810000 ScalE2=  1.000000  1.000000
 IRadAn=      5 IRanWt=     -1 IRanGd=            0 ICorTp=0 IEmpDi=141
 HFx  wShort=  0.000000 wLong=  0.330000 cFull=  0.190000 cShort=  0.000000 cLong=  0.460000
 DFx  wShort=  0.000000 wLong=  0.330000 cFull=  0.190000 cShort=  0.000000 cLong=  0.460000
 NAtoms=   29 NActive=   29 NUniq=   29 SFac= 1.00D+00 NAtFMM=   60 NAOKFM=F Big=F
 Integral buffers will be    131072 words long.
 Raffenetti 1 integral format.
 Two-electron integral symmetry is turned on.
 R6Disp:  Grimme-D3(BJ) Dispersion energy=       -0.0261075165 Hartrees.
 Nuclear repulsion after empirical dispersion term =      898.4082933562 Hartrees.
 ------------------------------------------------------------------------------
 Polarizable Continuum Model (PCM)
 =================================
 Model                : PCM.
 Atomic radii         : UFF (Universal Force Field).
 Polarization charges : Total charges.
 Charge compensation  : None.
 Solution method      : On-the-fly selection.
 Cavity type          : Scaled VdW (van der Waals Surface) (Alpha=1.100).
 Cavity algorithm     : GePol (No added spheres)
                        Default sphere list used, NSphG=   29.
                        Lebedev-Laikov grids with approx.  5.0 points / Ang**2.
                        Smoothing algorithm: York/Karplus (Gamma=1.0000).
                        Polarization charges: spherical gaussians, with
                                              point-specific exponents (IZeta= 3).
                        Self-potential: point-specific (ISelfS= 7).
                        Self-field    : sphere-specific E.n sum rule (ISelfD= 2).
 1st derivatives      : Analytical E(r).r(x)/FMM algorithm (CHGder, D1EAlg=3).
                        Cavity 1st derivative terms included.
 Solvent              : Water, Eps=  78.355300 Eps(inf)=   1.777849
 ------------------------------------------------------------------------------
 GePol: Number of generator spheres                  =      29
 GePol: Total number of spheres                      =      29
 GePol: Number of exposed spheres                    =      29 (100.00%)
 GePol: Number of points                             =    2099
 GePol: Average weight of points                     =       0.13
 GePol: Minimum weight of points                     =   0.28D-10
 GePol: Maximum weight of points                     =    0.20577
 GePol: Number of points with low weight             =     132
 GePol: Fraction of low-weight points (<1% of avg)   =       6.29%
 GePol: Cavity surface area                          =    269.832 Ang**2
 GePol: Cavity volume                                =    287.783 Ang**3
 Leave Link  301 at Sat Jan 24 17:13:29 2026, MaxMem=  2147483648 cpu:               0.6 elap:               0.0
 (Enter /data/home/wyx/g16/l302.exe)
 NPDir=0 NMtPBC=     1 NCelOv=     1 NCel=       1 NClECP=     1 NCelD=      1
         NCelK=      1 NCelE2=     1 NClLst=     1 CellRange=     0.0.
 One-electron integrals computed using PRISM.
 One-electron integral symmetry used in STVInt
 NBasis=   356 RedAO= T EigKep=  3.98D-05  NBF=   356
 NBsUse=   356 1.00D-06 EigRej= -1.00D+00 NBFU=   356
 Precomputing XC quadrature grid using
 IXCGrd= 4 IRadAn=           5 IRanWt=          -1 IRanGd=           0 AccXCQ= 0.00D+00.
 Generated NRdTot=       0 NPtTot=           0 NUsed=           0 NTot=          32
 NSgBfM=   366   366   366   366   366 MxSgAt=    29 MxSgA2=    29.
 Leave Link  302 at Sat Jan 24 17:13:29 2026, MaxMem=  2147483648 cpu:               3.1 elap:               0.2
 (Enter /data/home/wyx/g16/l303.exe)
 DipDrv:  MaxL=1.
 Leave Link  303 at Sat Jan 24 17:13:29 2026, MaxMem=  2147483648 cpu:               0.6 elap:               0.0
 (Enter /data/home/wyx/g16/l308.exe)
 Leave Link  308 at Sat Jan 24 17:13:30 2026, MaxMem=  2147483648 cpu:               0.7 elap:               0.1
 (Enter /data/home/wyx/g16/l401.exe)
 Initial guess from the checkpoint file:  "DDL-S2-cLR-1.chk"
 B after Tr=    -0.000000   -0.000000    0.000000
         Rot=    1.000000    0.000000   -0.000000    0.000000 Ang=   0.00 deg.
 Guess basis will be translated and rotated to current coordinates.
 JPrj=2 DoOrth=T DoCkMO=T.
 Leave Link  401 at Sat Jan 24 17:13:30 2026, MaxMem=  2147483648 cpu:               2.2 elap:               0.2
 (Enter /data/home/wyx/g16/l502.exe)
 Integral symmetry usage will be decided dynamically.
 Closed shell SCF:
 Using DIIS extrapolation, IDIIS=  1040.
 NGot=  2147483648 LenX=  2147200095 LenY=  2147062754
 Requested convergence on RMS density matrix=1.00D-08 within 128 cycles.
 Requested convergence on MAX density matrix=1.00D-06.
 Requested convergence on             energy=1.00D-06.
 No special actions if energy rises.
 Fock matrices will be formed incrementally for  20 cycles.

 Cycle   1  Pass 1  IDiag  1:
 FoFJK:  IHMeth= 1 ICntrl=       0 DoSepK=T KAlg= 0 I1Cent=           0 FoldK=F
 IRaf=         1 NMat=       1 IRICut=       1 DoRegI=T DoRafI=F ISym2E= 0 IDoP0=0 IntGTp=1.
 FoFCou: FMM=F IPFlag=           0 FMFlag=      100000 FMFlg1=           0
         NFxFlg=           0 DoJE=T BraDBF=F KetDBF=F FulRan=T
         wScrn=  0.000000 ICntrl=       500 IOpCl=  0 I1Cent=           0 NGrid=           0
         NMat0=    1 NMatS0=      1 NMatT0=    0 NMatD0=    1 NMtDS0=    0 NMtDT0=    0
 Symmetry not used in FoFCou.
 Inv3:  Mode=1 IEnd=    13217403.
 Iteration    1 A*A^-1 deviation from unit magnitude is 2.89D-15 for    981.
 Iteration    1 A*A^-1 deviation from orthogonality  is 1.84D-15 for   1016     99.
 Iteration    1 A^-1*A deviation from unit magnitude is 3.11D-15 for   1294.
 Iteration    1 A^-1*A deviation from orthogonality  is 3.95D-15 for   1393   1341.
 E= -633.322180045381    
 DIIS: error= 1.17D-08 at cycle   1 NSaved=   1.
 NSaved= 1 IEnMin= 1 EnMin= -633.322180045381     IErMin= 1 ErrMin= 1.17D-08
 ErrMax= 1.17D-08  0.00D+00 EMaxC= 1.00D-01 BMatC= 5.80D-14 BMatP= 5.80D-14
 IDIUse=1 WtCom= 1.00D+00 WtEn= 0.00D+00
 Coeff-Com:  0.100D+01
 Coeff:      0.100D+01
 Gap=     0.215 Goal=   None    Shift=    0.000
 RMSDP=3.44D-09 MaxDP=1.54D-07              OVMax= 1.47D-07

 Error on total polarization charges =  0.01558
 SCF Done:  E(RCAM-B3LYP) =  -633.322180045     A.U. after    1 cycles
            NFock=  1  Conv=0.34D-08     -V/T= 2.0044
 KE= 6.305772955724D+02 PE=-3.272687423350D+03 EE= 1.110379654376D+03
 Leave Link  502 at Sat Jan 24 17:13:36 2026, MaxMem=  2147483648 cpu:              85.3 elap:               5.6
 (Enter /data/home/wyx/g16/l801.exe)
 DoSCS=F DFT=T ScalE2(SS,OS)=  1.000000  1.000000
 ExpMin= 9.52D-02 ExpMax= 2.70D+04 ExpMxC= 9.22D+02 IAcc=3 IRadAn=         5 AccDes= 0.00D+00
 HarFok:  IExCor=  205 AccDes= 0.00D+00 IRadAn=         5 IDoV=-2 UseB2=F ITyADJ=14
 ICtDFT= 12500011 ScaDFX=  1.000000  1.000000  1.000000  1.000000
 Largest valence mixing into a core orbital is  5.58D-05
 Largest core mixing into a valence orbital is  1.14D-05
 Range of M.O.s used for correlation:    15   356
 NBasis=   356 NAE=    52 NBE=    52 NFC=    14 NFV=     0
 NROrb=    342 NOA=    38 NOB=    38 NVA=   304 NVB=   304

 **** Warning!!: The largest alpha MO coefficient is  0.61709885D+02

 Leave Link  801 at Sat Jan 24 17:13:36 2026, MaxMem=  2147483648 cpu:               1.0 elap:               0.1
 (Enter /data/home/wyx/g16/l914.exe)
 RHF ground state
 Two-electron integrals replicated using symmetry.
 MDV=  2147483648 DFT=T DoStab=F Mixed=T DoRPA=T DoScal=F NonHer=T
 NEqPCM:  Using equilibrium solvation (IEInf=0, Eps=  78.3553, EpsInf=   1.7778)
 Making orbital integer symmetry assigments:
 Orbital symmetries:
       Occupied  (A) (A) (A) (A) (A) (A) (A) (A) (A) (A) (A) (A)
                 (A) (A) (A) (A) (A) (A) (A) (A) (A) (A) (A) (A)
                 (A) (A) (A) (A) (A) (A) (A) (A) (A) (A) (A) (A)
                 (A) (A) (A) (A) (A) (A) (A) (A) (A) (A) (A) (A)
                 (A) (A) (A) (A)
       Virtual   (A) (A) (A) (A) (A) (A) (A) (A) (A) (A) (A) (A)
                 (A) (A) (A) (A) (A) (A) (A) (A) (A) (A) (A) (A)
                 (A) (A) (A) (A) (A) (A) (A) (A) (A) (A) (A) (A)
                 (A) (A) (A) (A) (A) (A) (A) (A) (A) (A) (A) (A)
                 (A) (A) (A) (A) (A) (A) (A) (A) (A) (A) (A) (A)
                 (A) (A) (A) (A) (A) (A) (A) (A) (A) (A) (A) (A)
                 (A) (A) (A) (A) (A) (A) (A) (A) (A) (A) (A) (A)
                 (A) (A) (A) (A) (A) (A) (A) (A) (A) (A) (A) (A)
                 (A) (A) (A) (A) (A) (A) (A) (A) (A) (A) (A) (A)
                 (A) (A) (A) (A) (A) (A) (A) (A) (A) (A) (A) (A)
                 (A) (A) (A) (A) (A) (A) (A) (A) (A) (A) (A) (A)
                 (A) (A) (A) (A) (A) (A) (A) (A) (A) (A) (A) (A)
                 (A) (A) (A) (A) (A) (A) (A) (A) (A) (A) (A) (A)
                 (A) (A) (A) (A) (A) (A) (A) (A) (A) (A) (A) (A)
                 (A) (A) (A) (A) (A) (A) (A) (A) (A) (A) (A) (A)
                 (A) (A) (A) (A) (A) (A) (A) (A) (A) (A) (A) (A)
                 (A) (A) (A) (A) (A) (A) (A) (A) (A) (A) (A) (A)
                 (A) (A) (A) (A) (A) (A) (A) (A) (A) (A) (A) (A)
                 (A) (A) (A) (A) (A) (A) (A) (A) (A) (A) (A) (A)
                 (A) (A) (A) (A) (A) (A) (A) (A) (A) (A) (A) (A)
                 (A) (A) (A) (A) (A) (A) (A) (A) (A) (A) (A) (A)
                 (A) (A) (A) (A) (A) (A) (A) (A) (A) (A) (A) (A)
                 (A) (A) (A) (A) (A) (A) (A) (A) (A) (A) (A) (A)
                 (A) (A) (A) (A) (A) (A) (A) (A) (A) (A) (A) (A)
                 (A) (A) (A) (A) (A) (A) (A) (A) (A) (A) (A) (A)
                 (A) (A) (A) (A)
 PCM Corrected Linear-Response:
 Compute the excitation energies in the ground state reaction field.
    24 initial guesses have been made.
 Convergence on wavefunction:    0.000001000000000
 Davidson Disk Diagonalization:  ConvIn= 1.00D-06 SkipCon=T Conv= 1.00D-06.
 Max sub-space:  2000 roots to seek:    24 dimension of matrix:        23104
 Iteration     1 Dimension    24 NMult     0 NNew     24
 CISAX will form    24 AO SS matrices at one time.
 NMat=    24 NSing=    24 JSym2X= 0.
 FoFJK:  IHMeth= 1 ICntrl=       0 DoSepK=T KAlg= 0 I1Cent=           0 FoldK=F
 IRaf=         1 NMat=      48 IRICut=       1 DoRegI=T DoRafI=F ISym2E= 0 IDoP0=3 IntGTp=3.
 FoFCou: FMM=F IPFlag=           0 FMFlag=      100000 FMFlg1=           0
         NFxFlg=           0 DoJE=F BraDBF=F KetDBF=F FulRan=T
         wScrn=  0.000000 ICntrl=       500 IOpCl=  0 I1Cent=           0 NGrid=           0
         NMat0=   24 NMatS0=     24 NMatT0=    0 NMatD0=   24 NMtDS0=    0 NMtDT0=    0
 Symmetry not used in FoFCou.
 New state      2 was old state      3
 New state      3 was old state      4
 New state      4 was old state      2
 New state      5 was old state      6
 New state      6 was old state      5
 Excitation Energies [eV] at current iteration:
 Root      1 :     3.471215741612067
 Root      2 :     4.159594770091170
 Root      3 :     4.381748437269457
 Root      4 :     5.254262150267325
 Root      5 :     5.921341876445637
 Root      6 :     6.240603950955289
 Root      7 :     6.544666526628436
 Root      8 :     6.717498531434312
 Root      9 :     6.851336412389714
 Root     10 :     6.950214622365372
 Root     11 :     7.067025449737428
 Root     12 :     7.233398559033574
 Root     13 :     7.270082877543632
 Root     14 :     7.333421521285356
 Root     15 :     7.682049506129648
 Root     16 :     7.868900451464459
 Root     17 :     7.964797370407005
 Root     18 :     8.104192031144745
 Root     19 :     8.147389080134474
 Root     20 :     8.321412840301889
 Root     21 :     8.399498986427474
 Root     22 :     8.541872316300223
 Root     23 :     8.751005327057156
 Root     24 :     8.917437055267452
 Iteration     2 Dimension    36 NMult    24 NNew     12
 CISAX will form    12 AO SS matrices at one time.
 NMat=    12 NSing=    12 JSym2X= 0.
 Root      1 not converged, maximum delta is    0.037475629070938
 Root      2 not converged, maximum delta is    0.075942663234027
 Root      3 not converged, maximum delta is    0.074712866855684
 Root      4 not converged, maximum delta is    0.163172673592075
 New state      5 was old state      6
 Root      5 not converged, maximum delta is    0.179623088677158
 New state      6 was old state      5
 Root      6 not converged, maximum delta is    0.075512016341373
 Excitation Energies [eV] at current iteration:
 Root      1 :     2.998266363211785   Change is   -0.472949378400282
 Root      2 :     3.949967267454032   Change is   -0.209627502637137
 Root      3 :     4.129967415213976   Change is   -0.251781022055481
 Root      4 :     4.945301966993135   Change is   -0.308960183274190
 Root      5 :     5.396953802007441   Change is   -0.843650148947848
 Root      6 :     5.817808092278707   Change is   -0.103533784166930
 Iteration     3 Dimension    48 NMult    36 NNew     12
 CISAX will form    12 AO SS matrices at one time.
 NMat=    12 NSing=    12 JSym2X= 0.
 Root      1 not converged, maximum delta is    0.006904446316794
 Root      2 not converged, maximum delta is    0.015376490052617
 Root      3 not converged, maximum delta is    0.010990164317901
 Root      4 not converged, maximum delta is    0.019144350514179
 Root      5 not converged, maximum delta is    0.023880536598713
 Root      6 not converged, maximum delta is    0.007798882075394
 Excitation Energies [eV] at current iteration:
 Root      1 :     2.978334722897221   Change is   -0.019931640314565
 Root      2 :     3.937640984868545   Change is   -0.012326282585487
 Root      3 :     4.116122979588030   Change is   -0.013844435625946
 Root      4 :     4.926259561550455   Change is   -0.019042405442680
 Root      5 :     5.358173139170551   Change is   -0.038780662836890
 Root      6 :     5.812803290646746   Change is   -0.005004801631962
 Iteration     4 Dimension    60 NMult    48 NNew     12
 CISAX will form    12 AO SS matrices at one time.
 NMat=    12 NSing=    12 JSym2X= 0.
 Root      1 not converged, maximum delta is    0.002031822856428
 Root      2 not converged, maximum delta is    0.001759527727737
 Root      3 not converged, maximum delta is    0.002069283727451
 Root      4 not converged, maximum delta is    0.002495098957535
 Root      5 not converged, maximum delta is    0.003884978835430
 Root      6 not converged, maximum delta is    0.002316611649694
 Excitation Energies [eV] at current iteration:
 Root      1 :     2.976924473871012   Change is   -0.001410249026209
 Root      2 :     3.937055426602915   Change is   -0.000585558265630
 Root      3 :     4.115115704769020   Change is   -0.001007274819009
 Root      4 :     4.924430985337960   Change is   -0.001828576212495
 Root      5 :     5.354115930590400   Change is   -0.004057208580151
 Root      6 :     5.812478615291016   Change is   -0.000324675355729
 Iteration     5 Dimension    72 NMult    60 NNew     12
 CISAX will form    12 AO SS matrices at one time.
 NMat=    12 NSing=    12 JSym2X= 0.
 Root      1 not converged, maximum delta is    0.000730647206602
 Root      2 not converged, maximum delta is    0.000380174245577
 Root      3 not converged, maximum delta is    0.000474699907555
 Root      4 not converged, maximum delta is    0.000543363171149
 Root      5 not converged, maximum delta is    0.001298334027052
 Root      6 not converged, maximum delta is    0.000410766154439
 Excitation Energies [eV] at current iteration:
 Root      1 :     2.976841555757678   Change is   -0.000082918113334
 Root      2 :     3.937005415081878   Change is   -0.000050011521037
 Root      3 :     4.115069639861395   Change is   -0.000046064907625
 Root      4 :     4.924299459092389   Change is   -0.000131526245571
 Root      5 :     5.353793557396675   Change is   -0.000322373193725
 Root      6 :     5.812453853427209   Change is   -0.000024761863807
 Iteration     6 Dimension    84 NMult    72 NNew     12
 CISAX will form    12 AO SS matrices at one time.
 NMat=    12 NSing=    12 JSym2X= 0.
 Root      1 not converged, maximum delta is    0.000124372083545
 Root      2 not converged, maximum delta is    0.000108539728798
 Root      3 not converged, maximum delta is    0.000086165359830
 Root      4 not converged, maximum delta is    0.000163582881856
 Root      5 not converged, maximum delta is    0.000658578970969
 Root      6 not converged, maximum delta is    0.000137139840544
 Excitation Energies [eV] at current iteration:
 Root      1 :     2.976837670241184   Change is   -0.000003885516494
 Root      2 :     3.937002730596681   Change is   -0.000002684485198
 Root      3 :     4.115066972290904   Change is   -0.000002667570491
 Root      4 :     4.924290937811964   Change is   -0.000008521280424
 Root      5 :     5.353764780139444   Change is   -0.000028777257231
 Root      6 :     5.812451578442248   Change is   -0.000002274984961
 Iteration     7 Dimension    96 NMult    84 NNew     12
 CISAX will form    12 AO SS matrices at one time.
 NMat=    12 NSing=    12 JSym2X= 0.
 Root      1 not converged, maximum delta is    0.000011326903237
 Root      2 not converged, maximum delta is    0.000026222521035
 Root      3 not converged, maximum delta is    0.000025820924028
 Root      4 not converged, maximum delta is    0.000043236740733
 Root      5 not converged, maximum delta is    0.000282471312754
 Root      6 not converged, maximum delta is    0.000059534380498
 Excitation Energies [eV] at current iteration:
 Root      1 :     2.976837489885616   Change is   -0.000000180355567
 Root      2 :     3.937002586888226   Change is   -0.000000143708455
 Root      3 :     4.115066808710536   Change is   -0.000000163580369
 Root      4 :     4.924290344371152   Change is   -0.000000593440812
 Root      5 :     5.353761417939997   Change is   -0.000003362199447
 Root      6 :     5.812451376353555   Change is   -0.000000202088693
 Iteration     8 Dimension   108 NMult    96 NNew     12
 CISAX will form    12 AO SS matrices at one time.
 NMat=    12 NSing=    12 JSym2X= 0.
 Root      1 not converged, maximum delta is    0.000002166805017
 Root      2 not converged, maximum delta is    0.000003036418702
 Root      3 not converged, maximum delta is    0.000003104878719
 Root      4 not converged, maximum delta is    0.000018536459636
 Root      5 not converged, maximum delta is    0.000041700724220
 Root      6 not converged, maximum delta is    0.000015364932559
 Excitation Energies [eV] at current iteration:
 Root      1 :     2.976837484471637   Change is   -0.000000005413979
 Root      2 :     3.937002580192964   Change is   -0.000000006695262
 Root      3 :     4.115066800651454   Change is   -0.000000008059082
 Root      4 :     4.924290295876035   Change is   -0.000000048495118
 Root      5 :     5.353761187421534   Change is   -0.000000230518463
 Root      6 :     5.812451356627193   Change is   -0.000000019726362
 Iteration     9 Dimension   120 NMult   108 NNew     12
 CISAX will form    12 AO SS matrices at one time.
 NMat=    12 NSing=    12 JSym2X= 0.
 Root      1 has converged.
 Root      2 has converged.
 Root      3 has converged.
 Root      4 not converged, maximum delta is    0.000003346762435
 Root      5 not converged, maximum delta is    0.000004915461917
 Root      6 not converged, maximum delta is    0.000004085439998
 Excitation Energies [eV] at current iteration:
 Root      1 :     2.976837484323617   Change is   -0.000000000148020
 Root      2 :     3.937002579917317   Change is   -0.000000000275646
 Root      3 :     4.115066800393069   Change is   -0.000000000258385
 Root      4 :     4.924290293394161   Change is   -0.000000002481873
 Root      5 :     5.353761176299454   Change is   -0.000000011122080
 Root      6 :     5.812451355092428   Change is   -0.000000001534765
 Iteration    10 Dimension   126 NMult   120 NNew      6
 CISAX will form     6 AO SS matrices at one time.
 NMat=     6 NSing=     6 JSym2X= 0.
 Root      1 has converged.
 Root      2 has converged.
 Root      3 has converged.
 Root      4 has converged.
 Root      5 not converged, maximum delta is    0.000001151657371
 Root      6 has converged.
 Excitation Energies [eV] at current iteration:
 Root      1 :     2.976837484323285   Change is   -0.000000000000331
 Root      2 :     3.937002579916147   Change is   -0.000000000001170
 Root      3 :     4.115066800392009   Change is   -0.000000000001059
 Root      4 :     4.924290293286484   Change is   -0.000000000107678
 Root      5 :     5.353761175778748   Change is   -0.000000000520706
 Root      6 :     5.812451354996648   Change is   -0.000000000095779
 Iteration    11 Dimension   128 NMult   126 NNew      2
 CISAX will form     2 AO SS matrices at one time.
 NMat=     2 NSing=     2 JSym2X= 0.
 Root      1 has converged.
 Root      2 has converged.
 Root      3 has converged.
 Root      4 has converged.
 Root      5 has converged.
 Root      6 has converged.
 Excitation Energies [eV] at current iteration:
 Root      1 :     2.976837484323202   Change is   -0.000000000000083
 Root      2 :     3.937002579916147   Change is    0.000000000000000
 Root      3 :     4.115066800391969   Change is   -0.000000000000040
 Root      4 :     4.924290293285733   Change is   -0.000000000000751
 Root      5 :     5.353761175756022   Change is   -0.000000000022726
 Root      6 :     5.812451354996337   Change is   -0.000000000000311
 Convergence achieved on expansion vectors.
 PCM Corrected Linear-Response:
 The state of interest is root number   2
 Excitation energy =    3.9370 eV, Total energy =  -633.177497863    
 Recompute the excitation energies using the linear response reaction field.
 Convergence on wavefunction:    0.000001000000000
 Davidson Disk Diagonalization:  ConvIn= 1.00D-06 SkipCon=T Conv= 1.00D-06.
 Max sub-space:  2000 roots to seek:     6 dimension of matrix:        23104
 Iteration     1 Dimension     6 NMult     0 NNew      6
 CISAX will form     6 AO SS matrices at one time.
 NMat=     6 NSing=     6 JSym2X= 0.
 Excitation Energies [eV] at current iteration:
 Root      1 :     3.072759358634705
 Root      2 :     3.961283204806976
 Root      3 :     4.139982857008261
 Root      4 :     4.988406177937368
 Root      5 :     5.509542159408755
 Root      6 :     5.771010770330446
 Iteration     2 Dimension    18 NMult     6 NNew     12
 CISAX will form    12 AO SS matrices at one time.
 NMat=    12 NSing=    12 JSym2X= 0.
 Root      1 not converged, maximum delta is    0.021919460627087
 Root      2 not converged, maximum delta is    0.002204814147472
 Root      3 not converged, maximum delta is    0.006456139543756
 Root      4 not converged, maximum delta is    0.208663967142564
 Root      5 not converged, maximum delta is    0.301812466870876
 Root      6 not converged, maximum delta is    0.049638083691503
 Excitation Energies [eV] at current iteration:
 Root      1 :     2.831724222282720   Change is   -0.241035136351985
 Root      2 :     3.932017913116972   Change is   -0.029265291690004
 Root      3 :     4.108813101384095   Change is   -0.031169755624165
 Root      4 :     4.759133180378535   Change is   -0.229272997558833
 Root      5 :     5.198178123638906   Change is   -0.311364035769850
 Root      6 :     5.749705924636361   Change is   -0.021304845694086
 Iteration     3 Dimension    30 NMult    18 NNew     12
 CISAX will form    12 AO SS matrices at one time.
 NMat=    12 NSing=    12 JSym2X= 0.
 Root      1 not converged, maximum delta is    0.002421725196930
 Root      2 not converged, maximum delta is    0.001063271451450
 Root      3 not converged, maximum delta is    0.001330935359673
 Root      4 not converged, maximum delta is    0.011336203764815
 Root      5 not converged, maximum delta is    0.016824600726819
 Root      6 not converged, maximum delta is    0.008100707959895
 Excitation Energies [eV] at current iteration:
 Root      1 :     2.828308778395640   Change is   -0.003415443887080
 Root      2 :     3.931702448543385   Change is   -0.000315464573588
 Root      3 :     4.108444944873769   Change is   -0.000368156510327
 Root      4 :     4.749309026231590   Change is   -0.009824154146945
 Root      5 :     5.188792271111535   Change is   -0.009385852527370
 Root      6 :     5.747892210463938   Change is   -0.001813714172423
 Iteration     4 Dimension    42 NMult    30 NNew     12
 CISAX will form    12 AO SS matrices at one time.
 NMat=    12 NSing=    12 JSym2X= 0.
 Root      1 not converged, maximum delta is    0.001651762295129
 Root      2 not converged, maximum delta is    0.000227585209892
 Root      3 not converged, maximum delta is    0.000256135986120
 Root      4 not converged, maximum delta is    0.004033250729905
 Root      5 not converged, maximum delta is    0.006430303108370
 Root      6 not converged, maximum delta is    0.008594718944861
 Excitation Energies [eV] at current iteration:
 Root      1 :     2.827915283208595   Change is   -0.000393495187045
 Root      2 :     3.931686810568271   Change is   -0.000015637975113
 Root      3 :     4.108422747837667   Change is   -0.000022197036101
 Root      4 :     4.747477206702446   Change is   -0.001831819529144
 Root      5 :     5.186983439488094   Change is   -0.001808831623441
 Root      6 :     5.747353621912500   Change is   -0.000538588551438
 Iteration     5 Dimension    54 NMult    42 NNew     12
 CISAX will form    12 AO SS matrices at one time.
 NMat=    12 NSing=    12 JSym2X= 0.
 Root      1 not converged, maximum delta is    0.000275592160023
 Root      2 not converged, maximum delta is    0.000098964041149
 Root      3 not converged, maximum delta is    0.000092875771508
 Root      4 not converged, maximum delta is    0.000660944638552
 Root      5 not converged, maximum delta is    0.000659940802738
 Root      6 not converged, maximum delta is    0.003453380571474
 Excitation Energies [eV] at current iteration:
 Root      1 :     2.827889409674093   Change is   -0.000025873534502
 Root      2 :     3.931685719051652   Change is   -0.000001091516619
 Root      3 :     4.108420738350328   Change is   -0.000002009487339
 Root      4 :     4.747314438718528   Change is   -0.000162767983918
 Root      5 :     5.186818825328348   Change is   -0.000164614159747
 Root      6 :     5.747248860471537   Change is   -0.000104761440964
 Iteration     6 Dimension    66 NMult    54 NNew     12
 CISAX will form    12 AO SS matrices at one time.
 NMat=    12 NSing=    12 JSym2X= 0.
 Root      1 not converged, maximum delta is    0.000055935883709
 Root      2 not converged, maximum delta is    0.000021650728554
 Root      3 not converged, maximum delta is    0.000028882858599
 Root      4 not converged, maximum delta is    0.000226527366552
 Root      5 not converged, maximum delta is    0.000231315080538
 Root      6 not converged, maximum delta is    0.000930760375331
 Excitation Energies [eV] at current iteration:
 Root      1 :     2.827887975294824   Change is   -0.000001434379268
 Root      2 :     3.931685630342818   Change is   -0.000000088708834
 Root      3 :     4.108420580553732   Change is   -0.000000157796597
 Root      4 :     4.747299136633687   Change is   -0.000015302084842
 Root      5 :     5.186804232192031   Change is   -0.000014593136316
 Root      6 :     5.747232924059706   Change is   -0.000015936411831
 Iteration     7 Dimension    78 NMult    66 NNew     12
 CISAX will form    12 AO SS matrices at one time.
 NMat=    12 NSing=    12 JSym2X= 0.
 Root      1 not converged, maximum delta is    0.000012603173968
 Root      2 not converged, maximum delta is    0.000005242489599
 Root      3 not converged, maximum delta is    0.000005331007479
 Root      4 not converged, maximum delta is    0.000113416234185
 Root      5 not converged, maximum delta is    0.000086728777355
 Root      6 not converged, maximum delta is    0.000179724262075
 Excitation Energies [eV] at current iteration:
 Root      1 :     2.827887921155077   Change is   -0.000000054139748
 Root      2 :     3.931685625378254   Change is   -0.000000004964564
 Root      3 :     4.108420572998578   Change is   -0.000000007555154
 Root      4 :     4.747298149239820   Change is   -0.000000987393867
 Root      5 :     5.186803259075435   Change is   -0.000000973116597
 Root      6 :     5.747231319330719   Change is   -0.000001604728986
 Iteration     8 Dimension    90 NMult    78 NNew     12
 CISAX will form    12 AO SS matrices at one time.
 NMat=    12 NSing=    12 JSym2X= 0.
 Root      1 not converged, maximum delta is    0.000003853295885
 Root      2 not converged, maximum delta is    0.000001205515024
 Root      3 not converged, maximum delta is    0.000001266337255
 Root      4 not converged, maximum delta is    0.000022460404729
 Root      5 not converged, maximum delta is    0.000032830908326
 Root      6 not converged, maximum delta is    0.000076880977212
 Excitation Energies [eV] at current iteration:
 Root      1 :     2.827887918599857   Change is   -0.000000002555220
 Root      2 :     3.931685625195196   Change is   -0.000000000183058
 Root      3 :     4.108420572489496   Change is   -0.000000000509082
 Root      4 :     4.747298081106104   Change is   -0.000000068133716
 Root      5 :     5.186803162330080   Change is   -0.000000096745355
 Root      6 :     5.747231097855446   Change is   -0.000000221475274
 Iteration     9 Dimension   102 NMult    90 NNew     12
 CISAX will form    12 AO SS matrices at one time.
 NMat=    12 NSing=    12 JSym2X= 0.
 Root      1 has converged.
 Root      2 has converged.
 Root      3 has converged.
 Root      4 not converged, maximum delta is    0.000006481341289
 Root      5 not converged, maximum delta is    0.000008908699932
 Root      6 not converged, maximum delta is    0.000025614185043
 Excitation Energies [eV] at current iteration:
 Root      1 :     2.827887918512878   Change is   -0.000000000086979
 Root      2 :     3.931685625187188   Change is   -0.000000000008008
 Root      3 :     4.108420572461362   Change is   -0.000000000028134
 Root      4 :     4.747298077399777   Change is   -0.000000003706326
 Root      5 :     5.186803154792125   Change is   -0.000000007537956
 Root      6 :     5.747231070353323   Change is   -0.000000027502122
 Iteration    10 Dimension   108 NMult   102 NNew      6
 CISAX will form     6 AO SS matrices at one time.
 NMat=     6 NSing=     6 JSym2X= 0.
 Root      1 has converged.
 Root      2 has converged.
 Root      3 has converged.
 Root      4 not converged, maximum delta is    0.000001856159448
 Root      5 not converged, maximum delta is    0.000003382796163
 Root      6 not converged, maximum delta is    0.000007432978254
 Excitation Energies [eV] at current iteration:
 Root      1 :     2.827887918512151   Change is   -0.000000000000727
 Root      2 :     3.931685625187063   Change is   -0.000000000000125
 Root      3 :     4.108420572460962   Change is   -0.000000000000400
 Root      4 :     4.747298077186522   Change is   -0.000000000213255
 Root      5 :     5.186803154199105   Change is   -0.000000000593020
 Root      6 :     5.747231067549454   Change is   -0.000000002803869
 Iteration    11 Dimension   114 NMult   108 NNew      6
 CISAX will form     6 AO SS matrices at one time.
 NMat=     6 NSing=     6 JSym2X= 0.
 Root      1 has converged.
 Root      2 has converged.
 Root      3 has converged.
 Root      4 has converged.
 Root      5 has converged.
 Root      6 not converged, maximum delta is    0.000001751777208
 Excitation Energies [eV] at current iteration:
 Root      1 :     2.827887918512093   Change is   -0.000000000000058
 Root      2 :     3.931685625187063   Change is    0.000000000000000
 Root      3 :     4.108420572460922   Change is   -0.000000000000040
 Root      4 :     4.747298077173257   Change is   -0.000000000013265
 Root      5 :     5.186803154153775   Change is   -0.000000000045330
 Root      6 :     5.747231067316788   Change is   -0.000000000232666
 Iteration    12 Dimension   116 NMult   114 NNew      2
 CISAX will form     2 AO SS matrices at one time.
 NMat=     2 NSing=     2 JSym2X= 0.
 Root      1 has converged.
 Root      2 has converged.
 Root      3 has converged.
 Root      4 has converged.
 Root      5 has converged.
 Root      6 has converged.
 Excitation Energies [eV] at current iteration:
 Root      1 :     2.827887918512122   Change is    0.000000000000029
 Root      2 :     3.931685625187063   Change is    0.000000000000000
 Root      3 :     4.108420572460862   Change is   -0.000000000000060
 Root      4 :     4.747298077173309   Change is    0.000000000000052
 Root      5 :     5.186803154153633   Change is   -0.000000000000143
 Root      6 :     5.747231067298722   Change is   -0.000000000018066
 Convergence achieved on expansion vectors.
 ***********************************************************************
 Excited states from <AA,BB:AA,BB> singles matrix:
 ***********************************************************************
 
 1PDM for each excited state written to RWF  633
 Ground to excited state transition densities written to RWF  633
 Ground to excited state transition electric dipole moments (Au):
       state          X           Y           Z        Dip. S.      Osc.
         1        -1.7273     -0.2035     -0.0533      3.0277      0.2098
         2        -0.0008     -0.0493      0.0347      0.0036      0.0004
         3        -0.0692     -0.1190      0.0236      0.0195      0.0020
         4        -0.2086      1.9516     -0.0420      3.8540      0.4482
         5         0.0805     -1.4913     -0.0101      2.2305      0.2834
         6         0.0210     -0.2329     -0.0309      0.0556      0.0078
 Ground to excited state transition velocity dipole moments (Au):
       state          X           Y           Z        Dip. S.      Osc.
         1         0.1732      0.0173      0.0057      0.0303      0.1946
         2         0.0002      0.0073     -0.0016      0.0001      0.0003
         3         0.0096      0.0153     -0.0003      0.0003      0.0014
         4         0.0415     -0.3259      0.0048      0.1080      0.4125
         5        -0.0151      0.2793      0.0008      0.0782      0.2736
         6        -0.0058      0.0471      0.0268      0.0030      0.0094
 Ground to excited state transition magnetic dipole moments (Au):
       state          X           Y           Z
         1         0.0157      0.0590     -1.4649
         2         0.7834      0.1174      0.0794
         3        -0.1879     -0.9609     -0.2257
         4        -0.0248     -0.0745      0.1058
         5         0.0933      0.1017     -0.2528
         6        -0.1642     -0.0307      0.0633
 Ground to excited state transition velocity quadrupole moments (Au):
       state          XX          YY          ZZ          XY          XZ          YZ
         1         0.1812     -0.0957     -0.0061     -0.4838      0.0260     -0.0197
         2         0.0240     -0.0093     -0.0100      0.0089     -0.0064      0.0793
         3         0.0324     -0.0060     -0.0190     -0.0710      0.0635     -0.0104
         4         1.4157     -0.2899     -0.0205      0.1126      0.0771      0.0243
         5        -0.3171      0.2701      0.0259     -0.2153     -0.0523     -0.0007
         6         0.1681      0.1611     -0.1291      0.0247      0.0360     -0.2022
 <0|del|b> * <b|rxdel|0> + <0|del|b> * <b|delr+rdel|0>
 Rotatory Strengths (R) in cgs (10**-40 erg-esu-cm/Gauss)
       state          XX          YY          ZZ    R(velocity)    E-M Angle
         1       -35.8651    -21.3492     25.8845    -10.4433       91.03
         2         1.8679      0.2280      2.4049      1.5003       81.15
         3       -36.5811     -4.3565    -36.2060    -25.7145      154.98
         4       102.2608     -0.1014     -5.7933     32.1221       56.70
         5        79.0608     -2.6503     22.9766     33.1291       70.58
         6        -1.3202      5.2975      0.0456      1.3410       82.91
 1/2[<0|r|b>*<b|rxdel|0> + (<0|rxdel|b>*<b|r|0>)*]
 Rotatory Strengths (R) in cgs (10**-40 erg-esu-cm/Gauss)
       state          XX          YY          ZZ     R(length)
         1        19.2343      8.4941    -55.1944     -9.1553
         2         0.4367      4.0938     -1.9490      0.8605
         3        -9.1993    -80.8811      3.7634    -28.7723
         4        -3.6518    102.8753      3.1409     34.1215
         5        -5.3086    107.2469     -1.8052     33.3777
         6         2.4361     -5.0617      1.3832     -0.4142
  1/2[<0|del|b>*<b|r|0> + (<0|r|b>*<b|del|0>)*] (Au)
       state          X           Y           Z        Dip. S.   Osc.(frdel)
         1        -0.2992     -0.0035     -0.0003      0.3030      0.2020
         2        -0.0000     -0.0004     -0.0001      0.0004      0.0003
         3        -0.0007     -0.0018     -0.0000      0.0025      0.0017
         4        -0.0087     -0.6360     -0.0002      0.6449      0.4299
         5        -0.0012     -0.4165     -0.0000      0.4177      0.2785
         6        -0.0001     -0.0110     -0.0008      0.0119      0.0079

 Excitation energies and oscillator strengths:
 
 Excited State   1:      Singlet-A      2.8279 eV  438.43 nm  f=0.2098  <S**2>=0.000
      52 -> 53         0.70168
 
 Excited State   2:      Singlet-A      3.9317 eV  315.35 nm  f=0.0004  <S**2>=0.000
      50 -> 54        -0.15670
      51 -> 53         0.59046
      51 -> 54         0.30420
 This state for optimization and/or second-order correction.
 Total Energy, E(TD-HF/TD-DFT) =  -633.177693257    
 Copying the excited state density for this state as the 1-particle RhoCI density.
 
 Excited State   3:      Singlet-A      4.1084 eV  301.78 nm  f=0.0020  <S**2>=0.000
      49 -> 53        -0.39556
      49 -> 54         0.21289
      50 -> 53         0.44276
      50 -> 54        -0.18812
      51 -> 54        -0.19646
 
 Excited State   4:      Singlet-A      4.7473 eV  261.17 nm  f=0.4482  <S**2>=0.000
      49 -> 53        -0.10156
      52 -> 54         0.68726
 
 Excited State   5:      Singlet-A      5.1868 eV  239.04 nm  f=0.2834  <S**2>=0.000
      49 -> 53         0.50288
      50 -> 53         0.45228
      51 -> 53         0.10352
      52 -> 54         0.13716
 
 Excited State   6:      Singlet-A      5.7472 eV  215.73 nm  f=0.0078  <S**2>=0.000
      52 -> 55         0.65278
      52 -> 56         0.18572
      52 -> 62        -0.10888
 SavETr:  write IOETrn=   770 NScale= 10 NData=  16 NLR=1 NState=    6 LETran=     118.
 The selected state is a singlet.
 CISGrd: IGrad=1 NXY=2 DFT=T
 CISAX will form     1 AO SS matrices at one time.
 NMat=     1 NSing=     1 JSym2X= 0.
 Leave Link  914 at Sat Jan 24 17:21:34 2026, MaxMem=  2147483648 cpu:            7626.4 elap:             478.3
 (Enter /data/home/wyx/g16/l1002.exe)
 Minotr:  Closed shell wavefunction.
          Computing CIS/TDA/TD derivatives.
          Using Z-Vector for PSCF gradient.
          Skipping F1 and S1 gradient terms here.
 NEqPCM:  Using equilibrium solvation (IEInf=0, Eps=  78.3553, EpsInf=   1.7778)
          Frozen-core window.
          Direct CPHF calculation.
          Differentiating once with respect to electric field.
                with respect to dipole field.
          Electric field/nuclear overlap derivatives assumed to be zero.
          Requested convergence is 1.0D-10 RMS, and 1.0D-09 maximum.
          NewPWx=F KeepS1=T KeepF1=T KeepIn=T MapXYZ=F SortEE=F KeepMc=T.
 Two-electron integral symmetry used by symmetrizing perturbed Fock matrices.
          MDV=    2147483648 using IRadAn=       5.
          Solving linear equations separately, MaxMat=     384.
          There are     1 degrees of freedom in the 1st order CPHF.  IDoFFX=0 NUNeed=     1.
 FoFJK:  IHMeth= 1 ICntrl=       0 DoSepK=T KAlg= 0 I1Cent=           0 FoldK=F
 IRaf=         1 NMat=       1 IRICut=       1 DoRegI=T DoRafI=F ISym2E=-1 IDoP0=0 IntGTp=1.
 FoFCou: FMM=F IPFlag=           0 FMFlag=      100000 FMFlg1=           0
         NFxFlg=           0 DoJE=T BraDBF=F KetDBF=F FulRan=T
         wScrn=  0.000000 ICntrl=       500 IOpCl=  0 I1Cent=           0 NGrid=           0
         NMat0=    1 NMatS0=      1 NMatT0=    0 NMatD0=    1 NMtDS0=    0 NMtDT0=    0
 Petite list used in FoFCou.
 LinEq1:  Iter=  0 NonCon=     1 RMS=8.31D-03 Max=3.73D-01 NDo=     1
 AX will form     1 AO Fock derivatives at one time.
 LinEq1:  Iter=  1 NonCon=     1 RMS=2.28D-03 Max=1.11D-01 NDo=     1
 LinEq1:  Iter=  2 NonCon=     1 RMS=1.64D-03 Max=1.02D-01 NDo=     1
 LinEq1:  Iter=  3 NonCon=     1 RMS=6.70D-04 Max=3.47D-02 NDo=     1
 LinEq1:  Iter=  4 NonCon=     1 RMS=3.63D-04 Max=1.59D-02 NDo=     1
 LinEq1:  Iter=  5 NonCon=     1 RMS=1.90D-04 Max=9.96D-03 NDo=     1
 LinEq1:  Iter=  6 NonCon=     1 RMS=9.70D-05 Max=3.20D-03 NDo=     1
 LinEq1:  Iter=  7 NonCon=     1 RMS=5.78D-05 Max=2.31D-03 NDo=     1
 LinEq1:  Iter=  8 NonCon=     1 RMS=2.67D-05 Max=9.49D-04 NDo=     1
 LinEq1:  Iter=  9 NonCon=     1 RMS=1.92D-05 Max=8.97D-04 NDo=     1
 LinEq1:  Iter= 10 NonCon=     1 RMS=7.85D-06 Max=1.69D-04 NDo=     1
 LinEq1:  Iter= 11 NonCon=     1 RMS=4.65D-06 Max=1.55D-04 NDo=     1
 LinEq1:  Iter= 12 NonCon=     1 RMS=1.45D-06 Max=4.80D-05 NDo=     1
 LinEq1:  Iter= 13 NonCon=     1 RMS=6.96D-07 Max=1.52D-05 NDo=     1
 LinEq1:  Iter= 14 NonCon=     1 RMS=2.53D-07 Max=6.54D-06 NDo=     1
 LinEq1:  Iter= 15 NonCon=     1 RMS=1.07D-07 Max=2.33D-06 NDo=     1
 LinEq1:  Iter= 16 NonCon=     1 RMS=3.36D-08 Max=1.00D-06 NDo=     1
 LinEq1:  Iter= 17 NonCon=     1 RMS=1.26D-08 Max=3.16D-07 NDo=     1
 LinEq1:  Iter= 18 NonCon=     1 RMS=5.21D-09 Max=1.73D-07 NDo=     1
 LinEq1:  Iter= 19 NonCon=     1 RMS=1.63D-09 Max=7.17D-08 NDo=     1
 LinEq1:  Iter= 20 NonCon=     1 RMS=5.49D-10 Max=2.24D-08 NDo=     1
 LinEq1:  Iter= 21 NonCon=     1 RMS=2.65D-10 Max=7.49D-09 NDo=     1
 LinEq1:  Iter= 22 NonCon=     1 RMS=9.65D-11 Max=2.33D-09 NDo=     1
 LinEq1:  Iter= 23 NonCon=     0 RMS=2.42D-11 Max=5.05D-10 NDo=     1
 Linear equations converged to 1.000D-10 1.000D-09 after    23 iterations.
 PCM Corrected Linear-Response - Equilibrium solvation:
 Corrected transition energy               =    3.8184          eV
 Total energy after correction             = -633.181854600     a.u.
 NEqPCM:  Using non-equilibrium solvation (IEInf=1, Eps=  78.3553, EpsInf=   1.7778)
 Inv3:  Mode=1 IEnd=    13217403.
 Iteration    1 A*A^-1 deviation from unit magnitude is 3.44D-15 for    422.
 Iteration    1 A*A^-1 deviation from orthogonality  is 2.11D-15 for   1820    207.
 Iteration    1 A^-1*A deviation from unit magnitude is 3.55D-15 for   1462.
 Iteration    1 A^-1*A deviation from orthogonality  is 3.51D-15 for   1372   1341.
 NEqSol: Computing the dynamic-inertial partition of the PCM polarization charges.
 End of Minotr F.D. properties file   721 does not exist.
 End of Minotr F.D. properties file   722 does not exist.
 End of Minotr F.D. properties file   788 does not exist.
 Leave Link 1002 at Sat Jan 24 17:23:35 2026, MaxMem=  2147483648 cpu:            1904.0 elap:             119.8
 (Enter /data/home/wyx/g16/l601.exe)
 Copying SCF densities to generalized density rwf, IOpCl= 0 IROHF=0.

 **********************************************************************

            Population analysis using the CI density.

 **********************************************************************

 Orbital symmetries:
       Occupied  (A) (A) (A) (A) (A) (A) (A) (A) (A) (A) (A) (A)
                 (A) (A) (A) (A) (A) (A) (A) (A) (A) (A) (A) (A)
                 (A) (A) (A) (A) (A) (A) (A) (A) (A) (A) (A) (A)
                 (A) (A) (A) (A) (A) (A) (A) (A) (A) (A) (A) (A)
                 (A) (A) (A) (A)
       Virtual   (A) (A) (A) (A) (A) (A) (A) (A) (A) (A) (A) (A)
                 (A) (A) (A) (A) (A) (A) (A) (A) (A) (A) (A) (A)
                 (A) (A) (A) (A) (A) (A) (A) (A) (A) (A) (A) (A)
                 (A) (A) (A) (A) (A) (A) (A) (A) (A) (A) (A) (A)
                 (A) (A) (A) (A) (A) (A) (A) (A) (A) (A) (A) (A)
                 (A) (A) (A) (A) (A) (A) (A) (A) (A) (A) (A) (A)
                 (A) (A) (A) (A) (A) (A) (A) (A) (A) (A) (A) (A)
                 (A) (A) (A) (A) (A) (A) (A) (A) (A) (A) (A) (A)
                 (A) (A) (A) (A) (A) (A) (A) (A) (A) (A) (A) (A)
                 (A) (A) (A) (A) (A) (A) (A) (A) (A) (A) (A) (A)
                 (A) (A) (A) (A) (A) (A) (A) (A) (A) (A) (A) (A)
                 (A) (A) (A) (A) (A) (A) (A) (A) (A) (A) (A) (A)
                 (A) (A) (A) (A) (A) (A) (A) (A) (A) (A) (A) (A)
                 (A) (A) (A) (A) (A) (A) (A) (A) (A) (A) (A) (A)
                 (A) (A) (A) (A) (A) (A) (A) (A) (A) (A) (A) (A)
                 (A) (A) (A) (A) (A) (A) (A) (A) (A) (A) (A) (A)
                 (A) (A) (A) (A) (A) (A) (A) (A) (A) (A) (A) (A)
                 (A) (A) (A) (A) (A) (A) (A) (A) (A) (A) (A) (A)
                 (A) (A) (A) (A) (A) (A) (A) (A) (A) (A) (A) (A)
                 (A) (A) (A) (A) (A) (A) (A) (A) (A) (A) (A) (A)
                 (A) (A) (A) (A) (A) (A) (A) (A) (A) (A) (A) (A)
                 (A) (A) (A) (A) (A) (A) (A) (A) (A) (A) (A) (A)
                 (A) (A) (A) (A) (A) (A) (A) (A) (A) (A) (A) (A)
                 (A) (A) (A) (A) (A) (A) (A) (A) (A) (A) (A) (A)
                 (A) (A) (A) (A) (A) (A) (A) (A) (A) (A) (A) (A)
                 (A) (A) (A) (A)
 The electronic state is 1-A.
 Alpha  occ. eigenvalues --  -19.17915 -19.17089 -14.44848 -10.33449 -10.32994
 Alpha  occ. eigenvalues --  -10.32966 -10.32469 -10.25945 -10.25427 -10.25106
 Alpha  occ. eigenvalues --  -10.24833 -10.24540 -10.24134 -10.23841  -1.11320
 Alpha  occ. eigenvalues --   -1.10791  -1.08583  -0.91383  -0.90597  -0.83983
 Alpha  occ. eigenvalues --   -0.82612  -0.81636  -0.78530  -0.73772  -0.72265
 Alpha  occ. eigenvalues --   -0.68782  -0.61597  -0.58268  -0.57081  -0.55132
 Alpha  occ. eigenvalues --   -0.54556  -0.54040  -0.52492  -0.51723  -0.50865
 Alpha  occ. eigenvalues --   -0.49776  -0.49485  -0.49299  -0.48523  -0.48025
 Alpha  occ. eigenvalues --   -0.47223  -0.45259  -0.45201  -0.44001  -0.43313
 Alpha  occ. eigenvalues --   -0.42207  -0.42091  -0.41558  -0.32640  -0.32264
 Alpha  occ. eigenvalues --   -0.31359  -0.25070
 Alpha virt. eigenvalues --   -0.03551   0.02406   0.06467   0.08183   0.08644
 Alpha virt. eigenvalues --    0.09769   0.10738   0.11433   0.12583   0.13403
 Alpha virt. eigenvalues --    0.13893   0.15105   0.15635   0.16338   0.16932
 Alpha virt. eigenvalues --    0.17352   0.17873   0.18200   0.18453   0.19206
 Alpha virt. eigenvalues --    0.19993   0.21892   0.22819   0.23348   0.23852
 Alpha virt. eigenvalues --    0.24266   0.24656   0.25713   0.26367   0.26665
 Alpha virt. eigenvalues --    0.27464   0.28131   0.28582   0.29446   0.30171
 Alpha virt. eigenvalues --    0.31579   0.31930   0.32261   0.33432   0.34160
 Alpha virt. eigenvalues --    0.34816   0.35666   0.36623   0.37461   0.38452
 Alpha virt. eigenvalues --    0.39584   0.40885   0.41355   0.41832   0.42505
 Alpha virt. eigenvalues --    0.44035   0.44809   0.45440   0.46167   0.46447
 Alpha virt. eigenvalues --    0.47267   0.47612   0.47872   0.48453   0.49226
 Alpha virt. eigenvalues --    0.49718   0.50493   0.51098   0.51320   0.51497
 Alpha virt. eigenvalues --    0.52385   0.52579   0.53311   0.53501   0.54231
 Alpha virt. eigenvalues --    0.54278   0.55286   0.55819   0.56607   0.58269
 Alpha virt. eigenvalues --    0.58404   0.59932   0.60953   0.61791   0.63017
 Alpha virt. eigenvalues --    0.64191   0.64940   0.66211   0.66768   0.67340
 Alpha virt. eigenvalues --    0.68425   0.69130   0.70654   0.70972   0.72012
 Alpha virt. eigenvalues --    0.73004   0.74605   0.75138   0.75938   0.77270
 Alpha virt. eigenvalues --    0.78931   0.80625   0.83087   0.86660   0.87369
 Alpha virt. eigenvalues --    0.91340   0.95735   1.01976   1.03949   1.21933
 Alpha virt. eigenvalues --    1.24538   1.27388   1.28213   1.28860   1.30263
 Alpha virt. eigenvalues --    1.31898   1.33235   1.34482   1.35149   1.36444
 Alpha virt. eigenvalues --    1.36826   1.37725   1.38469   1.39066   1.39607
 Alpha virt. eigenvalues --    1.39951   1.40080   1.40813   1.41399   1.42073
 Alpha virt. eigenvalues --    1.43233   1.43508   1.44179   1.45455   1.47226
 Alpha virt. eigenvalues --    1.48103   1.49456   1.49656   1.50157   1.50756
 Alpha virt. eigenvalues --    1.51328   1.52109   1.52921   1.55388   1.58669
 Alpha virt. eigenvalues --    1.59425   1.59897   1.60928   1.61554   1.62301
 Alpha virt. eigenvalues --    1.62669   1.62825   1.63620   1.64552   1.65641
 Alpha virt. eigenvalues --    1.66401   1.66967   1.67574   1.68036   1.68643
 Alpha virt. eigenvalues --    1.69215   1.69926   1.70252   1.71085   1.72420
 Alpha virt. eigenvalues --    1.74179   1.74646   1.75478   1.76510   1.78374
 Alpha virt. eigenvalues --    1.81469   1.83109   1.84005   1.85872   1.86482
 Alpha virt. eigenvalues --    1.86619   1.87773   1.88594   1.89257   1.90181
 Alpha virt. eigenvalues --    1.91386   1.94499   1.95186   1.98879   1.99765
 Alpha virt. eigenvalues --    2.01689   2.03749   2.05795   2.06857   2.09375
 Alpha virt. eigenvalues --    2.10068   2.11489   2.15792   2.17544   2.19688
 Alpha virt. eigenvalues --    2.20583   2.21411   2.22014   2.22999   2.26250
 Alpha virt. eigenvalues --    2.26845   2.27478   2.29234   2.30933   2.32135
 Alpha virt. eigenvalues --    2.33417   2.34397   2.36901   2.37781   2.39169
 Alpha virt. eigenvalues --    2.39222   2.40003   2.41235   2.42657   2.45079
 Alpha virt. eigenvalues --    2.45583   2.47412   2.48688   2.49440   2.51184
 Alpha virt. eigenvalues --    2.52402   2.53973   2.54484   2.56286   2.57456
 Alpha virt. eigenvalues --    2.58762   2.60726   2.61727   2.62341   2.63388
 Alpha virt. eigenvalues --    2.64649   2.65575   2.66470   2.67502   2.68295
 Alpha virt. eigenvalues --    2.71706   2.71761   2.73900   2.74530   2.75246
 Alpha virt. eigenvalues --    2.76565   2.77105   2.77540   2.78104   2.78691
 Alpha virt. eigenvalues --    2.80518   2.81423   2.82961   2.83559   2.84960
 Alpha virt. eigenvalues --    2.85263   2.86508   2.88519   2.88890   2.91822
 Alpha virt. eigenvalues --    2.97012   2.98153   3.01153   3.07081   3.10664
 Alpha virt. eigenvalues --    3.12302   3.13760   3.18090   3.19232   3.21547
 Alpha virt. eigenvalues --    3.21985   3.23064   3.24666   3.25530   3.25936
 Alpha virt. eigenvalues --    3.29027   3.30069   3.32074   3.34411   3.36650
 Alpha virt. eigenvalues --    3.38110   3.38825   3.39071   3.39373   3.41515
 Alpha virt. eigenvalues --    3.41891   3.43889   3.44944   3.47440   3.48080
 Alpha virt. eigenvalues --    3.49642   3.50162   3.55758   3.58203   3.59478
 Alpha virt. eigenvalues --    3.61203   3.90906   4.00843   4.32286   4.35347
 Alpha virt. eigenvalues --   21.68380  21.80538  22.07685  22.10113  22.11297
 Alpha virt. eigenvalues --   22.14642  22.14789  22.17467  22.18822  22.24772
 Alpha virt. eigenvalues --   22.26878  31.91259  43.63927  43.66655
          Condensed to atoms (all electrons):
               1          2          3          4          5          6
     1  O    7.983559   0.000000  -0.000172   0.000019   0.019766   0.008070
     2  O    0.000000   7.977203   0.000769   0.000023  -0.100197   0.000285
     3  N   -0.000172   0.000769   6.338173   0.366983  -0.093808   0.391279
     4  H    0.000019   0.000023   0.366983   0.414803   0.016647  -0.044759
     5  C    0.019766  -0.100197  -0.093808   0.016647   6.095901  -0.089625
     6  C    0.008070   0.000285   0.391279  -0.044759  -0.089625   5.532240
     7  C   -0.000249   0.002947   0.338804  -0.037526   0.342848  -0.131248
     8  C   -0.000439   0.315107   0.014621  -0.001059   0.325837   0.017853
     9  C   -0.004117   0.012822   0.006267   0.000201  -0.467488  -0.044449
    10  H    0.010803  -0.000036   0.003759   0.000047  -0.071615  -0.019810
    11  H    0.009484   0.000022  -0.000944   0.000028  -0.097771   0.026353
    12  C   -0.246263  -0.001100  -0.100320   0.015443   0.186295  -0.017534
    13  C    0.701678   0.000037   0.000723   0.000586   0.087987   0.097417
    14  C   -0.000007   0.015245  -0.030091  -0.009825  -0.095462   0.014367
    15  H    0.000000   0.000718   0.005034   0.003003   0.016901   0.003681
    16  H   -0.000000  -0.002267  -0.001384   0.000767  -0.000151  -0.000943
    17  H    0.000000  -0.002983  -0.000153   0.000686   0.002012  -0.001751
    18  C    0.000401  -0.048011  -0.000283   0.000019  -0.014089  -0.000736
    19  H   -0.000000   0.001375  -0.000003  -0.000001   0.012697   0.000098
    20  H   -0.000087   0.002760  -0.000021  -0.000000  -0.023274  -0.000053
    21  H    0.000064   0.002327   0.000034   0.000001  -0.012785  -0.000530
    22  C   -0.104404   0.000000  -0.000215   0.000115   0.003574  -0.026406
    23  H    0.005378  -0.000000   0.000252  -0.000058  -0.000804  -0.020200
    24  H    0.002006  -0.000000   0.000014  -0.000010  -0.000018   0.007975
    25  H    0.006432  -0.000000   0.000030  -0.000003  -0.000144  -0.000947
    26  C    0.000590   0.000003  -0.027656  -0.007567  -0.002431   0.189491
    27  H   -0.000310   0.000000   0.000532   0.000699   0.000024  -0.061760
    28  H   -0.000055   0.000000  -0.003357   0.000583   0.000408  -0.031274
    29  H    0.000025  -0.000000   0.001980   0.002295  -0.000328  -0.045051
               7          8          9         10         11         12
     1  O   -0.000249  -0.000439  -0.004117   0.010803   0.009484  -0.246263
     2  O    0.002947   0.315107   0.012822  -0.000036   0.000022  -0.001100
     3  N    0.338804   0.014621   0.006267   0.003759  -0.000944  -0.100320
     4  H   -0.037526  -0.001059   0.000201   0.000047   0.000028   0.015443
     5  C    0.342848   0.325837  -0.467488  -0.071615  -0.097771   0.186295
     6  C   -0.131248   0.017853  -0.044449  -0.019810   0.026353  -0.017534
     7  C    5.483087  -0.123225  -0.077199  -0.008720   0.014162  -0.011964
     8  C   -0.123225   5.325452  -0.001986  -0.000115  -0.014136  -0.014971
     9  C   -0.077199  -0.001986   6.377554   0.428023   0.521510  -0.203057
    10  H   -0.008720  -0.000115   0.428023   0.595810  -0.057936  -0.012065
    11  H    0.014162  -0.014136   0.521510  -0.057936   0.554641  -0.113885
    12  C   -0.011964  -0.014971  -0.203057  -0.012065  -0.113885   7.422123
    13  C    0.013731  -0.004658  -0.252631  -0.004298   0.002413  -0.462909
    14  C    0.227302  -0.010645   0.014315  -0.000581   0.000405  -0.003853
    15  H   -0.063534   0.000478  -0.000624   0.000041  -0.000001  -0.000308
    16  H   -0.044051  -0.007238   0.000798  -0.000064   0.000068   0.000058
    17  H   -0.054047  -0.008696  -0.000917   0.000183  -0.000060   0.000817
    18  C    0.010807   0.202249  -0.036387  -0.017214   0.010158  -0.000793
    19  H   -0.000768  -0.050563   0.001507  -0.000345   0.000691  -0.000958
    20  H   -0.000050  -0.044774  -0.006570   0.001561  -0.001017   0.002052
    21  H    0.000807  -0.034544   0.010294   0.003582  -0.008145   0.003088
    22  C    0.000162   0.000007   0.005798   0.004192  -0.001873  -0.239372
    23  H   -0.000011   0.000008   0.002728  -0.000248   0.000099   0.061557
    24  H    0.000005  -0.000002  -0.002553   0.000205  -0.000150  -0.012165
    25  H    0.000010  -0.000000   0.001070  -0.000166   0.000034   0.019818
    26  C    0.005501   0.000334   0.029238  -0.001075   0.000181  -0.095235
    27  H   -0.000697  -0.000005   0.001819  -0.000145   0.000021  -0.004954
    28  H   -0.000305  -0.000017  -0.001900   0.000010   0.000038  -0.013857
    29  H    0.003015  -0.000007  -0.000908   0.000092  -0.000016   0.021680
              13         14         15         16         17         18
     1  O    0.701678  -0.000007   0.000000  -0.000000   0.000000   0.000401
     2  O    0.000037   0.015245   0.000718  -0.002267  -0.002983  -0.048011
     3  N    0.000723  -0.030091   0.005034  -0.001384  -0.000153  -0.000283
     4  H    0.000586  -0.009825   0.003003   0.000767   0.000686   0.000019
     5  C    0.087987  -0.095462   0.016901  -0.000151   0.002012  -0.014089
     6  C    0.097417   0.014367   0.003681  -0.000943  -0.001751  -0.000736
     7  C    0.013731   0.227302  -0.063534  -0.044051  -0.054047   0.010807
     8  C   -0.004658  -0.010645   0.000478  -0.007238  -0.008696   0.202249
     9  C   -0.252631   0.014315  -0.000624   0.000798  -0.000917  -0.036387
    10  H   -0.004298  -0.000581   0.000041  -0.000064   0.000183  -0.017214
    11  H    0.002413   0.000405  -0.000001   0.000068  -0.000060   0.010158
    12  C   -0.462909  -0.003853  -0.000308   0.000058   0.000817  -0.000793
    13  C    5.607614  -0.000093   0.000004  -0.000003   0.000005   0.001314
    14  C   -0.000093   5.074666   0.403254   0.426952   0.438640   0.001801
    15  H    0.000004   0.403254   0.534445  -0.021000  -0.022069   0.000008
    16  H   -0.000003   0.426952  -0.021000   0.520448  -0.036207  -0.000471
    17  H    0.000005   0.438640  -0.022069  -0.036207   0.521050  -0.000340
    18  C    0.001314   0.001801   0.000008  -0.000471  -0.000340   5.080894
    19  H   -0.000048   0.000036   0.000003   0.000025   0.000003   0.395940
    20  H   -0.000055  -0.000276  -0.000000  -0.000022   0.000024   0.427668
    21  H    0.000240  -0.000153  -0.000001   0.000022  -0.000001   0.405342
    22  C    0.273726  -0.000006   0.000002  -0.000000   0.000000   0.000001
    23  H   -0.099175   0.000004  -0.000000   0.000000  -0.000000   0.000001
    24  H   -0.026162  -0.000001   0.000000   0.000000   0.000000  -0.000002
    25  H   -0.034208   0.000000  -0.000000  -0.000000  -0.000000   0.000001
    26  C   -0.052492   0.000594   0.000102  -0.000036  -0.000037   0.000012
    27  H   -0.001225   0.000030  -0.000008   0.000001  -0.000002   0.000002
    28  H    0.006485  -0.000098  -0.000002  -0.000007   0.000004  -0.000001
    29  H   -0.001083  -0.000077   0.000089   0.000000  -0.000001  -0.000001
              19         20         21         22         23         24
     1  O   -0.000000  -0.000087   0.000064  -0.104404   0.005378   0.002006
     2  O    0.001375   0.002760   0.002327   0.000000  -0.000000  -0.000000
     3  N   -0.000003  -0.000021   0.000034  -0.000215   0.000252   0.000014
     4  H   -0.000001  -0.000000   0.000001   0.000115  -0.000058  -0.000010
     5  C    0.012697  -0.023274  -0.012785   0.003574  -0.000804  -0.000018
     6  C    0.000098  -0.000053  -0.000530  -0.026406  -0.020200   0.007975
     7  C   -0.000768  -0.000050   0.000807   0.000162  -0.000011   0.000005
     8  C   -0.050563  -0.044774  -0.034544   0.000007   0.000008  -0.000002
     9  C    0.001507  -0.006570   0.010294   0.005798   0.002728  -0.002553
    10  H   -0.000345   0.001561   0.003582   0.004192  -0.000248   0.000205
    11  H    0.000691  -0.001017  -0.008145  -0.001873   0.000099  -0.000150
    12  C   -0.000958   0.002052   0.003088  -0.239372   0.061557  -0.012165
    13  C   -0.000048  -0.000055   0.000240   0.273726  -0.099175  -0.026162
    14  C    0.000036  -0.000276  -0.000153  -0.000006   0.000004  -0.000001
    15  H    0.000003  -0.000000  -0.000001   0.000002  -0.000000   0.000000
    16  H    0.000025  -0.000022   0.000022  -0.000000   0.000000   0.000000
    17  H    0.000003   0.000024  -0.000001   0.000000  -0.000000   0.000000
    18  C    0.395940   0.427668   0.405342   0.000001   0.000001  -0.000002
    19  H    0.528422  -0.032406  -0.019933  -0.000001   0.000000  -0.000000
    20  H   -0.032406   0.523857  -0.032937   0.000002  -0.000000   0.000000
    21  H   -0.019933  -0.032937   0.506826   0.000024  -0.000000   0.000000
    22  C   -0.000001   0.000002   0.000024   5.426901   0.396612   0.404997
    23  H    0.000000  -0.000000  -0.000000   0.396612   0.545703  -0.026790
    24  H   -0.000000   0.000000   0.000000   0.404997  -0.026790   0.500687
    25  H    0.000000  -0.000001   0.000000   0.377063  -0.022141  -0.011749
    26  C    0.000001  -0.000005  -0.000006  -0.036559   0.014419  -0.008661
    27  H    0.000000  -0.000000   0.000000   0.001375  -0.006180  -0.001070
    28  H   -0.000000   0.000000  -0.000000  -0.009734  -0.002472   0.001071
    29  H   -0.000000   0.000000   0.000000   0.002107   0.000565   0.000154
              25         26         27         28         29
     1  O    0.006432   0.000590  -0.000310  -0.000055   0.000025
     2  O   -0.000000   0.000003   0.000000   0.000000  -0.000000
     3  N    0.000030  -0.027656   0.000532  -0.003357   0.001980
     4  H   -0.000003  -0.007567   0.000699   0.000583   0.002295
     5  C   -0.000144  -0.002431   0.000024   0.000408  -0.000328
     6  C   -0.000947   0.189491  -0.061760  -0.031274  -0.045051
     7  C    0.000010   0.005501  -0.000697  -0.000305   0.003015
     8  C   -0.000000   0.000334  -0.000005  -0.000017  -0.000007
     9  C    0.001070   0.029238   0.001819  -0.001900  -0.000908
    10  H   -0.000166  -0.001075  -0.000145   0.000010   0.000092
    11  H    0.000034   0.000181   0.000021   0.000038  -0.000016
    12  C    0.019818  -0.095235  -0.004954  -0.013857   0.021680
    13  C   -0.034208  -0.052492  -0.001225   0.006485  -0.001083
    14  C    0.000000   0.000594   0.000030  -0.000098  -0.000077
    15  H   -0.000000   0.000102  -0.000008  -0.000002   0.000089
    16  H   -0.000000  -0.000036   0.000001  -0.000007   0.000000
    17  H   -0.000000  -0.000037  -0.000002   0.000004  -0.000001
    18  C    0.000001   0.000012   0.000002  -0.000001  -0.000001
    19  H    0.000000   0.000001   0.000000  -0.000000  -0.000000
    20  H   -0.000001  -0.000005  -0.000000   0.000000   0.000000
    21  H    0.000000  -0.000006   0.000000  -0.000000   0.000000
    22  C    0.377063  -0.036559   0.001375  -0.009734   0.002107
    23  H   -0.022141   0.014419  -0.006180  -0.002472   0.000565
    24  H   -0.011749  -0.008661  -0.001070   0.001071   0.000154
    25  H    0.507612   0.002240   0.000695   0.000013  -0.000040
    26  C    0.002240   5.247223   0.443134   0.417988   0.385515
    27  H    0.000695   0.443134   0.515934  -0.032729  -0.025117
    28  H    0.000013   0.417988  -0.032729   0.497423  -0.015963
    29  H   -0.000040   0.385515  -0.025117  -0.015963   0.517754
 Mulliken charges:
               1
     1  O   -0.392172
     2  O   -0.177050
     3  N   -0.210848
     4  H    0.277861
     5  C   -0.040907
     6  C    0.247967
     7  C    0.110408
     8  C    0.115135
     9  C   -0.313157
    10  H    0.146127
    11  H    0.155629
    12  C   -0.177367
    13  C    0.145082
    14  C   -0.466443
    15  H    0.139784
    16  H    0.164705
    17  H    0.163840
    18  C   -0.418291
    19  H    0.164230
    20  H    0.183623
    21  H    0.176386
    22  C   -0.478089
    23  H    0.150754
    24  H    0.172215
    25  H    0.154381
    26  C   -0.504809
    27  H    0.169938
    28  H    0.187748
    29  H    0.153320
 Sum of Mulliken charges =  -0.00000
 Mulliken charges with hydrogens summed into heavy atoms:
               1
     1  O   -0.392172
     2  O   -0.177050
     3  N    0.067013
     5  C   -0.040907
     6  C    0.247967
     7  C    0.110408
     8  C    0.115135
     9  C   -0.011402
    12  C   -0.177367
    13  C    0.145082
    14  C    0.001886
    18  C    0.105948
    22  C   -0.000738
    26  C    0.006197
 Electronic spatial extent (au):  <R**2>=           3203.2761
 Charge=             -0.0000 electrons
 Dipole moment (field-independent basis, Debye):
    X=              0.0836    Y=              6.7016    Z=              0.5044  Tot=              6.7210
 Quadrupole moment (field-independent basis, Debye-Ang):
   XX=            -87.1642   YY=            -78.1469   ZZ=            -86.4235
   XY=            -16.5748   XZ=             -2.9007   YZ=             -2.4215
 Traceless Quadrupole moment (field-independent basis, Debye-Ang):
   XX=             -3.2527   YY=              5.7646   ZZ=             -2.5119
   XY=            -16.5748   XZ=             -2.9007   YZ=             -2.4215
 Octapole moment (field-independent basis, Debye-Ang**2):
  XXX=            -42.9047  YYY=             59.4605  ZZZ=              1.2401  XYY=             44.7151
  XXY=             21.2171  XXZ=              1.0322  XZZ=             -0.2105  YZZ=             -1.6141
  YYZ=              4.5216  XYZ=              5.5137
 Hexadecapole moment (field-independent basis, Debye-Ang**3):
 XXXX=          -2847.5224 YYYY=          -1287.1738 ZZZZ=           -145.3934 XXXY=            -91.7798
 XXXZ=            -23.8691 YYYX=           -113.6040 YYYZ=            -18.1373 ZZZX=              4.1840
 ZZZY=              1.4628 XXYY=           -685.4869 XXZZ=           -483.6992 YYZZ=           -248.5451
 XXYZ=            -12.4754 YYXZ=            -11.9567 ZZXY=             -2.4615
 N-N= 8.984082933562D+02 E-N=-3.272908735861D+03  KE= 6.306689896196D+02
 No NMR shielding tensors so no spin-rotation constants.
 Leave Link  601 at Sat Jan 24 17:23:35 2026, MaxMem=  2147483648 cpu:               1.8 elap:               0.1
 (Enter /data/home/wyx/g16/l9999.exe)
 Electronic transition elements 
                 1             2             3             4             5 
      1  -0.633218D+03 -0.633178D+03 -0.633171D+03 -0.633148D+03 -0.633132D+03
      2   0.165189D+01  0.237396D-01  0.107579D+00 -0.453883D+00  0.411361D+00
      3   0.393054D+00 -0.468952D-01 -0.891333D-01  0.190778D+01 -0.143023D+01
      4   0.380100D+00 -0.295567D-01 -0.304523D-03 -0.913248D-01  0.125264D+00
      5  -0.164564D+00 -0.294268D-02 -0.139391D-01  0.691710D-01 -0.772111D-01
      6  -0.423017D-01  0.684918D-02  0.111884D-01 -0.320794D+00  0.267869D+00
      7  -0.382003D-01  0.915748D-03 -0.278517D-02  0.162016D-01 -0.223769D-01
      8  -0.324457D+00 -0.746414D+00  0.443058D+00  0.682538D-01 -0.169613D+00
      9   0.820245D-01 -0.155839D+00 -0.835825D+00 -0.640783D-01  0.696766D-01
     10   0.142743D+01 -0.228742D+00  0.338591D+00 -0.927839D-01  0.222153D+00
     11  -0.155120D+00  0.165656D-01 -0.385898D-01  0.121341D+01 -0.351706D+00
     12   0.244689D+00 -0.144797D-01  0.448338D-01 -0.166628D+00  0.339078D+00
     13  -0.100771D-01  0.259156D-02  0.109735D-02  0.585932D-01 -0.855791D-02
     14   0.448219D+00  0.192484D-01  0.609525D-01  0.446717D+00 -0.164618D-01
     15  -0.221855D-01  0.253445D-01  0.511016D-01  0.320690D+00 -0.125596D+00
     16   0.113026D+00 -0.743601D-01  0.427841D-01  0.968658D-01 -0.275898D-01
                 6 
      1  -0.633111D+03
      2   0.506638D-01
      3  -0.225595D+00
      4   0.467874D-01
      5  -0.471968D-02
      6   0.457009D-01
      7  -0.292685D-01
      8   0.174326D+00
      9   0.251676D-01
     10  -0.298647D-01
     11   0.183616D+00
     12   0.154888D+00
     13  -0.138377D+00
     14  -0.561821D-01
     15   0.310280D-01
     16   0.188874D+00
 1\1\GINC-CN012\SP\RCAM-B3LYP TD-FC\TZVP\C11H15N1O2\WYX\24-Jan-2026\0\\
 #p CAM-B3LYP TZVP em=gd3bj td(nstates=6,root=2) scrf=(Solvent=Water,Co
 rrectedLR,NonEquilibrium=Save) Geom=Check Guess=Read\\Title Card Requi
 red\\0,1\O,0,2.710105,-1.559656,0.894419\O,0,-3.32203,-1.667401,-0.855
 584\N,0,-0.676769,1.516899,-0.096726\H,0,-0.985185,2.478547,-0.167257\
 C,0,-1.253653,-0.765147,-0.178936\C,0,0.644569,1.342515,0.184843\C,0,-
 1.630336,0.582533,-0.305347\C,0,-2.168296,-1.854384,-0.445198\C,0,0.12
 5696,-1.07531,0.245672\H,0,0.100105,-1.537583,1.251184\H,0,0.540371,-1
 .895721,-0.352014\C,0,1.107848,0.027034,0.302259\C,0,2.476757,-0.39707
 ,0.527756\C,0,-2.989216,1.106744,-0.623377\H,0,-3.004913,2.194493,-0.5
 58246\H,0,-3.30225,0.816092,-1.624024\H,0,-3.73322,0.706899,0.061788\C
 ,0,-1.691276,-3.274788,-0.251111\H,0,-2.559749,-3.921926,-0.162109\H,0
 ,-1.116536,-3.600406,-1.120849\H,0,-1.059872,-3.40507,0.624637\C,0,3.6
 50026,0.520215,0.283519\H,0,3.474105,1.243728,-0.507795\H,0,3.906971,1
 .06605,1.194112\H,0,4.504546,-0.099325,0.017952\C,0,1.415097,2.607671,
 0.374351\H,0,2.112335,2.525993,1.203936\H,0,1.985169,2.884692,-0.51427
 1\H,0,0.739601,3.433684,0.596419\\Version=ES64L-G16RevA.03\State=1-A\H
 F=-633.32218\RMSD=3.443e-09\Dipole=-0.8533237,2.4655925,-0.4298933\Qua
 drupole=-8.102692,11.3927686,-3.2900766,7.039661,-4.0525975,2.1170591\
 PG=C01 [X(C11H15N1O2)]\\@


 Sacred cows make the best hamburger.
                               -- Mark Twain
 Job cpu time:       0 days  2 hours 40 minutes 28.0 seconds.
 Elapsed time:       0 days  0 hours 10 minutes  4.7 seconds.
 File lengths (MBytes):  RWF=    734 Int=      0 D2E=      0 Chk=     67 Scr=      1
 Normal termination of Gaussian 16 at Sat Jan 24 17:23:38 2026.
