 Entering Gaussian System, Link 0=g16
 Input=DDL-LR-13.gjf
 Output=DDL-LR-13.log
 Initial command:
 /data/home/wyx/g16/l1.exe "/scr/tmp/wyx/13117/Gau-2014575.inp" -scrdir="/scr/tmp/wyx/13117/"
 Entering Link 1 = /data/home/wyx/g16/l1.exe PID=   2014576.
  
 Copyright (c) 1988,1990,1992,1993,1995,1998,2003,2009,2016,
            Gaussian, Inc.  All Rights Reserved.
  
 This is part of the Gaussian(R) 16 program.  It is based on
 the Gaussian(R) 09 system (copyright 2009, Gaussian, Inc.),
 the Gaussian(R) 03 system (copyright 2003, Gaussian, Inc.),
 the Gaussian(R) 98 system (copyright 1998, Gaussian, Inc.),
 the Gaussian(R) 94 system (copyright 1995, Gaussian, Inc.),
 the Gaussian 92(TM) system (copyright 1992, Gaussian, Inc.),
 the Gaussian 90(TM) system (copyright 1990, Gaussian, Inc.),
 the Gaussian 88(TM) system (copyright 1988, Gaussian, Inc.),
 the Gaussian 86(TM) system (copyright 1986, Carnegie Mellon
 University), and the Gaussian 82(TM) system (copyright 1983,
 Carnegie Mellon University). Gaussian is a federally registered
 trademark of Gaussian, Inc.
  
 This software contains proprietary and confidential information,
 including trade secrets, belonging to Gaussian, Inc.
  
 This software is provided under written license and may be
 used, copied, transmitted, or stored only in accord with that
 written license.
  
 The following legend is applicable only to US Government
 contracts under FAR:
  
                    RESTRICTED RIGHTS LEGEND
  
 Use, reproduction and disclosure by the US Government is
 subject to restrictions as set forth in subparagraphs (a)
 and (c) of the Commercial Computer Software - Restricted
 Rights clause in FAR 52.227-19.
  
 Gaussian, Inc.
 340 Quinnipiac St., Bldg. 40, Wallingford CT 06492
  
  
 ---------------------------------------------------------------
 Warning -- This program may not be used in any manner that
 competes with the business of Gaussian, Inc. or will provide
 assistance to any competitor of Gaussian, Inc.  The licensee
 of this program is prohibited from giving any competitor of
 Gaussian, Inc. access to this program.  By using this program,
 the user acknowledges that Gaussian, Inc. is engaged in the
 business of creating and licensing software in the field of
 computational chemistry and represents and warrants to the
 licensee that it is not a competitor of Gaussian, Inc. and that
 it will not use this program in any manner prohibited above.
 ---------------------------------------------------------------
  

 Cite this work as:
 Gaussian 16, Revision A.03,
 M. J. Frisch, G. W. Trucks, H. B. Schlegel, G. E. Scuseria, 
 M. A. Robb, J. R. Cheeseman, G. Scalmani, V. Barone, 
 G. A. Petersson, H. Nakatsuji, X. Li, M. Caricato, A. V. Marenich, 
 J. Bloino, B. G. Janesko, R. Gomperts, B. Mennucci, H. P. Hratchian, 
 J. V. Ortiz, A. F. Izmaylov, J. L. Sonnenberg, D. Williams-Young, 
 F. Ding, F. Lipparini, F. Egidi, J. Goings, B. Peng, A. Petrone, 
 T. Henderson, D. Ranasinghe, V. G. Zakrzewski, J. Gao, N. Rega, 
 G. Zheng, W. Liang, M. Hada, M. Ehara, K. Toyota, R. Fukuda, 
 J. Hasegawa, M. Ishida, T. Nakajima, Y. Honda, O. Kitao, H. Nakai, 
 T. Vreven, K. Throssell, J. A. Montgomery, Jr., J. E. Peralta, 
 F. Ogliaro, M. J. Bearpark, J. J. Heyd, E. N. Brothers, K. N. Kudin, 
 V. N. Staroverov, T. A. Keith, R. Kobayashi, J. Normand, 
 K. Raghavachari, A. P. Rendell, J. C. Burant, S. S. Iyengar, 
 J. Tomasi, M. Cossi, J. M. Millam, M. Klene, C. Adamo, R. Cammi, 
 J. W. Ochterski, R. L. Martin, K. Morokuma, O. Farkas, 
 J. B. Foresman, and D. J. Fox, Gaussian, Inc., Wallingford CT, 2016.
 
 ******************************************
 Gaussian 16:  ES64L-G16RevA.03 25-Dec-2016
                24-Jan-2026 
 ******************************************
 %nprocshared=16
 Will use up to   16 processors via shared memory.
 %mem=16GB
 %chk=DDL-LR-13.chk
 --------------------------------------------------------------------
 #p CAM-B3LYP TZVP em=gd3bj td(nstates=6,root=1) scrf=(Solvent=Water)
 --------------------------------------------------------------------
 1/38=1,172=1/1;
 2/12=2,17=6,18=5,40=1/2;
 3/5=19,7=101,11=9,25=1,30=1,70=2201,72=1,74=-40,124=41/1,2,3,8;
 4//1;
 5/5=2,38=5,53=1/2;
 8/6=1,10=1,107=1,108=6/1;
 9/8=1,41=6,42=1,70=2/14;
 6/7=2,8=2,9=2,10=2/1;
 99/5=1,9=1/99;
 Leave Link    1 at Sat Jan 24 16:31:53 2026, MaxMem=  2147483648 cpu:               0.4 elap:               0.1
 (Enter /data/home/wyx/g16/l101.exe)
 -------------------
 Title Card Required
 -------------------
 Symbolic Z-matrix:
 Charge =  0 Multiplicity = 1
 O                     2.7416   -1.55847   0.76028 
 O                    -3.23804  -1.64383  -1.07827 
 N                    -0.70616   1.51387   0.09696 
 H                    -1.01439   2.47186   0.03811 
 C                    -1.24896  -0.75913  -0.15514 
 C                     0.64132   1.30595   0.27108 
 C                    -1.62103   0.54923  -0.23585 
 C                    -2.15321  -1.83719  -0.53616 
 C                     0.10032  -1.10215   0.41152 
 H                     0.00068  -1.4417    1.45234 
 H                     0.52671  -1.9587   -0.10875 
 C                     1.09507   0.02505   0.35298 
 C                     2.49005  -0.39123   0.46464 
 C                    -2.9477    1.0867   -0.65373 
 H                    -3.03602   2.14103  -0.39908 
 H                    -3.08417   0.98352  -1.7278 
 H                    -3.75882   0.54012  -0.18671 
 C                    -1.72051  -3.25137  -0.25214 
 H                    -2.56052  -3.9226   -0.39599 
 H                    -0.92299  -3.54738  -0.93297 
 H                    -1.33379  -3.36658   0.75772 
 C                     3.64734   0.53688   0.18961 
 H                     3.45113   1.23752  -0.61749 
 H                     3.89556   1.10934   1.08512 
 H                     4.51     -0.0753   -0.06329 
 C                     1.41779   2.58199   0.352 
 H                     2.24165   2.51848   1.05169 
 H                     1.81749   2.86175  -0.62277 
 H                     0.76958   3.39235   0.68208 
 
 ITRead=  0  0  0  0  0  0  0  0  0  0  0  0  0  0  0  0  0  0  0  0
 ITRead=  0  0  0  0  0  0  0  0  0
 MicOpt= -1 -1 -1 -1 -1 -1 -1 -1 -1 -1 -1 -1 -1 -1 -1 -1 -1 -1 -1 -1
 MicOpt= -1 -1 -1 -1 -1 -1 -1 -1 -1
 NAtoms=     29 NQM=       29 NQMF=       0 NMMI=      0 NMMIF=      0
                NMic=       0 NMicF=      0.
                    Isotopes and Nuclear Properties:
 (Nuclear quadrupole moments (NQMom) in fm**2, nuclear magnetic moments (NMagM)
  in nuclear magnetons)

  Atom         1           2           3           4           5           6           7           8           9          10
 IAtWgt=          16          16          14           1          12          12          12          12          12           1
 AtmWgt=  15.9949146  15.9949146  14.0030740   1.0078250  12.0000000  12.0000000  12.0000000  12.0000000  12.0000000   1.0078250
 NucSpn=           0           0           2           1           0           0           0           0           0           1
 AtZEff=  -0.0000000  -0.0000000  -0.0000000  -0.0000000  -0.0000000  -0.0000000  -0.0000000  -0.0000000  -0.0000000  -0.0000000
 NQMom=    0.0000000   0.0000000   2.0440000   0.0000000   0.0000000   0.0000000   0.0000000   0.0000000   0.0000000   0.0000000
 NMagM=    0.0000000   0.0000000   0.4037610   2.7928460   0.0000000   0.0000000   0.0000000   0.0000000   0.0000000   2.7928460
 AtZNuc=   8.0000000   8.0000000   7.0000000   1.0000000   6.0000000   6.0000000   6.0000000   6.0000000   6.0000000   1.0000000

  Atom        11          12          13          14          15          16          17          18          19          20
 IAtWgt=           1          12          12          12           1           1           1          12           1           1
 AtmWgt=   1.0078250  12.0000000  12.0000000  12.0000000   1.0078250   1.0078250   1.0078250  12.0000000   1.0078250   1.0078250
 NucSpn=           1           0           0           0           1           1           1           0           1           1
 AtZEff=  -0.0000000  -0.0000000  -0.0000000  -0.0000000  -0.0000000  -0.0000000  -0.0000000  -0.0000000  -0.0000000  -0.0000000
 NQMom=    0.0000000   0.0000000   0.0000000   0.0000000   0.0000000   0.0000000   0.0000000   0.0000000   0.0000000   0.0000000
 NMagM=    2.7928460   0.0000000   0.0000000   0.0000000   2.7928460   2.7928460   2.7928460   0.0000000   2.7928460   2.7928460
 AtZNuc=   1.0000000   6.0000000   6.0000000   6.0000000   1.0000000   1.0000000   1.0000000   6.0000000   1.0000000   1.0000000

  Atom        21          22          23          24          25          26          27          28          29
 IAtWgt=           1          12           1           1           1          12           1           1           1
 AtmWgt=   1.0078250  12.0000000   1.0078250   1.0078250   1.0078250  12.0000000   1.0078250   1.0078250   1.0078250
 NucSpn=           1           0           1           1           1           0           1           1           1
 AtZEff=  -0.0000000  -0.0000000  -0.0000000  -0.0000000  -0.0000000  -0.0000000  -0.0000000  -0.0000000  -0.0000000
 NQMom=    0.0000000   0.0000000   0.0000000   0.0000000   0.0000000   0.0000000   0.0000000   0.0000000   0.0000000
 NMagM=    2.7928460   0.0000000   2.7928460   2.7928460   2.7928460   0.0000000   2.7928460   2.7928460   2.7928460
 AtZNuc=   1.0000000   6.0000000   1.0000000   1.0000000   1.0000000   6.0000000   1.0000000   1.0000000   1.0000000
 Leave Link  101 at Sat Jan 24 16:31:54 2026, MaxMem=  2147483648 cpu:               0.8 elap:               0.1
 (Enter /data/home/wyx/g16/l202.exe)
                          Input orientation:                          
 ---------------------------------------------------------------------
 Center     Atomic      Atomic             Coordinates (Angstroms)
 Number     Number       Type             X           Y           Z
 ---------------------------------------------------------------------
      1          8           0        2.741595   -1.558465    0.760281
      2          8           0       -3.238037   -1.643825   -1.078266
      3          7           0       -0.706159    1.513866    0.096963
      4          1           0       -1.014389    2.471855    0.038108
      5          6           0       -1.248955   -0.759125   -0.155137
      6          6           0        0.641320    1.305949    0.271082
      7          6           0       -1.621025    0.549228   -0.235850
      8          6           0       -2.153207   -1.837192   -0.536163
      9          6           0        0.100317   -1.102153    0.411519
     10          1           0        0.000684   -1.441704    1.452344
     11          1           0        0.526714   -1.958701   -0.108748
     12          6           0        1.095069    0.025045    0.352977
     13          6           0        2.490051   -0.391226    0.464639
     14          6           0       -2.947700    1.086696   -0.653728
     15          1           0       -3.036023    2.141031   -0.399083
     16          1           0       -3.084171    0.983518   -1.727801
     17          1           0       -3.758820    0.540117   -0.186713
     18          6           0       -1.720508   -3.251368   -0.252136
     19          1           0       -2.560520   -3.922597   -0.395986
     20          1           0       -0.922986   -3.547380   -0.932973
     21          1           0       -1.333788   -3.366582    0.757715
     22          6           0        3.647338    0.536881    0.189614
     23          1           0        3.451130    1.237521   -0.617493
     24          1           0        3.895556    1.109342    1.085122
     25          1           0        4.510000   -0.075299   -0.063290
     26          6           0        1.417790    2.581990    0.352000
     27          1           0        2.241648    2.518481    1.051690
     28          1           0        1.817491    2.861750   -0.622772
     29          1           0        0.769583    3.392345    0.682082
 ---------------------------------------------------------------------
                    Distance matrix (angstroms):
                    1          2          3          4          5
     1  O    0.000000
     2  O    6.256480   0.000000
     3  N    4.665428   4.214568   0.000000
     4  H    5.556296   4.809337   1.008074   0.000000
     5  C    4.171501   2.364595   2.350462   3.245242   0.000000
     6  C    3.585434   5.056809   1.374499   2.038378   2.831843
     7  C    4.946423   2.851995   1.370500   2.034590   1.362622
     8  C    5.071247   1.228056   3.704644   4.493838   1.457766
     9  C    2.702999   3.695602   2.755523   3.762385   1.503098
    10  H    2.829342   4.115113   3.327473   4.283268   2.147442
    11  H    2.412695   3.900316   3.690666   4.693228   2.143393
    12  C    2.320441   4.858950   2.350862   3.245895   2.523401
    13  C    1.230092   6.063048   3.739027   4.545356   3.807839
    14  C    6.431514   2.778538   2.402190   2.476892   2.557613
    15  H    6.957820   3.850615   2.463263   2.094656   3.415264
    16  H    6.825817   2.710812   3.044006   3.101222   2.979613
    17  H    6.896103   2.415716   3.216737   3.363638   2.826384
    18  C    4.878655   2.359996   4.884489   5.773918   2.538316
    19  H    5.919332   2.473325   5.765135   6.593025   3.433040
    20  H    4.500227   3.000682   5.169525   6.097749   2.913014
    21  H    4.458480   3.156720   4.964805   5.891281   2.763933
    22  C    2.352978   7.332898   4.462737   5.049631   5.076630
    23  H    3.196754   7.297905   4.227276   4.679130   5.127491
    24  H    2.924781   7.946592   4.723969   5.201946   5.612077
    25  H    2.450573   7.970102   5.455221   6.084172   5.800139
    26  C    4.366065   6.448248   2.391044   2.454822   4.304854
    27  H    4.117809   7.203364   3.257349   3.410469   4.937959
    28  H    4.722828   6.787197   2.950190   2.933995   4.767862
    29  H    5.329678   6.672545   2.459443   2.108213   4.691496
                    6          7          8          9         10
     6  C    0.000000
     7  C    2.438814   0.000000
     8  C    4.282565   2.463413   0.000000
     9  C    2.472117   2.471672   2.552793   0.000000
    10  H    3.058658   3.073068   2.958009   1.099335   0.000000
    11  H    3.288669   3.304337   2.716510   1.089113   1.726558
    12  C    1.361363   2.828189   3.848349   1.504505   2.134863
    13  C    2.517076   4.275054   4.965105   2.493806   2.876806
    14  C    3.712736   1.491161   3.032188   3.900797   4.418293
    15  H    3.830057   2.136048   4.077305   4.583879   5.048303
    16  H    4.240139   2.134320   3.200484   4.366655   5.050877
    17  H    4.489689   2.138379   2.889932   4.236493   4.554996
    18  C    5.159567   3.801933   1.505919   2.893953   3.023680
    19  H    6.167208   4.572255   2.129429   3.960685   4.016332
    20  H    5.239428   4.213720   2.143746   2.972195   3.313122
    21  H    5.096117   4.050092   2.164394   2.702619   2.443047
    22  C    3.103908   5.285529   6.309461   3.913698   4.336747
    23  H    2.947758   5.132851   6.392892   4.214367   4.834051
    24  H    3.360263   5.700119   6.920850   4.443905   4.670409
    25  H    4.121448   6.165167   6.908415   4.552491   4.949560
    26  C    1.495906   3.702983   5.750654   3.913079   4.405571
    27  H    2.154213   4.522826   6.388107   4.254892   4.567878
    28  H    2.145430   4.161834   6.152560   4.441956   5.111420
    29  H    2.130357   3.826346   6.113500   4.552102   4.955052
                   11         12         13         14         15
    11  H    0.000000
    12  C    2.114584   0.000000
    13  C    2.576906   1.460043   0.000000
    14  C    4.652204   4.299365   5.744922   0.000000
    15  H    5.439227   4.702011   6.139693   1.088240   0.000000
    16  H    4.931174   4.765958   6.145622   1.087613   1.762852
    17  H    4.961449   4.910886   6.351382   1.083867   1.769311
    18  C    2.596450   4.362169   5.140329   4.526155   5.552490
    19  H    3.670205   5.432141   6.222501   5.030840   6.082244
    20  H    2.303232   4.299818   4.854220   5.064791   6.091632
    21  H    2.488846   4.191216   4.853904   4.942527   5.879591
    22  C    4.006899   2.608206   1.508753   6.671435   6.898346
    23  H    4.361980   2.821867   2.178876   6.400710   6.553410
    24  H    4.710341   3.091030   2.147591   7.060755   7.163381
    25  H    4.406341   3.441671   2.111566   7.570742   7.871934
    26  C    4.650181   2.577231   3.162664   4.722806   4.538174
    27  H    4.932826   2.831972   2.978712   5.646928   5.486440
    28  H    5.016680   3.085592   3.495233   5.085157   4.911830
    29  H    5.414618   3.398965   4.162055   4.573685   4.149378
                   16         17         18         19         20
    16  H    0.000000
    17  H    1.739744   0.000000
    18  C    4.687368   4.305154   0.000000
    19  H    5.110568   4.625531   1.084832   0.000000
    20  H    5.082471   5.030556   1.089589   1.763706   0.000000
    21  H    5.307071   4.694148   1.087486   1.773429   1.749249
    22  C    7.013500   7.415714   6.584812   7.665988   6.231312
    23  H    6.633812   7.256399   6.857802   7.925643   6.490585
    24  H    7.526284   7.780171   7.234931   8.318354   6.998294
    25  H    7.846217   8.292608   6.995878   8.056342   6.506077
    26  C    5.210407   5.590773   6.651463   7.661337   6.685773
    27  H    6.200486   6.438415   7.119677   8.163582   7.123796
    28  H    5.364246   6.056019   7.072837   8.077486   6.977348
    29  H    5.144065   5.421849   7.156273   8.109266   7.323454
                   21         22         23         24         25
    21  H    0.000000
    22  C    6.353848   0.000000
    23  H    6.781180   1.086653   0.000000
    24  H    6.891091   1.091448   1.764325   0.000000
    25  H    6.756956   1.087617   1.775343   1.760615   0.000000
    26  C    6.566681   3.029806   2.623354   2.974136   4.098221
    27  H    6.892324   2.577960   2.426907   2.173063   3.621643
    28  H    7.115365   3.068115   2.303676   3.210326   4.023541
    29  H    7.079052   4.083831   3.677344   3.891818   5.154692
                   26         27         28         29
    26  C    0.000000
    27  H    1.082747   0.000000
    28  H    1.090049   1.761126   0.000000
    29  H    1.088945   1.751349   1.755644   0.000000
 Stoichiometry    C11H15NO2
 Framework group  C1[X(C11H15NO2)]
 Deg. of freedom    81
 Full point group                 C1      NOp   1
 Largest Abelian subgroup         C1      NOp   1
 Largest concise Abelian subgroup C1      NOp   1
                         Standard orientation:                         
 ---------------------------------------------------------------------
 Center     Atomic      Atomic             Coordinates (Angstroms)
 Number     Number       Type             X           Y           Z
 ---------------------------------------------------------------------
      1          8           0       -2.286812   -2.281543   -0.195685
      2          8           0        3.595915   -0.248973    0.441281
      3          7           0       -0.026390    1.799609   -0.225656
      4          1           0       -0.056207    2.807230   -0.230546
      5          6           0        1.291661   -0.140938   -0.078387
      6          6           0       -1.231101    1.144371   -0.133031
      7          6           0        1.205885    1.218978   -0.075202
      8          6           0        2.561429   -0.828492    0.121719
      9          6           0        0.059438   -0.950788   -0.370055
     10          1           0        0.076473   -1.308471   -1.409435
     11          1           0        0.051570   -1.862533    0.225617
     12          6           0       -1.230226   -0.216944   -0.121513
     13          6           0       -2.396680   -1.079680    0.042177
     14          6           0        2.324119    2.194026    0.074451
     15          1           0        2.001428    3.197714   -0.195267
     16          1           0        2.681229    2.215965    1.101531
     17          1           0        3.172747    1.917340   -0.540401
     18          6           0        2.590023   -2.322041   -0.068772
     19          1           0        3.619171   -2.664494   -0.089809
     20          1           0        2.078847   -2.818793    0.755328
     21          1           0        2.087805   -2.628163   -0.983480
     22          6           0       -3.729250   -0.572277    0.535266
     23          1           0       -3.638471    0.207348    1.286771
     24          1           0       -4.316071   -0.177650   -0.296099
     25          1           0       -4.271435   -1.417435    0.953183
     26          6           0       -2.395302    2.081193   -0.064236
     27          1           0       -3.261801    1.699735   -0.589603
     28          1           0       -2.681018    2.278401    0.969051
     29          1           0       -2.132342    3.036225   -0.516527
 ---------------------------------------------------------------------
 Rotational constants (GHZ):           1.0786873           0.4908173           0.3465011
 Leave Link  202 at Sat Jan 24 16:31:54 2026, MaxMem=  2147483648 cpu:               0.0 elap:               0.0
 (Enter /data/home/wyx/g16/l301.exe)
 Standard basis: TZVP (5D, 7F)
 Ernie: Thresh=  0.10000D-02 Tol=  0.10000D-05 Strict=F.
 There are   370 symmetry adapted cartesian basis functions of A   symmetry.
 There are   356 symmetry adapted basis functions of A   symmetry.
   356 basis functions,   610 primitive gaussians,   370 cartesian basis functions
    52 alpha electrons       52 beta electrons
       nuclear repulsion energy       900.8238931682 Hartrees.
 IExCor=20419 DFT=T Ex+Corr=CAM-B3LYP ExCW=0 ScaHFX=  1.000000
 ScaDFX=  1.000000  1.000000  1.000000  0.810000 ScalE2=  1.000000  1.000000
 IRadAn=      5 IRanWt=     -1 IRanGd=            0 ICorTp=0 IEmpDi=141
 HFx  wShort=  0.000000 wLong=  0.330000 cFull=  0.190000 cShort=  0.000000 cLong=  0.460000
 DFx  wShort=  0.000000 wLong=  0.330000 cFull=  0.190000 cShort=  0.000000 cLong=  0.460000
 NAtoms=   29 NActive=   29 NUniq=   29 SFac= 1.00D+00 NAtFMM=   60 NAOKFM=F Big=F
 Integral buffers will be    131072 words long.
 Raffenetti 1 integral format.
 Two-electron integral symmetry is turned on.
 R6Disp:  Grimme-D3(BJ) Dispersion energy=       -0.0262072292 Hartrees.
 Nuclear repulsion after empirical dispersion term =      900.7976859391 Hartrees.
 ------------------------------------------------------------------------------
 Polarizable Continuum Model (PCM)
 =================================
 Model                : PCM.
 Atomic radii         : UFF (Universal Force Field).
 Polarization charges : Total charges.
 Charge compensation  : None.
 Solution method      : On-the-fly selection.
 Cavity type          : Scaled VdW (van der Waals Surface) (Alpha=1.100).
 Cavity algorithm     : GePol (No added spheres)
                        Default sphere list used, NSphG=   29.
                        Lebedev-Laikov grids with approx.  5.0 points / Ang**2.
                        Smoothing algorithm: York/Karplus (Gamma=1.0000).
                        Polarization charges: spherical gaussians, with
                                              point-specific exponents (IZeta= 3).
                        Self-potential: point-specific (ISelfS= 7).
                        Self-field    : sphere-specific E.n sum rule (ISelfD= 2).
 Solvent              : Water, Eps=  78.355300 Eps(inf)=   1.777849
 ------------------------------------------------------------------------------
 GePol: Number of generator spheres                  =      29
 GePol: Total number of spheres                      =      29
 GePol: Number of exposed spheres                    =      29 (100.00%)
 GePol: Number of points                             =    2104
 GePol: Average weight of points                     =       0.13
 GePol: Minimum weight of points                     =   0.84D-11
 GePol: Maximum weight of points                     =    0.20577
 GePol: Number of points with low weight             =     157
 GePol: Fraction of low-weight points (<1% of avg)   =       7.46%
 GePol: Cavity surface area                          =    268.542 Ang**2
 GePol: Cavity volume                                =    286.646 Ang**3
 Leave Link  301 at Sat Jan 24 16:31:54 2026, MaxMem=  2147483648 cpu:               0.6 elap:               0.0
 (Enter /data/home/wyx/g16/l302.exe)
 NPDir=0 NMtPBC=     1 NCelOv=     1 NCel=       1 NClECP=     1 NCelD=      1
         NCelK=      1 NCelE2=     1 NClLst=     1 CellRange=     0.0.
 One-electron integrals computed using PRISM.
 One-electron integral symmetry used in STVInt
 NBasis=   356 RedAO= T EigKep=  4.70D-05  NBF=   356
 NBsUse=   356 1.00D-06 EigRej= -1.00D+00 NBFU=   356
 Precomputing XC quadrature grid using
 IXCGrd= 4 IRadAn=           5 IRanWt=          -1 IRanGd=           0 AccXCQ= 0.00D+00.
 Generated NRdTot=       0 NPtTot=           0 NUsed=           0 NTot=          32
 NSgBfM=   366   366   366   366   366 MxSgAt=    29 MxSgA2=    29.
 Leave Link  302 at Sat Jan 24 16:31:54 2026, MaxMem=  2147483648 cpu:               3.1 elap:               0.2
 (Enter /data/home/wyx/g16/l303.exe)
 DipDrv:  MaxL=1.
 Leave Link  303 at Sat Jan 24 16:31:54 2026, MaxMem=  2147483648 cpu:               0.5 elap:               0.0
 (Enter /data/home/wyx/g16/l308.exe)
 Leave Link  308 at Sat Jan 24 16:31:55 2026, MaxMem=  2147483648 cpu:               0.8 elap:               0.1
 (Enter /data/home/wyx/g16/l401.exe)
 ExpMin= 9.52D-02 ExpMax= 2.70D+04 ExpMxC= 9.22D+02 IAcc=3 IRadAn=         5 AccDes= 0.00D+00
 Harris functional with IExCor=20419 and IRadAn=       5 diagonalized for initial guess.
 HarFok:  IExCor=20419 AccDes= 0.00D+00 IRadAn=         5 IDoV= 1 UseB2=F ITyADJ=14
 ICtDFT=  3500011 ScaDFX=  1.000000  1.000000  1.000000  1.000000
 FoFCou: FMM=F IPFlag=           0 FMFlag=      100000 FMFlg1=           0
         NFxFlg=           0 DoJE=T BraDBF=F KetDBF=T FulRan=T
         wScrn=  0.000000 ICntrl=       500 IOpCl=  0 I1Cent=   200000004 NGrid=           0
         NMat0=    1 NMatS0=      1 NMatT0=    0 NMatD0=    1 NMtDS0=    0 NMtDT0=    0
 Petite list used in FoFCou.
 Harris En= -608.712622446732    
 JPrj=0 DoOrth=F DoCkMO=F.
 Leave Link  401 at Sat Jan 24 16:31:56 2026, MaxMem=  2147483648 cpu:              11.8 elap:               0.8
 (Enter /data/home/wyx/g16/l502.exe)
 Integral symmetry usage will be decided dynamically.
 Closed shell SCF:
 Using DIIS extrapolation, IDIIS=  1040.
 NGot=  2147483648 LenX=  2147200095 LenY=  2147062754
 Requested convergence on RMS density matrix=1.00D-08 within 128 cycles.
 Requested convergence on MAX density matrix=1.00D-06.
 Requested convergence on             energy=1.00D-06.
 No special actions if energy rises.
 Fock matrices will be formed incrementally for  20 cycles.

 Cycle   1  Pass 1  IDiag  1:
 FoFJK:  IHMeth= 1 ICntrl=       0 DoSepK=T KAlg= 0 I1Cent=           0 FoldK=F
 IRaf=         1 NMat=       1 IRICut=       1 DoRegI=T DoRafI=F ISym2E= 0 IDoP0=0 IntGTp=1.
 FoFCou: FMM=F IPFlag=           0 FMFlag=      100000 FMFlg1=           0
         NFxFlg=           0 DoJE=T BraDBF=F KetDBF=F FulRan=T
         wScrn=  0.000000 ICntrl=       500 IOpCl=  0 I1Cent=           0 NGrid=           0
         NMat0=    1 NMatS0=      1 NMatT0=    0 NMatD0=    1 NMtDS0=    0 NMtDT0=    0
 Symmetry not used in FoFCou.
 Inv3:  Mode=1 IEnd=    13280448.
 Iteration    1 A*A^-1 deviation from unit magnitude is 2.89D-15 for   1766.
 Iteration    1 A*A^-1 deviation from orthogonality  is 2.02D-15 for   1705    512.
 Iteration    1 A^-1*A deviation from unit magnitude is 2.66D-15 for    881.
 Iteration    1 A^-1*A deviation from orthogonality  is 1.86D-15 for   1535   1130.
 E= -633.135067078157    
 DIIS: error= 4.15D-02 at cycle   1 NSaved=   1.
 NSaved= 1 IEnMin= 1 EnMin= -633.135067078157     IErMin= 1 ErrMin= 4.15D-02
 ErrMax= 4.15D-02  0.00D+00 EMaxC= 1.00D-01 BMatC= 1.09D+00 BMatP= 1.09D+00
 IDIUse=3 WtCom= 5.85D-01 WtEn= 4.15D-01
 Coeff-Com:  0.100D+01
 Coeff-En:   0.100D+01
 Coeff:      0.100D+01
 Gap=     0.227 Goal=   None    Shift=    0.000
 GapD=    0.227 DampG=1.000 DampE=0.500 DampFc=0.5000 IDamp=-1.
 Damping current iteration by 5.00D-01
 RMSDP=4.04D-03 MaxDP=1.92D-01              OVMax= 1.41D-01

 Cycle   2  Pass 1  IDiag  1:
 RMSU=  1.78D-03    CP:  9.29D-01
 E= -633.230418890098     Delta-E=       -0.095351811941 Rises=F Damp=T
 DIIS: error= 1.90D-02 at cycle   2 NSaved=   2.
 NSaved= 2 IEnMin= 2 EnMin= -633.230418890098     IErMin= 2 ErrMin= 1.90D-02
 ErrMax= 1.90D-02  0.00D+00 EMaxC= 1.00D-01 BMatC= 2.23D-01 BMatP= 1.09D+00
 IDIUse=3 WtCom= 8.10D-01 WtEn= 1.90D-01
 Coeff-Com: -0.594D+00 0.159D+01
 Coeff-En:   0.000D+00 0.100D+01
 Coeff:     -0.481D+00 0.148D+01
 Gap=     0.243 Goal=   None    Shift=    0.000
 RMSDP=1.43D-03 MaxDP=4.40D-02 DE=-9.54D-02 OVMax= 1.34D-01

 Cycle   3  Pass 1  IDiag  1:
 RMSU=  1.33D-03    CP:  9.06D-01  1.24D+00
 E= -633.279235465367     Delta-E=       -0.048816575269 Rises=F Damp=F
 DIIS: error= 1.07D-02 at cycle   3 NSaved=   3.
 NSaved= 3 IEnMin= 3 EnMin= -633.279235465367     IErMin= 3 ErrMin= 1.07D-02
 ErrMax= 1.07D-02  0.00D+00 EMaxC= 1.00D-01 BMatC= 6.36D-02 BMatP= 2.23D-01
 IDIUse=3 WtCom= 8.93D-01 WtEn= 1.07D-01
 Coeff-Com: -0.364D+00 0.797D+00 0.567D+00
 Coeff-En:   0.000D+00 0.000D+00 0.100D+01
 Coeff:     -0.325D+00 0.712D+00 0.613D+00
 Gap=     0.238 Goal=   None    Shift=    0.000
 RMSDP=1.33D-03 MaxDP=7.48D-02 DE=-4.88D-02 OVMax= 7.43D-02

 Cycle   4  Pass 1  IDiag  1:
 RMSU=  4.93D-04    CP:  8.58D-01  1.73D+00  5.50D-01
 E= -633.327246167096     Delta-E=       -0.048010701730 Rises=F Damp=F
 DIIS: error= 3.59D-03 at cycle   4 NSaved=   4.
 NSaved= 4 IEnMin= 4 EnMin= -633.327246167096     IErMin= 4 ErrMin= 3.59D-03
 ErrMax= 3.59D-03  0.00D+00 EMaxC= 1.00D-01 BMatC= 6.14D-03 BMatP= 6.36D-02
 IDIUse=3 WtCom= 9.64D-01 WtEn= 3.59D-02
 Coeff-Com: -0.169D+00 0.366D+00 0.354D+00 0.449D+00
 Coeff-En:   0.000D+00 0.000D+00 0.000D+00 0.100D+01
 Coeff:     -0.163D+00 0.353D+00 0.341D+00 0.469D+00
 Gap=     0.234 Goal=   None    Shift=    0.000
 RMSDP=3.10D-04 MaxDP=1.95D-02 DE=-4.80D-02 OVMax= 1.41D-02

 Cycle   5  Pass 1  IDiag  1:
 RMSU=  9.46D-05    CP:  8.68D-01  1.66D+00  6.74D-01  6.65D-01
 E= -633.331907132829     Delta-E=       -0.004660965733 Rises=F Damp=F
 DIIS: error= 4.11D-04 at cycle   5 NSaved=   5.
 NSaved= 5 IEnMin= 5 EnMin= -633.331907132829     IErMin= 5 ErrMin= 4.11D-04
 ErrMax= 4.11D-04  0.00D+00 EMaxC= 1.00D-01 BMatC= 6.20D-05 BMatP= 6.14D-03
 IDIUse=3 WtCom= 9.96D-01 WtEn= 4.11D-03
 Coeff-Com: -0.284D-01 0.607D-01 0.696D-01 0.144D+00 0.754D+00
 Coeff-En:   0.000D+00 0.000D+00 0.000D+00 0.000D+00 0.100D+01
 Coeff:     -0.283D-01 0.604D-01 0.693D-01 0.143D+00 0.755D+00
 Gap=     0.234 Goal=   None    Shift=    0.000
 RMSDP=1.10D-04 MaxDP=6.02D-03 DE=-4.66D-03 OVMax= 1.77D-03

 Cycle   6  Pass 1  IDiag  1:
 RMSU=  4.86D-05    CP:  8.64D-01  1.69D+00  6.81D-01  7.84D-01  1.13D+00
 E= -633.331944827205     Delta-E=       -0.000037694376 Rises=F Damp=F
 DIIS: error= 3.67D-04 at cycle   6 NSaved=   6.
 NSaved= 6 IEnMin= 6 EnMin= -633.331944827205     IErMin= 6 ErrMin= 3.67D-04
 ErrMax= 3.67D-04  0.00D+00 EMaxC= 1.00D-01 BMatC= 2.31D-05 BMatP= 6.20D-05
 IDIUse=3 WtCom= 9.96D-01 WtEn= 3.67D-03
 Coeff-Com:  0.173D-01-0.378D-01-0.296D-01-0.101D-01 0.440D+00 0.620D+00
 Coeff-En:   0.000D+00 0.000D+00 0.000D+00 0.000D+00 0.142D+00 0.858D+00
 Coeff:      0.173D-01-0.377D-01-0.295D-01-0.100D-01 0.439D+00 0.621D+00
 Gap=     0.235 Goal=   None    Shift=    0.000
 RMSDP=2.40D-05 MaxDP=9.06D-04 DE=-3.77D-05 OVMax= 2.75D-03

 Cycle   7  Pass 1  IDiag  1:
 RMSU=  1.71D-05    CP:  8.64D-01  1.69D+00  6.84D-01  7.82D-01  1.24D+00
                    CP:  7.87D-01
 E= -633.331966337217     Delta-E=       -0.000021510012 Rises=F Damp=F
 DIIS: error= 3.72D-05 at cycle   7 NSaved=   7.
 NSaved= 7 IEnMin= 7 EnMin= -633.331966337217     IErMin= 7 ErrMin= 3.72D-05
 ErrMax= 3.72D-05  0.00D+00 EMaxC= 1.00D-01 BMatC= 7.59D-07 BMatP= 2.31D-05
 IDIUse=1 WtCom= 1.00D+00 WtEn= 0.00D+00
 Coeff-Com:  0.367D-02-0.790D-02-0.695D-02-0.106D-01-0.870D-02 0.133D+00
 Coeff-Com:  0.897D+00
 Coeff:      0.367D-02-0.790D-02-0.695D-02-0.106D-01-0.870D-02 0.133D+00
 Coeff:      0.897D+00
 Gap=     0.235 Goal=   None    Shift=    0.000
 RMSDP=1.53D-05 MaxDP=8.32D-04 DE=-2.15D-05 OVMax= 6.34D-04

 Cycle   8  Pass 1  IDiag  1:
 RMSU=  4.59D-06    CP:  8.63D-01  1.69D+00  6.86D-01  7.98D-01  1.29D+00
                    CP:  9.21D-01  1.07D+00
 E= -633.331967551958     Delta-E=       -0.000001214741 Rises=F Damp=F
 DIIS: error= 2.23D-05 at cycle   8 NSaved=   8.
 NSaved= 8 IEnMin= 8 EnMin= -633.331967551958     IErMin= 8 ErrMin= 2.23D-05
 ErrMax= 2.23D-05  0.00D+00 EMaxC= 1.00D-01 BMatC= 9.98D-08 BMatP= 7.59D-07
 IDIUse=1 WtCom= 1.00D+00 WtEn= 0.00D+00
 Coeff-Com: -0.551D-03 0.126D-02 0.693D-03-0.369D-02-0.633D-01-0.150D-01
 Coeff-Com:  0.306D+00 0.775D+00
 Coeff:     -0.551D-03 0.126D-02 0.693D-03-0.369D-02-0.633D-01-0.150D-01
 Coeff:      0.306D+00 0.775D+00
 Gap=     0.235 Goal=   None    Shift=    0.000
 RMSDP=4.07D-06 MaxDP=2.32D-04 DE=-1.21D-06 OVMax= 3.72D-04

 Cycle   9  Pass 1  IDiag  1:
 RMSU=  1.28D-06    CP:  8.63D-01  1.70D+00  6.86D-01  8.02D-01  1.31D+00
                    CP:  9.51D-01  1.17D+00  1.23D+00
 E= -633.331967727751     Delta-E=       -0.000000175793 Rises=F Damp=F
 DIIS: error= 4.38D-06 at cycle   9 NSaved=   9.
 NSaved= 9 IEnMin= 9 EnMin= -633.331967727751     IErMin= 9 ErrMin= 4.38D-06
 ErrMax= 4.38D-06  0.00D+00 EMaxC= 1.00D-01 BMatC= 1.56D-08 BMatP= 9.98D-08
 IDIUse=1 WtCom= 1.00D+00 WtEn= 0.00D+00
 Coeff-Com: -0.846D-03 0.184D-02 0.156D-02 0.477D-03-0.216D-01-0.195D-01
 Coeff-Com: -0.399D-01 0.275D+00 0.803D+00
 Coeff:     -0.846D-03 0.184D-02 0.156D-02 0.477D-03-0.216D-01-0.195D-01
 Coeff:     -0.399D-01 0.275D+00 0.803D+00
 Gap=     0.235 Goal=   None    Shift=    0.000
 RMSDP=1.84D-06 MaxDP=1.09D-04 DE=-1.76D-07 OVMax= 1.11D-04

 Cycle  10  Pass 1  IDiag  1:
 RMSU=  7.36D-07    CP:  8.63D-01  1.70D+00  6.86D-01  8.04D-01  1.31D+00
                    CP:  9.70D-01  1.20D+00  1.36D+00  1.16D+00
 E= -633.331967751462     Delta-E=       -0.000000023710 Rises=F Damp=F
 DIIS: error= 1.58D-06 at cycle  10 NSaved=  10.
 NSaved=10 IEnMin=10 EnMin= -633.331967751462     IErMin=10 ErrMin= 1.58D-06
 ErrMax= 1.58D-06  0.00D+00 EMaxC= 1.00D-01 BMatC= 1.10D-09 BMatP= 1.56D-08
 IDIUse=1 WtCom= 1.00D+00 WtEn= 0.00D+00
 Coeff-Com: -0.203D-03 0.437D-03 0.405D-03 0.334D-03-0.228D-02-0.350D-02
 Coeff-Com: -0.389D-01 0.301D-01 0.242D+00 0.772D+00
 Coeff:     -0.203D-03 0.437D-03 0.405D-03 0.334D-03-0.228D-02-0.350D-02
 Coeff:     -0.389D-01 0.301D-01 0.242D+00 0.772D+00
 Gap=     0.235 Goal=   None    Shift=    0.000
 RMSDP=4.05D-07 MaxDP=1.94D-05 DE=-2.37D-08 OVMax= 2.94D-05

 Cycle  11  Pass 1  IDiag  1:
 RMSU=  2.46D-07    CP:  8.63D-01  1.70D+00  6.86D-01  8.04D-01  1.31D+00
                    CP:  9.72D-01  1.20D+00  1.40D+00  1.25D+00  8.87D-01
 E= -633.331967752833     Delta-E=       -0.000000001372 Rises=F Damp=F
 DIIS: error= 1.13D-06 at cycle  11 NSaved=  11.
 NSaved=11 IEnMin=11 EnMin= -633.331967752833     IErMin=11 ErrMin= 1.13D-06
 ErrMax= 1.13D-06  0.00D+00 EMaxC= 1.00D-01 BMatC= 3.98D-10 BMatP= 1.10D-09
 IDIUse=1 WtCom= 1.00D+00 WtEn= 0.00D+00
 Coeff-Com:  0.204D-04-0.474D-04-0.162D-04 0.109D-03 0.218D-02 0.147D-02
 Coeff-Com: -0.158D-01-0.262D-01-0.351D-02 0.432D+00 0.610D+00
 Coeff:      0.204D-04-0.474D-04-0.162D-04 0.109D-03 0.218D-02 0.147D-02
 Coeff:     -0.158D-01-0.262D-01-0.351D-02 0.432D+00 0.610D+00
 Gap=     0.235 Goal=   None    Shift=    0.000
 RMSDP=1.80D-07 MaxDP=1.11D-05 DE=-1.37D-09 OVMax= 8.77D-06

 Cycle  12  Pass 1  IDiag  1:
 RMSU=  8.56D-08    CP:  8.63D-01  1.70D+00  6.86D-01  8.04D-01  1.31D+00
                    CP:  9.73D-01  1.20D+00  1.41D+00  1.27D+00  1.01D+00
                    CP:  8.07D-01
 E= -633.331967753193     Delta-E=       -0.000000000360 Rises=F Damp=F
 DIIS: error= 2.47D-07 at cycle  12 NSaved=  12.
 NSaved=12 IEnMin=12 EnMin= -633.331967753193     IErMin=12 ErrMin= 2.47D-07
 ErrMax= 2.47D-07  0.00D+00 EMaxC= 1.00D-01 BMatC= 2.88D-11 BMatP= 3.98D-10
 IDIUse=1 WtCom= 1.00D+00 WtEn= 0.00D+00
 Coeff-Com:  0.243D-04-0.539D-04-0.370D-04 0.254D-04 0.119D-02 0.985D-03
 Coeff-Com: -0.394D-02-0.138D-01-0.273D-01 0.132D+00 0.278D+00 0.633D+00
 Coeff:      0.243D-04-0.539D-04-0.370D-04 0.254D-04 0.119D-02 0.985D-03
 Coeff:     -0.394D-02-0.138D-01-0.273D-01 0.132D+00 0.278D+00 0.633D+00
 Gap=     0.235 Goal=   None    Shift=    0.000
 RMSDP=3.73D-08 MaxDP=1.53D-06 DE=-3.60D-10 OVMax= 1.74D-06

 Cycle  13  Pass 1  IDiag  1:
 RMSU=  2.11D-08    CP:  8.63D-01  1.70D+00  6.86D-01  8.04D-01  1.31D+00
                    CP:  9.74D-01  1.20D+00  1.42D+00  1.28D+00  1.02D+00
                    CP:  8.98D-01  9.85D-01
 E= -633.331967753226     Delta-E=       -0.000000000033 Rises=F Damp=F
 DIIS: error= 6.31D-08 at cycle  13 NSaved=  13.
 NSaved=13 IEnMin=13 EnMin= -633.331967753226     IErMin=13 ErrMin= 6.31D-08
 ErrMax= 6.31D-08  0.00D+00 EMaxC= 1.00D-01 BMatC= 2.67D-12 BMatP= 2.88D-11
 IDIUse=1 WtCom= 1.00D+00 WtEn= 0.00D+00
 Coeff-Com:  0.558D-05-0.119D-04-0.116D-04-0.130D-04 0.225D-04 0.854D-04
 Coeff-Com:  0.139D-02 0.574D-03-0.106D-01-0.295D-01-0.139D-01 0.214D+00
 Coeff-Com:  0.838D+00
 Coeff:      0.558D-05-0.119D-04-0.116D-04-0.130D-04 0.225D-04 0.854D-04
 Coeff:      0.139D-02 0.574D-03-0.106D-01-0.295D-01-0.139D-01 0.214D+00
 Coeff:      0.838D+00
 Gap=     0.235 Goal=   None    Shift=    0.000
 RMSDP=1.72D-08 MaxDP=1.37D-06 DE=-3.27D-11 OVMax= 1.26D-06

 Cycle  14  Pass 1  IDiag  1:
 RMSU=  1.01D-08    CP:  8.63D-01  1.70D+00  6.86D-01  8.04D-01  1.31D+00
                    CP:  9.74D-01  1.20D+00  1.42D+00  1.28D+00  1.03D+00
                    CP:  9.24D-01  1.10D+00  1.04D+00
 E= -633.331967753226     Delta-E=       -0.000000000000 Rises=F Damp=F
 DIIS: error= 2.85D-08 at cycle  14 NSaved=  14.
 NSaved=14 IEnMin=14 EnMin= -633.331967753226     IErMin=14 ErrMin= 2.85D-08
 ErrMax= 2.85D-08  0.00D+00 EMaxC= 1.00D-01 BMatC= 1.87D-13 BMatP= 2.67D-12
 IDIUse=1 WtCom= 1.00D+00 WtEn= 0.00D+00
 Coeff-Com: -0.716D-06 0.169D-05 0.744D-06-0.416D-05-0.804D-04-0.443D-04
 Coeff-Com:  0.513D-03 0.132D-02-0.532D-04-0.141D-01-0.231D-01-0.180D-01
 Coeff-Com:  0.134D+00 0.920D+00
 Coeff:     -0.716D-06 0.169D-05 0.744D-06-0.416D-05-0.804D-04-0.443D-04
 Coeff:      0.513D-03 0.132D-02-0.532D-04-0.141D-01-0.231D-01-0.180D-01
 Coeff:      0.134D+00 0.920D+00
 Gap=     0.235 Goal=   None    Shift=    0.000
 RMSDP=5.22D-09 MaxDP=2.44D-07 DE=-3.41D-13 OVMax= 6.47D-07

 Error on total polarization charges =  0.01548
 SCF Done:  E(RCAM-B3LYP) =  -633.331967753     A.U. after   14 cycles
            NFock= 14  Conv=0.52D-08     -V/T= 2.0041
 KE= 6.307272530810D+02 PE=-3.277677081169D+03 EE= 1.112820174396D+03
 Leave Link  502 at Sat Jan 24 16:32:51 2026, MaxMem=  2147483648 cpu:             874.2 elap:              55.1
 (Enter /data/home/wyx/g16/l801.exe)
 DoSCS=F DFT=T ScalE2(SS,OS)=  1.000000  1.000000
 ExpMin= 9.52D-02 ExpMax= 2.70D+04 ExpMxC= 9.22D+02 IAcc=3 IRadAn=         5 AccDes= 0.00D+00
 HarFok:  IExCor=  205 AccDes= 0.00D+00 IRadAn=         5 IDoV=-2 UseB2=F ITyADJ=14
 ICtDFT= 12500011 ScaDFX=  1.000000  1.000000  1.000000  1.000000
 Largest valence mixing into a core orbital is  5.63D-05
 Largest core mixing into a valence orbital is  1.20D-05
 Range of M.O.s used for correlation:    15   356
 NBasis=   356 NAE=    52 NBE=    52 NFC=    14 NFV=     0
 NROrb=    342 NOA=    38 NOB=    38 NVA=   304 NVB=   304

 **** Warning!!: The largest alpha MO coefficient is  0.55150262D+02

 Leave Link  801 at Sat Jan 24 16:32:51 2026, MaxMem=  2147483648 cpu:               0.9 elap:               0.1
 (Enter /data/home/wyx/g16/l914.exe)
 RHF ground state
 Two-electron integrals replicated using symmetry.
 MDV=  2147483648 DFT=T DoStab=F Mixed=T DoRPA=T DoScal=F NonHer=T
 NEqPCM:  Using non-equilibrium solvation (IEInf=1, Eps=  78.3553, EpsInf=   1.7778)
 Inv3:  Mode=1 IEnd=    13280448.
 Iteration    1 A*A^-1 deviation from unit magnitude is 3.22D-15 for    382.
 Iteration    1 A*A^-1 deviation from orthogonality  is 2.33D-15 for   1717   1512.
 Iteration    1 A^-1*A deviation from unit magnitude is 3.22D-15 for    382.
 Iteration    1 A^-1*A deviation from orthogonality  is 1.43D-15 for   1420    910.
 Making orbital integer symmetry assigments:
 Orbital symmetries:
       Occupied  (A) (A) (A) (A) (A) (A) (A) (A) (A) (A) (A) (A)
                 (A) (A) (A) (A) (A) (A) (A) (A) (A) (A) (A) (A)
                 (A) (A) (A) (A) (A) (A) (A) (A) (A) (A) (A) (A)
                 (A) (A) (A) (A) (A) (A) (A) (A) (A) (A) (A) (A)
                 (A) (A) (A) (A)
       Virtual   (A) (A) (A) (A) (A) (A) (A) (A) (A) (A) (A) (A)
                 (A) (A) (A) (A) (A) (A) (A) (A) (A) (A) (A) (A)
                 (A) (A) (A) (A) (A) (A) (A) (A) (A) (A) (A) (A)
                 (A) (A) (A) (A) (A) (A) (A) (A) (A) (A) (A) (A)
                 (A) (A) (A) (A) (A) (A) (A) (A) (A) (A) (A) (A)
                 (A) (A) (A) (A) (A) (A) (A) (A) (A) (A) (A) (A)
                 (A) (A) (A) (A) (A) (A) (A) (A) (A) (A) (A) (A)
                 (A) (A) (A) (A) (A) (A) (A) (A) (A) (A) (A) (A)
                 (A) (A) (A) (A) (A) (A) (A) (A) (A) (A) (A) (A)
                 (A) (A) (A) (A) (A) (A) (A) (A) (A) (A) (A) (A)
                 (A) (A) (A) (A) (A) (A) (A) (A) (A) (A) (A) (A)
                 (A) (A) (A) (A) (A) (A) (A) (A) (A) (A) (A) (A)
                 (A) (A) (A) (A) (A) (A) (A) (A) (A) (A) (A) (A)
                 (A) (A) (A) (A) (A) (A) (A) (A) (A) (A) (A) (A)
                 (A) (A) (A) (A) (A) (A) (A) (A) (A) (A) (A) (A)
                 (A) (A) (A) (A) (A) (A) (A) (A) (A) (A) (A) (A)
                 (A) (A) (A) (A) (A) (A) (A) (A) (A) (A) (A) (A)
                 (A) (A) (A) (A) (A) (A) (A) (A) (A) (A) (A) (A)
                 (A) (A) (A) (A) (A) (A) (A) (A) (A) (A) (A) (A)
                 (A) (A) (A) (A) (A) (A) (A) (A) (A) (A) (A) (A)
                 (A) (A) (A) (A) (A) (A) (A) (A) (A) (A) (A) (A)
                 (A) (A) (A) (A) (A) (A) (A) (A) (A) (A) (A) (A)
                 (A) (A) (A) (A) (A) (A) (A) (A) (A) (A) (A) (A)
                 (A) (A) (A) (A) (A) (A) (A) (A) (A) (A) (A) (A)
                 (A) (A) (A) (A) (A) (A) (A) (A) (A) (A) (A) (A)
                 (A) (A) (A) (A)
    24 initial guesses have been made.
 Convergence on wavefunction:    0.001000000000000
 Davidson Disk Diagonalization:  ConvIn= 1.00D-03 SkipCon=T Conv= 1.00D-03.
 Max sub-space:  2000 roots to seek:    24 dimension of matrix:        23104
 Iteration     1 Dimension    24 NMult     0 NNew     24
 CISAX will form    24 AO SS matrices at one time.
 NMat=    24 NSing=    24 JSym2X= 0.
 FoFJK:  IHMeth= 1 ICntrl=       0 DoSepK=T KAlg= 0 I1Cent=           0 FoldK=F
 IRaf=         1 NMat=      48 IRICut=       1 DoRegI=T DoRafI=F ISym2E= 0 IDoP0=3 IntGTp=3.
 New state      2 was old state      3
 New state      3 was old state      4
 New state      4 was old state      2
 New state      5 was old state      6
 New state      6 was old state      5
 Excitation Energies [eV] at current iteration:
 Root      1 :     3.890846461566589
 Root      2 :     4.342480404370744
 Root      3 :     4.533670336208474
 Root      4 :     5.513560103503310
 Root      5 :     6.176616220456955
 Root      6 :     6.406906754601239
 Root      7 :     6.802668975068499
 Root      8 :     6.828578684549948
 Root      9 :     7.028383717107735
 Root     10 :     7.097363933859505
 Root     11 :     7.252915492401184
 Root     12 :     7.407714673471178
 Root     13 :     7.571726388522630
 Root     14 :     7.628918431948906
 Root     15 :     7.874132206547585
 Root     16 :     7.960034977114995
 Root     17 :     8.180284985685409
 Root     18 :     8.285840324988779
 Root     19 :     8.339241709002499
 Root     20 :     8.460123092207095
 Root     21 :     8.675912125006318
 Root     22 :     8.905215181795475
 Root     23 :     8.921755759662569
 Root     24 :     9.085070479525996
 Iteration     2 Dimension    36 NMult    24 NNew     12
 CISAX will form    12 AO SS matrices at one time.
 NMat=    12 NSing=    12 JSym2X= 0.
 Root      1 not converged, maximum delta is    0.042828926220610
 Root      2 not converged, maximum delta is    0.073446022774329
 Root      3 not converged, maximum delta is    0.087046443386804
 Root      4 not converged, maximum delta is    0.258599591978607
 New state      5 was old state      6
 Root      5 not converged, maximum delta is    0.252972029341360
 New state      6 was old state      5
 Root      6 not converged, maximum delta is    0.137531353685482
 Excitation Energies [eV] at current iteration:
 Root      1 :     3.445502818261527   Change is   -0.445343643305062
 Root      2 :     4.108148928493216   Change is   -0.234331475877528
 Root      3 :     4.264386194273503   Change is   -0.269284141934971
 Root      4 :     5.165838274335738   Change is   -0.347721829167572
 Root      5 :     5.609121115847118   Change is   -0.797785638754122
 Root      6 :     6.067721077214600   Change is   -0.108895143242355
 Iteration     3 Dimension    48 NMult    36 NNew     12
 CISAX will form    12 AO SS matrices at one time.
 NMat=    12 NSing=    12 JSym2X= 0.
 Root      1 not converged, maximum delta is    0.008276433810548
 Root      2 not converged, maximum delta is    0.012485007883703
 Root      3 not converged, maximum delta is    0.012459557327845
 Root      4 not converged, maximum delta is    0.019425925769598
 Root      5 not converged, maximum delta is    0.021137481476310
 Root      6 not converged, maximum delta is    0.007354207391292
 Excitation Energies [eV] at current iteration:
 Root      1 :     3.427870727579851   Change is   -0.017632090681676
 Root      2 :     4.094776145971243   Change is   -0.013372782521974
 Root      3 :     4.250613731917268   Change is   -0.013772462356235
 Root      4 :     5.144367810946736   Change is   -0.021470463389001
 Root      5 :     5.582910125865359   Change is   -0.026210989981758
 Root      6 :     6.061994511951759   Change is   -0.005726565262841
 Iteration     4 Dimension    60 NMult    48 NNew     12
 CISAX will form    12 AO SS matrices at one time.
 NMat=    12 NSing=    12 JSym2X= 0.
 Root      1 not converged, maximum delta is    0.002095036661378
 Root      2 not converged, maximum delta is    0.002088000938989
 Root      3 not converged, maximum delta is    0.002042784431314
 Root      4 not converged, maximum delta is    0.002557343251293
 Root      5 not converged, maximum delta is    0.003065255096299
 Root      6 not converged, maximum delta is    0.001951882671218
 Excitation Energies [eV] at current iteration:
 Root      1 :     3.426442998917708   Change is   -0.001427728662143
 Root      2 :     4.093925618167069   Change is   -0.000850527804174
 Root      3 :     4.249786967753865   Change is   -0.000826764163402
 Root      4 :     5.142621173858326   Change is   -0.001746637088410
 Root      5 :     5.580454737710819   Change is   -0.002455388154540
 Root      6 :     6.061600561054637   Change is   -0.000393950897122
 Iteration     5 Dimension    72 NMult    60 NNew     12
 CISAX will form    12 AO SS matrices at one time.
 NMat=    12 NSing=    12 JSym2X= 0.
 Root      1 has converged.
 Root      2 has converged.
 Root      3 has converged.
 Root      4 has converged.
 Root      5 has converged.
 Root      6 has converged.
 Excitation Energies [eV] at current iteration:
 Root      1 :     3.426367876591775   Change is   -0.000075122325933
 Root      2 :     4.093875393724892   Change is   -0.000050224442177
 Root      3 :     4.249740230568217   Change is   -0.000046737185648
 Root      4 :     5.142479848795744   Change is   -0.000141325062583
 Root      5 :     5.580250645354132   Change is   -0.000204092356687
 Root      6 :     6.061566201015395   Change is   -0.000034360039241
 Convergence achieved on expansion vectors.
 ***********************************************************************
 Excited states from <AA,BB:AA,BB> singles matrix:
 ***********************************************************************
 
 1PDM for each excited state written to RWF  633
 Ground to excited state transition densities written to RWF  633
 Ground to excited state transition electric dipole moments (Au):
       state          X           Y           Z        Dip. S.      Osc.
         1         1.4809      0.1460      0.0402      2.2160      0.1860
         2         0.1398     -0.0087      0.0415      0.0213      0.0021
         3        -0.0205     -0.1146      0.0334      0.0147      0.0015
         4         0.1433     -1.2923      0.1134      1.7034      0.2146
         5         0.0833     -1.4847      0.0502      2.2137      0.3026
         6        -0.0284      0.2377      0.0810      0.0639      0.0095
 Ground to excited state transition velocity dipole moments (Au):
       state          X           Y           Z        Dip. S.      Osc.
         1        -0.1788     -0.0141     -0.0058      0.0322      0.1705
         2        -0.0203      0.0016     -0.0032      0.0004      0.0019
         3         0.0032      0.0165     -0.0018      0.0003      0.0012
         4        -0.0296      0.2321     -0.0167      0.0550      0.1941
         5        -0.0178      0.2979     -0.0105      0.0892      0.2899
         6         0.0071     -0.0490     -0.0374      0.0039      0.0115
 Ground to excited state transition magnetic dipole moments (Au):
       state          X           Y           Z
         1        -0.0818     -0.0279      1.4335
         2         0.7971      0.1371      0.3560
         3        -0.1597     -0.9903     -0.1886
         4         0.0433      0.0796     -0.0336
         5         0.2046      0.1126     -0.2554
         6         0.0304      0.0092     -0.0180
 Ground to excited state transition velocity quadrupole moments (Au):
       state          XX          YY          ZZ          XY          XZ          YZ
         1        -0.1453      0.0844      0.0003      0.5113     -0.0599      0.0108
         2         0.0067     -0.0068      0.0021      0.0578     -0.0178      0.0781
         3        -0.0004      0.0054     -0.0261     -0.0488      0.0612     -0.0063
         4        -1.1169      0.2240     -0.0084     -0.0442     -0.0729     -0.0440
         5        -0.7000      0.2879      0.0479     -0.1787     -0.0750      0.0321
         6        -0.1837     -0.2071      0.1925     -0.0145     -0.0308      0.0851
 <0|del|b> * <b|rxdel|0> + <0|del|b> * <b|delr+rdel|0>
 Rotatory Strengths (R) in cgs (10**-40 erg-esu-cm/Gauss)
       state          XX          YY          ZZ    R(velocity)    E-M Angle
         1       -33.1717     20.5573     49.9658     12.4505       88.52
         2        -2.5608    -43.9228    -33.7698    -26.7511      159.92
         3       -38.3806     -0.6201    -35.8662    -24.9556      163.17
         4        68.6541     -0.2942     -1.9543     22.1352       38.48
         5       104.2083     -5.8866     14.0037     37.4418       71.63
         6        -1.1777      1.5057      1.0661      0.4647       78.83
 1/2[<0|r|b>*<b|rxdel|0> + (<0|rxdel|b>*<b|r|0>)*]
 Rotatory Strengths (R) in cgs (10**-40 erg-esu-cm/Gauss)
       state          XX          YY          ZZ     R(length)
         1        85.7029      2.8796    -40.7959     15.9288
         2       -78.8116      0.8437    -10.4375    -29.4685
         3        -2.3109    -80.2297      4.4519    -26.0296
         4        -4.3909     72.7261      2.6938     23.6764
         5       -12.0568    118.2258      9.0728     38.4139
         6         0.6098     -1.5440      1.0319      0.0326
  1/2[<0|del|b>*<b|r|0> + (<0|r|b>*<b|del|0>)*] (Au)
       state          X           Y           Z        Dip. S.   Osc.(frdel)
         1        -0.2648     -0.0021     -0.0002      0.2671      0.1781
         2        -0.0028     -0.0000     -0.0001      0.0030      0.0020
         3        -0.0001     -0.0019     -0.0001      0.0020      0.0013
         4        -0.0042     -0.2999     -0.0019      0.3060      0.2040
         5        -0.0015     -0.4423     -0.0005      0.4443      0.2962
         6        -0.0002     -0.0117     -0.0030      0.0149      0.0099

 Excitation energies and oscillator strengths:
 
 Excited State   1:      Singlet-A      3.4264 eV  361.85 nm  f=0.1860  <S**2>=0.000
      52 -> 53         0.69917
 This state for optimization and/or second-order correction.
 Total Energy, E(TD-HF/TD-DFT) =  -633.206051051    
 Copying the excited state density for this state as the 1-particle RhoCI density.
 
 Excited State   2:      Singlet-A      4.0939 eV  302.85 nm  f=0.0021  <S**2>=0.000
      50 -> 53        -0.11021
      50 -> 54        -0.19786
      51 -> 53         0.56327
      51 -> 54         0.31692
 
 Excited State   3:      Singlet-A      4.2497 eV  291.75 nm  f=0.0015  <S**2>=0.000
      49 -> 53        -0.27602
      49 -> 54         0.17889
      50 -> 53         0.50149
      50 -> 54        -0.23787
      50 -> 58         0.10641
      51 -> 54        -0.21404
 
 Excited State   4:      Singlet-A      5.1425 eV  241.10 nm  f=0.2146  <S**2>=0.000
      52 -> 54         0.69740
 
 Excited State   5:      Singlet-A      5.5803 eV  222.18 nm  f=0.3026  <S**2>=0.000
      49 -> 53         0.59375
      50 -> 53         0.31108
      51 -> 53         0.16079
 
 Excited State   6:      Singlet-A      6.0616 eV  204.54 nm  f=0.0095  <S**2>=0.000
      52 -> 55         0.66758
      52 -> 56        -0.12637
 SavETr:  write IOETrn=   770 NScale= 10 NData=  16 NLR=1 NState=    6 LETran=     118.
 Leave Link  914 at Sat Jan 24 16:34:44 2026, MaxMem=  2147483648 cpu:            1791.0 elap:             112.6
 (Enter /data/home/wyx/g16/l601.exe)
 Copying SCF densities to generalized density rwf, IOpCl= 0 IROHF=0.

 **********************************************************************

            Population analysis using the SCF density.

 **********************************************************************

 Orbital symmetries:
       Occupied  (A) (A) (A) (A) (A) (A) (A) (A) (A) (A) (A) (A)
                 (A) (A) (A) (A) (A) (A) (A) (A) (A) (A) (A) (A)
                 (A) (A) (A) (A) (A) (A) (A) (A) (A) (A) (A) (A)
                 (A) (A) (A) (A) (A) (A) (A) (A) (A) (A) (A) (A)
                 (A) (A) (A) (A)
       Virtual   (A) (A) (A) (A) (A) (A) (A) (A) (A) (A) (A) (A)
                 (A) (A) (A) (A) (A) (A) (A) (A) (A) (A) (A) (A)
                 (A) (A) (A) (A) (A) (A) (A) (A) (A) (A) (A) (A)
                 (A) (A) (A) (A) (A) (A) (A) (A) (A) (A) (A) (A)
                 (A) (A) (A) (A) (A) (A) (A) (A) (A) (A) (A) (A)
                 (A) (A) (A) (A) (A) (A) (A) (A) (A) (A) (A) (A)
                 (A) (A) (A) (A) (A) (A) (A) (A) (A) (A) (A) (A)
                 (A) (A) (A) (A) (A) (A) (A) (A) (A) (A) (A) (A)
                 (A) (A) (A) (A) (A) (A) (A) (A) (A) (A) (A) (A)
                 (A) (A) (A) (A) (A) (A) (A) (A) (A) (A) (A) (A)
                 (A) (A) (A) (A) (A) (A) (A) (A) (A) (A) (A) (A)
                 (A) (A) (A) (A) (A) (A) (A) (A) (A) (A) (A) (A)
                 (A) (A) (A) (A) (A) (A) (A) (A) (A) (A) (A) (A)
                 (A) (A) (A) (A) (A) (A) (A) (A) (A) (A) (A) (A)
                 (A) (A) (A) (A) (A) (A) (A) (A) (A) (A) (A) (A)
                 (A) (A) (A) (A) (A) (A) (A) (A) (A) (A) (A) (A)
                 (A) (A) (A) (A) (A) (A) (A) (A) (A) (A) (A) (A)
                 (A) (A) (A) (A) (A) (A) (A) (A) (A) (A) (A) (A)
                 (A) (A) (A) (A) (A) (A) (A) (A) (A) (A) (A) (A)
                 (A) (A) (A) (A) (A) (A) (A) (A) (A) (A) (A) (A)
                 (A) (A) (A) (A) (A) (A) (A) (A) (A) (A) (A) (A)
                 (A) (A) (A) (A) (A) (A) (A) (A) (A) (A) (A) (A)
                 (A) (A) (A) (A) (A) (A) (A) (A) (A) (A) (A) (A)
                 (A) (A) (A) (A) (A) (A) (A) (A) (A) (A) (A) (A)
                 (A) (A) (A) (A) (A) (A) (A) (A) (A) (A) (A) (A)
                 (A) (A) (A) (A)
 The electronic state is 1-A.
 Alpha  occ. eigenvalues --  -19.17968 -19.17478 -14.44137 -10.33503 -10.33157
 Alpha  occ. eigenvalues --  -10.32121 -10.31627 -10.25612 -10.25064 -10.24802
 Alpha  occ. eigenvalues --  -10.24731 -10.24570 -10.24172 -10.23778  -1.11981
 Alpha  occ. eigenvalues --   -1.11620  -1.07650  -0.91236  -0.90337  -0.83897
 Alpha  occ. eigenvalues --   -0.82538  -0.81540  -0.78535  -0.73954  -0.71301
 Alpha  occ. eigenvalues --   -0.68655  -0.61629  -0.58214  -0.56849  -0.55182
 Alpha  occ. eigenvalues --   -0.54504  -0.54029  -0.52600  -0.51902  -0.50743
 Alpha  occ. eigenvalues --   -0.50069  -0.49545  -0.49134  -0.48484  -0.48154
 Alpha  occ. eigenvalues --   -0.46869  -0.45457  -0.45029  -0.43443  -0.43078
 Alpha  occ. eigenvalues --   -0.42450  -0.42127  -0.42052  -0.32809  -0.32349
 Alpha  occ. eigenvalues --   -0.31428  -0.26010
 Alpha virt. eigenvalues --   -0.02509   0.02448   0.06527   0.08245   0.08799
 Alpha virt. eigenvalues --    0.10089   0.10756   0.11970   0.12721   0.13628
 Alpha virt. eigenvalues --    0.14162   0.15092   0.15742   0.16232   0.16993
 Alpha virt. eigenvalues --    0.17513   0.17836   0.18022   0.18255   0.19209
 Alpha virt. eigenvalues --    0.20052   0.22153   0.22903   0.23418   0.23645
 Alpha virt. eigenvalues --    0.24216   0.24850   0.25717   0.25864   0.26583
 Alpha virt. eigenvalues --    0.26880   0.27442   0.28775   0.29145   0.30229
 Alpha virt. eigenvalues --    0.31667   0.32025   0.32660   0.33631   0.34467
 Alpha virt. eigenvalues --    0.35320   0.35952   0.36732   0.38145   0.38805
 Alpha virt. eigenvalues --    0.39881   0.40960   0.41757   0.42226   0.42678
 Alpha virt. eigenvalues --    0.44109   0.44305   0.45403   0.46090   0.46165
 Alpha virt. eigenvalues --    0.47345   0.47835   0.48081   0.48272   0.49037
 Alpha virt. eigenvalues --    0.49572   0.50237   0.50790   0.51382   0.51614
 Alpha virt. eigenvalues --    0.52773   0.53181   0.53466   0.54166   0.54375
 Alpha virt. eigenvalues --    0.54680   0.55948   0.56137   0.56558   0.58341
 Alpha virt. eigenvalues --    0.58683   0.59118   0.60751   0.60989   0.62690
 Alpha virt. eigenvalues --    0.63236   0.65678   0.66073   0.66362   0.67895
 Alpha virt. eigenvalues --    0.68744   0.70215   0.71318   0.72268   0.73122
 Alpha virt. eigenvalues --    0.73318   0.73895   0.74780   0.76139   0.77751
 Alpha virt. eigenvalues --    0.78169   0.79657   0.82072   0.84505   0.85082
 Alpha virt. eigenvalues --    0.89279   0.93196   0.99287   1.00092   1.24492
 Alpha virt. eigenvalues --    1.25602   1.27252   1.27703   1.29429   1.31474
 Alpha virt. eigenvalues --    1.32512   1.33000   1.34120   1.35019   1.36068
 Alpha virt. eigenvalues --    1.36500   1.37178   1.38344   1.39249   1.39859
 Alpha virt. eigenvalues --    1.40121   1.40460   1.41096   1.41568   1.41772
 Alpha virt. eigenvalues --    1.43364   1.44185   1.44510   1.45151   1.47089
 Alpha virt. eigenvalues --    1.48071   1.49146   1.49689   1.50452   1.51126
 Alpha virt. eigenvalues --    1.52030   1.52400   1.53612   1.54381   1.57696
 Alpha virt. eigenvalues --    1.58165   1.60433   1.60737   1.61291   1.62255
 Alpha virt. eigenvalues --    1.62725   1.63335   1.64251   1.65418   1.65653
 Alpha virt. eigenvalues --    1.67144   1.67459   1.67957   1.68220   1.68799
 Alpha virt. eigenvalues --    1.68830   1.69988   1.70561   1.72039   1.72329
 Alpha virt. eigenvalues --    1.73476   1.75167   1.76180   1.76647   1.78753
 Alpha virt. eigenvalues --    1.80164   1.83363   1.84562   1.86251   1.86646
 Alpha virt. eigenvalues --    1.87023   1.87378   1.88503   1.89340   1.90926
 Alpha virt. eigenvalues --    1.91409   1.94578   1.95411   1.98364   1.99671
 Alpha virt. eigenvalues --    2.01042   2.03847   2.04708   2.06664   2.09573
 Alpha virt. eigenvalues --    2.11283   2.12873   2.14761   2.16920   2.19659
 Alpha virt. eigenvalues --    2.20472   2.21405   2.21874   2.22952   2.25946
 Alpha virt. eigenvalues --    2.27059   2.27767   2.29135   2.30793   2.31721
 Alpha virt. eigenvalues --    2.33202   2.34580   2.36331   2.37043   2.37962
 Alpha virt. eigenvalues --    2.39527   2.40202   2.41641   2.43836   2.44917
 Alpha virt. eigenvalues --    2.45987   2.47632   2.50096   2.50591   2.51904
 Alpha virt. eigenvalues --    2.52817   2.53506   2.54921   2.56920   2.58691
 Alpha virt. eigenvalues --    2.59074   2.60171   2.61202   2.62068   2.62706
 Alpha virt. eigenvalues --    2.64493   2.65680   2.67114   2.67575   2.69121
 Alpha virt. eigenvalues --    2.70958   2.72128   2.72986   2.73714   2.74979
 Alpha virt. eigenvalues --    2.76264   2.76626   2.77390   2.77984   2.79327
 Alpha virt. eigenvalues --    2.80663   2.81486   2.83084   2.83465   2.84455
 Alpha virt. eigenvalues --    2.85545   2.86209   2.87943   2.90201   2.91764
 Alpha virt. eigenvalues --    2.97554   2.99653   3.00934   3.04534   3.10414
 Alpha virt. eigenvalues --    3.12402   3.15541   3.16955   3.17369   3.20020
 Alpha virt. eigenvalues --    3.20969   3.22139   3.24792   3.26114   3.27017
 Alpha virt. eigenvalues --    3.27298   3.29527   3.33402   3.34493   3.36676
 Alpha virt. eigenvalues --    3.37160   3.38931   3.39880   3.40475   3.41648
 Alpha virt. eigenvalues --    3.42742   3.45010   3.45504   3.46549   3.47957
 Alpha virt. eigenvalues --    3.48901   3.49856   3.55276   3.58310   3.59589
 Alpha virt. eigenvalues --    3.60282   3.90072   3.99829   4.33868   4.35790
 Alpha virt. eigenvalues --   21.64038  21.79475  22.08276  22.11027  22.11837
 Alpha virt. eigenvalues --   22.14705  22.15480  22.18268  22.20931  22.24673
 Alpha virt. eigenvalues --   22.29962  31.92983  43.62908  43.65309
          Condensed to atoms (all electrons):
               1          2          3          4          5          6
     1  O    7.955661   0.000000  -0.000240   0.000018   0.017068   0.015152
     2  O    0.000000   7.982625   0.000381   0.000026  -0.203627   0.000986
     3  N   -0.000240   0.000381   6.389136   0.373168  -0.113223   0.332390
     4  H    0.000018   0.000026   0.373168   0.402746   0.016786  -0.045500
     5  C    0.017068  -0.203627  -0.113223   0.016786   7.000297  -0.061788
     6  C    0.015152   0.000986   0.332390  -0.045500  -0.061788   5.602005
     7  C   -0.000408  -0.032881   0.379520  -0.039150   0.380558  -0.095376
     8  C   -0.000245   0.715814   0.004638  -0.000658  -0.265007   0.027613
     9  C   -0.026637   0.019120   0.014120  -0.000240  -0.490675  -0.118071
    10  H    0.004151   0.000083   0.003911   0.000017  -0.030190  -0.016871
    11  H    0.016424   0.000006  -0.001362   0.000018  -0.110637   0.025274
    12  C   -0.222012  -0.002299  -0.092478   0.014816   0.143710  -0.141141
    13  C    0.711097  -0.000031   0.000346   0.000396   0.076342   0.166863
    14  C   -0.000006  -0.013124  -0.035163  -0.008895  -0.070385   0.009180
    15  H   -0.000000   0.004162   0.004080   0.001270   0.016766   0.006290
    16  H   -0.000000   0.001931  -0.003231   0.000899  -0.004299  -0.001890
    17  H   -0.000000   0.002276   0.001451   0.000772  -0.008161  -0.000838
    18  C   -0.000040  -0.106295  -0.000568   0.000018  -0.270729   0.000489
    19  H   -0.000004   0.009226   0.000004  -0.000001   0.026316   0.000024
    20  H    0.000010   0.001055   0.000012  -0.000000   0.003304   0.000242
    21  H    0.000078   0.003652   0.000122   0.000001   0.041836  -0.001100
    22  C   -0.106644   0.000000   0.000019   0.000109   0.004004  -0.013101
    23  H    0.004802  -0.000000  -0.000043  -0.000052  -0.000613  -0.032607
    24  H    0.001256  -0.000000  -0.000031  -0.000015  -0.000084   0.011110
    25  H    0.007425   0.000000   0.000031  -0.000002  -0.000141  -0.001235
    26  C    0.000896   0.000004  -0.029120  -0.006124  -0.000266   0.180539
    27  H   -0.000238  -0.000000   0.002789   0.000863   0.000077  -0.045279
    28  H   -0.000047  -0.000000  -0.002471   0.000446   0.000406  -0.034479
    29  H    0.000025  -0.000000   0.000541   0.001039  -0.000526  -0.048420
               7          8          9         10         11         12
     1  O   -0.000408  -0.000245  -0.026637   0.004151   0.016424  -0.222012
     2  O   -0.032881   0.715814   0.019120   0.000083   0.000006  -0.002299
     3  N    0.379520   0.004638   0.014120   0.003911  -0.001362  -0.092478
     4  H   -0.039150  -0.000658  -0.000240   0.000017   0.000018   0.014816
     5  C    0.380558  -0.265007  -0.490675  -0.030190  -0.110637   0.143710
     6  C   -0.095376   0.027613  -0.118071  -0.016871   0.025274  -0.141141
     7  C    5.416121  -0.183782  -0.174014  -0.004766   0.018170  -0.000223
     8  C   -0.183782   5.357015   0.095776  -0.005008  -0.008029  -0.031926
     9  C   -0.174014   0.095776   6.271726   0.395098   0.527739   0.015068
    10  H   -0.004766  -0.005008   0.395098   0.557818  -0.037748  -0.021963
    11  H    0.018170  -0.008029   0.527739  -0.037748   0.510803  -0.107324
    12  C   -0.000223  -0.031926   0.015068  -0.021963  -0.107324   7.233008
    13  C    0.012432  -0.006325  -0.263698   0.001546  -0.000950  -0.386708
    14  C    0.258290  -0.040796   0.009834  -0.001320   0.000544  -0.003629
    15  H   -0.072659   0.005459  -0.000035   0.000072  -0.000003  -0.001156
    16  H   -0.024376  -0.001034   0.000629  -0.000067   0.000053   0.000790
    17  H   -0.030995  -0.008031  -0.000490   0.000197  -0.000057  -0.000033
    18  C    0.002536   0.320461  -0.000817  -0.009414   0.008451  -0.003229
    19  H    0.000391  -0.054093  -0.000316  -0.000030   0.000500  -0.000206
    20  H    0.001057  -0.025176  -0.009359   0.000974  -0.002147  -0.003503
    21  H    0.000558  -0.063487  -0.008801   0.002332  -0.005386   0.006592
    22  C    0.000061  -0.000060   0.004379   0.001702   0.000859  -0.248738
    23  H    0.000019  -0.000008   0.003496  -0.000131  -0.000070   0.063912
    24  H    0.000029   0.000003  -0.002042   0.000144  -0.000114  -0.012403
    25  H    0.000004   0.000004   0.000197  -0.000043  -0.000133   0.024166
    26  C    0.002509   0.000474   0.019916  -0.000743   0.000034  -0.078312
    27  H   -0.000797   0.000004  -0.000826  -0.000085   0.000003  -0.007586
    28  H   -0.000855  -0.000011  -0.000226  -0.000023   0.000047  -0.019550
    29  H    0.003698  -0.000007  -0.000511   0.000097  -0.000010   0.023660
              13         14         15         16         17         18
     1  O    0.711097  -0.000006  -0.000000  -0.000000  -0.000000  -0.000040
     2  O   -0.000031  -0.013124   0.004162   0.001931   0.002276  -0.106295
     3  N    0.000346  -0.035163   0.004080  -0.003231   0.001451  -0.000568
     4  H    0.000396  -0.008895   0.001270   0.000899   0.000772   0.000018
     5  C    0.076342  -0.070385   0.016766  -0.004299  -0.008161  -0.270729
     6  C    0.166863   0.009180   0.006290  -0.001890  -0.000838   0.000489
     7  C    0.012432   0.258290  -0.072659  -0.024376  -0.030995   0.002536
     8  C   -0.006325  -0.040796   0.005459  -0.001034  -0.008031   0.320461
     9  C   -0.263698   0.009834  -0.000035   0.000629  -0.000490  -0.000817
    10  H    0.001546  -0.001320   0.000072  -0.000067   0.000197  -0.009414
    11  H   -0.000950   0.000544  -0.000003   0.000053  -0.000057   0.008451
    12  C   -0.386708  -0.003629  -0.001156   0.000790  -0.000033  -0.003229
    13  C    5.443980  -0.000038  -0.000019  -0.000021  -0.000000   0.000504
    14  C   -0.000038   5.072415   0.387470   0.407978   0.424599   0.001352
    15  H   -0.000019   0.387470   0.568561  -0.024879  -0.027391   0.000272
    16  H   -0.000021   0.407978  -0.024879   0.510659  -0.027661  -0.000017
    17  H   -0.000000   0.424599  -0.027391  -0.027661   0.511511  -0.000217
    18  C    0.000504   0.001352   0.000272  -0.000017  -0.000217   5.349291
    19  H   -0.000011   0.000077  -0.000006  -0.000022   0.000031   0.390467
    20  H   -0.000072  -0.000270  -0.000006  -0.000007   0.000025   0.397818
    21  H    0.000512   0.000079  -0.000017   0.000003  -0.000041   0.380818
    22  C    0.288179  -0.000022   0.000002   0.000000  -0.000000   0.000026
    23  H   -0.091062  -0.000000   0.000000   0.000000   0.000000   0.000003
    24  H   -0.021863  -0.000001   0.000000   0.000000  -0.000000  -0.000002
    25  H   -0.041535   0.000000   0.000000  -0.000000   0.000000  -0.000001
    26  C   -0.055157   0.001353   0.000050  -0.000174   0.000055   0.000023
    27  H   -0.005215   0.000091  -0.000012   0.000001  -0.000001  -0.000000
    28  H    0.006474  -0.000114   0.000002  -0.000011   0.000004  -0.000001
    29  H   -0.000474  -0.000231   0.000126   0.000002  -0.000004   0.000000
              19         20         21         22         23         24
     1  O   -0.000004   0.000010   0.000078  -0.106644   0.004802   0.001256
     2  O    0.009226   0.001055   0.003652   0.000000  -0.000000  -0.000000
     3  N    0.000004   0.000012   0.000122   0.000019  -0.000043  -0.000031
     4  H   -0.000001  -0.000000   0.000001   0.000109  -0.000052  -0.000015
     5  C    0.026316   0.003304   0.041836   0.004004  -0.000613  -0.000084
     6  C    0.000024   0.000242  -0.001100  -0.013101  -0.032607   0.011110
     7  C    0.000391   0.001057   0.000558   0.000061   0.000019   0.000029
     8  C   -0.054093  -0.025176  -0.063487  -0.000060  -0.000008   0.000003
     9  C   -0.000316  -0.009359  -0.008801   0.004379   0.003496  -0.002042
    10  H   -0.000030   0.000974   0.002332   0.001702  -0.000131   0.000144
    11  H    0.000500  -0.002147  -0.005386   0.000859  -0.000070  -0.000114
    12  C   -0.000206  -0.003503   0.006592  -0.248738   0.063912  -0.012403
    13  C   -0.000011  -0.000072   0.000512   0.288179  -0.091062  -0.021863
    14  C    0.000077  -0.000270   0.000079  -0.000022  -0.000000  -0.000001
    15  H   -0.000006  -0.000006  -0.000017   0.000002   0.000000   0.000000
    16  H   -0.000022  -0.000007   0.000003   0.000000   0.000000   0.000000
    17  H    0.000031   0.000025  -0.000041  -0.000000   0.000000  -0.000000
    18  C    0.390467   0.397818   0.380818   0.000026   0.000003  -0.000002
    19  H    0.507301  -0.009839  -0.021417  -0.000000   0.000000   0.000000
    20  H   -0.009839   0.497779  -0.025804  -0.000013  -0.000000   0.000000
    21  H   -0.021417  -0.025804   0.535341   0.000016  -0.000000  -0.000000
    22  C   -0.000000  -0.000013   0.000016   5.410965   0.399477   0.401720
    23  H    0.000000  -0.000000  -0.000000   0.399477   0.535928  -0.026062
    24  H    0.000000   0.000000  -0.000000   0.401720  -0.026062   0.489320
    25  H   -0.000000   0.000000  -0.000000   0.383440  -0.021988  -0.008278
    26  C    0.000000   0.000005  -0.000015  -0.028992   0.015848  -0.014223
    27  H   -0.000000   0.000000  -0.000000   0.008520  -0.009894  -0.000721
    28  H    0.000000  -0.000000  -0.000000  -0.011281  -0.001317   0.001086
    29  H    0.000000  -0.000000   0.000000   0.001926   0.000703   0.000196
              25         26         27         28         29
     1  O    0.007425   0.000896  -0.000238  -0.000047   0.000025
     2  O    0.000000   0.000004  -0.000000  -0.000000  -0.000000
     3  N    0.000031  -0.029120   0.002789  -0.002471   0.000541
     4  H   -0.000002  -0.006124   0.000863   0.000446   0.001039
     5  C   -0.000141  -0.000266   0.000077   0.000406  -0.000526
     6  C   -0.001235   0.180539  -0.045279  -0.034479  -0.048420
     7  C    0.000004   0.002509  -0.000797  -0.000855   0.003698
     8  C    0.000004   0.000474   0.000004  -0.000011  -0.000007
     9  C    0.000197   0.019916  -0.000826  -0.000226  -0.000511
    10  H   -0.000043  -0.000743  -0.000085  -0.000023   0.000097
    11  H   -0.000133   0.000034   0.000003   0.000047  -0.000010
    12  C    0.024166  -0.078312  -0.007586  -0.019550   0.023660
    13  C   -0.041535  -0.055157  -0.005215   0.006474  -0.000474
    14  C    0.000000   0.001353   0.000091  -0.000114  -0.000231
    15  H    0.000000   0.000050  -0.000012   0.000002   0.000126
    16  H   -0.000000  -0.000174   0.000001  -0.000011   0.000002
    17  H    0.000000   0.000055  -0.000001   0.000004  -0.000004
    18  C   -0.000001   0.000023  -0.000000  -0.000001   0.000000
    19  H   -0.000000   0.000000  -0.000000   0.000000   0.000000
    20  H    0.000000   0.000005   0.000000  -0.000000  -0.000000
    21  H   -0.000000  -0.000015  -0.000000  -0.000000   0.000000
    22  C    0.383440  -0.028992   0.008520  -0.011281   0.001926
    23  H   -0.021988   0.015848  -0.009894  -0.001317   0.000703
    24  H   -0.008278  -0.014223  -0.000721   0.001086   0.000196
    25  H    0.497072   0.001974   0.000827   0.000105  -0.000043
    26  C    0.001974   5.253210   0.427348   0.429668   0.389051
    27  H    0.000827   0.427348   0.508375  -0.025374  -0.026099
    28  H    0.000105   0.429668  -0.025374   0.476082  -0.017595
    29  H   -0.000043   0.389051  -0.026099  -0.017595   0.515271
 Mulliken charges:
               1
     1  O   -0.377542
     2  O   -0.383091
     3  N   -0.228728
     4  H    0.287231
     5  C   -0.097118
     6  C    0.279540
     7  C    0.184331
     8  C    0.166424
     9  C   -0.280341
    10  H    0.160260
    11  H    0.165048
    12  C   -0.141301
    13  C    0.164508
    14  C   -0.399268
    15  H    0.131601
    16  H    0.164742
    17  H    0.162999
    18  C   -0.461200
    19  H    0.151608
    20  H    0.173912
    21  H    0.154125
    22  C   -0.496551
    23  H    0.159661
    24  H    0.180976
    25  H    0.158151
    26  C   -0.509831
    27  H    0.173230
    28  H    0.199036
    29  H    0.157587
 Sum of Mulliken charges =  -0.00000
 Mulliken charges with hydrogens summed into heavy atoms:
               1
     1  O   -0.377542
     2  O   -0.383091
     3  N    0.058503
     5  C   -0.097118
     6  C    0.279540
     7  C    0.184331
     8  C    0.166424
     9  C    0.044967
    12  C   -0.141301
    13  C    0.164508
    14  C    0.060075
    18  C    0.018446
    22  C    0.002236
    26  C    0.020022
 Electronic spatial extent (au):  <R**2>=           3185.5242
 Charge=             -0.0000 electrons
 Dipole moment (field-independent basis, Debye):
    X=             -4.0587    Y=              7.6051    Z=             -0.3382  Tot=              8.6270
 Quadrupole moment (field-independent basis, Debye-Ang):
   XX=            -98.0168   YY=            -78.3693   ZZ=            -84.9636
   XY=            -12.8525   XZ=             -5.6607   YZ=             -1.6640
 Traceless Quadrupole moment (field-independent basis, Debye-Ang):
   XX=            -10.9002   YY=              8.7473   ZZ=              2.1530
   XY=            -12.8525   XZ=             -5.6607   YZ=             -1.6640
 Octapole moment (field-independent basis, Debye-Ang**2):
  XXX=           -110.0838  YYY=             65.9369  ZZZ=              1.9203  XYY=             34.8611
  XXY=             31.8096  XXZ=            -10.4319  XZZ=             -2.5532  YZZ=             -1.0227
  YYZ=              3.2401  XYZ=              5.2189
 Hexadecapole moment (field-independent basis, Debye-Ang**3):
 XXXX=          -3028.7853 YYYY=          -1272.7628 ZZZZ=           -156.2379 XXXY=            -39.7361
 XXXZ=            -65.8254 YYYX=            -89.4076 YYYZ=            -22.3238 ZZZX=              2.3761
 ZZZY=              5.3199 XXYY=           -690.6483 XXZZ=           -485.5374 YYZZ=           -242.6098
 XXYZ=             -6.5021 YYXZ=             -7.1108 ZZXY=              0.9123
 N-N= 9.007976859391D+02 E-N=-3.277677081288D+03  KE= 6.307272530810D+02
 Leave Link  601 at Sat Jan 24 16:34:45 2026, MaxMem=  2147483648 cpu:               0.7 elap:               0.1
 (Enter /data/home/wyx/g16/l9999.exe)
 Electronic transition elements 
                 1             2             3             4             5 
      1  -0.633206D+03 -0.633182D+03 -0.633176D+03 -0.633143D+03 -0.633127D+03
      2  -0.140723D+01 -0.118040D+00  0.634559D-01  0.319289D+00  0.426200D+00
      3  -0.365172D+00 -0.557247D-01 -0.100909D+00 -0.126454D+01 -0.142503D+01
      4  -0.319959D+00 -0.655987D-01 -0.211391D-01 -0.487265D-01  0.373308D-01
      5   0.168541D+00  0.175226D-01 -0.876251D-02 -0.530282D-01 -0.845866D-01
      6   0.474361D-01  0.838982D-02  0.144784D-01  0.228409D+00  0.286322D+00
      7   0.393537D-01  0.676102D-02  0.525347D-04  0.587436D-02 -0.692095D-02
      8   0.364419D+00 -0.711676D+00  0.439622D+00 -0.729934D-01 -0.276047D+00
      9  -0.219534D-02 -0.142373D+00 -0.876944D+00  0.602447D-01  0.371790D-01
     10  -0.138906D+01 -0.504180D+00  0.282091D+00  0.195855D-01  0.205444D+00
     11   0.219339D+00  0.367751D-01 -0.519246D-01 -0.921801D+00 -0.649224D+00
     12  -0.268514D+00 -0.424913D-01  0.360536D-01  0.979615D-01  0.287957D+00
     13  -0.113347D-01  0.779425D-02 -0.520425D-02 -0.774815D-01 -0.300224D-02
     14  -0.452252D+00 -0.238684D-01  0.300186D-01 -0.389776D+00 -0.163465D+00
     15  -0.797648D-02  0.166706D-01  0.502312D-01 -0.264153D+00 -0.197938D+00
     16  -0.120289D+00 -0.857037D-01  0.330144D-01 -0.608519D-01 -0.898669D-01
                 6 
      1  -0.633109D+03
      2  -0.370149D-01
      3   0.233039D+00
      4  -0.905321D-01
      5   0.246208D-02
      6  -0.484432D-01
      7   0.387690D-01
      8  -0.346211D-01
      9  -0.162708D-02
     10   0.114927D-01
     11  -0.180797D+00
     12  -0.195623D+00
     13   0.178140D+00
     14   0.357577D-01
     15  -0.744788D-01
     16  -0.840932D-01
 1\1\GINC-CN012\SP\RCAM-B3LYP TD-FC\TZVP\C11H15N1O2\WYX\24-Jan-2026\0\\
 #p CAM-B3LYP TZVP em=gd3bj td(nstates=6,root=1) scrf=(Solvent=Water)\\
 Title Card Required\\0,1\O,0,2.741595,-1.558465,0.760281\O,0,-3.238037
 ,-1.643825,-1.078266\N,0,-0.706159,1.513866,0.096963\H,0,-1.014389,2.4
 71855,0.038108\C,0,-1.248955,-0.759125,-0.155137\C,0,0.64132,1.305949,
 0.271082\C,0,-1.621025,0.549228,-0.23585\C,0,-2.153207,-1.837192,-0.53
 6163\C,0,0.100317,-1.102153,0.411519\H,0,0.000684,-1.441704,1.452344\H
 ,0,0.526714,-1.958701,-0.108748\C,0,1.095069,0.025045,0.352977\C,0,2.4
 90051,-0.391226,0.464639\C,0,-2.9477,1.086696,-0.653728\H,0,-3.036023,
 2.141031,-0.399083\H,0,-3.084171,0.983518,-1.727801\H,0,-3.75882,0.540
 117,-0.186713\C,0,-1.720508,-3.251368,-0.252136\H,0,-2.56052,-3.922597
 ,-0.395986\H,0,-0.922986,-3.54738,-0.932973\H,0,-1.333788,-3.366582,0.
 757715\C,0,3.647338,0.536881,0.189614\H,0,3.45113,1.237521,-0.617493\H
 ,0,3.895556,1.109342,1.085122\H,0,4.51,-0.075299,-0.06329\C,0,1.41779,
 2.58199,0.352\H,0,2.241648,2.518481,1.05169\H,0,1.817491,2.86175,-0.62
 2772\H,0,0.769583,3.392345,0.682082\\Version=ES64L-G16RevA.03\State=1-
 A\HF=-633.3319678\RMSD=5.217e-09\PG=C01 [X(C11H15N1O2)]\\@


 "MATHEMATICS IS THE ART OF GIVING THE SAME NAME
 TO DIFFERENT THINGS."
                    - H. POINCARE
 Job cpu time:       0 days  0 hours 44 minutes 45.4 seconds.
 Elapsed time:       0 days  0 hours  2 minutes 49.1 seconds.
 File lengths (MBytes):  RWF=    831 Int=      0 D2E=      0 Chk=     34 Scr=      1
 Normal termination of Gaussian 16 at Sat Jan 24 16:34:48 2026.
