 Entering Gaussian System, Link 0=g16
 Input=DDL-S2-cLR-gs-8.gjf
 Output=DDL-S2-cLR-gs-8.log
 Initial command:
 /data/home/wyx/g16/l1.exe "/scr/tmp/wyx/13117/Gau-2033919.inp" -scrdir="/scr/tmp/wyx/13117/"
 Entering Link 1 = /data/home/wyx/g16/l1.exe PID=   2033920.
  
 Copyright (c) 1988,1990,1992,1993,1995,1998,2003,2009,2016,
            Gaussian, Inc.  All Rights Reserved.
  
 This is part of the Gaussian(R) 16 program.  It is based on
 the Gaussian(R) 09 system (copyright 2009, Gaussian, Inc.),
 the Gaussian(R) 03 system (copyright 2003, Gaussian, Inc.),
 the Gaussian(R) 98 system (copyright 1998, Gaussian, Inc.),
 the Gaussian(R) 94 system (copyright 1995, Gaussian, Inc.),
 the Gaussian 92(TM) system (copyright 1992, Gaussian, Inc.),
 the Gaussian 90(TM) system (copyright 1990, Gaussian, Inc.),
 the Gaussian 88(TM) system (copyright 1988, Gaussian, Inc.),
 the Gaussian 86(TM) system (copyright 1986, Carnegie Mellon
 University), and the Gaussian 82(TM) system (copyright 1983,
 Carnegie Mellon University). Gaussian is a federally registered
 trademark of Gaussian, Inc.
  
 This software contains proprietary and confidential information,
 including trade secrets, belonging to Gaussian, Inc.
  
 This software is provided under written license and may be
 used, copied, transmitted, or stored only in accord with that
 written license.
  
 The following legend is applicable only to US Government
 contracts under FAR:
  
                    RESTRICTED RIGHTS LEGEND
  
 Use, reproduction and disclosure by the US Government is
 subject to restrictions as set forth in subparagraphs (a)
 and (c) of the Commercial Computer Software - Restricted
 Rights clause in FAR 52.227-19.
  
 Gaussian, Inc.
 340 Quinnipiac St., Bldg. 40, Wallingford CT 06492
  
  
 ---------------------------------------------------------------
 Warning -- This program may not be used in any manner that
 competes with the business of Gaussian, Inc. or will provide
 assistance to any competitor of Gaussian, Inc.  The licensee
 of this program is prohibited from giving any competitor of
 Gaussian, Inc. access to this program.  By using this program,
 the user acknowledges that Gaussian, Inc. is engaged in the
 business of creating and licensing software in the field of
 computational chemistry and represents and warrants to the
 licensee that it is not a competitor of Gaussian, Inc. and that
 it will not use this program in any manner prohibited above.
 ---------------------------------------------------------------
  

 Cite this work as:
 Gaussian 16, Revision A.03,
 M. J. Frisch, G. W. Trucks, H. B. Schlegel, G. E. Scuseria, 
 M. A. Robb, J. R. Cheeseman, G. Scalmani, V. Barone, 
 G. A. Petersson, H. Nakatsuji, X. Li, M. Caricato, A. V. Marenich, 
 J. Bloino, B. G. Janesko, R. Gomperts, B. Mennucci, H. P. Hratchian, 
 J. V. Ortiz, A. F. Izmaylov, J. L. Sonnenberg, D. Williams-Young, 
 F. Ding, F. Lipparini, F. Egidi, J. Goings, B. Peng, A. Petrone, 
 T. Henderson, D. Ranasinghe, V. G. Zakrzewski, J. Gao, N. Rega, 
 G. Zheng, W. Liang, M. Hada, M. Ehara, K. Toyota, R. Fukuda, 
 J. Hasegawa, M. Ishida, T. Nakajima, Y. Honda, O. Kitao, H. Nakai, 
 T. Vreven, K. Throssell, J. A. Montgomery, Jr., J. E. Peralta, 
 F. Ogliaro, M. J. Bearpark, J. J. Heyd, E. N. Brothers, K. N. Kudin, 
 V. N. Staroverov, T. A. Keith, R. Kobayashi, J. Normand, 
 K. Raghavachari, A. P. Rendell, J. C. Burant, S. S. Iyengar, 
 J. Tomasi, M. Cossi, J. M. Millam, M. Klene, C. Adamo, R. Cammi, 
 J. W. Ochterski, R. L. Martin, K. Morokuma, O. Farkas, 
 J. B. Foresman, and D. J. Fox, Gaussian, Inc., Wallingford CT, 2016.
 
 ******************************************
 Gaussian 16:  ES64L-G16RevA.03 25-Dec-2016
                24-Jan-2026 
 ******************************************
 %nprocshared=16
 Will use up to   16 processors via shared memory.
 %mem=16GB
 %oldchk=DDL-S2-cLR-8.chk
 %chk=DDL-S2-cLR-gs-8.chk
 Copying data from "DDL-S2-cLR-8.chk" to current chk file "DDL-S2-cLR-gs-8.chk"
 IOpt=  2 FromEx=T IUOpen= 4 IOptOp= 5 NList=   0 IFRang= 0 IUIn= 4 IUOut= 2.
 ----------------------------------------------------------------------
 #p CAM-B3LYP TZVP em=gd3bj scrf=(Solvent=Water,NonEquilibrium=Read) Ge
 om=Check Guess=Read
 ----------------------------------------------------------------------
 1/29=2,38=1,172=1/1;
 2/12=2,40=1/2;
 3/5=19,7=101,11=2,14=-4,25=1,30=1,70=6002201,72=1,74=-40,116=-2,124=41/1,2,3;
 4/5=1/1;
 5/5=2,38=6,53=1/2;
 6/7=2,8=2,9=2,10=2,28=1/1;
 99/5=1,9=1/99;
 Leave Link    1 at Sat Jan 24 23:01:21 2026, MaxMem=  2147483648 cpu:               0.8 elap:               0.1
 (Enter /data/home/wyx/g16/l101.exe)
 -------------------
 Title Card Required
 -------------------
 Structure from the checkpoint file:  "DDL-S2-cLR-gs-8.chk"
 Charge =  0 Multiplicity = 1
 Z-Matrix found in chk file.
 O,0,2.728857,-1.55914,0.81628
 O,0,-3.274006,-1.653571,-0.98596
 N,0,-0.693907,1.515472,0.016374
 H,0,-1.002286,2.47489,-0.047396
 C,0,-1.251052,-0.761398,-0.165132
 C,0,0.642639,1.320904,0.235187
 C,0,-1.624535,0.562844,-0.264688
 C,0,-2.159567,-1.844051,-0.498298
 C,0,0.110991,-1.09067,0.341962
 H,0,0.042017,-1.481984,1.369757
 H,0,0.53269,-1.932913,-0.210509
 C,0,1.100394,0.026104,0.331829
 C,0,2.484831,-0.393573,0.490949
 C,0,-2.962573,1.095174,-0.640309
 H,0,-3.022723,2.166653,-0.464733
 H,0,-3.175739,0.912763,-1.689316
 H,0,-3.751518,0.607365,-0.08032
 C,0,-1.710103,-3.258694,-0.251885
 H,0,-2.564066,-3.924444,-0.298701
 H,0,-1.000118,-3.57068,-1.015577
 H,0,-1.217311,-3.383025,0.707129
 C,0,3.648551,0.529932,0.228726
 H,0,3.460781,1.240149,-0.571882
 H,0,3.900401,1.091339,1.130587
 H,0,4.507801,-0.085325,-0.029457
 C,0,1.415674,2.592228,0.361498
 H,0,2.189275,2.521462,1.116749
 H,0,1.888343,2.871841,-0.579629
 H,0,0.756259,3.410348,0.646762
 Recover connectivity data from disk.
 ITRead=  0  0  0  0  0  0  0  0  0  0  0  0  0  0  0  0  0  0  0  0
 ITRead=  0  0  0  0  0  0  0  0  0
 MicOpt= -1 -1 -1 -1 -1 -1 -1 -1 -1 -1 -1 -1 -1 -1 -1 -1 -1 -1 -1 -1
 MicOpt= -1 -1 -1 -1 -1 -1 -1 -1 -1
 NAtoms=     29 NQM=       29 NQMF=       0 NMMI=      0 NMMIF=      0
                NMic=       0 NMicF=      0.
                    Isotopes and Nuclear Properties:
 (Nuclear quadrupole moments (NQMom) in fm**2, nuclear magnetic moments (NMagM)
  in nuclear magnetons)

  Atom         1           2           3           4           5           6           7           8           9          10
 IAtWgt=          16          16          14           1          12          12          12          12          12           1
 AtmWgt=  15.9949146  15.9949146  14.0030740   1.0078250  12.0000000  12.0000000  12.0000000  12.0000000  12.0000000   1.0078250
 NucSpn=           0           0           2           1           0           0           0           0           0           1
 AtZEff=   5.6000000   5.6000000   4.5500000   1.0000000   3.6000000   3.6000000   3.6000000   3.6000000   3.6000000   1.0000000
 NQMom=    0.0000000   0.0000000   2.0440000   0.0000000   0.0000000   0.0000000   0.0000000   0.0000000   0.0000000   0.0000000
 NMagM=    0.0000000   0.0000000   0.4037610   2.7928460   0.0000000   0.0000000   0.0000000   0.0000000   0.0000000   2.7928460
 AtZNuc=   8.0000000   8.0000000   7.0000000   1.0000000   6.0000000   6.0000000   6.0000000   6.0000000   6.0000000   1.0000000

  Atom        11          12          13          14          15          16          17          18          19          20
 IAtWgt=           1          12          12          12           1           1           1          12           1           1
 AtmWgt=   1.0078250  12.0000000  12.0000000  12.0000000   1.0078250   1.0078250   1.0078250  12.0000000   1.0078250   1.0078250
 NucSpn=           1           0           0           0           1           1           1           0           1           1
 AtZEff=   1.0000000   3.6000000   3.6000000   3.6000000   1.0000000   1.0000000   1.0000000   3.6000000   1.0000000   1.0000000
 NQMom=    0.0000000   0.0000000   0.0000000   0.0000000   0.0000000   0.0000000   0.0000000   0.0000000   0.0000000   0.0000000
 NMagM=    2.7928460   0.0000000   0.0000000   0.0000000   2.7928460   2.7928460   2.7928460   0.0000000   2.7928460   2.7928460
 AtZNuc=   1.0000000   6.0000000   6.0000000   6.0000000   1.0000000   1.0000000   1.0000000   6.0000000   1.0000000   1.0000000

  Atom        21          22          23          24          25          26          27          28          29
 IAtWgt=           1          12           1           1           1          12           1           1           1
 AtmWgt=   1.0078250  12.0000000   1.0078250   1.0078250   1.0078250  12.0000000   1.0078250   1.0078250   1.0078250
 NucSpn=           1           0           1           1           1           0           1           1           1
 AtZEff=   1.0000000   3.6000000   1.0000000   1.0000000   1.0000000   3.6000000   1.0000000   1.0000000   1.0000000
 NQMom=    0.0000000   0.0000000   0.0000000   0.0000000   0.0000000   0.0000000   0.0000000   0.0000000   0.0000000
 NMagM=    2.7928460   0.0000000   2.7928460   2.7928460   2.7928460   0.0000000   2.7928460   2.7928460   2.7928460
 AtZNuc=   1.0000000   6.0000000   1.0000000   1.0000000   1.0000000   6.0000000   1.0000000   1.0000000   1.0000000
 Leave Link  101 at Sat Jan 24 23:01:24 2026, MaxMem=  2147483648 cpu:               0.9 elap:               0.1
 (Enter /data/home/wyx/g16/l202.exe)
                          Input orientation:                          
 ---------------------------------------------------------------------
 Center     Atomic      Atomic             Coordinates (Angstroms)
 Number     Number       Type             X           Y           Z
 ---------------------------------------------------------------------
      1          8           0        2.728857   -1.559140    0.816280
      2          8           0       -3.274006   -1.653571   -0.985960
      3          7           0       -0.693907    1.515472    0.016374
      4          1           0       -1.002286    2.474890   -0.047396
      5          6           0       -1.251052   -0.761398   -0.165132
      6          6           0        0.642639    1.320904    0.235187
      7          6           0       -1.624535    0.562844   -0.264688
      8          6           0       -2.159567   -1.844051   -0.498298
      9          6           0        0.110991   -1.090670    0.341962
     10          1           0        0.042017   -1.481984    1.369757
     11          1           0        0.532690   -1.932913   -0.210509
     12          6           0        1.100394    0.026104    0.331829
     13          6           0        2.484831   -0.393573    0.490949
     14          6           0       -2.962573    1.095174   -0.640309
     15          1           0       -3.022723    2.166653   -0.464733
     16          1           0       -3.175739    0.912763   -1.689316
     17          1           0       -3.751518    0.607365   -0.080320
     18          6           0       -1.710103   -3.258694   -0.251885
     19          1           0       -2.564066   -3.924444   -0.298701
     20          1           0       -1.000118   -3.570680   -1.015577
     21          1           0       -1.217311   -3.383025    0.707129
     22          6           0        3.648551    0.529932    0.228726
     23          1           0        3.460781    1.240149   -0.571882
     24          1           0        3.900401    1.091339    1.130587
     25          1           0        4.507801   -0.085325   -0.029457
     26          6           0        1.415674    2.592228    0.361498
     27          1           0        2.189275    2.521462    1.116749
     28          1           0        1.888343    2.871841   -0.579629
     29          1           0        0.756259    3.410348    0.646762
 ---------------------------------------------------------------------
                    Distance matrix (angstroms):
                    1          2          3          4          5
     1  O    0.000000
     2  O    6.268281   0.000000
     3  N    4.669947   4.207662   0.000000
     4  H    5.562442   4.804769   1.009776   0.000000
     5  C    4.176031   2.358405   2.351062   3.247970   0.000000
     6  C    3.603419   5.067426   1.368244   2.029117   2.842939
     7  C    4.962190   2.855430   1.361089   2.022456   1.379499
     8  C    5.070106   1.231288   3.701276   4.493981   1.452080
     9  C    2.701419   3.679462   2.746970   3.755556   1.490210
    10  H    2.744339   4.071223   3.370159   4.330790   2.132406
    11  H    2.452988   3.894906   3.667066   4.670277   2.134536
    12  C    2.323700   4.867571   2.353135   3.249866   2.529116
    13  C    1.234478   6.077258   3.738188   4.547294   3.810848
    14  C    6.446659   2.787842   2.398901   2.469390   2.569427
    15  H    6.971600   3.863798   2.465539   2.085988   3.435413
    16  H    6.874050   2.662787   3.071177   3.140070   2.971594
    17  H    6.891509   2.481941   3.191080   3.323704   2.851848
    18  C    4.871737   2.358194   4.888484   5.780727   2.540618
    19  H    5.903633   2.476531   5.761029   6.591949   3.427347
    20  H    4.615977   2.974349   5.198810   6.122605   2.945894
    21  H    4.348645   3.176091   4.974572   5.910221   2.763133
    22  C    2.356964   7.359684   4.457951   5.048702   5.082201
    23  H    3.209163   7.341828   4.205149   4.660326   5.135466
    24  H    2.914849   7.967836   4.746475   5.228594   5.625744
    25  H    2.460090   7.995675   5.442648   6.075861   5.799989
    26  C    4.377800   6.468041   2.393501   2.455095   4.316894
    27  H    4.127074   7.190252   3.245856   3.397567   4.925062
    28  H    4.721082   6.877086   2.977074   2.965903   4.819547
    29  H    5.349364   6.674735   2.467980   2.109364   4.700206
                    6          7          8          9         10
     6  C    0.000000
     7  C    2.442255   0.000000
     8  C    4.290373   2.476687   0.000000
     9  C    2.471789   2.472687   2.535558   0.000000
    10  H    3.082885   3.103245   2.909930   1.101929   0.000000
    11  H    3.286040   3.299297   2.709053   1.091983   1.715033
    12  C    1.376730   2.840627   3.848888   1.492047   2.114660
    13  C    2.529529   4.286328   4.965172   2.478560   2.815010
    14  C    3.716854   1.488224   3.050251   3.897379   4.439557
    15  H    3.826233   2.137089   4.102671   4.591413   5.105932
    16  H    4.295381   2.135004   3.170355   4.352290   5.044472
    17  H    4.462880   2.135423   2.952703   4.240356   4.567167
    18  C    5.171591   3.822517   1.504644   2.892986   2.975961
    19  H    6.171035   4.584717   2.128730   3.949260   3.942212
    20  H    5.309487   4.247323   2.143163   3.037750   3.337441
    21  H    5.080265   4.084133   2.170102   2.674439   2.374645
    22  C    3.108245   5.296223   6.316533   3.892750   4.284489
    23  H    2.932543   5.139411   6.411397   4.181976   4.782041
    24  H    3.386363   5.722850   6.927698   4.443278   4.643955
    25  H    4.121528   6.170981   6.911348   4.525551   4.883818
    26  C    1.493252   3.708555   5.762132   3.907213   4.416189
    27  H    2.147225   4.504409   6.370126   4.238757   4.549979
    28  H    2.149677   4.215562   6.215451   4.439572   5.115156
    29  H    2.132623   3.821937   6.117345   4.557240   4.996777
                   11         12         13         14         15
    11  H    0.000000
    12  C    2.110490   0.000000
    13  C    2.583112   1.455374   0.000000
    14  C    4.644449   4.312269   5.759368   0.000000
    15  H    5.432498   4.713444   6.148271   1.087434   0.000000
    16  H    4.902773   4.812121   6.205008   1.085877   1.759334
    17  H    4.982409   4.903956   6.341946   1.083503   1.763603
    18  C    2.605672   4.362283   5.134023   4.547056   5.585935
    19  H    3.682916   5.425188   6.211438   5.046986   6.110597
    20  H    2.383257   4.377729   4.950606   5.075653   6.108302
    21  H    2.450997   4.139416   4.763340   4.991572   5.952453
    22  C    3.995888   2.599534   1.508598   6.691912   6.904031
    23  H    4.332739   2.803930   2.179710   6.425354   6.550245
    24  H    4.720817   3.100448   2.148939   7.087771   7.185471
    25  H    4.387239   3.428318   2.111456   7.587701   7.872081
    26  C    4.645832   2.585590   3.174092   4.734325   4.534660
    27  H    4.934303   2.833474   2.996065   5.626996   5.458195
    28  H    5.005967   3.090281   3.487816   5.166393   4.962767
    29  H    5.416210   3.416243   4.181155   4.565774   4.130727
                   16         17         18         19         20
    16  H    0.000000
    17  H    1.735989   0.000000
    18  C    4.649231   4.375297   0.000000
    19  H    5.070160   4.689885   1.083821   0.000000
    20  H    5.028768   5.089299   1.088411   1.756415   0.000000
    21  H    5.294543   4.792233   1.085362   1.765949   1.746454
    22  C    7.099041   7.406924   6.580262   7.662653   6.322455
    23  H    6.737896   7.256673   6.861489   7.940178   6.575756
    24  H    7.619416   7.762241   7.232688   8.306039   7.096163
    25  H    7.923894   8.288471   6.984417   8.051250   6.592215
    26  C    5.301652   5.552905   6.661832   7.664281   6.761200
    27  H    6.264606   6.355294   7.105527   8.133108   7.199530
    28  H    5.542050   6.097966   7.116157   8.129721   7.073849
    29  H    5.211123   5.357744   7.167052   8.106641   7.388030
                   21         22         23         24         25
    21  H    0.000000
    22  C    6.262325   0.000000
    23  H    6.700310   1.086572   0.000000
    24  H    6.811037   1.091769   1.764599   0.000000
    25  H    6.647879   1.087893   1.774079   1.760447   0.000000
    26  C    6.538786   3.042439   2.623314   3.003004   4.108940
    27  H    6.829025   2.623788   2.471834   2.230111   3.672151
    28  H    7.100999   3.039129   2.266063   3.184871   3.988619
    29  H    7.074499   4.103280   3.675499   3.936689   5.172144
                   26         27         28         29
    26  C    0.000000
    27  H    1.083453   0.000000
    28  H    1.089642   1.758131   0.000000
    29  H    1.088818   1.750583   1.753750   0.000000
 Stoichiometry    C11H15NO2
 Framework group  C1[X(C11H15NO2)]
 Deg. of freedom    81
 Full point group                 C1      NOp   1
 RotChk:  IX=0 Diff= 4.58D-16
 Largest Abelian subgroup         C1      NOp   1
 Largest concise Abelian subgroup C1      NOp   1
                         Standard orientation:                         
 ---------------------------------------------------------------------
 Center     Atomic      Atomic             Coordinates (Angstroms)
 Number     Number       Type             X           Y           Z
 ---------------------------------------------------------------------
      1          8           0       -2.288086   -2.283662   -0.233892
      2          8           0        3.613274   -0.254108    0.354507
      3          7           0       -0.023592    1.799744   -0.154723
      4          1           0       -0.052092    2.809084   -0.162940
      5          6           0        1.294544   -0.144850   -0.062179
      6          6           0       -1.231454    1.158929   -0.104561
      7          6           0        1.209141    1.231966   -0.051960
      8          6           0        2.560330   -0.838291    0.097388
      9          6           0        0.056447   -0.942812   -0.288227
     10          1           0        0.066159   -1.366641   -1.305341
     11          1           0        0.052439   -1.832288    0.345211
     12          6           0       -1.233299   -0.217771   -0.095674
     13          6           0       -2.398343   -1.081640    0.024804
     14          6           0        2.332483    2.203033    0.047756
     15          1           0        1.993438    3.217638   -0.147533
     16          1           0        2.781345    2.181770    1.036290
     17          1           0        3.124474    1.961687   -0.651158
     18          6           0        2.579543   -2.336440   -0.040930
     19          1           0        3.601880   -2.677465   -0.155800
     20          1           0        2.168165   -2.806021    0.850643
     21          1           0        1.992669   -2.689199   -0.883040
     22          6           0       -3.737879   -0.576739    0.500815
     23          1           0       -3.659710    0.214538    1.241362
     24          1           0       -4.324068   -0.200421   -0.339856
     25          1           0       -4.276106   -1.419485    0.929301
     26          6           0       -2.398499    2.090378   -0.089935
     27          1           0       -3.225815    1.710895   -0.677652
     28          1           0       -2.758850    2.269278    0.922715
     29          1           0       -2.118368    3.055986   -0.507848
 ---------------------------------------------------------------------
 Rotational constants (GHZ):           1.0774490           0.4905165           0.3448049
 Leave Link  202 at Sat Jan 24 23:01:24 2026, MaxMem=  2147483648 cpu:               0.0 elap:               0.0
 (Enter /data/home/wyx/g16/l301.exe)
 Standard basis: TZVP (5D, 7F)
 Ernie: Thresh=  0.10000D-02 Tol=  0.10000D-05 Strict=F.
 There are   370 symmetry adapted cartesian basis functions of A   symmetry.
 There are   356 symmetry adapted basis functions of A   symmetry.
   356 basis functions,   610 primitive gaussians,   370 cartesian basis functions
    52 alpha electrons       52 beta electrons
       nuclear repulsion energy       900.3414679580 Hartrees.
 IExCor=20419 DFT=T Ex+Corr=CAM-B3LYP ExCW=0 ScaHFX=  1.000000
 ScaDFX=  1.000000  1.000000  1.000000  0.810000 ScalE2=  1.000000  1.000000
 IRadAn=      5 IRanWt=     -1 IRanGd=            0 ICorTp=0 IEmpDi=141
 HFx  wShort=  0.000000 wLong=  0.330000 cFull=  0.190000 cShort=  0.000000 cLong=  0.460000
 DFx  wShort=  0.000000 wLong=  0.330000 cFull=  0.190000 cShort=  0.000000 cLong=  0.460000
 NAtoms=   29 NActive=   29 NUniq=   29 SFac= 1.00D+00 NAtFMM=   60 NAOKFM=F Big=F
 Integral buffers will be    131072 words long.
 Raffenetti 2 integral format.
 Two-electron integral symmetry is turned on.
 R6Disp:  Grimme-D3(BJ) Dispersion energy=       -0.0261751135 Hartrees.
 Nuclear repulsion after empirical dispersion term =      900.3152928445 Hartrees.
 ------------------------------------------------------------------------------
 Polarizable Continuum Model (PCM)
 =================================
 Model                : PCM.
 Atomic radii         : UFF (Universal Force Field).
 Polarization charges : Total charges.
 Charge compensation  : None.
 Solution method      : On-the-fly selection.
 Cavity type          : Scaled VdW (van der Waals Surface) (Alpha=1.100).
 Cavity algorithm     : GePol (No added spheres)
                        Default sphere list used, NSphG=   29.
                        Lebedev-Laikov grids with approx.  5.0 points / Ang**2.
                        Smoothing algorithm: York/Karplus (Gamma=1.0000).
                        Polarization charges: spherical gaussians, with
                                              point-specific exponents (IZeta= 3).
                        Self-potential: point-specific (ISelfS= 7).
                        Self-field    : sphere-specific E.n sum rule (ISelfD= 2).
 Solvent              : Water, Eps=  78.355300 Eps(inf)=   1.777849
 ------------------------------------------------------------------------------
 GePol: Number of generator spheres                  =      29
 GePol: Total number of spheres                      =      29
 GePol: Number of exposed spheres                    =      29 (100.00%)
 GePol: Number of points                             =    2114
 GePol: Average weight of points                     =       0.13
 GePol: Minimum weight of points                     =   0.24D-10
 GePol: Maximum weight of points                     =    0.20577
 GePol: Number of points with low weight             =     138
 GePol: Fraction of low-weight points (<1% of avg)   =       6.53%
 GePol: Cavity surface area                          =    268.689 Ang**2
 GePol: Cavity volume                                =    286.738 Ang**3
 Leave Link  301 at Sat Jan 24 23:01:24 2026, MaxMem=  2147483648 cpu:               0.6 elap:               0.0
 (Enter /data/home/wyx/g16/l302.exe)
 NPDir=0 NMtPBC=     1 NCelOv=     1 NCel=       1 NClECP=     1 NCelD=      1
         NCelK=      1 NCelE2=     1 NClLst=     1 CellRange=     0.0.
 One-electron integrals computed using PRISM.
 One-electron integral symmetry used in STVInt
 NBasis=   356 RedAO= T EigKep=  4.62D-05  NBF=   356
 NBsUse=   356 1.00D-06 EigRej= -1.00D+00 NBFU=   356
 Precomputing XC quadrature grid using
 IXCGrd= 4 IRadAn=           5 IRanWt=          -1 IRanGd=           0 AccXCQ= 0.00D+00.
 Generated NRdTot=       0 NPtTot=           0 NUsed=           0 NTot=          32
 NSgBfM=   366   366   366   366   366 MxSgAt=    29 MxSgA2=    29.
 Leave Link  302 at Sat Jan 24 23:01:24 2026, MaxMem=  2147483648 cpu:               3.1 elap:               0.2
 (Enter /data/home/wyx/g16/l303.exe)
 DipDrv:  MaxL=1.
 Leave Link  303 at Sat Jan 24 23:01:25 2026, MaxMem=  2147483648 cpu:               0.6 elap:               0.0
 (Enter /data/home/wyx/g16/l401.exe)
 Initial guess from the checkpoint file:  "DDL-S2-cLR-gs-8.chk"
 B after Tr=    -0.000000    0.000000    0.000000
         Rot=    1.000000    0.000000    0.000000   -0.000000 Ang=   0.00 deg.
 Guess basis will be translated and rotated to current coordinates.
 JPrj=2 DoOrth=T DoCkMO=T.
 Leave Link  401 at Sat Jan 24 23:01:25 2026, MaxMem=  2147483648 cpu:               2.2 elap:               0.2
 (Enter /data/home/wyx/g16/l502.exe)
 Integral symmetry usage will be decided dynamically.
 Closed shell SCF:
 Using DIIS extrapolation, IDIIS=  1040.
 NGot=  2147483648 LenX=  2147200095 LenY=  2147062754
 Requested convergence on RMS density matrix=1.00D-08 within 128 cycles.
 Requested convergence on MAX density matrix=1.00D-06.
 Requested convergence on             energy=1.00D-06.
 No special actions if energy rises.
 Fock matrices will be formed incrementally for  20 cycles.

 Cycle   1  Pass 1  IDiag  1:
 FoFJK:  IHMeth= 1 ICntrl=       0 DoSepK=T KAlg= 0 I1Cent=           0 FoldK=F
 IRaf=         1 NMat=       1 IRICut=       1 DoRegI=T DoRafI=F ISym2E= 0 IDoP0=0 IntGTp=1.
 FoFCou: FMM=F IPFlag=           0 FMFlag=      100000 FMFlg1=           0
         NFxFlg=           0 DoJE=T BraDBF=F KetDBF=F FulRan=T
         wScrn=  0.000000 ICntrl=       500 IOpCl=  0 I1Cent=           0 NGrid=           0
         NMat0=    1 NMatS0=      1 NMatT0=    0 NMatD0=    1 NMtDS0=    0 NMtDT0=    0
 Symmetry not used in FoFCou.
 Inv3:  Mode=1 IEnd=    13406988.
 Iteration    1 A*A^-1 deviation from unit magnitude is 3.11D-15 for   1056.
 Iteration    1 A*A^-1 deviation from orthogonality  is 2.20D-15 for    717    640.
 Iteration    1 A^-1*A deviation from unit magnitude is 2.89D-15 for    501.
 Iteration    1 A^-1*A deviation from orthogonality  is 1.81D-15 for   1889    566.
 NEqPCM:  Using non-equilibrium solvation (IEInf=1, Eps=  78.3553, EpsInf=   1.7778)
 Inv3:  Mode=1 IEnd=    13406988.
 Iteration    1 A*A^-1 deviation from unit magnitude is 3.55D-15 for    753.
 Iteration    1 A*A^-1 deviation from orthogonality  is 1.54D-15 for   1835    229.
 Iteration    1 A^-1*A deviation from unit magnitude is 3.55D-15 for    753.
 Iteration    1 A^-1*A deviation from orthogonality  is 1.72D-15 for   1405    961.
 E= -633.326761845782    
 DIIS: error= 7.96D-04 at cycle   1 NSaved=   1.
 NSaved= 1 IEnMin= 1 EnMin= -633.326761845782     IErMin= 1 ErrMin= 7.96D-04
 ErrMax= 7.96D-04  0.00D+00 EMaxC= 1.00D-01 BMatC= 1.32D-04 BMatP= 1.32D-04
 IDIUse=3 WtCom= 9.92D-01 WtEn= 7.96D-03
 Coeff-Com:  0.100D+01
 Coeff-En:   0.100D+01
 Coeff:      0.100D+01
 Gap=     0.227 Goal=   None    Shift=    0.000
 RMSDP=4.79D-04 MaxDP=2.91D-02              OVMax= 1.35D-02

 Cycle   2  Pass 1  IDiag  1:
 RMSU=  4.75D-04    CP:  1.00D+00
 E= -633.327000545972     Delta-E=       -0.000238700190 Rises=F Damp=F
 DIIS: error= 5.43D-04 at cycle   2 NSaved=   2.
 NSaved= 2 IEnMin= 2 EnMin= -633.327000545972     IErMin= 2 ErrMin= 5.43D-04
 ErrMax= 5.43D-04  0.00D+00 EMaxC= 1.00D-01 BMatC= 1.31D-04 BMatP= 1.32D-04
 IDIUse=3 WtCom= 9.95D-01 WtEn= 5.43D-03
 Coeff-Com:  0.499D+00 0.501D+00
 Coeff-En:   0.000D+00 0.100D+01
 Coeff:      0.496D+00 0.504D+00
 Gap=     0.227 Goal=   None    Shift=    0.000
 RMSDP=1.33D-04 MaxDP=7.15D-03 DE=-2.39D-04 OVMax= 2.94D-03

 Cycle   3  Pass 1  IDiag  1:
 RMSU=  1.22D-04    CP:  1.00D+00  9.67D-01
 E= -633.327103582949     Delta-E=       -0.000103036977 Rises=F Damp=F
 DIIS: error= 2.09D-04 at cycle   3 NSaved=   3.
 NSaved= 3 IEnMin= 3 EnMin= -633.327103582949     IErMin= 3 ErrMin= 2.09D-04
 ErrMax= 2.09D-04  0.00D+00 EMaxC= 1.00D-01 BMatC= 1.65D-05 BMatP= 1.31D-04
 IDIUse=3 WtCom= 9.98D-01 WtEn= 2.09D-03
 Coeff-Com:  0.704D-01 0.239D+00 0.690D+00
 Coeff-En:   0.000D+00 0.000D+00 0.100D+01
 Coeff:      0.702D-01 0.239D+00 0.691D+00
 Gap=     0.227 Goal=   None    Shift=    0.000
 RMSDP=3.47D-05 MaxDP=1.62D-03 DE=-1.03D-04 OVMax= 1.90D-03

 Cycle   4  Pass 1  IDiag  1:
 RMSU=  2.67D-05    CP:  1.00D+00  9.85D-01  1.17D+00
 E= -633.327117806834     Delta-E=       -0.000014223885 Rises=F Damp=F
 DIIS: error= 9.10D-05 at cycle   4 NSaved=   4.
 NSaved= 4 IEnMin= 4 EnMin= -633.327117806834     IErMin= 4 ErrMin= 9.10D-05
 ErrMax= 9.10D-05  0.00D+00 EMaxC= 1.00D-01 BMatC= 1.37D-06 BMatP= 1.65D-05
 IDIUse=1 WtCom= 1.00D+00 WtEn= 0.00D+00
 Coeff-Com: -0.117D-01 0.186D-01 0.213D+00 0.780D+00
 Coeff:     -0.117D-01 0.186D-01 0.213D+00 0.780D+00
 Gap=     0.227 Goal=   None    Shift=    0.000
 RMSDP=2.37D-05 MaxDP=1.25D-03 DE=-1.42D-05 OVMax= 1.18D-03

 Cycle   5  Pass 1  IDiag  1:
 RMSU=  1.21D-05    CP:  1.00D+00  9.95D-01  1.32D+00  1.06D+00
 E= -633.327119777286     Delta-E=       -0.000001970452 Rises=F Damp=F
 DIIS: error= 3.09D-05 at cycle   5 NSaved=   5.
 NSaved= 5 IEnMin= 5 EnMin= -633.327119777286     IErMin= 5 ErrMin= 3.09D-05
 ErrMax= 3.09D-05  0.00D+00 EMaxC= 1.00D-01 BMatC= 3.80D-07 BMatP= 1.37D-06
 IDIUse=1 WtCom= 1.00D+00 WtEn= 0.00D+00
 Coeff-Com: -0.136D-01-0.317D-01-0.458D-02 0.359D+00 0.690D+00
 Coeff:     -0.136D-01-0.317D-01-0.458D-02 0.359D+00 0.690D+00
 Gap=     0.227 Goal=   None    Shift=    0.000
 RMSDP=9.60D-06 MaxDP=4.38D-04 DE=-1.97D-06 OVMax= 4.55D-04

 Cycle   6  Pass 1  IDiag  1:
 RMSU=  3.98D-06    CP:  1.00D+00  9.94D-01  1.38D+00  1.24D+00  1.07D+00
 E= -633.327120378049     Delta-E=       -0.000000600764 Rises=F Damp=F
 DIIS: error= 2.45D-05 at cycle   6 NSaved=   6.
 NSaved= 6 IEnMin= 6 EnMin= -633.327120378049     IErMin= 6 ErrMin= 2.45D-05
 ErrMax= 2.45D-05  0.00D+00 EMaxC= 1.00D-01 BMatC= 4.18D-08 BMatP= 3.80D-07
 IDIUse=1 WtCom= 1.00D+00 WtEn= 0.00D+00
 Coeff-Com: -0.102D-02-0.162D-01-0.261D-01 0.219D-02 0.184D+00 0.857D+00
 Coeff:     -0.102D-02-0.162D-01-0.261D-01 0.219D-02 0.184D+00 0.857D+00
 Gap=     0.227 Goal=   None    Shift=    0.000
 RMSDP=4.35D-06 MaxDP=1.63D-04 DE=-6.01D-07 OVMax= 3.69D-04

 Cycle   7  Pass 1  IDiag  1:
 RMSU=  1.79D-06    CP:  1.00D+00  9.91D-01  1.40D+00  1.31D+00  1.17D+00
                    CP:  1.26D+00
 E= -633.327120502836     Delta-E=       -0.000000124787 Rises=F Damp=F
 DIIS: error= 9.87D-06 at cycle   7 NSaved=   7.
 NSaved= 7 IEnMin= 7 EnMin= -633.327120502836     IErMin= 7 ErrMin= 9.87D-06
 ErrMax= 9.87D-06  0.00D+00 EMaxC= 1.00D-01 BMatC= 2.12D-08 BMatP= 4.18D-08
 IDIUse=1 WtCom= 1.00D+00 WtEn= 0.00D+00
 Coeff-Com:  0.241D-02-0.340D-02-0.844D-02-0.727D-01-0.962D-01 0.447D+00
 Coeff-Com:  0.731D+00
 Coeff:      0.241D-02-0.340D-02-0.844D-02-0.727D-01-0.962D-01 0.447D+00
 Coeff:      0.731D+00
 Gap=     0.227 Goal=   None    Shift=    0.000
 RMSDP=2.02D-06 MaxDP=7.95D-05 DE=-1.25D-07 OVMax= 1.92D-04

 Cycle   8  Pass 1  IDiag  1:
 RMSU=  6.86D-07    CP:  1.00D+00  9.90D-01  1.41D+00  1.34D+00  1.22D+00
                    CP:  1.49D+00  1.12D+00
 E= -633.327120543299     Delta-E=       -0.000000040463 Rises=F Damp=F
 DIIS: error= 3.32D-06 at cycle   8 NSaved=   8.
 NSaved= 8 IEnMin= 8 EnMin= -633.327120543299     IErMin= 8 ErrMin= 3.32D-06
 ErrMax= 3.32D-06  0.00D+00 EMaxC= 1.00D-01 BMatC= 2.07D-09 BMatP= 2.12D-08
 IDIUse=1 WtCom= 1.00D+00 WtEn= 0.00D+00
 Coeff-Com:  0.104D-02 0.621D-03 0.227D-02-0.237D-01-0.801D-01 0.147D-01
 Coeff-Com:  0.244D+00 0.841D+00
 Coeff:      0.104D-02 0.621D-03 0.227D-02-0.237D-01-0.801D-01 0.147D-01
 Coeff:      0.244D+00 0.841D+00
 Gap=     0.227 Goal=   None    Shift=    0.000
 RMSDP=8.44D-07 MaxDP=2.99D-05 DE=-4.05D-08 OVMax= 7.63D-05

 Cycle   9  Pass 1  IDiag  1:
 RMSU=  2.36D-07    CP:  1.00D+00  9.90D-01  1.41D+00  1.36D+00  1.22D+00
                    CP:  1.62D+00  1.31D+00  1.15D+00
 E= -633.327120548274     Delta-E=       -0.000000004974 Rises=F Damp=F
 DIIS: error= 1.12D-06 at cycle   9 NSaved=   9.
 NSaved= 9 IEnMin= 9 EnMin= -633.327120548274     IErMin= 9 ErrMin= 1.12D-06
 ErrMax= 1.12D-06  0.00D+00 EMaxC= 1.00D-01 BMatC= 2.48D-10 BMatP= 2.07D-09
 IDIUse=1 WtCom= 1.00D+00 WtEn= 0.00D+00
 Coeff-Com:  0.445D-04 0.603D-03 0.206D-02 0.364D-02-0.182D-01-0.589D-01
 Coeff-Com: -0.371D-02 0.327D+00 0.748D+00
 Coeff:      0.445D-04 0.603D-03 0.206D-02 0.364D-02-0.182D-01-0.589D-01
 Coeff:     -0.371D-02 0.327D+00 0.748D+00
 Gap=     0.227 Goal=   None    Shift=    0.000
 RMSDP=2.64D-07 MaxDP=1.35D-05 DE=-4.97D-09 OVMax= 2.33D-05

 Cycle  10  Pass 1  IDiag  1:
 RMSU=  1.03D-07    CP:  1.00D+00  9.90D-01  1.41D+00  1.36D+00  1.22D+00
                    CP:  1.65D+00  1.38D+00  1.26D+00  9.93D-01
 E= -633.327120548771     Delta-E=       -0.000000000497 Rises=F Damp=F
 DIIS: error= 3.32D-07 at cycle  10 NSaved=  10.
 NSaved=10 IEnMin=10 EnMin= -633.327120548771     IErMin=10 ErrMin= 3.32D-07
 ErrMax= 3.32D-07  0.00D+00 EMaxC= 1.00D-01 BMatC= 4.96D-11 BMatP= 2.48D-10
 IDIUse=1 WtCom= 1.00D+00 WtEn= 0.00D+00
 Coeff-Com: -0.829D-04 0.297D-03 0.251D-03 0.393D-02 0.165D-02-0.247D-01
 Coeff-Com: -0.263D-01 0.110D-01 0.295D+00 0.739D+00
 Coeff:     -0.829D-04 0.297D-03 0.251D-03 0.393D-02 0.165D-02-0.247D-01
 Coeff:     -0.263D-01 0.110D-01 0.295D+00 0.739D+00
 Gap=     0.227 Goal=   None    Shift=    0.000
 RMSDP=9.21D-08 MaxDP=4.56D-06 DE=-4.97D-10 OVMax= 6.22D-06

 Cycle  11  Pass 1  IDiag  1:
 RMSU=  3.07D-08    CP:  1.00D+00  9.90D-01  1.41D+00  1.36D+00  1.21D+00
                    CP:  1.66D+00  1.40D+00  1.29D+00  1.13D+00  1.11D+00
 E= -633.327120548834     Delta-E=       -0.000000000063 Rises=F Damp=F
 DIIS: error= 1.62D-07 at cycle  11 NSaved=  11.
 NSaved=11 IEnMin=11 EnMin= -633.327120548834     IErMin=11 ErrMin= 1.62D-07
 ErrMax= 1.62D-07  0.00D+00 EMaxC= 1.00D-01 BMatC= 8.80D-12 BMatP= 4.96D-11
 IDIUse=1 WtCom= 1.00D+00 WtEn= 0.00D+00
 Coeff-Com: -0.530D-04 0.883D-04-0.289D-03 0.144D-02 0.405D-02-0.130D-02
 Coeff-Com: -0.992D-02-0.549D-01 0.199D-01 0.325D+00 0.716D+00
 Coeff:     -0.530D-04 0.883D-04-0.289D-03 0.144D-02 0.405D-02-0.130D-02
 Coeff:     -0.992D-02-0.549D-01 0.199D-01 0.325D+00 0.716D+00
 Gap=     0.227 Goal=   None    Shift=    0.000
 RMSDP=4.46D-08 MaxDP=3.06D-06 DE=-6.25D-11 OVMax= 2.00D-06

 Cycle  12  Pass 1  IDiag  1:
 RMSU=  1.66D-08    CP:  1.00D+00  9.90D-01  1.41D+00  1.36D+00  1.21D+00
                    CP:  1.66D+00  1.40D+00  1.30D+00  1.16D+00  1.27D+00
                    CP:  9.89D-01
 E= -633.327120548835     Delta-E=       -0.000000000001 Rises=F Damp=F
 DIIS: error= 6.26D-08 at cycle  12 NSaved=  12.
 NSaved=12 IEnMin=12 EnMin= -633.327120548835     IErMin=12 ErrMin= 6.26D-08
 ErrMax= 6.26D-08  0.00D+00 EMaxC= 1.00D-01 BMatC= 1.36D-12 BMatP= 8.80D-12
 IDIUse=1 WtCom= 1.00D+00 WtEn= 0.00D+00
 Coeff-Com: -0.127D-04 0.207D-04-0.163D-03 0.111D-03 0.148D-02 0.249D-02
 Coeff-Com: -0.555D-04-0.251D-01-0.251D-01 0.314D-01 0.330D+00 0.685D+00
 Coeff:     -0.127D-04 0.207D-04-0.163D-03 0.111D-03 0.148D-02 0.249D-02
 Coeff:     -0.555D-04-0.251D-01-0.251D-01 0.314D-01 0.330D+00 0.685D+00
 Gap=     0.227 Goal=   None    Shift=    0.000
 RMSDP=1.04D-08 MaxDP=5.54D-07 DE=-9.09D-13 OVMax= 7.44D-07

 Cycle  13  Pass 1  IDiag  1:
 RMSU=  6.06D-09    CP:  1.00D+00  9.90D-01  1.41D+00  1.36D+00  1.21D+00
                    CP:  1.66D+00  1.40D+00  1.30D+00  1.17D+00  1.29D+00
                    CP:  1.11D+00  8.97D-01
 E= -633.327120548838     Delta-E=       -0.000000000004 Rises=F Damp=F
 DIIS: error= 2.02D-08 at cycle  13 NSaved=  13.
 NSaved=13 IEnMin=13 EnMin= -633.327120548838     IErMin=13 ErrMin= 2.02D-08
 ErrMax= 2.02D-08  0.00D+00 EMaxC= 1.00D-01 BMatC= 2.67D-13 BMatP= 1.36D-12
 IDIUse=1 WtCom= 1.00D+00 WtEn= 0.00D+00
 Coeff-Com: -0.219D-06-0.936D-07-0.402D-04-0.182D-03 0.153D-03 0.126D-02
 Coeff-Com:  0.145D-02-0.537D-02-0.184D-01-0.438D-01 0.483D-01 0.367D+00
 Coeff-Com:  0.650D+00
 Coeff:     -0.219D-06-0.936D-07-0.402D-04-0.182D-03 0.153D-03 0.126D-02
 Coeff:      0.145D-02-0.537D-02-0.184D-01-0.438D-01 0.483D-01 0.367D+00
 Coeff:      0.650D+00
 Gap=     0.227 Goal=   None    Shift=    0.000
 RMSDP=7.67D-09 MaxDP=3.94D-07 DE=-3.52D-12 OVMax= 3.49D-07

 Error on total polarization charges =  0.00820
 SCF Done:  E(RCAM-B3LYP) =  -633.327120549     A.U. after   13 cycles
            NFock= 13  Conv=0.77D-08     -V/T= 2.0041
 KE= 6.307235631435D+02 PE=-3.276790323916D+03 EE= 1.112424347379D+03
 Leave Link  502 at Sat Jan 24 23:02:17 2026, MaxMem=  2147483648 cpu:             812.7 elap:              51.5
 (Enter /data/home/wyx/g16/l601.exe)
 Copying SCF densities to generalized density rwf, IOpCl= 0 IROHF=0.

 **********************************************************************

            Population analysis using the SCF density.

 **********************************************************************

 Orbital symmetries:
       Occupied  (A) (A) (A) (A) (A) (A) (A) (A) (A) (A) (A) (A)
                 (A) (A) (A) (A) (A) (A) (A) (A) (A) (A) (A) (A)
                 (A) (A) (A) (A) (A) (A) (A) (A) (A) (A) (A) (A)
                 (A) (A) (A) (A) (A) (A) (A) (A) (A) (A) (A) (A)
                 (A) (A) (A) (A)
       Virtual   (A) (A) (A) (A) (A) (A) (A) (A) (A) (A) (A) (A)
                 (A) (A) (A) (A) (A) (A) (A) (A) (A) (A) (A) (A)
                 (A) (A) (A) (A) (A) (A) (A) (A) (A) (A) (A) (A)
                 (A) (A) (A) (A) (A) (A) (A) (A) (A) (A) (A) (A)
                 (A) (A) (A) (A) (A) (A) (A) (A) (A) (A) (A) (A)
                 (A) (A) (A) (A) (A) (A) (A) (A) (A) (A) (A) (A)
                 (A) (A) (A) (A) (A) (A) (A) (A) (A) (A) (A) (A)
                 (A) (A) (A) (A) (A) (A) (A) (A) (A) (A) (A) (A)
                 (A) (A) (A) (A) (A) (A) (A) (A) (A) (A) (A) (A)
                 (A) (A) (A) (A) (A) (A) (A) (A) (A) (A) (A) (A)
                 (A) (A) (A) (A) (A) (A) (A) (A) (A) (A) (A) (A)
                 (A) (A) (A) (A) (A) (A) (A) (A) (A) (A) (A) (A)
                 (A) (A) (A) (A) (A) (A) (A) (A) (A) (A) (A) (A)
                 (A) (A) (A) (A) (A) (A) (A) (A) (A) (A) (A) (A)
                 (A) (A) (A) (A) (A) (A) (A) (A) (A) (A) (A) (A)
                 (A) (A) (A) (A) (A) (A) (A) (A) (A) (A) (A) (A)
                 (A) (A) (A) (A) (A) (A) (A) (A) (A) (A) (A) (A)
                 (A) (A) (A) (A) (A) (A) (A) (A) (A) (A) (A) (A)
                 (A) (A) (A) (A) (A) (A) (A) (A) (A) (A) (A) (A)
                 (A) (A) (A) (A) (A) (A) (A) (A) (A) (A) (A) (A)
                 (A) (A) (A) (A) (A) (A) (A) (A) (A) (A) (A) (A)
                 (A) (A) (A) (A) (A) (A) (A) (A) (A) (A) (A) (A)
                 (A) (A) (A) (A) (A) (A) (A) (A) (A) (A) (A) (A)
                 (A) (A) (A) (A) (A) (A) (A) (A) (A) (A) (A) (A)
                 (A) (A) (A) (A) (A) (A) (A) (A) (A) (A) (A) (A)
                 (A) (A) (A) (A)
 The electronic state is 1-A.
 Alpha  occ. eigenvalues --  -19.18348 -19.16817 -14.44727 -10.33872 -10.32894
 Alpha  occ. eigenvalues --  -10.32638 -10.31968 -10.26250 -10.25568 -10.24907
 Alpha  occ. eigenvalues --  -10.24791 -10.24756 -10.24620 -10.23179  -1.12130
 Alpha  occ. eigenvalues --   -1.10818  -1.08406  -0.91664  -0.90674  -0.84114
 Alpha  occ. eigenvalues --   -0.82728  -0.81849  -0.78607  -0.74191  -0.71982
 Alpha  occ. eigenvalues --   -0.68888  -0.61799  -0.58470  -0.57188  -0.55450
 Alpha  occ. eigenvalues --   -0.54825  -0.54063  -0.52671  -0.51992  -0.51078
 Alpha  occ. eigenvalues --   -0.50190  -0.49482  -0.49238  -0.48760  -0.48270
 Alpha  occ. eigenvalues --   -0.47136  -0.45388  -0.44896  -0.43981  -0.43457
 Alpha  occ. eigenvalues --   -0.42569  -0.42325  -0.41587  -0.33069  -0.32601
 Alpha  occ. eigenvalues --   -0.30923  -0.25824
 Alpha virt. eigenvalues --   -0.03151   0.02369   0.06129   0.08058   0.08430
 Alpha virt. eigenvalues --    0.09665   0.10832   0.11734   0.12461   0.13345
 Alpha virt. eigenvalues --    0.13842   0.14813   0.15552   0.16282   0.16977
 Alpha virt. eigenvalues --    0.17675   0.17783   0.18009   0.18116   0.19293
 Alpha virt. eigenvalues --    0.19881   0.22078   0.22683   0.23172   0.23577
 Alpha virt. eigenvalues --    0.23784   0.24698   0.25535   0.26240   0.26598
 Alpha virt. eigenvalues --    0.26848   0.27716   0.28454   0.28936   0.30198
 Alpha virt. eigenvalues --    0.31472   0.31785   0.32315   0.33355   0.34345
 Alpha virt. eigenvalues --    0.34867   0.35880   0.36654   0.37914   0.38305
 Alpha virt. eigenvalues --    0.39574   0.40725   0.41340   0.41746   0.42286
 Alpha virt. eigenvalues --    0.43980   0.44501   0.45261   0.45928   0.46460
 Alpha virt. eigenvalues --    0.47139   0.47691   0.47978   0.48277   0.48891
 Alpha virt. eigenvalues --    0.49327   0.50516   0.51108   0.51417   0.51619
 Alpha virt. eigenvalues --    0.52758   0.52934   0.53377   0.53834   0.54242
 Alpha virt. eigenvalues --    0.54411   0.55420   0.55928   0.56465   0.58284
 Alpha virt. eigenvalues --    0.58305   0.59274   0.60741   0.61014   0.62804
 Alpha virt. eigenvalues --    0.63453   0.65440   0.66171   0.66645   0.67553
 Alpha virt. eigenvalues --    0.68537   0.69841   0.71020   0.71569   0.72238
 Alpha virt. eigenvalues --    0.73002   0.74064   0.74649   0.75597   0.77459
 Alpha virt. eigenvalues --    0.78483   0.79683   0.82499   0.85401   0.86428
 Alpha virt. eigenvalues --    0.89893   0.94395   1.00586   1.02642   1.23208
 Alpha virt. eigenvalues --    1.24748   1.26818   1.28265   1.29305   1.30774
 Alpha virt. eigenvalues --    1.32371   1.32766   1.33888   1.34908   1.35946
 Alpha virt. eigenvalues --    1.36534   1.37815   1.38214   1.38769   1.39609
 Alpha virt. eigenvalues --    1.39868   1.40619   1.40651   1.41242   1.41671
 Alpha virt. eigenvalues --    1.43300   1.43704   1.44275   1.45086   1.47255
 Alpha virt. eigenvalues --    1.47870   1.49348   1.49556   1.50120   1.50835
 Alpha virt. eigenvalues --    1.51048   1.52284   1.52548   1.54637   1.57916
 Alpha virt. eigenvalues --    1.58507   1.60352   1.60606   1.61246   1.62342
 Alpha virt. eigenvalues --    1.62429   1.63207   1.64192   1.64872   1.65943
 Alpha virt. eigenvalues --    1.66610   1.67028   1.67428   1.68247   1.68378
 Alpha virt. eigenvalues --    1.68973   1.69699   1.70133   1.71128   1.72026
 Alpha virt. eigenvalues --    1.73810   1.74831   1.75993   1.76715   1.78479
 Alpha virt. eigenvalues --    1.80789   1.82806   1.83973   1.85789   1.86619
 Alpha virt. eigenvalues --    1.86962   1.88042   1.88755   1.88797   1.90435
 Alpha virt. eigenvalues --    1.91047   1.94476   1.95041   1.98754   1.99778
 Alpha virt. eigenvalues --    2.01236   2.03648   2.05025   2.06754   2.09447
 Alpha virt. eigenvalues --    2.10785   2.12221   2.15159   2.17431   2.19575
 Alpha virt. eigenvalues --    2.20324   2.21094   2.21826   2.22868   2.26337
 Alpha virt. eigenvalues --    2.27165   2.27484   2.29169   2.31135   2.31976
 Alpha virt. eigenvalues --    2.33764   2.34143   2.36540   2.37728   2.38546
 Alpha virt. eigenvalues --    2.39393   2.40242   2.41392   2.43044   2.44817
 Alpha virt. eigenvalues --    2.46019   2.47602   2.49830   2.50643   2.51109
 Alpha virt. eigenvalues --    2.52160   2.53867   2.54964   2.56681   2.57778
 Alpha virt. eigenvalues --    2.58760   2.60974   2.61312   2.62489   2.63190
 Alpha virt. eigenvalues --    2.64638   2.65816   2.66569   2.67384   2.68589
 Alpha virt. eigenvalues --    2.71747   2.71989   2.73151   2.74372   2.75611
 Alpha virt. eigenvalues --    2.75691   2.76902   2.77107   2.77742   2.79190
 Alpha virt. eigenvalues --    2.80833   2.81788   2.83186   2.83877   2.84284
 Alpha virt. eigenvalues --    2.85485   2.86348   2.88376   2.89552   2.91980
 Alpha virt. eigenvalues --    2.97090   2.99509   3.00519   3.05891   3.10565
 Alpha virt. eigenvalues --    3.12144   3.15641   3.17199   3.18226   3.21106
 Alpha virt. eigenvalues --    3.21290   3.23154   3.23894   3.25382   3.27084
 Alpha virt. eigenvalues --    3.27543   3.30010   3.33147   3.34610   3.36387
 Alpha virt. eigenvalues --    3.37451   3.38669   3.40003   3.40400   3.41927
 Alpha virt. eigenvalues --    3.42379   3.44514   3.45321   3.47363   3.48280
 Alpha virt. eigenvalues --    3.49420   3.49751   3.55171   3.58156   3.59746
 Alpha virt. eigenvalues --    3.60657   3.90467   4.00233   4.32917   4.36467
 Alpha virt. eigenvalues --   21.65793  21.80103  22.08130  22.10554  22.12088
 Alpha virt. eigenvalues --   22.15007  22.15333  22.18731  22.19781  22.24326
 Alpha virt. eigenvalues --   22.28670  31.91916  43.63203  43.66405
          Condensed to atoms (all electrons):
               1          2          3          4          5          6
     1  O    7.952702   0.000000  -0.000219   0.000018   0.018409   0.011166
     2  O    0.000000   7.955557   0.000519   0.000023  -0.193003   0.001079
     3  N   -0.000219   0.000519   6.390215   0.371367  -0.121844   0.333074
     4  H    0.000018   0.000023   0.371367   0.403676   0.015698  -0.046124
     5  C    0.018409  -0.193003  -0.121844   0.015698   7.080828  -0.080576
     6  C    0.011166   0.001079   0.333074  -0.046124  -0.080576   5.599000
     7  C   -0.000196  -0.042047   0.382470  -0.036995   0.427469  -0.111702
     8  C   -0.000517   0.704110   0.004652  -0.000723  -0.269483   0.028958
     9  C   -0.015597   0.023138   0.013750  -0.000056  -0.637879  -0.067420
    10  H    0.006148   0.000110   0.003756   0.000027  -0.032681  -0.020206
    11  H    0.012290  -0.000019  -0.001341   0.000019  -0.119802   0.027905
    12  C   -0.230959  -0.002688  -0.094492   0.014776   0.188279  -0.121874
    13  C    0.716416  -0.000018   0.001188   0.000485   0.082043   0.144247
    14  C   -0.000007  -0.000079  -0.034169  -0.009325  -0.082582   0.012068
    15  H   -0.000000   0.004129   0.004638   0.001487   0.019042   0.006462
    16  H   -0.000000   0.001818  -0.002725   0.000939  -0.007046  -0.001699
    17  H   -0.000000   0.001443   0.000803   0.000803  -0.008849  -0.001059
    18  C    0.000135  -0.103712  -0.000481   0.000020  -0.261993   0.000003
    19  H   -0.000002   0.008057   0.000003  -0.000001   0.021133   0.000028
    20  H    0.000000   0.000869   0.000011  -0.000001   0.003040   0.000241
    21  H    0.000099   0.003971   0.000121   0.000001   0.044506  -0.001205
    22  C   -0.105976   0.000000  -0.000100   0.000112   0.004018  -0.021291
    23  H    0.005038  -0.000000   0.000067  -0.000055  -0.000701  -0.029388
    24  H    0.001384   0.000000  -0.000012  -0.000013  -0.000034   0.009951
    25  H    0.006718   0.000000   0.000029  -0.000002  -0.000149  -0.000922
    26  C    0.000867   0.000007  -0.027023  -0.006412   0.000069   0.183719
    27  H   -0.000257  -0.000000   0.002064   0.000813   0.000042  -0.046125
    28  H   -0.000052  -0.000000  -0.002663   0.000466   0.000431  -0.032656
    29  H    0.000024  -0.000000   0.001194   0.001440  -0.000433  -0.048902
               7          8          9         10         11         12
     1  O   -0.000196  -0.000517  -0.015597   0.006148   0.012290  -0.230959
     2  O   -0.042047   0.704110   0.023138   0.000110  -0.000019  -0.002688
     3  N    0.382470   0.004652   0.013750   0.003756  -0.001341  -0.094492
     4  H   -0.036995  -0.000723  -0.000056   0.000027   0.000019   0.014776
     5  C    0.427469  -0.269483  -0.637879  -0.032681  -0.119802   0.188279
     6  C   -0.111702   0.028958  -0.067420  -0.020206   0.027905  -0.121874
     7  C    5.426720  -0.200362  -0.207084  -0.004887   0.017438   0.016624
     8  C   -0.200362   5.333396   0.158270  -0.005472  -0.007031  -0.044094
     9  C   -0.207084   0.158270   6.432160   0.398232   0.540850  -0.109061
    10  H   -0.004887  -0.005472   0.398232   0.574137  -0.043107  -0.021907
    11  H    0.017438  -0.007031   0.540850  -0.043107   0.520391  -0.110056
    12  C    0.016624  -0.044094  -0.109061  -0.021907  -0.110056   7.369790
    13  C    0.015032  -0.007466  -0.266051  -0.001961  -0.001094  -0.441863
    14  C    0.266625  -0.024231   0.010488  -0.001144   0.000546  -0.003648
    15  H   -0.084895   0.005230   0.000390   0.000060  -0.000006  -0.001326
    16  H   -0.016628  -0.001840   0.000787  -0.000067   0.000057   0.000553
    17  H   -0.023158  -0.007498  -0.000664   0.000198  -0.000057   0.000113
    18  C    0.001914   0.316408   0.000916  -0.010094   0.005414  -0.002072
    19  H    0.000192  -0.048014  -0.001273   0.000066   0.000512  -0.000203
    20  H    0.000141  -0.024245  -0.009666   0.000854  -0.001059  -0.003352
    21  H    0.002200  -0.069687  -0.008098   0.001957  -0.005994   0.007888
    22  C    0.000284  -0.000085   0.007912   0.002378  -0.000118  -0.250899
    23  H   -0.000003  -0.000000   0.003435  -0.000176   0.000003   0.064561
    24  H    0.000004   0.000002  -0.002164   0.000170  -0.000118  -0.012499
    25  H    0.000004   0.000004   0.000155  -0.000071  -0.000087   0.022891
    26  C    0.002173   0.000681   0.022539  -0.000708   0.000054  -0.081730
    27  H   -0.000738   0.000004  -0.000563  -0.000111   0.000012  -0.008510
    28  H   -0.000862  -0.000012  -0.000414  -0.000012   0.000041  -0.018439
    29  H    0.003331  -0.000008  -0.000482   0.000094  -0.000012   0.023524
              13         14         15         16         17         18
     1  O    0.716416  -0.000007  -0.000000  -0.000000  -0.000000   0.000135
     2  O   -0.000018  -0.000079   0.004129   0.001818   0.001443  -0.103712
     3  N    0.001188  -0.034169   0.004638  -0.002725   0.000803  -0.000481
     4  H    0.000485  -0.009325   0.001487   0.000939   0.000803   0.000020
     5  C    0.082043  -0.082582   0.019042  -0.007046  -0.008849  -0.261993
     6  C    0.144247   0.012068   0.006462  -0.001699  -0.001059   0.000003
     7  C    0.015032   0.266625  -0.084895  -0.016628  -0.023158   0.001914
     8  C   -0.007466  -0.024231   0.005230  -0.001840  -0.007498   0.316408
     9  C   -0.266051   0.010488   0.000390   0.000787  -0.000664   0.000916
    10  H   -0.001961  -0.001144   0.000060  -0.000067   0.000198  -0.010094
    11  H   -0.001094   0.000546  -0.000006   0.000057  -0.000057   0.005414
    12  C   -0.441863  -0.003648  -0.001326   0.000553   0.000113  -0.002072
    13  C    5.523000  -0.000011  -0.000030  -0.000012  -0.000001   0.001092
    14  C   -0.000011   5.033255   0.394954   0.404768   0.419433   0.002112
    15  H   -0.000030   0.394954   0.575778  -0.026562  -0.028973   0.000260
    16  H   -0.000012   0.404768  -0.026562   0.504457  -0.024185  -0.000026
    17  H   -0.000001   0.419433  -0.028973  -0.024185   0.504796  -0.000260
    18  C    0.001092   0.002112   0.000260  -0.000026  -0.000260   5.332534
    19  H   -0.000015  -0.000018  -0.000004  -0.000024   0.000042   0.395620
    20  H   -0.000140  -0.000263  -0.000005  -0.000005   0.000020   0.398783
    21  H    0.000681   0.000042  -0.000016   0.000003  -0.000032   0.379835
    22  C    0.288449  -0.000015   0.000002   0.000000  -0.000000   0.000040
    23  H   -0.096223   0.000002   0.000000   0.000000   0.000000   0.000002
    24  H   -0.021647  -0.000001   0.000000   0.000000   0.000000  -0.000002
    25  H   -0.038978   0.000000   0.000000  -0.000000   0.000000  -0.000001
    26  C   -0.056517   0.001147   0.000149  -0.000124   0.000035   0.000014
    27  H   -0.003612   0.000078  -0.000011   0.000001  -0.000002  -0.000000
    28  H    0.006785  -0.000120  -0.000000  -0.000008   0.000004  -0.000001
    29  H   -0.000867  -0.000199   0.000114   0.000000  -0.000002   0.000000
              19         20         21         22         23         24
     1  O   -0.000002   0.000000   0.000099  -0.105976   0.005038   0.001384
     2  O    0.008057   0.000869   0.003971   0.000000  -0.000000   0.000000
     3  N    0.000003   0.000011   0.000121  -0.000100   0.000067  -0.000012
     4  H   -0.000001  -0.000001   0.000001   0.000112  -0.000055  -0.000013
     5  C    0.021133   0.003040   0.044506   0.004018  -0.000701  -0.000034
     6  C    0.000028   0.000241  -0.001205  -0.021291  -0.029388   0.009951
     7  C    0.000192   0.000141   0.002200   0.000284  -0.000003   0.000004
     8  C   -0.048014  -0.024245  -0.069687  -0.000085  -0.000000   0.000002
     9  C   -0.001273  -0.009666  -0.008098   0.007912   0.003435  -0.002164
    10  H    0.000066   0.000854   0.001957   0.002378  -0.000176   0.000170
    11  H    0.000512  -0.001059  -0.005994  -0.000118   0.000003  -0.000118
    12  C   -0.000203  -0.003352   0.007888  -0.250899   0.064561  -0.012499
    13  C   -0.000015  -0.000140   0.000681   0.288449  -0.096223  -0.021647
    14  C   -0.000018  -0.000263   0.000042  -0.000015   0.000002  -0.000001
    15  H   -0.000004  -0.000005  -0.000016   0.000002   0.000000   0.000000
    16  H   -0.000024  -0.000005   0.000003   0.000000   0.000000   0.000000
    17  H    0.000042   0.000020  -0.000032  -0.000000   0.000000   0.000000
    18  C    0.395620   0.398783   0.379835   0.000040   0.000002  -0.000002
    19  H    0.491781  -0.007947  -0.023783  -0.000000   0.000000   0.000000
    20  H   -0.007947   0.497363  -0.026313  -0.000013   0.000000   0.000000
    21  H   -0.023783  -0.026313   0.545088   0.000022  -0.000000  -0.000000
    22  C   -0.000000  -0.000013   0.000022   5.417890   0.398801   0.401418
    23  H    0.000000   0.000000  -0.000000   0.398801   0.540695  -0.026201
    24  H    0.000000   0.000000  -0.000000   0.401418  -0.026201   0.489370
    25  H   -0.000000   0.000000  -0.000000   0.383052  -0.022417  -0.008222
    26  C    0.000000   0.000004  -0.000017  -0.031658   0.016494  -0.011904
    27  H   -0.000000   0.000000  -0.000000   0.006140  -0.008654  -0.000377
    28  H    0.000000  -0.000000  -0.000000  -0.011189  -0.001515   0.000966
    29  H    0.000000  -0.000000   0.000000   0.001982   0.000650   0.000180
              25         26         27         28         29
     1  O    0.006718   0.000867  -0.000257  -0.000052   0.000024
     2  O    0.000000   0.000007  -0.000000  -0.000000  -0.000000
     3  N    0.000029  -0.027023   0.002064  -0.002663   0.001194
     4  H   -0.000002  -0.006412   0.000813   0.000466   0.001440
     5  C   -0.000149   0.000069   0.000042   0.000431  -0.000433
     6  C   -0.000922   0.183719  -0.046125  -0.032656  -0.048902
     7  C    0.000004   0.002173  -0.000738  -0.000862   0.003331
     8  C    0.000004   0.000681   0.000004  -0.000012  -0.000008
     9  C    0.000155   0.022539  -0.000563  -0.000414  -0.000482
    10  H   -0.000071  -0.000708  -0.000111  -0.000012   0.000094
    11  H   -0.000087   0.000054   0.000012   0.000041  -0.000012
    12  C    0.022891  -0.081730  -0.008510  -0.018439   0.023524
    13  C   -0.038978  -0.056517  -0.003612   0.006785  -0.000867
    14  C    0.000000   0.001147   0.000078  -0.000120  -0.000199
    15  H    0.000000   0.000149  -0.000011  -0.000000   0.000114
    16  H   -0.000000  -0.000124   0.000001  -0.000008   0.000000
    17  H    0.000000   0.000035  -0.000002   0.000004  -0.000002
    18  C   -0.000001   0.000014  -0.000000  -0.000001   0.000000
    19  H   -0.000000   0.000000  -0.000000   0.000000   0.000000
    20  H    0.000000   0.000004   0.000000  -0.000000  -0.000000
    21  H   -0.000000  -0.000017  -0.000000  -0.000000   0.000000
    22  C    0.383052  -0.031658   0.006140  -0.011189   0.001982
    23  H   -0.022417   0.016494  -0.008654  -0.001515   0.000650
    24  H   -0.008222  -0.011904  -0.000377   0.000966   0.000180
    25  H    0.495156   0.001970   0.000707   0.000115  -0.000039
    26  C    0.001970   5.250032   0.430112   0.427335   0.389707
    27  H    0.000707   0.430112   0.507110  -0.026488  -0.025812
    28  H    0.000115   0.427335  -0.026488   0.476154  -0.016539
    29  H   -0.000039   0.389707  -0.025812  -0.016539   0.512082
 Mulliken charges:
               1
     1  O   -0.377634
     2  O   -0.363263
     3  N   -0.224855
     4  H    0.287537
     5  C   -0.087951
     6  C    0.273248
     7  C    0.166936
     8  C    0.159052
     9  C   -0.286550
    10  H    0.154417
    11  H    0.164369
    12  C   -0.149328
    13  C    0.157092
    14  C   -0.389705
    15  H    0.129133
    16  H    0.167568
    17  H    0.167052
    18  C   -0.456462
    19  H    0.163854
    20  H    0.171684
    21  H    0.148730
    22  C   -0.491155
    23  H    0.155587
    24  H    0.179749
    25  H    0.160089
    26  C   -0.511017
    27  H    0.174178
    28  H    0.198673
    29  H    0.158973
 Sum of Mulliken charges =  -0.00000
 Mulliken charges with hydrogens summed into heavy atoms:
               1
     1  O   -0.377634
     2  O   -0.363263
     3  N    0.062682
     5  C   -0.087951
     6  C    0.273248
     7  C    0.166936
     8  C    0.159052
     9  C    0.032236
    12  C   -0.149328
    13  C    0.157092
    14  C    0.074048
    18  C    0.027806
    22  C    0.004269
    26  C    0.020807
 Electronic spatial extent (au):  <R**2>=           3192.9720
 Charge=              0.0000 electrons
 Dipole moment (field-independent basis, Debye):
    X=             -3.5076    Y=              7.6498    Z=             -0.0261  Tot=              8.4157
 Quadrupole moment (field-independent basis, Debye-Ang):
   XX=            -96.4697   YY=            -78.1599   ZZ=            -84.9759
   XY=            -13.2671   XZ=             -4.7719   YZ=             -2.0316
 Traceless Quadrupole moment (field-independent basis, Debye-Ang):
   XX=             -9.9345   YY=              8.3752   ZZ=              1.5592
   XY=            -13.2671   XZ=             -4.7719   YZ=             -2.0316
 Octapole moment (field-independent basis, Debye-Ang**2):
  XXX=           -102.1924  YYY=             65.9230  ZZZ=              1.7949  XYY=             36.7779
  XXY=             31.5309  XXZ=             -6.8853  XZZ=             -1.1482  YZZ=             -1.0567
  YYZ=              4.2046  XYZ=              5.3722
 Hexadecapole moment (field-independent basis, Debye-Ang**3):
 XXXX=          -3012.4740 YYYY=          -1280.3674 ZZZZ=           -149.0817 XXXY=            -45.0283
 XXXZ=            -53.9315 YYYX=            -93.9968 YYYZ=            -21.4246 ZZZX=              3.4752
 ZZZY=              3.6869 XXYY=           -685.8197 XXZZ=           -480.8273 YYZZ=           -243.7649
 XXYZ=             -8.5162 YYXZ=             -8.3901 ZZXY=              0.2204
 N-N= 9.003152928445D+02 E-N=-3.276790322042D+03  KE= 6.307235631435D+02
 No NMR shielding tensors so no spin-rotation constants.
 Leave Link  601 at Sat Jan 24 23:02:17 2026, MaxMem=  2147483648 cpu:               1.8 elap:               0.1
 (Enter /data/home/wyx/g16/l9999.exe)
 1\1\GINC-CN012\SP\RCAM-B3LYP\TZVP\C11H15N1O2\WYX\24-Jan-2026\0\\#p CAM
 -B3LYP TZVP em=gd3bj scrf=(Solvent=Water,NonEquilibrium=Read) Geom=Che
 ck Guess=Read\\Title Card Required\\0,1\O,0,2.728857,-1.55914,0.81628\
 O,0,-3.274006,-1.653571,-0.98596\N,0,-0.693907,1.515472,0.016374\H,0,-
 1.002286,2.47489,-0.047396\C,0,-1.251052,-0.761398,-0.165132\C,0,0.642
 639,1.320904,0.235187\C,0,-1.624535,0.562844,-0.264688\C,0,-2.159567,-
 1.844051,-0.498298\C,0,0.110991,-1.09067,0.341962\H,0,0.042017,-1.4819
 84,1.369757\H,0,0.53269,-1.932913,-0.210509\C,0,1.100394,0.026104,0.33
 1829\C,0,2.484831,-0.393573,0.490949\C,0,-2.962573,1.095174,-0.640309\
 H,0,-3.022723,2.166653,-0.464733\H,0,-3.175739,0.912763,-1.689316\H,0,
 -3.751518,0.607365,-0.08032\C,0,-1.710103,-3.258694,-0.251885\H,0,-2.5
 64066,-3.924444,-0.298701\H,0,-1.000118,-3.57068,-1.015577\H,0,-1.2173
 11,-3.383025,0.707129\C,0,3.648551,0.529932,0.228726\H,0,3.460781,1.24
 0149,-0.571882\H,0,3.900401,1.091339,1.130587\H,0,4.507801,-0.085325,-
 0.029457\C,0,1.415674,2.592228,0.361498\H,0,2.189275,2.521462,1.116749
 \H,0,1.888343,2.871841,-0.579629\H,0,0.756259,3.410348,0.646762\\Versi
 on=ES64L-G16RevA.03\State=1-A\HF=-633.3271205\RMSD=7.667e-09\Dipole=0.
 2789543,3.2990741,0.0307996\Quadrupole=-10.1011053,10.954488,-0.853382
 8,3.1394665,-6.1401299,0.7481233\PG=C01 [X(C11H15N1O2)]\\@


 WE'RE IN THE POSITION OF A VISITOR FROM ANOTHER
 DIMENSION WHO COMES TO EARTH AND SEES A CHESS MATCH.
 ASSUMING HE KNOWS IT'S A GAME, HE'S GOT TWO PROBLEMS:
 FIRST, FIGURE OUT THE RULES, AND SECOND, FIGURE OUT HOW TO WIN.
 NINETY PERCENT OF SCIENCE (INCLUDING VIRTUALLY ALL OF CHEMISRY)
 IS IN THAT SECOND CATEGORY.  THEY'RE TRYING TO APPLY
 THE LAWS THAT ARE ALREADY KNOWN.

                     -- SHELDON GLASHOW, 1979
 Job cpu time:       0 days  0 hours 13 minutes 43.0 seconds.
 Elapsed time:       0 days  0 hours  0 minutes 52.3 seconds.
 File lengths (MBytes):  RWF=    343 Int=      0 D2E=      0 Chk=     67 Scr=      1
 Normal termination of Gaussian 16 at Sat Jan 24 23:02:20 2026.
