 Entering Gaussian System, Link 0=g16
 Input=DDL-S1-cLR-4.gjf
 Output=DDL-S1-cLR-4.log
 Initial command:
 /data/home/wyx/g16/l1.exe "/scr/tmp/wyx/13117/Gau-2020448.inp" -scrdir="/scr/tmp/wyx/13117/"
 Entering Link 1 = /data/home/wyx/g16/l1.exe PID=   2020449.
  
 Copyright (c) 1988,1990,1992,1993,1995,1998,2003,2009,2016,
            Gaussian, Inc.  All Rights Reserved.
  
 This is part of the Gaussian(R) 16 program.  It is based on
 the Gaussian(R) 09 system (copyright 2009, Gaussian, Inc.),
 the Gaussian(R) 03 system (copyright 2003, Gaussian, Inc.),
 the Gaussian(R) 98 system (copyright 1998, Gaussian, Inc.),
 the Gaussian(R) 94 system (copyright 1995, Gaussian, Inc.),
 the Gaussian 92(TM) system (copyright 1992, Gaussian, Inc.),
 the Gaussian 90(TM) system (copyright 1990, Gaussian, Inc.),
 the Gaussian 88(TM) system (copyright 1988, Gaussian, Inc.),
 the Gaussian 86(TM) system (copyright 1986, Carnegie Mellon
 University), and the Gaussian 82(TM) system (copyright 1983,
 Carnegie Mellon University). Gaussian is a federally registered
 trademark of Gaussian, Inc.
  
 This software contains proprietary and confidential information,
 including trade secrets, belonging to Gaussian, Inc.
  
 This software is provided under written license and may be
 used, copied, transmitted, or stored only in accord with that
 written license.
  
 The following legend is applicable only to US Government
 contracts under FAR:
  
                    RESTRICTED RIGHTS LEGEND
  
 Use, reproduction and disclosure by the US Government is
 subject to restrictions as set forth in subparagraphs (a)
 and (c) of the Commercial Computer Software - Restricted
 Rights clause in FAR 52.227-19.
  
 Gaussian, Inc.
 340 Quinnipiac St., Bldg. 40, Wallingford CT 06492
  
  
 ---------------------------------------------------------------
 Warning -- This program may not be used in any manner that
 competes with the business of Gaussian, Inc. or will provide
 assistance to any competitor of Gaussian, Inc.  The licensee
 of this program is prohibited from giving any competitor of
 Gaussian, Inc. access to this program.  By using this program,
 the user acknowledges that Gaussian, Inc. is engaged in the
 business of creating and licensing software in the field of
 computational chemistry and represents and warrants to the
 licensee that it is not a competitor of Gaussian, Inc. and that
 it will not use this program in any manner prohibited above.
 ---------------------------------------------------------------
  

 Cite this work as:
 Gaussian 16, Revision A.03,
 M. J. Frisch, G. W. Trucks, H. B. Schlegel, G. E. Scuseria, 
 M. A. Robb, J. R. Cheeseman, G. Scalmani, V. Barone, 
 G. A. Petersson, H. Nakatsuji, X. Li, M. Caricato, A. V. Marenich, 
 J. Bloino, B. G. Janesko, R. Gomperts, B. Mennucci, H. P. Hratchian, 
 J. V. Ortiz, A. F. Izmaylov, J. L. Sonnenberg, D. Williams-Young, 
 F. Ding, F. Lipparini, F. Egidi, J. Goings, B. Peng, A. Petrone, 
 T. Henderson, D. Ranasinghe, V. G. Zakrzewski, J. Gao, N. Rega, 
 G. Zheng, W. Liang, M. Hada, M. Ehara, K. Toyota, R. Fukuda, 
 J. Hasegawa, M. Ishida, T. Nakajima, Y. Honda, O. Kitao, H. Nakai, 
 T. Vreven, K. Throssell, J. A. Montgomery, Jr., J. E. Peralta, 
 F. Ogliaro, M. J. Bearpark, J. J. Heyd, E. N. Brothers, K. N. Kudin, 
 V. N. Staroverov, T. A. Keith, R. Kobayashi, J. Normand, 
 K. Raghavachari, A. P. Rendell, J. C. Burant, S. S. Iyengar, 
 J. Tomasi, M. Cossi, J. M. Millam, M. Klene, C. Adamo, R. Cammi, 
 J. W. Ochterski, R. L. Martin, K. Morokuma, O. Farkas, 
 J. B. Foresman, and D. J. Fox, Gaussian, Inc., Wallingford CT, 2016.
 
 ******************************************
 Gaussian 16:  ES64L-G16RevA.03 25-Dec-2016
                24-Jan-2026 
 ******************************************
 %nprocshared=16
 Will use up to   16 processors via shared memory.
 %mem=16GB
 %oldchk=DDL-LR-4.chk
 %chk=DDL-S1-cLR-4.chk
 Copying data from "DDL-LR-4.chk" to current chk file "DDL-S1-cLR-4.chk"
 IOpt=  2 FromEx=T IUOpen= 4 IOptOp= 5 NList=   0 IFRang= 0 IUIn= 4 IUOut= 2.
 ----------------------------------------------------------------------
 #p CAM-B3LYP TZVP em=gd3bj td(nstates=6,root=1) scrf=(Solvent=Water,Co
 rrectedLR,NonEquilibrium=Save) Geom=Check Guess=Read
 ----------------------------------------------------------------------
 1/29=2,30=1,38=1,172=1/1;
 2/12=2,40=1/2;
 3/5=19,7=101,11=9,14=-4,25=1,30=1,70=9002201,71=1,72=1,74=-40,116=-2,124=41/1,2,3,8;
 4/5=1/1;
 5/5=2,38=6,53=1/2;
 8/6=1,10=1,107=1,108=6/1;
 9/8=1,15=1,41=6,42=1,70=2,73=22/14;
 10/5=4,13=10,28=1,74=20/2;
 6/7=2,8=2,9=2,10=2,22=-1/1;
 99/5=1,9=1/99;
 Leave Link    1 at Sat Jan 24 18:27:14 2026, MaxMem=  2147483648 cpu:               0.8 elap:               0.1
 (Enter /data/home/wyx/g16/l101.exe)
 -------------------
 Title Card Required
 -------------------
 Structure from the checkpoint file:  "DDL-S1-cLR-4.chk"
 Charge =  0 Multiplicity = 1
 Z-Matrix found in chk file.
 O,0,2.718277,-1.559497,0.860925
 O,0,-3.301746,-1.66144,-0.911702
 N,0,-0.684117,1.516403,-0.04816
 H,0,-0.992546,2.477061,-0.115788
 C,0,-1.252593,-0.763454,-0.17304
 C,0,0.64373,1.333143,0.20647
 C,0,-1.627723,0.573989,-0.287871
 C,0,-2.164575,-1.849851,-0.468011
 C,0,0.119411,-1.081788,0.286854
 H,0,0.075146,-1.513853,1.302495
 H,0,0.537181,-1.911825,-0.291428
 C,0,1.104649,0.026718,0.314956
 C,0,2.480332,-0.395539,0.511975
 C,0,-2.976931,1.101821,-0.630508
 H,0,-3.012381,2.183685,-0.518062
 H,0,-3.248368,0.857054,-1.653579
 H,0,-3.742106,0.66359,0.001949
 C,0,-1.699932,-3.267048,-0.251406
 H,0,-2.562912,-3.923689,-0.220564
 H,0,-1.065681,-3.588076,-1.077334
 H,0,-1.126364,-3.395774,0.661491
 C,0,3.649423,0.524387,0.260009
 H,0,3.468415,1.242209,-0.535322
 H,0,3.904173,1.076921,1.166879
 H,0,4.505969,-0.093316,-0.002387
 C,0,1.414994,2.600889,0.368861
 H,0,2.1458,2.523987,1.167131
 H,0,1.944021,2.879357,-0.542969
 H,0,0.746455,3.423934,0.618134
 Recover connectivity data from disk.
 ITRead=  0  0  0  0  0  0  0  0  0  0  0  0  0  0  0  0  0  0  0  0
 ITRead=  0  0  0  0  0  0  0  0  0
 MicOpt= -1 -1 -1 -1 -1 -1 -1 -1 -1 -1 -1 -1 -1 -1 -1 -1 -1 -1 -1 -1
 MicOpt= -1 -1 -1 -1 -1 -1 -1 -1 -1
 NAtoms=     29 NQM=       29 NQMF=       0 NMMI=      0 NMMIF=      0
                NMic=       0 NMicF=      0.
                    Isotopes and Nuclear Properties:
 (Nuclear quadrupole moments (NQMom) in fm**2, nuclear magnetic moments (NMagM)
  in nuclear magnetons)

  Atom         1           2           3           4           5           6           7           8           9          10
 IAtWgt=          16          16          14           1          12          12          12          12          12           1
 AtmWgt=  15.9949146  15.9949146  14.0030740   1.0078250  12.0000000  12.0000000  12.0000000  12.0000000  12.0000000   1.0078250
 NucSpn=           0           0           2           1           0           0           0           0           0           1
 AtZEff=   5.6000000   5.6000000   4.5500000   1.0000000   3.6000000   3.6000000   3.6000000   3.6000000   3.6000000   1.0000000
 NQMom=    0.0000000   0.0000000   2.0440000   0.0000000   0.0000000   0.0000000   0.0000000   0.0000000   0.0000000   0.0000000
 NMagM=    0.0000000   0.0000000   0.4037610   2.7928460   0.0000000   0.0000000   0.0000000   0.0000000   0.0000000   2.7928460
 AtZNuc=   8.0000000   8.0000000   7.0000000   1.0000000   6.0000000   6.0000000   6.0000000   6.0000000   6.0000000   1.0000000

  Atom        11          12          13          14          15          16          17          18          19          20
 IAtWgt=           1          12          12          12           1           1           1          12           1           1
 AtmWgt=   1.0078250  12.0000000  12.0000000  12.0000000   1.0078250   1.0078250   1.0078250  12.0000000   1.0078250   1.0078250
 NucSpn=           1           0           0           0           1           1           1           0           1           1
 AtZEff=   1.0000000   3.6000000   3.6000000   3.6000000   1.0000000   1.0000000   1.0000000   3.6000000   1.0000000   1.0000000
 NQMom=    0.0000000   0.0000000   0.0000000   0.0000000   0.0000000   0.0000000   0.0000000   0.0000000   0.0000000   0.0000000
 NMagM=    2.7928460   0.0000000   0.0000000   0.0000000   2.7928460   2.7928460   2.7928460   0.0000000   2.7928460   2.7928460
 AtZNuc=   1.0000000   6.0000000   6.0000000   6.0000000   1.0000000   1.0000000   1.0000000   6.0000000   1.0000000   1.0000000

  Atom        21          22          23          24          25          26          27          28          29
 IAtWgt=           1          12           1           1           1          12           1           1           1
 AtmWgt=   1.0078250  12.0000000   1.0078250   1.0078250   1.0078250  12.0000000   1.0078250   1.0078250   1.0078250
 NucSpn=           1           0           1           1           1           0           1           1           1
 AtZEff=   1.0000000   3.6000000   1.0000000   1.0000000   1.0000000   3.6000000   1.0000000   1.0000000   1.0000000
 NQMom=    0.0000000   0.0000000   0.0000000   0.0000000   0.0000000   0.0000000   0.0000000   0.0000000   0.0000000
 NMagM=    2.7928460   0.0000000   2.7928460   2.7928460   2.7928460   0.0000000   2.7928460   2.7928460   2.7928460
 AtZNuc=   1.0000000   6.0000000   1.0000000   1.0000000   1.0000000   6.0000000   1.0000000   1.0000000   1.0000000
 Leave Link  101 at Sat Jan 24 18:27:17 2026, MaxMem=  2147483648 cpu:               0.8 elap:               0.1
 (Enter /data/home/wyx/g16/l202.exe)
                          Input orientation:                          
 ---------------------------------------------------------------------
 Center     Atomic      Atomic             Coordinates (Angstroms)
 Number     Number       Type             X           Y           Z
 ---------------------------------------------------------------------
      1          8           0        2.718277   -1.559497    0.860925
      2          8           0       -3.301746   -1.661440   -0.911702
      3          7           0       -0.684117    1.516403   -0.048160
      4          1           0       -0.992546    2.477061   -0.115788
      5          6           0       -1.252593   -0.763454   -0.173040
      6          6           0        0.643730    1.333143    0.206470
      7          6           0       -1.627723    0.573989   -0.287871
      8          6           0       -2.164575   -1.849851   -0.468011
      9          6           0        0.119411   -1.081788    0.286854
     10          1           0        0.075146   -1.513853    1.302495
     11          1           0        0.537181   -1.911825   -0.291428
     12          6           0        1.104649    0.026718    0.314956
     13          6           0        2.480332   -0.395539    0.511975
     14          6           0       -2.976931    1.101821   -0.630508
     15          1           0       -3.012381    2.183685   -0.518062
     16          1           0       -3.248368    0.857054   -1.653579
     17          1           0       -3.742106    0.663590    0.001949
     18          6           0       -1.699932   -3.267048   -0.251406
     19          1           0       -2.562912   -3.923689   -0.220564
     20          1           0       -1.065681   -3.588076   -1.077334
     21          1           0       -1.126364   -3.395774    0.661491
     22          6           0        3.649423    0.524387    0.260009
     23          1           0        3.468415    1.242209   -0.535322
     24          1           0        3.904173    1.076921    1.166879
     25          1           0        4.505969   -0.093316   -0.002387
     26          6           0        1.414994    2.600889    0.368861
     27          1           0        2.145800    2.523987    1.167131
     28          1           0        1.944021    2.879357   -0.542969
     29          1           0        0.746455    3.423934    0.618134
 ---------------------------------------------------------------------
                    Distance matrix (angstroms):
                    1          2          3          4          5
     1  O    0.000000
     2  O    6.276406   0.000000
     3  N    4.675883   4.206706   0.000000
     4  H    5.569378   4.805525   1.011220   0.000000
     5  C    4.179782   2.356062   2.352979   3.251437   0.000000
     6  C    3.619312   5.077856   1.364404   2.022325   2.852330
     7  C    4.975863   2.861584   1.354990   2.013640   1.393794
     8  C    5.068789   1.235119   3.701310   4.496652   1.448785
     9  C    2.704047   3.671083   2.740162   3.750197   1.481632
    10  H    2.680151   4.040773   3.403410   4.367939   2.122073
    11  H    2.491833   3.896767   3.647396   4.651154   2.129803
    12  C    2.327650   4.875539   2.355992   3.253913   2.533595
    13  C    1.238217   6.087839   3.739386   4.550472   3.813048
    14  C    6.460834   2.796460   2.401667   2.468604   2.581060
    15  H    6.982368   3.876038   2.467162   2.080295   3.449858
    16  H    6.911100   2.626032   3.096368   3.174580   2.966675
    17  H    6.885964   2.536620   3.175074   3.295849   2.874848
    18  C    4.865550   2.362155   4.894343   5.789091   2.544452
    19  H    5.886423   2.478168   5.757968   6.591406   3.421444
    20  H    4.710660   2.956239   5.221158   6.141320   2.971729
    21  H    4.265320   3.196113   4.982838   5.925560   2.764323
    22  C    2.360234   7.380345   4.456303   5.049954   5.086829
    23  H    3.218970   7.376172   4.189992   4.647692   5.142164
    24  H    2.907001   7.984008   4.766746   5.251998   5.636896
    25  H    2.467962   8.015378   5.434177   6.070697   5.799935
    26  C    4.387424   6.484977   2.399226   2.458956   4.327641
    27  H    4.134771   7.177402   3.240461   3.390767   4.914509
    28  H    4.719514   6.947868   3.001598   2.994620   4.860582
    29  H    5.364850   6.677526   2.475714   2.111714   4.707055
                    6          7          8          9         10
     6  C    0.000000
     7  C    2.445442   0.000000
     8  C    4.298017   2.489108   0.000000
     9  C    2.472502   2.474749   2.525140   0.000000
    10  H    3.103215   3.128596   2.874706   1.104611   0.000000
    11  H    3.284672   3.296376   2.708230   1.094488   1.706590
    12  C    1.389591   2.851099   3.849984   1.483330   2.099635
    13  C    2.540626   4.296028   4.964933   2.468920   2.767755
    14  C    3.723336   1.488747   3.065729   3.898337   4.460205
    15  H    3.823024   2.135740   4.121977   4.595577   5.149664
    16  H    4.339916   2.138171   3.147620   4.343538   5.040369
    17  H    4.441361   2.136034   3.004472   4.247214   4.583022
    18  C    5.183065   3.841889   1.507069   2.893975   2.939252
    19  H    6.172454   4.594368   2.126195   3.940651   3.884117
    20  H    5.365504   4.273398   2.144824   3.089811   3.356706
    21  H    5.069806   4.112380   2.177966   2.654588   2.322959
    22  C    3.113060   5.305742   6.322151   3.878338   4.244603
    23  H    2.921878   5.145714   6.426192   4.158457   4.742122
    24  H    3.408596   5.742048   6.933149   4.445098   4.625143
    25  H    4.122535   6.176486   6.913637   4.505844   4.832477
    26  C    1.492782   3.714532   5.772587   3.904788   4.426959
    27  H    2.144107   4.489877   6.354800   4.228800   4.539833
    28  H    2.154807   4.258774   6.265109   4.439423   5.118469
    29  H    2.133407   3.818344   6.120998   4.561191   5.029985
                   11         12         13         14         15
    11  H    0.000000
    12  C    2.108950   0.000000
    13  C    2.592376   1.452454   0.000000
    14  C    4.641769   4.325395   5.773134   0.000000
    15  H    5.424385   4.721902   6.154939   1.088270   0.000000
    16  H    4.883905   4.849056   6.251129   1.086399   1.762112
    17  H    5.003112   4.898430   6.332505   1.085146   1.764539
    18  C    2.615895   4.362950   5.128637   4.567435   5.612853
    19  H    3.696376   5.416964   6.198287   5.059172   6.131113
    20  H    2.448802   4.440218   5.029155   5.084060   6.116833
    21  H    2.424364   4.100117   4.693828   5.032119   6.006560
    22  C    3.990647   2.593563   1.508816   6.710814   6.909291
    23  H    4.312719   2.790660   2.180678   6.447577   6.548847
    24  H    4.732430   3.109025   2.150433   7.112019   7.204351
    25  H    4.375134   3.418200   2.111661   7.603728   7.872499
    26  C    4.644473   2.593372   3.183396   4.747099   4.534572
    27  H    4.938773   2.836644   3.010776   5.612168   5.437142
    28  H    4.999790   3.094855   3.482166   5.232883   5.005048
    29  H    5.416772   3.429475   4.195947   4.562337   4.118010
                   16         17         18         19         20
    16  H    0.000000
    17  H    1.738384   0.000000
    18  C    4.622982   4.436731   0.000000
    19  H    5.037746   4.741639   1.084833   0.000000
    20  H    4.985515   5.138557   1.089720   1.757382   0.000000
    21  H    5.286681   4.873965   1.085786   1.766461   1.750478
    22  C    7.166031   7.397342   6.576635   7.655680   6.397894
    23  H    6.820119   7.253625   6.864825   7.947483   6.647064
    24  H    7.691695   7.745546   7.231016   8.291820   7.176220
    25  H    7.984947   8.282733   6.974797   8.042912   6.664244
    26  C    5.373841   5.521180   6.672344   7.664286   6.822647
    27  H    6.311269   6.283802   7.094927   8.103715   7.260065
    28  H    5.681907   6.126875   7.151342   8.166874   7.153429
    29  H    5.263854   5.305315   7.177057   8.102030   7.438194
                   21         22         23         24         25
    21  H    0.000000
    22  C    6.191687   0.000000
    23  H    6.637412   1.086547   0.000000
    24  H    6.750313   1.092064   1.764849   0.000000
    25  H    6.562784   1.088154   1.773179   1.760340   0.000000
    26  C    6.519517   3.052275   2.622994   3.025776   4.117122
    27  H    6.782794   2.661231   2.508109   2.277252   3.713280
    28  H    7.089094   3.016464   2.236982   3.164578   3.961388
    29  H    7.072323   4.118598   3.674160   3.972502   5.185561
                   26         27         28         29
    26  C    0.000000
    27  H    1.085001   0.000000
    28  H    1.090343   1.758250   0.000000
    29  H    1.089259   1.751990   1.754676   0.000000
 Stoichiometry    C11H15NO2
 Framework group  C1[X(C11H15NO2)]
 Deg. of freedom    81
 Full point group                 C1      NOp   1
 RotChk:  IX=0 Diff= 4.86D-16
 Largest Abelian subgroup         C1      NOp   1
 Largest concise Abelian subgroup C1      NOp   1
                         Standard orientation:                         
 ---------------------------------------------------------------------
 Center     Atomic      Atomic             Coordinates (Angstroms)
 Number     Number       Type             X           Y           Z
 ---------------------------------------------------------------------
      1          8           0       -2.288470   -2.285655   -0.264503
      2          8           0        3.626315   -0.259194    0.285084
      3          7           0       -0.021568    1.800575   -0.097887
      4          1           0       -0.049229    2.811357   -0.108819
      5          6           0        1.296751   -0.147802   -0.049203
      6          6           0       -1.232054    1.171235   -0.081973
      7          6           0        1.211843    1.243314   -0.033432
      8          6           0        2.559592   -0.846373    0.078103
      9          6           0        0.054114   -0.935662   -0.223462
     10          1           0        0.057862   -1.411426   -1.220357
     11          1           0        0.053129   -1.806176    0.439943
     12          6           0       -1.235730   -0.218333   -0.075099
     13          6           0       -2.399217   -1.083517    0.010782
     14          6           0        2.341452    2.211156    0.026856
     15          1           0        1.988191    3.231531   -0.108686
     16          1           0        2.859455    2.154288    0.980115
     17          1           0        3.082293    1.997840   -0.736814
     18          6           0        2.570421   -2.350312   -0.018382
     19          1           0        3.583953   -2.687440   -0.208014
     20          1           0        2.242076   -2.792510    0.921905
     21          1           0        1.919478   -2.734992   -0.797629
     22          6           0       -3.744616   -0.580904    0.473174
     23          1           0       -3.676622    0.219541    1.204782
     24          1           0       -4.330285   -0.219377   -0.374702
     25          1           0       -4.279647   -1.421700    0.910074
     26          6           0       -2.402308    2.097576   -0.110210
     27          1           0       -3.195332    1.719493   -0.746913
     28          1           0       -2.820624    2.261114    0.883327
     29          1           0       -2.107983    3.070958   -0.500575
 ---------------------------------------------------------------------
 Rotational constants (GHZ):           1.0744364           0.4899802           0.3433974
 Leave Link  202 at Sat Jan 24 18:27:17 2026, MaxMem=  2147483648 cpu:               0.1 elap:               0.0
 (Enter /data/home/wyx/g16/l301.exe)
 Standard basis: TZVP (5D, 7F)
 Ernie: Thresh=  0.10000D-02 Tol=  0.10000D-05 Strict=F.
 There are   370 symmetry adapted cartesian basis functions of A   symmetry.
 There are   356 symmetry adapted basis functions of A   symmetry.
   356 basis functions,   610 primitive gaussians,   370 cartesian basis functions
    52 alpha electrons       52 beta electrons
       nuclear repulsion energy       899.4300338985 Hartrees.
 IExCor=20419 DFT=T Ex+Corr=CAM-B3LYP ExCW=0 ScaHFX=  1.000000
 ScaDFX=  1.000000  1.000000  1.000000  0.810000 ScalE2=  1.000000  1.000000
 IRadAn=      5 IRanWt=     -1 IRanGd=            0 ICorTp=0 IEmpDi=141
 HFx  wShort=  0.000000 wLong=  0.330000 cFull=  0.190000 cShort=  0.000000 cLong=  0.460000
 DFx  wShort=  0.000000 wLong=  0.330000 cFull=  0.190000 cShort=  0.000000 cLong=  0.460000
 NAtoms=   29 NActive=   29 NUniq=   29 SFac= 1.00D+00 NAtFMM=   60 NAOKFM=F Big=F
 Integral buffers will be    131072 words long.
 Raffenetti 1 integral format.
 Two-electron integral symmetry is turned on.
 R6Disp:  Grimme-D3(BJ) Dispersion energy=       -0.0261398595 Hartrees.
 Nuclear repulsion after empirical dispersion term =      899.4038940390 Hartrees.
 ------------------------------------------------------------------------------
 Polarizable Continuum Model (PCM)
 =================================
 Model                : PCM.
 Atomic radii         : UFF (Universal Force Field).
 Polarization charges : Total charges.
 Charge compensation  : None.
 Solution method      : On-the-fly selection.
 Cavity type          : Scaled VdW (van der Waals Surface) (Alpha=1.100).
 Cavity algorithm     : GePol (No added spheres)
                        Default sphere list used, NSphG=   29.
                        Lebedev-Laikov grids with approx.  5.0 points / Ang**2.
                        Smoothing algorithm: York/Karplus (Gamma=1.0000).
                        Polarization charges: spherical gaussians, with
                                              point-specific exponents (IZeta= 3).
                        Self-potential: point-specific (ISelfS= 7).
                        Self-field    : sphere-specific E.n sum rule (ISelfD= 2).
 1st derivatives      : Analytical E(r).r(x)/FMM algorithm (CHGder, D1EAlg=3).
                        Cavity 1st derivative terms included.
 Solvent              : Water, Eps=  78.355300 Eps(inf)=   1.777849
 ------------------------------------------------------------------------------
 GePol: Number of generator spheres                  =      29
 GePol: Total number of spheres                      =      29
 GePol: Number of exposed spheres                    =      29 (100.00%)
 GePol: Number of points                             =    2104
 GePol: Average weight of points                     =       0.13
 GePol: Minimum weight of points                     =   0.47D-11
 GePol: Maximum weight of points                     =    0.20577
 GePol: Number of points with low weight             =     127
 GePol: Fraction of low-weight points (<1% of avg)   =       6.04%
 GePol: Cavity surface area                          =    269.253 Ang**2
 GePol: Cavity volume                                =    287.235 Ang**3
 Leave Link  301 at Sat Jan 24 18:27:17 2026, MaxMem=  2147483648 cpu:               0.6 elap:               0.0
 (Enter /data/home/wyx/g16/l302.exe)
 NPDir=0 NMtPBC=     1 NCelOv=     1 NCel=       1 NClECP=     1 NCelD=      1
         NCelK=      1 NCelE2=     1 NClLst=     1 CellRange=     0.0.
 One-electron integrals computed using PRISM.
 One-electron integral symmetry used in STVInt
 NBasis=   356 RedAO= T EigKep=  4.26D-05  NBF=   356
 NBsUse=   356 1.00D-06 EigRej= -1.00D+00 NBFU=   356
 Precomputing XC quadrature grid using
 IXCGrd= 4 IRadAn=           5 IRanWt=          -1 IRanGd=           0 AccXCQ= 0.00D+00.
 Generated NRdTot=       0 NPtTot=           0 NUsed=           0 NTot=          32
 NSgBfM=   366   366   366   366   366 MxSgAt=    29 MxSgA2=    29.
 Leave Link  302 at Sat Jan 24 18:27:18 2026, MaxMem=  2147483648 cpu:               3.1 elap:               0.2
 (Enter /data/home/wyx/g16/l303.exe)
 DipDrv:  MaxL=1.
 Leave Link  303 at Sat Jan 24 18:27:18 2026, MaxMem=  2147483648 cpu:               0.6 elap:               0.0
 (Enter /data/home/wyx/g16/l308.exe)
 Leave Link  308 at Sat Jan 24 18:27:18 2026, MaxMem=  2147483648 cpu:               0.7 elap:               0.1
 (Enter /data/home/wyx/g16/l401.exe)
 Initial guess from the checkpoint file:  "DDL-S1-cLR-4.chk"
 B after Tr=    -0.000000    0.000000   -0.000000
         Rot=    1.000000   -0.000000   -0.000000    0.000000 Ang=   0.00 deg.
 Guess basis will be translated and rotated to current coordinates.
 JPrj=2 DoOrth=T DoCkMO=T.
 Leave Link  401 at Sat Jan 24 18:27:18 2026, MaxMem=  2147483648 cpu:               2.2 elap:               0.2
 (Enter /data/home/wyx/g16/l502.exe)
 Integral symmetry usage will be decided dynamically.
 Closed shell SCF:
 Using DIIS extrapolation, IDIIS=  1040.
 NGot=  2147483648 LenX=  2147200095 LenY=  2147062754
 Requested convergence on RMS density matrix=1.00D-08 within 128 cycles.
 Requested convergence on MAX density matrix=1.00D-06.
 Requested convergence on             energy=1.00D-06.
 No special actions if energy rises.
 Fock matrices will be formed incrementally for  20 cycles.

 Cycle   1  Pass 1  IDiag  1:
 FoFJK:  IHMeth= 1 ICntrl=       0 DoSepK=T KAlg= 0 I1Cent=           0 FoldK=F
 IRaf=         1 NMat=       1 IRICut=       1 DoRegI=T DoRafI=F ISym2E= 0 IDoP0=0 IntGTp=1.
 FoFCou: FMM=F IPFlag=           0 FMFlag=      100000 FMFlg1=           0
         NFxFlg=           0 DoJE=T BraDBF=F KetDBF=F FulRan=T
         wScrn=  0.000000 ICntrl=       500 IOpCl=  0 I1Cent=           0 NGrid=           0
         NMat0=    1 NMatS0=      1 NMatT0=    0 NMatD0=    1 NMtDS0=    0 NMtDT0=    0
 Symmetry not used in FoFCou.
 Inv3:  Mode=1 IEnd=    13280448.
 Iteration    1 A*A^-1 deviation from unit magnitude is 2.89D-15 for    339.
 Iteration    1 A*A^-1 deviation from orthogonality  is 2.22D-15 for   1996   1585.
 Iteration    1 A^-1*A deviation from unit magnitude is 2.78D-15 for    192.
 Iteration    1 A^-1*A deviation from orthogonality  is 1.78D-15 for   1906     82.
 E= -633.325692972770    
 DIIS: error= 1.07D-08 at cycle   1 NSaved=   1.
 NSaved= 1 IEnMin= 1 EnMin= -633.325692972770     IErMin= 1 ErrMin= 1.07D-08
 ErrMax= 1.07D-08  0.00D+00 EMaxC= 1.00D-01 BMatC= 5.12D-14 BMatP= 5.12D-14
 IDIUse=1 WtCom= 1.00D+00 WtEn= 0.00D+00
 Coeff-Com:  0.100D+01
 Coeff:      0.100D+01
 Gap=     0.220 Goal=   None    Shift=    0.000
 RMSDP=2.96D-09 MaxDP=1.16D-07              OVMax= 2.03D-07

 Error on total polarization charges =  0.01554
 SCF Done:  E(RCAM-B3LYP) =  -633.325692973     A.U. after    1 cycles
            NFock=  1  Conv=0.30D-08     -V/T= 2.0042
 KE= 6.306550446716D+02 PE=-3.274764176454D+03 EE= 1.111379544771D+03
 Leave Link  502 at Sat Jan 24 18:27:24 2026, MaxMem=  2147483648 cpu:              84.7 elap:               5.6
 (Enter /data/home/wyx/g16/l801.exe)
 DoSCS=F DFT=T ScalE2(SS,OS)=  1.000000  1.000000
 ExpMin= 9.52D-02 ExpMax= 2.70D+04 ExpMxC= 9.22D+02 IAcc=3 IRadAn=         5 AccDes= 0.00D+00
 HarFok:  IExCor=  205 AccDes= 0.00D+00 IRadAn=         5 IDoV=-2 UseB2=F ITyADJ=14
 ICtDFT= 12500011 ScaDFX=  1.000000  1.000000  1.000000  1.000000
 Largest valence mixing into a core orbital is  5.59D-05
 Largest core mixing into a valence orbital is  1.16D-05
 Range of M.O.s used for correlation:    15   356
 NBasis=   356 NAE=    52 NBE=    52 NFC=    14 NFV=     0
 NROrb=    342 NOA=    38 NOB=    38 NVA=   304 NVB=   304

 **** Warning!!: The largest alpha MO coefficient is  0.61447052D+02

 Leave Link  801 at Sat Jan 24 18:27:24 2026, MaxMem=  2147483648 cpu:               1.0 elap:               0.1
 (Enter /data/home/wyx/g16/l914.exe)
 RHF ground state
 Two-electron integrals replicated using symmetry.
 MDV=  2147483648 DFT=T DoStab=F Mixed=T DoRPA=T DoScal=F NonHer=T
 NEqPCM:  Using equilibrium solvation (IEInf=0, Eps=  78.3553, EpsInf=   1.7778)
 Making orbital integer symmetry assigments:
 Orbital symmetries:
       Occupied  (A) (A) (A) (A) (A) (A) (A) (A) (A) (A) (A) (A)
                 (A) (A) (A) (A) (A) (A) (A) (A) (A) (A) (A) (A)
                 (A) (A) (A) (A) (A) (A) (A) (A) (A) (A) (A) (A)
                 (A) (A) (A) (A) (A) (A) (A) (A) (A) (A) (A) (A)
                 (A) (A) (A) (A)
       Virtual   (A) (A) (A) (A) (A) (A) (A) (A) (A) (A) (A) (A)
                 (A) (A) (A) (A) (A) (A) (A) (A) (A) (A) (A) (A)
                 (A) (A) (A) (A) (A) (A) (A) (A) (A) (A) (A) (A)
                 (A) (A) (A) (A) (A) (A) (A) (A) (A) (A) (A) (A)
                 (A) (A) (A) (A) (A) (A) (A) (A) (A) (A) (A) (A)
                 (A) (A) (A) (A) (A) (A) (A) (A) (A) (A) (A) (A)
                 (A) (A) (A) (A) (A) (A) (A) (A) (A) (A) (A) (A)
                 (A) (A) (A) (A) (A) (A) (A) (A) (A) (A) (A) (A)
                 (A) (A) (A) (A) (A) (A) (A) (A) (A) (A) (A) (A)
                 (A) (A) (A) (A) (A) (A) (A) (A) (A) (A) (A) (A)
                 (A) (A) (A) (A) (A) (A) (A) (A) (A) (A) (A) (A)
                 (A) (A) (A) (A) (A) (A) (A) (A) (A) (A) (A) (A)
                 (A) (A) (A) (A) (A) (A) (A) (A) (A) (A) (A) (A)
                 (A) (A) (A) (A) (A) (A) (A) (A) (A) (A) (A) (A)
                 (A) (A) (A) (A) (A) (A) (A) (A) (A) (A) (A) (A)
                 (A) (A) (A) (A) (A) (A) (A) (A) (A) (A) (A) (A)
                 (A) (A) (A) (A) (A) (A) (A) (A) (A) (A) (A) (A)
                 (A) (A) (A) (A) (A) (A) (A) (A) (A) (A) (A) (A)
                 (A) (A) (A) (A) (A) (A) (A) (A) (A) (A) (A) (A)
                 (A) (A) (A) (A) (A) (A) (A) (A) (A) (A) (A) (A)
                 (A) (A) (A) (A) (A) (A) (A) (A) (A) (A) (A) (A)
                 (A) (A) (A) (A) (A) (A) (A) (A) (A) (A) (A) (A)
                 (A) (A) (A) (A) (A) (A) (A) (A) (A) (A) (A) (A)
                 (A) (A) (A) (A) (A) (A) (A) (A) (A) (A) (A) (A)
                 (A) (A) (A) (A) (A) (A) (A) (A) (A) (A) (A) (A)
                 (A) (A) (A) (A)
 PCM Corrected Linear-Response:
 Compute the excitation energies in the ground state reaction field.
    24 initial guesses have been made.
 Convergence on wavefunction:    0.000001000000000
 Davidson Disk Diagonalization:  ConvIn= 1.00D-06 SkipCon=T Conv= 1.00D-06.
 Max sub-space:  2000 roots to seek:    24 dimension of matrix:        23104
 Iteration     1 Dimension    24 NMult     0 NNew     24
 CISAX will form    24 AO SS matrices at one time.
 NMat=    24 NSing=    24 JSym2X= 0.
 FoFJK:  IHMeth= 1 ICntrl=       0 DoSepK=T KAlg= 0 I1Cent=           0 FoldK=F
 IRaf=         1 NMat=      48 IRICut=       1 DoRegI=T DoRafI=F ISym2E= 0 IDoP0=3 IntGTp=3.
 FoFCou: FMM=F IPFlag=           0 FMFlag=      100000 FMFlg1=           0
         NFxFlg=           0 DoJE=F BraDBF=F KetDBF=F FulRan=T
         wScrn=  0.000000 ICntrl=       500 IOpCl=  0 I1Cent=           0 NGrid=           0
         NMat0=   24 NMatS0=     24 NMatT0=    0 NMatD0=   24 NMtDS0=    0 NMtDT0=    0
 Symmetry not used in FoFCou.
 New state      2 was old state      3
 New state      3 was old state      4
 New state      4 was old state      2
 New state      5 was old state      6
 New state      6 was old state      5
 Excitation Energies [eV] at current iteration:
 Root      1 :     3.589909884566084
 Root      2 :     4.206449132836570
 Root      3 :     4.422268806687402
 Root      4 :     5.327848314538430
 Root      5 :     5.982104522418324
 Root      6 :     6.318165503105315
 Root      7 :     6.610462999357371
 Root      8 :     6.750159671915386
 Root      9 :     6.909593720039783
 Root     10 :     6.976958161975601
 Root     11 :     7.140249965320622
 Root     12 :     7.300758650443457
 Root     13 :     7.349302284232301
 Root     14 :     7.395796842553226
 Root     15 :     7.766643039955301
 Root     16 :     7.866997080612254
 Root     17 :     8.035903081484319
 Root     18 :     8.142983480790102
 Root     19 :     8.206934402074546
 Root     20 :     8.324986608793765
 Root     21 :     8.463888253144365
 Root     22 :     8.649029420008565
 Root     23 :     8.823192262135105
 Root     24 :     8.959836504249008
 Iteration     2 Dimension    36 NMult    24 NNew     12
 CISAX will form    12 AO SS matrices at one time.
 NMat=    12 NSing=    12 JSym2X= 0.
 Root      1 not converged, maximum delta is    0.035972925796171
 Root      2 not converged, maximum delta is    0.075495931890368
 Root      3 not converged, maximum delta is    0.079410370867984
 Root      4 not converged, maximum delta is    0.180032286338904
 New state      5 was old state      6
 Root      5 not converged, maximum delta is    0.184148121697951
 New state      6 was old state      5
 Root      6 not converged, maximum delta is    0.085114194466081
 Excitation Energies [eV] at current iteration:
 Root      1 :     3.117583930378649   Change is   -0.472325954187435
 Root      2 :     3.991703803681236   Change is   -0.214745329155334
 Root      3 :     4.166210460598733   Change is   -0.256058346088669
 Root      4 :     5.016106844940243   Change is   -0.311741469598187
 Root      5 :     5.472778781005347   Change is   -0.845386722099968
 Root      6 :     5.877294190919308   Change is   -0.104810331499016
 Iteration     3 Dimension    48 NMult    36 NNew     12
 CISAX will form    12 AO SS matrices at one time.
 NMat=    12 NSing=    12 JSym2X= 0.
 Root      1 not converged, maximum delta is    0.007683455062990
 Root      2 not converged, maximum delta is    0.014642612818573
 Root      3 not converged, maximum delta is    0.011689721849390
 Root      4 not converged, maximum delta is    0.020319426502550
 Root      5 not converged, maximum delta is    0.023892028648831
 Root      6 not converged, maximum delta is    0.007607066020713
 Excitation Energies [eV] at current iteration:
 Root      1 :     3.097585270486950   Change is   -0.019998659891699
 Root      2 :     3.979130124381606   Change is   -0.012573679299630
 Root      3 :     4.152444716288934   Change is   -0.013765744309799
 Root      4 :     4.996635489983950   Change is   -0.019471354956294
 Root      5 :     5.434728747887838   Change is   -0.038050033117509
 Root      6 :     5.872090338323649   Change is   -0.005203852595659
 Iteration     4 Dimension    60 NMult    48 NNew     12
 CISAX will form    12 AO SS matrices at one time.
 NMat=    12 NSing=    12 JSym2X= 0.
 Root      1 not converged, maximum delta is    0.002156780331563
 Root      2 not converged, maximum delta is    0.001855344578351
 Root      3 not converged, maximum delta is    0.002145978774065
 Root      4 not converged, maximum delta is    0.002478581641807
 Root      5 not converged, maximum delta is    0.004039909023111
 Root      6 not converged, maximum delta is    0.002268322409931
 Excitation Energies [eV] at current iteration:
 Root      1 :     3.096114489372221   Change is   -0.001470781114729
 Root      2 :     3.978487998865948   Change is   -0.000642125515658
 Root      3 :     4.151475040818384   Change is   -0.000969675470550
 Root      4 :     4.994822058784868   Change is   -0.001813431199082
 Root      5 :     5.430829366890363   Change is   -0.003899380997475
 Root      6 :     5.871750362940167   Change is   -0.000339975383482
 Iteration     5 Dimension    72 NMult    60 NNew     12
 CISAX will form    12 AO SS matrices at one time.
 NMat=    12 NSing=    12 JSym2X= 0.
 Root      1 not converged, maximum delta is    0.000742793417579
 Root      2 not converged, maximum delta is    0.000368413016099
 Root      3 not converged, maximum delta is    0.000498849085156
 Root      4 not converged, maximum delta is    0.000531298516239
 Root      5 not converged, maximum delta is    0.001299413339690
 Root      6 not converged, maximum delta is    0.000395453848947
 Excitation Energies [eV] at current iteration:
 Root      1 :     3.096029095934589   Change is   -0.000085393437632
 Root      2 :     3.978435269227852   Change is   -0.000052729638096
 Root      3 :     4.151427760652752   Change is   -0.000047280165632
 Root      4 :     4.994694145495777   Change is   -0.000127913289091
 Root      5 :     5.430520658331752   Change is   -0.000308708558610
 Root      6 :     5.871723875152603   Change is   -0.000026487787564
 Iteration     6 Dimension    84 NMult    72 NNew     12
 CISAX will form    12 AO SS matrices at one time.
 NMat=    12 NSing=    12 JSym2X= 0.
 Root      1 not converged, maximum delta is    0.000143569982029
 Root      2 not converged, maximum delta is    0.000107933494655
 Root      3 not converged, maximum delta is    0.000093983470689
 Root      4 not converged, maximum delta is    0.000171992965409
 Root      5 not converged, maximum delta is    0.000709526420896
 Root      6 not converged, maximum delta is    0.000167170706047
 Excitation Energies [eV] at current iteration:
 Root      1 :     3.096025046205230   Change is   -0.000004049729359
 Root      2 :     3.978432378256728   Change is   -0.000002890971123
 Root      3 :     4.151425128969287   Change is   -0.000002631683466
 Root      4 :     4.994685290192685   Change is   -0.000008855303092
 Root      5 :     5.430491982841319   Change is   -0.000028675490434
 Root      6 :     5.871721387199195   Change is   -0.000002487953408
 Iteration     7 Dimension    96 NMult    84 NNew     12
 CISAX will form    12 AO SS matrices at one time.
 NMat=    12 NSing=    12 JSym2X= 0.
 Root      1 not converged, maximum delta is    0.000014744471149
 Root      2 not converged, maximum delta is    0.000024512298120
 Root      3 not converged, maximum delta is    0.000026509863974
 Root      4 not converged, maximum delta is    0.000046412854637
 Root      5 not converged, maximum delta is    0.000270467218893
 Root      6 not converged, maximum delta is    0.000067818036418
 Excitation Energies [eV] at current iteration:
 Root      1 :     3.096024839439965   Change is   -0.000000206765265
 Root      2 :     3.978432224482004   Change is   -0.000000153774724
 Root      3 :     4.151424974011589   Change is   -0.000000154957698
 Root      4 :     4.994684641703508   Change is   -0.000000648489177
 Root      5 :     5.430488584261105   Change is   -0.000003398580214
 Root      6 :     5.871721160140974   Change is   -0.000000227058221
 Iteration     8 Dimension   108 NMult    96 NNew     12
 CISAX will form    12 AO SS matrices at one time.
 NMat=    12 NSing=    12 JSym2X= 0.
 Root      1 not converged, maximum delta is    0.000002196240747
 Root      2 not converged, maximum delta is    0.000002956370417
 Root      3 not converged, maximum delta is    0.000002835833316
 Root      4 not converged, maximum delta is    0.000018670354506
 Root      5 not converged, maximum delta is    0.000036818469987
 Root      6 not converged, maximum delta is    0.000016569825424
 Excitation Energies [eV] at current iteration:
 Root      1 :     3.096024833050028   Change is   -0.000000006389937
 Root      2 :     3.978432216983604   Change is   -0.000000007498400
 Root      3 :     4.151424965828372   Change is   -0.000000008183217
 Root      4 :     4.994684591822467   Change is   -0.000000049881041
 Root      5 :     5.430488347452698   Change is   -0.000000236808407
 Root      6 :     5.871721137721016   Change is   -0.000000022419959
 Iteration     9 Dimension   120 NMult   108 NNew     12
 CISAX will form    12 AO SS matrices at one time.
 NMat=    12 NSing=    12 JSym2X= 0.
 Root      1 has converged.
 Root      2 has converged.
 Root      3 has converged.
 Root      4 not converged, maximum delta is    0.000003351411106
 Root      5 not converged, maximum delta is    0.000006026746134
 Root      6 not converged, maximum delta is    0.000004394675994
 Excitation Energies [eV] at current iteration:
 Root      1 :     3.096024832880224   Change is   -0.000000000169804
 Root      2 :     3.978432216687872   Change is   -0.000000000295733
 Root      3 :     4.151424965574726   Change is   -0.000000000253647
 Root      4 :     4.994684589254912   Change is   -0.000000002567555
 Root      5 :     5.430488335486797   Change is   -0.000000011965901
 Root      6 :     5.871721135913233   Change is   -0.000000001807783
 Iteration    10 Dimension   126 NMult   120 NNew      6
 CISAX will form     6 AO SS matrices at one time.
 NMat=     6 NSing=     6 JSym2X= 0.
 Root      1 has converged.
 Root      2 has converged.
 Root      3 has converged.
 Root      4 has converged.
 Root      5 not converged, maximum delta is    0.000001129465736
 Root      6 not converged, maximum delta is    0.000001119160948
 Excitation Energies [eV] at current iteration:
 Root      1 :     3.096024832879959   Change is   -0.000000000000265
 Root      2 :     3.978432216686715   Change is   -0.000000000001157
 Root      3 :     4.151424965574091   Change is   -0.000000000000634
 Root      4 :     4.994684589146694   Change is   -0.000000000108218
 Root      5 :     5.430488334912153   Change is   -0.000000000574644
 Root      6 :     5.871721135795992   Change is   -0.000000000117241
 Iteration    11 Dimension   130 NMult   126 NNew      4
 CISAX will form     4 AO SS matrices at one time.
 NMat=     4 NSing=     4 JSym2X= 0.
 Root      1 has converged.
 Root      2 has converged.
 Root      3 has converged.
 Root      4 has converged.
 Root      5 has converged.
 Root      6 has converged.
 Excitation Energies [eV] at current iteration:
 Root      1 :     3.096024832879932   Change is   -0.000000000000026
 Root      2 :     3.978432216686570   Change is   -0.000000000000145
 Root      3 :     4.151424965573993   Change is   -0.000000000000099
 Root      4 :     4.994684589145296   Change is   -0.000000000001399
 Root      5 :     5.430488334885721   Change is   -0.000000000026431
 Root      6 :     5.871721135788263   Change is   -0.000000000007729
 Convergence achieved on expansion vectors.
 PCM Corrected Linear-Response:
 The state of interest is root number   1
 Excitation energy =    3.0960 eV, Total energy =  -633.211916154    
 Recompute the excitation energies using the linear response reaction field.
 Convergence on wavefunction:    0.000001000000000
 Davidson Disk Diagonalization:  ConvIn= 1.00D-06 SkipCon=T Conv= 1.00D-06.
 Max sub-space:  2000 roots to seek:     6 dimension of matrix:        23104
 Iteration     1 Dimension     6 NMult     0 NNew      6
 CISAX will form     6 AO SS matrices at one time.
 NMat=     6 NSing=     6 JSym2X= 0.
 Excitation Energies [eV] at current iteration:
 Root      1 :     3.186550157478454
 Root      2 :     4.003119373614789
 Root      3 :     4.176548381336058
 Root      4 :     5.058323233185812
 Root      5 :     5.580417754108098
 Root      6 :     5.830949440819408
 Iteration     2 Dimension    18 NMult     6 NNew     12
 CISAX will form    12 AO SS matrices at one time.
 NMat=    12 NSing=    12 JSym2X= 0.
 Root      1 not converged, maximum delta is    0.020534417966022
 Root      2 not converged, maximum delta is    0.004880368557353
 Root      3 not converged, maximum delta is    0.008061937754673
 Root      4 not converged, maximum delta is    0.221063726589521
 Root      5 not converged, maximum delta is    0.295663640158058
 Root      6 not converged, maximum delta is    0.058867286941740
 Excitation Energies [eV] at current iteration:
 Root      1 :     2.950881779658681   Change is   -0.235668377819773
 Root      2 :     3.973339199148618   Change is   -0.029780174466171
 Root      3 :     4.145050053838112   Change is   -0.031498327497946
 Root      4 :     4.827728378794345   Change is   -0.230594854391467
 Root      5 :     5.277209721499917   Change is   -0.303208032608182
 Root      6 :     5.808213133561434   Change is   -0.022736307257974
 Iteration     3 Dimension    30 NMult    18 NNew     12
 CISAX will form    12 AO SS matrices at one time.
 NMat=    12 NSing=    12 JSym2X= 0.
 Root      1 not converged, maximum delta is    0.002606976545081
 Root      2 not converged, maximum delta is    0.001086541268673
 Root      3 not converged, maximum delta is    0.001392511486811
 Root      4 not converged, maximum delta is    0.011935889583605
 Root      5 not converged, maximum delta is    0.015537398830799
 Root      6 not converged, maximum delta is    0.008553439343405
 Excitation Energies [eV] at current iteration:
 Root      1 :     2.947439649396506   Change is   -0.003442130262175
 Root      2 :     3.973019425994187   Change is   -0.000319773154431
 Root      3 :     4.144675466591838   Change is   -0.000374587246273
 Root      4 :     4.817790099191781   Change is   -0.009938279602564
 Root      5 :     5.268099803452388   Change is   -0.009109918047528
 Root      6 :     5.806418174578028   Change is   -0.001794958983406
 Iteration     4 Dimension    42 NMult    30 NNew     12
 CISAX will form    12 AO SS matrices at one time.
 NMat=    12 NSing=    12 JSym2X= 0.
 Root      1 not converged, maximum delta is    0.001706086044388
 Root      2 not converged, maximum delta is    0.000216716473321
 Root      3 not converged, maximum delta is    0.000257078832767
 Root      4 not converged, maximum delta is    0.003306020853697
 Root      5 not converged, maximum delta is    0.005206009066292
 Root      6 not converged, maximum delta is    0.008951948034831
 Excitation Energies [eV] at current iteration:
 Root      1 :     2.947032687642454   Change is   -0.000406961754052
 Root      2 :     3.973004150984848   Change is   -0.000015275009339
 Root      3 :     4.144652594730256   Change is   -0.000022871861583
 Root      4 :     4.816014745664988   Change is   -0.001775353526792
 Root      5 :     5.266470360979426   Change is   -0.001629442472962
 Root      6 :     5.805863736784830   Change is   -0.000554437793199
 Iteration     5 Dimension    54 NMult    42 NNew     12
 CISAX will form    12 AO SS matrices at one time.
 NMat=    12 NSing=    12 JSym2X= 0.
 Root      1 not converged, maximum delta is    0.000324346679276
 Root      2 not converged, maximum delta is    0.000089577065471
 Root      3 not converged, maximum delta is    0.000089133947042
 Root      4 not converged, maximum delta is    0.000659322196421
 Root      5 not converged, maximum delta is    0.000720359912876
 Root      6 not converged, maximum delta is    0.003299624967036
 Excitation Energies [eV] at current iteration:
 Root      1 :     2.947005521313108   Change is   -0.000027166329346
 Root      2 :     3.973003109887948   Change is   -0.000001041096900
 Root      3 :     4.144650631217660   Change is   -0.000001963512596
 Root      4 :     4.815857767639984   Change is   -0.000156978025005
 Root      5 :     5.266320640022061   Change is   -0.000149720957365
 Root      6 :     5.805762618048164   Change is   -0.000101118736666
 Iteration     6 Dimension    66 NMult    54 NNew     12
 CISAX will form    12 AO SS matrices at one time.
 NMat=    12 NSing=    12 JSym2X= 0.
 Root      1 not converged, maximum delta is    0.000062879154995
 Root      2 not converged, maximum delta is    0.000024102259661
 Root      3 not converged, maximum delta is    0.000031874778127
 Root      4 not converged, maximum delta is    0.000249448034375
 Root      5 not converged, maximum delta is    0.000235501994712
 Root      6 not converged, maximum delta is    0.000820559015148
 Excitation Energies [eV] at current iteration:
 Root      1 :     2.947003998401532   Change is   -0.000001522911577
 Root      2 :     3.973003015455794   Change is   -0.000000094432154
 Root      3 :     4.144650464402980   Change is   -0.000000166814680
 Root      4 :     4.815842962099356   Change is   -0.000014805540628
 Root      5 :     5.266306749611394   Change is   -0.000013890410667
 Root      6 :     5.805748828216581   Change is   -0.000013789831583
 Iteration     7 Dimension    78 NMult    66 NNew     12
 CISAX will form    12 AO SS matrices at one time.
 NMat=    12 NSing=    12 JSym2X= 0.
 Root      1 not converged, maximum delta is    0.000012071231959
 Root      2 not converged, maximum delta is    0.000005878882977
 Root      3 not converged, maximum delta is    0.000005388461027
 Root      4 not converged, maximum delta is    0.000111464449272
 Root      5 not converged, maximum delta is    0.000092585315145
 Root      6 not converged, maximum delta is    0.000140405675140
 Excitation Energies [eV] at current iteration:
 Root      1 :     2.947003941250145   Change is   -0.000000057151386
 Root      2 :     3.973003010400108   Change is   -0.000000005055686
 Root      3 :     4.144650456572535   Change is   -0.000000007830445
 Root      4 :     4.815841928940234   Change is   -0.000001033159122
 Root      5 :     5.266305741571302   Change is   -0.000001008040092
 Root      6 :     5.805747447956925   Change is   -0.000001380259656
 Iteration     8 Dimension    90 NMult    78 NNew     12
 CISAX will form    12 AO SS matrices at one time.
 NMat=    12 NSing=    12 JSym2X= 0.
 Root      1 not converged, maximum delta is    0.000003208313547
 Root      2 not converged, maximum delta is    0.000001291545085
 Root      3 not converged, maximum delta is    0.000001067553448
 Root      4 not converged, maximum delta is    0.000024468033639
 Root      5 not converged, maximum delta is    0.000034188886132
 Root      6 not converged, maximum delta is    0.000056970520611
 Excitation Energies [eV] at current iteration:
 Root      1 :     2.947003938568935   Change is   -0.000000002681211
 Root      2 :     3.973003010226693   Change is   -0.000000000173415
 Root      3 :     4.144650456073932   Change is   -0.000000000498603
 Root      4 :     4.815841851603877   Change is   -0.000000077336357
 Root      5 :     5.266305632825813   Change is   -0.000000108745489
 Root      6 :     5.805747265099333   Change is   -0.000000182857592
 Iteration     9 Dimension   102 NMult    90 NNew     12
 CISAX will form    12 AO SS matrices at one time.
 NMat=    12 NSing=    12 JSym2X= 0.
 Root      1 has converged.
 Root      2 has converged.
 Root      3 has converged.
 Root      4 not converged, maximum delta is    0.000006230353874
 Root      5 not converged, maximum delta is    0.000009234251038
 Root      6 not converged, maximum delta is    0.000021422012672
 Excitation Energies [eV] at current iteration:
 Root      1 :     2.947003938464773   Change is   -0.000000000104161
 Root      2 :     3.973003010219057   Change is   -0.000000000007635
 Root      3 :     4.144650456041641   Change is   -0.000000000032291
 Root      4 :     4.815841847333913   Change is   -0.000000004269964
 Root      5 :     5.266305624290090   Change is   -0.000000008535723
 Root      6 :     5.805747243036982   Change is   -0.000000022062351
 Iteration    10 Dimension   108 NMult   102 NNew      6
 CISAX will form     6 AO SS matrices at one time.
 NMat=     6 NSing=     6 JSym2X= 0.
 Root      1 has converged.
 Root      2 has converged.
 Root      3 has converged.
 Root      4 not converged, maximum delta is    0.000001553893914
 Root      5 not converged, maximum delta is    0.000002897847475
 Root      6 not converged, maximum delta is    0.000006673714078
 Excitation Energies [eV] at current iteration:
 Root      1 :     2.947003938464188   Change is   -0.000000000000586
 Root      2 :     3.973003010218974   Change is   -0.000000000000083
 Root      3 :     4.144650456041165   Change is   -0.000000000000476
 Root      4 :     4.815841847109559   Change is   -0.000000000224354
 Root      5 :     5.266305623696969   Change is   -0.000000000593122
 Root      6 :     5.805747240779136   Change is   -0.000000002257846
 Iteration    11 Dimension   114 NMult   108 NNew      6
 CISAX will form     6 AO SS matrices at one time.
 NMat=     6 NSing=     6 JSym2X= 0.
 Root      1 has converged.
 Root      2 has converged.
 Root      3 has converged.
 Root      4 has converged.
 Root      5 has converged.
 Root      6 not converged, maximum delta is    0.000001288476104
 Excitation Energies [eV] at current iteration:
 Root      1 :     2.947003938464188   Change is    0.000000000000000
 Root      2 :     3.973003010218871   Change is   -0.000000000000103
 Root      3 :     4.144650456041086   Change is   -0.000000000000079
 Root      4 :     4.815841847095817   Change is   -0.000000000013741
 Root      5 :     5.266305623652449   Change is   -0.000000000044520
 Root      6 :     5.805747240581353   Change is   -0.000000000197782
 Iteration    12 Dimension   116 NMult   114 NNew      2
 CISAX will form     2 AO SS matrices at one time.
 NMat=     2 NSing=     2 JSym2X= 0.
 Root      1 has converged.
 Root      2 has converged.
 Root      3 has converged.
 Root      4 has converged.
 Root      5 has converged.
 Root      6 has converged.
 Excitation Energies [eV] at current iteration:
 Root      1 :     2.947003938464216   Change is    0.000000000000028
 Root      2 :     3.973003010218892   Change is    0.000000000000021
 Root      3 :     4.144650456041086   Change is    0.000000000000000
 Root      4 :     4.815841847095868   Change is    0.000000000000051
 Root      5 :     5.266305623652418   Change is   -0.000000000000031
 Root      6 :     5.805747240565948   Change is   -0.000000000015406
 Convergence achieved on expansion vectors.
 ***********************************************************************
 Excited states from <AA,BB:AA,BB> singles matrix:
 ***********************************************************************
 
 1PDM for each excited state written to RWF  633
 Ground to excited state transition densities written to RWF  633
 Ground to excited state transition electric dipole moments (Au):
       state          X           Y           Z        Dip. S.      Osc.
         1        -1.7253     -0.2078     -0.0549      3.0229      0.2183
         2         0.0318     -0.0400      0.0368      0.0040      0.0004
         3        -0.0554     -0.1379      0.0266      0.0228      0.0023
         4        -0.2065      1.9589     -0.0651      3.8842      0.4583
         5         0.0764     -1.4790     -0.0044      2.1933      0.2830
         6         0.0249     -0.2493     -0.0357      0.0641      0.0091
 Ground to excited state transition velocity dipole moments (Au):
       state          X           Y           Z        Dip. S.      Osc.
         1         0.1799      0.0184      0.0063      0.0327      0.2015
         2        -0.0044      0.0061     -0.0021      0.0001      0.0003
         3         0.0078      0.0186     -0.0007      0.0004      0.0018
         4         0.0411     -0.3322      0.0085      0.1121      0.4223
         5        -0.0147      0.2813     -0.0003      0.0793      0.2733
         6        -0.0066      0.0506      0.0278      0.0034      0.0105
 Ground to excited state transition magnetic dipole moments (Au):
       state          X           Y           Z
         1         0.0271      0.0496     -1.4623
         2         0.7916      0.1188      0.1405
         3        -0.1844     -0.9708     -0.2198
         4        -0.0384     -0.0908      0.1086
         5         0.1186      0.1031     -0.2585
         6        -0.1447     -0.0290      0.0557
 Ground to excited state transition velocity quadrupole moments (Au):
       state          XX          YY          ZZ          XY          XZ          YZ
         1         0.1841     -0.0992     -0.0053     -0.5006      0.0343     -0.0186
         2         0.0202     -0.0092     -0.0072      0.0193     -0.0074      0.0823
         3         0.0156     -0.0014     -0.0212     -0.0691      0.0645     -0.0103
         4         1.4135     -0.2958     -0.0153      0.1162      0.0839      0.0293
         5        -0.3341      0.2657      0.0310     -0.2184     -0.0556      0.0097
         6         0.2104      0.1848     -0.1524      0.0249      0.0378     -0.1860
 <0|del|b> * <b|rxdel|0> + <0|del|b> * <b|delr+rdel|0>
 Rotatory Strengths (R) in cgs (10**-40 erg-esu-cm/Gauss)
       state          XX          YY          ZZ    R(velocity)    E-M Angle
         1       -39.2345    -14.6577     31.8836     -7.3362       90.73
         2         1.0621     -9.8321     -5.8323     -4.8675      118.42
         3       -44.2457     -3.2827    -42.2903    -29.9396      161.24
         4       119.7486     -0.8729     -0.9914     39.2948       53.08
         5        81.8200     -3.4103     21.4848     33.2982       71.28
         6        -1.8910      5.0068      0.2850      1.1336       83.57
 1/2[<0|r|b>*<b|rxdel|0> + (<0|rxdel|b>*<b|r|0>)*]
 Rotatory Strengths (R) in cgs (10**-40 erg-esu-cm/Gauss)
       state          XX          YY          ZZ     R(length)
         1        33.0878      7.2858    -56.7757     -5.4674
         2       -17.7814      3.3586     -3.6570     -6.0266
         3        -7.2251    -94.6754      4.1345    -32.5887
         4        -5.6047    125.7561      4.9982     41.7165
         5        -6.4067    107.7884     -0.7960     33.5285
         6         2.5477     -5.1154      1.4070     -0.3869
  1/2[<0|del|b>*<b|r|0> + (<0|r|b>*<b|del|0>)*] (Au)
       state          X           Y           Z        Dip. S.   Osc.(frdel)
         1        -0.3104     -0.0038     -0.0003      0.3145      0.2097
         2        -0.0001     -0.0002     -0.0001      0.0005      0.0003
         3        -0.0004     -0.0026     -0.0000      0.0030      0.0020
         4        -0.0085     -0.6507     -0.0006      0.6598      0.4398
         5        -0.0011     -0.4160      0.0000      0.4171      0.2781
         6        -0.0002     -0.0126     -0.0010      0.0138      0.0092

 Excitation energies and oscillator strengths:
 
 Excited State   1:      Singlet-A      2.9470 eV  420.71 nm  f=0.2183  <S**2>=0.000
      52 -> 53         0.70125
 This state for optimization and/or second-order correction.
 Total Energy, E(TD-HF/TD-DFT) =  -633.217392571    
 Copying the excited state density for this state as the 1-particle RhoCI density.
 
 Excited State   2:      Singlet-A      3.9730 eV  312.07 nm  f=0.0004  <S**2>=0.000
      50 -> 54        -0.17026
      51 -> 53         0.58508
      51 -> 54         0.30691
 
 Excited State   3:      Singlet-A      4.1447 eV  299.14 nm  f=0.0023  <S**2>=0.000
      49 -> 53        -0.34996
      49 -> 54         0.19790
      50 -> 53         0.47454
      50 -> 54        -0.20689
      51 -> 54        -0.20140
 
 Excited State   4:      Singlet-A      4.8158 eV  257.45 nm  f=0.4583  <S**2>=0.000
      49 -> 53        -0.11468
      52 -> 54         0.68679
 
 Excited State   5:      Singlet-A      5.2663 eV  235.43 nm  f=0.2830  <S**2>=0.000
      49 -> 53         0.54057
      50 -> 53         0.40238
      51 -> 53         0.11320
      52 -> 54         0.13713
 
 Excited State   6:      Singlet-A      5.8057 eV  213.55 nm  f=0.0091  <S**2>=0.000
      52 -> 55         0.65521
      52 -> 56         0.17704
 SavETr:  write IOETrn=   770 NScale= 10 NData=  16 NLR=1 NState=    6 LETran=     118.
 The selected state is a singlet.
 CISGrd: IGrad=1 NXY=2 DFT=T
 CISAX will form     1 AO SS matrices at one time.
 NMat=     1 NSing=     1 JSym2X= 0.
 Leave Link  914 at Sat Jan 24 18:35:26 2026, MaxMem=  2147483648 cpu:            7676.3 elap:             481.2
 (Enter /data/home/wyx/g16/l1002.exe)
 Minotr:  Closed shell wavefunction.
          Computing CIS/TDA/TD derivatives.
          Using Z-Vector for PSCF gradient.
          Skipping F1 and S1 gradient terms here.
 NEqPCM:  Using equilibrium solvation (IEInf=0, Eps=  78.3553, EpsInf=   1.7778)
          Frozen-core window.
          Direct CPHF calculation.
          Differentiating once with respect to electric field.
                with respect to dipole field.
          Electric field/nuclear overlap derivatives assumed to be zero.
          Requested convergence is 1.0D-10 RMS, and 1.0D-09 maximum.
          NewPWx=F KeepS1=T KeepF1=T KeepIn=T MapXYZ=F SortEE=F KeepMc=T.
 Two-electron integral symmetry used by symmetrizing perturbed Fock matrices.
          MDV=    2147483648 using IRadAn=       5.
          Solving linear equations separately, MaxMat=     384.
          There are     1 degrees of freedom in the 1st order CPHF.  IDoFFX=0 NUNeed=     1.
 FoFJK:  IHMeth= 1 ICntrl=       0 DoSepK=T KAlg= 0 I1Cent=           0 FoldK=F
 IRaf=         1 NMat=       1 IRICut=       1 DoRegI=T DoRafI=F ISym2E=-1 IDoP0=0 IntGTp=1.
 FoFCou: FMM=F IPFlag=           0 FMFlag=      100000 FMFlg1=           0
         NFxFlg=           0 DoJE=T BraDBF=F KetDBF=F FulRan=T
         wScrn=  0.000000 ICntrl=       500 IOpCl=  0 I1Cent=           0 NGrid=           0
         NMat0=    1 NMatS0=      1 NMatT0=    0 NMatD0=    1 NMtDS0=    0 NMtDT0=    0
 Petite list used in FoFCou.
 LinEq1:  Iter=  0 NonCon=     1 RMS=3.48D-03 Max=1.33D-01 NDo=     1
 AX will form     1 AO Fock derivatives at one time.
 LinEq1:  Iter=  1 NonCon=     1 RMS=1.37D-03 Max=5.51D-02 NDo=     1
 LinEq1:  Iter=  2 NonCon=     1 RMS=6.37D-04 Max=2.07D-02 NDo=     1
 LinEq1:  Iter=  3 NonCon=     1 RMS=3.87D-04 Max=1.46D-02 NDo=     1
 LinEq1:  Iter=  4 NonCon=     1 RMS=1.73D-04 Max=8.65D-03 NDo=     1
 LinEq1:  Iter=  5 NonCon=     1 RMS=7.66D-05 Max=3.63D-03 NDo=     1
 LinEq1:  Iter=  6 NonCon=     1 RMS=3.41D-05 Max=2.07D-03 NDo=     1
 LinEq1:  Iter=  7 NonCon=     1 RMS=1.79D-05 Max=8.23D-04 NDo=     1
 LinEq1:  Iter=  8 NonCon=     1 RMS=1.09D-05 Max=3.46D-04 NDo=     1
 LinEq1:  Iter=  9 NonCon=     1 RMS=5.76D-06 Max=1.69D-04 NDo=     1
 LinEq1:  Iter= 10 NonCon=     1 RMS=2.88D-06 Max=7.53D-05 NDo=     1
 LinEq1:  Iter= 11 NonCon=     1 RMS=1.68D-06 Max=4.39D-05 NDo=     1
 LinEq1:  Iter= 12 NonCon=     1 RMS=8.06D-07 Max=2.05D-05 NDo=     1
 LinEq1:  Iter= 13 NonCon=     1 RMS=3.27D-07 Max=1.12D-05 NDo=     1
 LinEq1:  Iter= 14 NonCon=     1 RMS=1.44D-07 Max=5.77D-06 NDo=     1
 LinEq1:  Iter= 15 NonCon=     1 RMS=8.67D-08 Max=2.89D-06 NDo=     1
 LinEq1:  Iter= 16 NonCon=     1 RMS=3.11D-08 Max=1.08D-06 NDo=     1
 LinEq1:  Iter= 17 NonCon=     1 RMS=9.45D-09 Max=2.30D-07 NDo=     1
 LinEq1:  Iter= 18 NonCon=     1 RMS=4.52D-09 Max=9.65D-08 NDo=     1
 LinEq1:  Iter= 19 NonCon=     1 RMS=1.45D-09 Max=3.41D-08 NDo=     1
 LinEq1:  Iter= 20 NonCon=     1 RMS=4.86D-10 Max=8.27D-09 NDo=     1
 LinEq1:  Iter= 21 NonCon=     1 RMS=2.07D-10 Max=4.58D-09 NDo=     1
 LinEq1:  Iter= 22 NonCon=     1 RMS=6.05D-11 Max=2.05D-09 NDo=     1
 LinEq1:  Iter= 23 NonCon=     0 RMS=1.68D-11 Max=8.32D-10 NDo=     1
 Linear equations converged to 1.000D-10 1.000D-09 after    23 iterations.
 PCM Corrected Linear-Response - Equilibrium solvation:
 Corrected transition energy               =    3.0730          eV
 Total energy after correction             = -633.212761442     a.u.
 NEqPCM:  Using non-equilibrium solvation (IEInf=1, Eps=  78.3553, EpsInf=   1.7778)
 Inv3:  Mode=1 IEnd=    13280448.
 Iteration    1 A*A^-1 deviation from unit magnitude is 3.33D-15 for   1249.
 Iteration    1 A*A^-1 deviation from orthogonality  is 1.38D-15 for   1918    106.
 Iteration    1 A^-1*A deviation from unit magnitude is 3.33D-15 for   1249.
 Iteration    1 A^-1*A deviation from orthogonality  is 2.27D-15 for   1386    883.
 NEqSol: Computing the dynamic-inertial partition of the PCM polarization charges.
 End of Minotr F.D. properties file   721 does not exist.
 End of Minotr F.D. properties file   722 does not exist.
 End of Minotr F.D. properties file   788 does not exist.
 Leave Link 1002 at Sat Jan 24 18:37:39 2026, MaxMem=  2147483648 cpu:            1890.7 elap:             132.2
 (Enter /data/home/wyx/g16/l601.exe)
 Copying SCF densities to generalized density rwf, IOpCl= 0 IROHF=0.

 **********************************************************************

            Population analysis using the CI density.

 **********************************************************************

 Orbital symmetries:
       Occupied  (A) (A) (A) (A) (A) (A) (A) (A) (A) (A) (A) (A)
                 (A) (A) (A) (A) (A) (A) (A) (A) (A) (A) (A) (A)
                 (A) (A) (A) (A) (A) (A) (A) (A) (A) (A) (A) (A)
                 (A) (A) (A) (A) (A) (A) (A) (A) (A) (A) (A) (A)
                 (A) (A) (A) (A)
       Virtual   (A) (A) (A) (A) (A) (A) (A) (A) (A) (A) (A) (A)
                 (A) (A) (A) (A) (A) (A) (A) (A) (A) (A) (A) (A)
                 (A) (A) (A) (A) (A) (A) (A) (A) (A) (A) (A) (A)
                 (A) (A) (A) (A) (A) (A) (A) (A) (A) (A) (A) (A)
                 (A) (A) (A) (A) (A) (A) (A) (A) (A) (A) (A) (A)
                 (A) (A) (A) (A) (A) (A) (A) (A) (A) (A) (A) (A)
                 (A) (A) (A) (A) (A) (A) (A) (A) (A) (A) (A) (A)
                 (A) (A) (A) (A) (A) (A) (A) (A) (A) (A) (A) (A)
                 (A) (A) (A) (A) (A) (A) (A) (A) (A) (A) (A) (A)
                 (A) (A) (A) (A) (A) (A) (A) (A) (A) (A) (A) (A)
                 (A) (A) (A) (A) (A) (A) (A) (A) (A) (A) (A) (A)
                 (A) (A) (A) (A) (A) (A) (A) (A) (A) (A) (A) (A)
                 (A) (A) (A) (A) (A) (A) (A) (A) (A) (A) (A) (A)
                 (A) (A) (A) (A) (A) (A) (A) (A) (A) (A) (A) (A)
                 (A) (A) (A) (A) (A) (A) (A) (A) (A) (A) (A) (A)
                 (A) (A) (A) (A) (A) (A) (A) (A) (A) (A) (A) (A)
                 (A) (A) (A) (A) (A) (A) (A) (A) (A) (A) (A) (A)
                 (A) (A) (A) (A) (A) (A) (A) (A) (A) (A) (A) (A)
                 (A) (A) (A) (A) (A) (A) (A) (A) (A) (A) (A) (A)
                 (A) (A) (A) (A) (A) (A) (A) (A) (A) (A) (A) (A)
                 (A) (A) (A) (A) (A) (A) (A) (A) (A) (A) (A) (A)
                 (A) (A) (A) (A) (A) (A) (A) (A) (A) (A) (A) (A)
                 (A) (A) (A) (A) (A) (A) (A) (A) (A) (A) (A) (A)
                 (A) (A) (A) (A) (A) (A) (A) (A) (A) (A) (A) (A)
                 (A) (A) (A) (A) (A) (A) (A) (A) (A) (A) (A) (A)
                 (A) (A) (A) (A)
 The electronic state is 1-A.
 Alpha  occ. eigenvalues --  -19.17915 -19.17158 -14.44660 -10.33439 -10.32993
 Alpha  occ. eigenvalues --  -10.32742 -10.32238 -10.25829 -10.25311 -10.24950
 Alpha  occ. eigenvalues --  -10.24741 -10.24580 -10.24134 -10.23750  -1.11486
 Alpha  occ. eigenvalues --   -1.11037  -1.08393  -0.91382  -0.90559  -0.83993
 Alpha  occ. eigenvalues --   -0.82621  -0.81642  -0.78571  -0.73834  -0.72068
 Alpha  occ. eigenvalues --   -0.68765  -0.61651  -0.58285  -0.57036  -0.55160
 Alpha  occ. eigenvalues --   -0.54570  -0.54055  -0.52547  -0.51787  -0.50860
 Alpha  occ. eigenvalues --   -0.49838  -0.49532  -0.49296  -0.48509  -0.48081
 Alpha  occ. eigenvalues --   -0.47122  -0.45322  -0.45170  -0.43868  -0.43243
 Alpha  occ. eigenvalues --   -0.42278  -0.42175  -0.41677  -0.32686  -0.32289
 Alpha  occ. eigenvalues --   -0.31373  -0.25281
 Alpha virt. eigenvalues --   -0.03292   0.02457   0.06485   0.08200   0.08684
 Alpha virt. eigenvalues --    0.09865   0.10749   0.11617   0.12623   0.13493
 Alpha virt. eigenvalues --    0.13920   0.15110   0.15685   0.16321   0.16963
 Alpha virt. eigenvalues --    0.17426   0.17928   0.18186   0.18353   0.19205
 Alpha virt. eigenvalues --    0.20046   0.21994   0.22921   0.23460   0.23830
 Alpha virt. eigenvalues --    0.24225   0.24711   0.25740   0.26291   0.26689
 Alpha virt. eigenvalues --    0.27302   0.28049   0.28716   0.29260   0.30181
 Alpha virt. eigenvalues --    0.31697   0.31962   0.32367   0.33502   0.34371
 Alpha virt. eigenvalues --    0.34921   0.35842   0.36629   0.37776   0.38459
 Alpha virt. eigenvalues --    0.39620   0.40986   0.41429   0.41929   0.42544
 Alpha virt. eigenvalues --    0.44104   0.44748   0.45470   0.46208   0.46401
 Alpha virt. eigenvalues --    0.47324   0.47777   0.47926   0.48427   0.49251
 Alpha virt. eigenvalues --    0.49676   0.50546   0.51046   0.51442   0.51566
 Alpha virt. eigenvalues --    0.52645   0.52747   0.53432   0.53596   0.54280
 Alpha virt. eigenvalues --    0.54437   0.55441   0.55950   0.56673   0.58366
 Alpha virt. eigenvalues --    0.58510   0.59892   0.60908   0.61529   0.62973
 Alpha virt. eigenvalues --    0.64045   0.65223   0.66395   0.66629   0.67562
 Alpha virt. eigenvalues --    0.68455   0.69442   0.71023   0.71407   0.72177
 Alpha virt. eigenvalues --    0.73182   0.74366   0.75007   0.75905   0.77491
 Alpha virt. eigenvalues --    0.78913   0.80306   0.82864   0.86301   0.87325
 Alpha virt. eigenvalues --    0.90714   0.95111   1.01671   1.03451   1.22413
 Alpha virt. eigenvalues --    1.24775   1.27351   1.28286   1.29289   1.30553
 Alpha virt. eigenvalues --    1.32059   1.33063   1.34350   1.35057   1.36377
 Alpha virt. eigenvalues --    1.36653   1.37664   1.38528   1.39103   1.39816
 Alpha virt. eigenvalues --    1.39946   1.40322   1.40942   1.41375   1.41968
 Alpha virt. eigenvalues --    1.43399   1.43680   1.44249   1.45319   1.47360
 Alpha virt. eigenvalues --    1.48064   1.49568   1.50159   1.50314   1.50491
 Alpha virt. eigenvalues --    1.51307   1.52274   1.52757   1.55127   1.58269
 Alpha virt. eigenvalues --    1.59084   1.60228   1.60852   1.61459   1.62675
 Alpha virt. eigenvalues --    1.62695   1.62975   1.64097   1.64575   1.65803
 Alpha virt. eigenvalues --    1.66623   1.67083   1.67676   1.68054   1.68581
 Alpha virt. eigenvalues --    1.69188   1.70007   1.70126   1.71261   1.72406
 Alpha virt. eigenvalues --    1.74193   1.74821   1.75747   1.76631   1.78450
 Alpha virt. eigenvalues --    1.81320   1.83113   1.84192   1.86083   1.86649
 Alpha virt. eigenvalues --    1.86712   1.87898   1.88571   1.89215   1.90272
 Alpha virt. eigenvalues --    1.91426   1.94636   1.95304   1.99076   1.99725
 Alpha virt. eigenvalues --    2.01631   2.03870   2.05605   2.06967   2.09566
 Alpha virt. eigenvalues --    2.10502   2.11908   2.15734   2.17559   2.19850
 Alpha virt. eigenvalues --    2.20452   2.21448   2.22089   2.23101   2.26273
 Alpha virt. eigenvalues --    2.27167   2.27664   2.29384   2.31287   2.32306
 Alpha virt. eigenvalues --    2.33814   2.34386   2.36894   2.38015   2.38949
 Alpha virt. eigenvalues --    2.39603   2.40197   2.41376   2.42901   2.45133
 Alpha virt. eigenvalues --    2.45942   2.47836   2.49336   2.49863   2.51271
 Alpha virt. eigenvalues --    2.52483   2.54136   2.54794   2.56519   2.57691
 Alpha virt. eigenvalues --    2.58883   2.60803   2.61792   2.62567   2.63478
 Alpha virt. eigenvalues --    2.64714   2.65861   2.66546   2.67635   2.68409
 Alpha virt. eigenvalues --    2.71969   2.72022   2.73766   2.74805   2.75035
 Alpha virt. eigenvalues --    2.76448   2.76966   2.77375   2.78112   2.78881
 Alpha virt. eigenvalues --    2.80574   2.81882   2.82952   2.83838   2.84774
 Alpha virt. eigenvalues --    2.85375   2.86633   2.88858   2.89005   2.91802
 Alpha virt. eigenvalues --    2.97237   2.98620   3.00991   3.06861   3.10832
 Alpha virt. eigenvalues --    3.12483   3.14503   3.17947   3.18983   3.21587
 Alpha virt. eigenvalues --    3.21836   3.23501   3.24638   3.25512   3.26264
 Alpha virt. eigenvalues --    3.28380   3.30003   3.32620   3.34357   3.36741
 Alpha virt. eigenvalues --    3.37936   3.39034   3.39410   3.39958   3.41858
 Alpha virt. eigenvalues --    3.42160   3.44394   3.45259   3.47524   3.48417
 Alpha virt. eigenvalues --    3.49556   3.50144   3.55639   3.58356   3.59754
 Alpha virt. eigenvalues --    3.61052   3.91003   4.00845   4.32803   4.35751
 Alpha virt. eigenvalues --   21.67501  21.80545  22.08059  22.10580  22.11651
 Alpha virt. eigenvalues --   22.15022  22.15139  22.18321  22.19373  22.24779
 Alpha virt. eigenvalues --   22.27688  31.91664  43.63784  43.66518
          Condensed to atoms (all electrons):
               1          2          3          4          5          6
     1  O    8.009224   0.000000  -0.000250   0.000019   0.025443   0.015515
     2  O    0.000000   8.023160   0.000101   0.000012  -0.210589   0.001240
     3  N   -0.000250   0.000101   6.163042   0.363385  -0.084477   0.356658
     4  H    0.000019   0.000012   0.363385   0.394858   0.016114  -0.041687
     5  C    0.025443  -0.210589  -0.084477   0.016114   7.336336  -0.028069
     6  C    0.015515   0.001240   0.356658  -0.041687  -0.028069   5.936123
     7  C   -0.000342  -0.037704   0.432491  -0.035010   0.270310  -0.222615
     8  C   -0.000726   0.694113   0.003497  -0.000716  -0.414255   0.038805
     9  C   -0.008887   0.026181   0.001908  -0.000872  -0.692540  -0.100540
    10  H    0.007315  -0.000054   0.001009   0.000054  -0.026523  -0.012522
    11  H    0.009168  -0.000160  -0.001373   0.000018  -0.086600   0.019940
    12  C   -0.260272  -0.002649  -0.048586   0.014728   0.051983  -0.246362
    13  C    0.702254  -0.000017  -0.000032   0.000695   0.098169   0.083981
    14  C   -0.000008  -0.013278  -0.036894  -0.010904  -0.076070   0.013178
    15  H   -0.000000   0.004242   0.005715   0.002024   0.021092   0.006233
    16  H    0.000000   0.002234  -0.002835   0.000916  -0.006955  -0.000938
    17  H   -0.000000   0.000057  -0.000354   0.000812   0.001863  -0.000952
    18  C    0.000442  -0.104325  -0.000511   0.000019  -0.270289  -0.000628
    19  H    0.000003   0.009330   0.000007  -0.000001   0.030041   0.000009
    20  H   -0.000124   0.002240   0.000008  -0.000001  -0.000751   0.000136
    21  H    0.000177   0.004332   0.000097   0.000001   0.046881  -0.001189
    22  C   -0.109851   0.000000   0.000250   0.000117   0.004534  -0.025475
    23  H    0.005411  -0.000000   0.000063  -0.000060  -0.000914  -0.024547
    24  H    0.002146   0.000000   0.000013  -0.000010  -0.000067   0.013848
    25  H    0.008511  -0.000000   0.000021  -0.000003  -0.000126  -0.001550
    26  C    0.000591   0.000009  -0.032090  -0.007730  -0.000842   0.176597
    27  H   -0.000403  -0.000000   0.001945   0.000721  -0.000059  -0.070178
    28  H   -0.000063   0.000000  -0.003391   0.000577   0.000319  -0.039125
    29  H    0.000017   0.000000   0.003036   0.001935  -0.000366  -0.053933
               7          8          9         10         11         12
     1  O   -0.000342  -0.000726  -0.008887   0.007315   0.009168  -0.260272
     2  O   -0.037704   0.694113   0.026181  -0.000054  -0.000160  -0.002649
     3  N    0.432491   0.003497   0.001908   0.001009  -0.001373  -0.048586
     4  H   -0.035010  -0.000716  -0.000872   0.000054   0.000018   0.014728
     5  C    0.270310  -0.414255  -0.692540  -0.026523  -0.086600   0.051983
     6  C   -0.222615   0.038805  -0.100540  -0.012522   0.019940  -0.246362
     7  C    5.782470  -0.289593  -0.246916  -0.006364   0.011344   0.063260
     8  C   -0.289593   5.547978   0.238055  -0.000291  -0.005040  -0.052105
     9  C   -0.246916   0.238055   6.693213   0.355774   0.497288  -0.174660
    10  H   -0.006364  -0.000291   0.355774   0.493755  -0.030303   0.010657
    11  H    0.011344  -0.005040   0.497288  -0.030303   0.475218  -0.098252
    12  C    0.063260  -0.052105  -0.174660   0.010657  -0.098252   7.588953
    13  C    0.019919  -0.010535  -0.273801   0.000478   0.005206  -0.484748
    14  C    0.281507  -0.036161   0.004778  -0.000408   0.000173   0.000766
    15  H   -0.082855   0.006395   0.000554   0.000029   0.000001  -0.001645
    16  H   -0.030544   0.000429   0.001320  -0.000060   0.000060  -0.000256
    17  H   -0.039931  -0.005906  -0.000526   0.000156  -0.000051   0.000496
    18  C    0.003034   0.325484  -0.006417  -0.010978   0.004279  -0.006155
    19  H    0.001386  -0.056907  -0.004428  -0.000142   0.000693  -0.000663
    20  H   -0.000489  -0.033192  -0.009135   0.001211  -0.001299   0.000166
    21  H    0.004142  -0.072984  -0.004546  -0.000558  -0.005877   0.007322
    22  C    0.000220  -0.000068   0.005931   0.002641  -0.000373  -0.272617
    23  H    0.000037   0.000007   0.002996  -0.000194  -0.000019   0.070318
    24  H   -0.000019   0.000004  -0.003899   0.000084  -0.000088  -0.014779
    25  H    0.000005   0.000003   0.001990  -0.000104  -0.000084   0.024113
    26  C    0.005487   0.000705   0.030177  -0.000686   0.000014  -0.075452
    27  H   -0.000498  -0.000003   0.002261  -0.000040  -0.000002   0.000079
    28  H   -0.000301  -0.000018  -0.002213   0.000004   0.000029  -0.013700
    29  H    0.003518   0.000003  -0.000642   0.000035   0.000000   0.022176
              13         14         15         16         17         18
     1  O    0.702254  -0.000008  -0.000000   0.000000  -0.000000   0.000442
     2  O   -0.000017  -0.013278   0.004242   0.002234   0.000057  -0.104325
     3  N   -0.000032  -0.036894   0.005715  -0.002835  -0.000354  -0.000511
     4  H    0.000695  -0.010904   0.002024   0.000916   0.000812   0.000019
     5  C    0.098169  -0.076070   0.021092  -0.006955   0.001863  -0.270289
     6  C    0.083981   0.013178   0.006233  -0.000938  -0.000952  -0.000628
     7  C    0.019919   0.281507  -0.082855  -0.030544  -0.039931   0.003034
     8  C   -0.010535  -0.036161   0.006395   0.000429  -0.005906   0.325484
     9  C   -0.273801   0.004778   0.000554   0.001320  -0.000526  -0.006417
    10  H    0.000478  -0.000408   0.000029  -0.000060   0.000156  -0.010978
    11  H    0.005206   0.000173   0.000001   0.000060  -0.000051   0.004279
    12  C   -0.484748   0.000766  -0.001645  -0.000256   0.000496  -0.006155
    13  C    5.642662   0.000030  -0.000038  -0.000029   0.000007   0.001044
    14  C    0.000030   5.031566   0.387368   0.411843   0.421194   0.000835
    15  H   -0.000038   0.387368   0.573891  -0.024518  -0.026568   0.000265
    16  H   -0.000029   0.411843  -0.024518   0.525261  -0.032767   0.000048
    17  H    0.000007   0.421194  -0.026568  -0.032767   0.526674   0.000020
    18  C    0.001044   0.000835   0.000265   0.000048   0.000020   5.360623
    19  H   -0.000032   0.000051  -0.000006  -0.000001  -0.000031   0.386352
    20  H    0.000081  -0.000272  -0.000005  -0.000054   0.000042   0.400016
    21  H    0.000889   0.000153  -0.000018   0.000002  -0.000053   0.374317
    22  C    0.303518  -0.000001   0.000001  -0.000000  -0.000000   0.000018
    23  H   -0.103195   0.000002   0.000000   0.000000   0.000000   0.000000
    24  H   -0.025662  -0.000000   0.000000  -0.000000   0.000000  -0.000003
    25  H   -0.038004   0.000000   0.000000   0.000000  -0.000000   0.000003
    26  C   -0.054441   0.000133   0.000382  -0.000016  -0.000041   0.000030
    27  H   -0.001343   0.000037  -0.000007   0.000004  -0.000005   0.000002
    28  H    0.006277  -0.000149  -0.000003  -0.000021   0.000009  -0.000002
    29  H   -0.000433   0.000019   0.000067   0.000004  -0.000008   0.000000
              19         20         21         22         23         24
     1  O    0.000003  -0.000124   0.000177  -0.109851   0.005411   0.002146
     2  O    0.009330   0.002240   0.004332   0.000000  -0.000000   0.000000
     3  N    0.000007   0.000008   0.000097   0.000250   0.000063   0.000013
     4  H   -0.000001  -0.000001   0.000001   0.000117  -0.000060  -0.000010
     5  C    0.030041  -0.000751   0.046881   0.004534  -0.000914  -0.000067
     6  C    0.000009   0.000136  -0.001189  -0.025475  -0.024547   0.013848
     7  C    0.001386  -0.000489   0.004142   0.000220   0.000037  -0.000019
     8  C   -0.056907  -0.033192  -0.072984  -0.000068   0.000007   0.000004
     9  C   -0.004428  -0.009135  -0.004546   0.005931   0.002996  -0.003899
    10  H   -0.000142   0.001211  -0.000558   0.002641  -0.000194   0.000084
    11  H    0.000693  -0.001299  -0.005877  -0.000373  -0.000019  -0.000088
    12  C   -0.000663   0.000166   0.007322  -0.272617   0.070318  -0.014779
    13  C   -0.000032   0.000081   0.000889   0.303518  -0.103195  -0.025662
    14  C    0.000051  -0.000272   0.000153  -0.000001   0.000002  -0.000000
    15  H   -0.000006  -0.000005  -0.000018   0.000001   0.000000   0.000000
    16  H   -0.000001  -0.000054   0.000002  -0.000000   0.000000  -0.000000
    17  H   -0.000031   0.000042  -0.000053  -0.000000   0.000000   0.000000
    18  C    0.386352   0.400016   0.374317   0.000018   0.000000  -0.000003
    19  H    0.523533  -0.015675  -0.022038  -0.000001   0.000000  -0.000000
    20  H   -0.015675   0.509145  -0.025162  -0.000002   0.000000   0.000000
    21  H   -0.022038  -0.025162   0.545397   0.000026  -0.000000  -0.000000
    22  C   -0.000001  -0.000002   0.000026   5.447299   0.394298   0.402514
    23  H    0.000000   0.000000  -0.000000   0.394298   0.547779  -0.025883
    24  H   -0.000000   0.000000  -0.000000   0.402514  -0.025883   0.504153
    25  H    0.000000  -0.000002  -0.000000   0.369597  -0.021922  -0.013458
    26  C    0.000001  -0.000001  -0.000017  -0.035054   0.014885  -0.010511
    27  H    0.000000  -0.000000   0.000000   0.003833  -0.007496  -0.003195
    28  H   -0.000000   0.000000  -0.000000  -0.011045  -0.002228   0.002189
    29  H    0.000000  -0.000000  -0.000000   0.001874   0.000691  -0.000004
              25         26         27         28         29
     1  O    0.008511   0.000591  -0.000403  -0.000063   0.000017
     2  O   -0.000000   0.000009  -0.000000   0.000000   0.000000
     3  N    0.000021  -0.032090   0.001945  -0.003391   0.003036
     4  H   -0.000003  -0.007730   0.000721   0.000577   0.001935
     5  C   -0.000126  -0.000842  -0.000059   0.000319  -0.000366
     6  C   -0.001550   0.176597  -0.070178  -0.039125  -0.053933
     7  C    0.000005   0.005487  -0.000498  -0.000301   0.003518
     8  C    0.000003   0.000705  -0.000003  -0.000018   0.000003
     9  C    0.001990   0.030177   0.002261  -0.002213  -0.000642
    10  H   -0.000104  -0.000686  -0.000040   0.000004   0.000035
    11  H   -0.000084   0.000014  -0.000002   0.000029   0.000000
    12  C    0.024113  -0.075452   0.000079  -0.013700   0.022176
    13  C   -0.038004  -0.054441  -0.001343   0.006277  -0.000433
    14  C    0.000000   0.000133   0.000037  -0.000149   0.000019
    15  H    0.000000   0.000382  -0.000007  -0.000003   0.000067
    16  H    0.000000  -0.000016   0.000004  -0.000021   0.000004
    17  H   -0.000000  -0.000041  -0.000005   0.000009  -0.000008
    18  C    0.000003   0.000030   0.000002  -0.000002   0.000000
    19  H    0.000000   0.000001   0.000000  -0.000000   0.000000
    20  H   -0.000002  -0.000001  -0.000000   0.000000  -0.000000
    21  H   -0.000000  -0.000017   0.000000  -0.000000  -0.000000
    22  C    0.369597  -0.035054   0.003833  -0.011045   0.001874
    23  H   -0.021922   0.014885  -0.007496  -0.002228   0.000691
    24  H   -0.013458  -0.010511  -0.003195   0.002189  -0.000004
    25  H    0.516238   0.002198   0.001185  -0.000364  -0.000026
    26  C    0.002198   5.232089   0.439968   0.423458   0.392812
    27  H    0.001185   0.439968   0.523413  -0.037008  -0.022008
    28  H   -0.000364   0.423458  -0.037008   0.509651  -0.018995
    29  H   -0.000026   0.392812  -0.022008  -0.018995   0.518115
 Mulliken charges:
               1
     1  O   -0.405312
     2  O   -0.398474
     3  N   -0.122452
     4  H    0.299988
     5  C   -0.003594
     6  C    0.208046
     7  C    0.114052
     8  C    0.123022
     9  C   -0.332405
    10  H    0.216025
    11  H    0.206089
    12  C   -0.102114
    13  C    0.127102
    14  C   -0.379487
    15  H    0.127404
    16  H    0.156872
    17  H    0.155863
    18  C   -0.457523
    19  H    0.148520
    20  H    0.173117
    21  H    0.148706
    22  C   -0.482184
    23  H    0.149970
    24  H    0.172627
    25  H    0.151778
    26  C   -0.502656
    27  H    0.168797
    28  H    0.186111
    29  H    0.152114
 Sum of Mulliken charges =  -0.00000
 Mulliken charges with hydrogens summed into heavy atoms:
               1
     1  O   -0.405312
     2  O   -0.398474
     3  N    0.177535
     5  C   -0.003594
     6  C    0.208046
     7  C    0.114052
     8  C    0.123022
     9  C    0.089709
    12  C   -0.102114
    13  C    0.127102
    14  C    0.060651
    18  C    0.012821
    22  C   -0.007810
    26  C    0.004366
 Electronic spatial extent (au):  <R**2>=           3208.8095
 Charge=              0.0000 electrons
 Dipole moment (field-independent basis, Debye):
    X=             -3.6693    Y=              8.1704    Z=             -0.2213  Tot=              8.9592
 Quadrupole moment (field-independent basis, Debye-Ang):
   XX=           -105.9871   YY=            -78.5019   ZZ=            -84.7771
   XY=            -13.3295   XZ=             -4.4947   YZ=             -2.0155
 Traceless Quadrupole moment (field-independent basis, Debye-Ang):
   XX=            -16.2317   YY=             11.2534   ZZ=              4.9783
   XY=            -13.3295   XZ=             -4.4947   YZ=             -2.0155
 Octapole moment (field-independent basis, Debye-Ang**2):
  XXX=           -110.7088  YYY=             72.1325  ZZZ=              0.2308  XYY=             38.1521
  XXY=             35.5926  XXZ=             -6.1244  XZZ=             -0.4323  YZZ=             -1.4580
  YYZ=              3.6290  XYZ=              5.7656
 Hexadecapole moment (field-independent basis, Debye-Ang**3):
 XXXX=          -3162.6894 YYYY=          -1293.9936 ZZZZ=           -143.8683 XXXY=            -41.3006
 XXXZ=            -48.8526 YYYX=            -93.9473 YYYZ=            -20.9076 ZZZX=              3.4804
 ZZZY=              3.7883 XXYY=           -719.0104 XXZZ=           -488.6102 YYZZ=           -245.3649
 XXYZ=            -10.2644 YYXZ=            -10.5028 ZZXY=             -0.2877
 N-N= 8.994038940390D+02 E-N=-3.274325934598D+03  KE= 6.307117824231D+02
 No NMR shielding tensors so no spin-rotation constants.
 Leave Link  601 at Sat Jan 24 18:37:39 2026, MaxMem=  2147483648 cpu:               1.8 elap:               0.1
 (Enter /data/home/wyx/g16/l9999.exe)
 Electronic transition elements 
                 1             2             3             4             5 
      1  -0.633217D+03 -0.633180D+03 -0.633173D+03 -0.633149D+03 -0.633132D+03
      2   0.165100D+01 -0.894842D-02  0.101705D+00 -0.465149D+00  0.414076D+00
      3   0.388619D+00 -0.489714D-01 -0.111489D+00  0.191422D+01 -0.141745D+01
      4   0.382150D+00 -0.385060D-01 -0.470948D-02 -0.604773D-01  0.112417D+00
      5  -0.170979D+00  0.160287D-02 -0.134456D-01  0.727991D-01 -0.788603D-01
      6  -0.435758D-01  0.726542D-02  0.148804D-01 -0.326612D+00  0.269638D+00
      7  -0.401102D-01  0.232813D-02 -0.226374D-02  0.116685D-01 -0.202072D-01
      8  -0.330277D+00 -0.742396D+00  0.445594D+00  0.867122D-01 -0.194424D+00
      9   0.622519D-01 -0.158155D+00 -0.847435D+00 -0.742904D-01  0.612758D-01
     10   0.142429D+01 -0.290301D+00  0.328722D+00 -0.920739D-01  0.223486D+00
     11  -0.167478D+00  0.196769D-01 -0.517383D-01  0.120957D+01 -0.368547D+00
     12   0.252631D+00 -0.207871D-01  0.455614D-01 -0.174278D+00  0.335094D+00
     13  -0.557484D-02  0.490309D-02 -0.762393D-03  0.671037D-01 -0.386477D-02
     14   0.462355D+00  0.106687D-01  0.524696D-01  0.445956D+00 -0.162508D-01
     15  -0.146126D-01  0.258215D-01  0.502637D-01  0.328130D+00 -0.129402D+00
     16   0.118406D+00 -0.791312D-01  0.415410D-01  0.934598D-01 -0.369867D-01
                 6 
      1  -0.633112D+03
      2   0.517967D-01
      3  -0.242436D+00
      4   0.510855D-01
      5  -0.507204D-02
      6   0.493498D-01
      7  -0.302009D-01
      8   0.154185D+00
      9   0.206741D-01
     10  -0.260859D-01
     11   0.218956D+00
     12   0.178182D+00
     13  -0.154259D+00
     14  -0.472900D-01
     15   0.489666D-01
     16   0.176344D+00
 1\1\GINC-CN012\SP\RCAM-B3LYP TD-FC\TZVP\C11H15N1O2\WYX\24-Jan-2026\0\\
 #p CAM-B3LYP TZVP em=gd3bj td(nstates=6,root=1) scrf=(Solvent=Water,Co
 rrectedLR,NonEquilibrium=Save) Geom=Check Guess=Read\\Title Card Requi
 red\\0,1\O,0,2.718277,-1.559497,0.860925\O,0,-3.301746,-1.66144,-0.911
 702\N,0,-0.684117,1.516403,-0.04816\H,0,-0.992546,2.477061,-0.115788\C
 ,0,-1.252593,-0.763454,-0.17304\C,0,0.64373,1.333143,0.20647\C,0,-1.62
 7723,0.573989,-0.287871\C,0,-2.164575,-1.849851,-0.468011\C,0,0.119411
 ,-1.081788,0.286854\H,0,0.075146,-1.513853,1.302495\H,0,0.537181,-1.91
 1825,-0.291428\C,0,1.104649,0.026718,0.314956\C,0,2.480332,-0.395539,0
 .511975\C,0,-2.976931,1.101821,-0.630508\H,0,-3.012381,2.183685,-0.518
 062\H,0,-3.248368,0.857054,-1.653579\H,0,-3.742106,0.66359,0.001949\C,
 0,-1.699932,-3.267048,-0.251406\H,0,-2.562912,-3.923689,-0.220564\H,0,
 -1.065681,-3.588076,-1.077334\H,0,-1.126364,-3.395774,0.661491\C,0,3.6
 49423,0.524387,0.260009\H,0,3.468415,1.242209,-0.535322\H,0,3.904173,1
 .076921,1.166879\H,0,4.505969,-0.093316,-0.002387\C,0,1.414994,2.60088
 9,0.368861\H,0,2.1458,2.523987,1.167131\H,0,1.944021,2.879357,-0.54296
 9\H,0,0.746455,3.423934,0.618134\\Version=ES64L-G16RevA.03\State=1-A\H
 F=-633.325693\RMSD=2.956e-09\Dipole=0.2609989,3.5142335,0.080725\Quadr
 upole=-13.8457789,12.3444006,1.5013782,1.0327139,-7.206505,0.3449166\P
 G=C01 [X(C11H15N1O2)]\\@


 It is also a good rule not to put too much confidence in
 experimental results until they have been confirmed by
 Theory.
                             -- Sir Arthur Eddington
 Job cpu time:       0 days  2 hours 41 minutes  3.8 seconds.
 Elapsed time:       0 days  0 hours 10 minutes 19.8 seconds.
 File lengths (MBytes):  RWF=    734 Int=      0 D2E=      0 Chk=     67 Scr=      1
 Normal termination of Gaussian 16 at Sat Jan 24 18:37:42 2026.
