 Entering Gaussian System, Link 0=g16
 Input=DDL-LR-5.gjf
 Output=DDL-LR-5.log
 Initial command:
 /data/home/wyx/g16/l1.exe "/scr/tmp/wyx/13117/Gau-2010631.inp" -scrdir="/scr/tmp/wyx/13117/"
 Entering Link 1 = /data/home/wyx/g16/l1.exe PID=   2010632.
  
 Copyright (c) 1988,1990,1992,1993,1995,1998,2003,2009,2016,
            Gaussian, Inc.  All Rights Reserved.
  
 This is part of the Gaussian(R) 16 program.  It is based on
 the Gaussian(R) 09 system (copyright 2009, Gaussian, Inc.),
 the Gaussian(R) 03 system (copyright 2003, Gaussian, Inc.),
 the Gaussian(R) 98 system (copyright 1998, Gaussian, Inc.),
 the Gaussian(R) 94 system (copyright 1995, Gaussian, Inc.),
 the Gaussian 92(TM) system (copyright 1992, Gaussian, Inc.),
 the Gaussian 90(TM) system (copyright 1990, Gaussian, Inc.),
 the Gaussian 88(TM) system (copyright 1988, Gaussian, Inc.),
 the Gaussian 86(TM) system (copyright 1986, Carnegie Mellon
 University), and the Gaussian 82(TM) system (copyright 1983,
 Carnegie Mellon University). Gaussian is a federally registered
 trademark of Gaussian, Inc.
  
 This software contains proprietary and confidential information,
 including trade secrets, belonging to Gaussian, Inc.
  
 This software is provided under written license and may be
 used, copied, transmitted, or stored only in accord with that
 written license.
  
 The following legend is applicable only to US Government
 contracts under FAR:
  
                    RESTRICTED RIGHTS LEGEND
  
 Use, reproduction and disclosure by the US Government is
 subject to restrictions as set forth in subparagraphs (a)
 and (c) of the Commercial Computer Software - Restricted
 Rights clause in FAR 52.227-19.
  
 Gaussian, Inc.
 340 Quinnipiac St., Bldg. 40, Wallingford CT 06492
  
  
 ---------------------------------------------------------------
 Warning -- This program may not be used in any manner that
 competes with the business of Gaussian, Inc. or will provide
 assistance to any competitor of Gaussian, Inc.  The licensee
 of this program is prohibited from giving any competitor of
 Gaussian, Inc. access to this program.  By using this program,
 the user acknowledges that Gaussian, Inc. is engaged in the
 business of creating and licensing software in the field of
 computational chemistry and represents and warrants to the
 licensee that it is not a competitor of Gaussian, Inc. and that
 it will not use this program in any manner prohibited above.
 ---------------------------------------------------------------
  

 Cite this work as:
 Gaussian 16, Revision A.03,
 M. J. Frisch, G. W. Trucks, H. B. Schlegel, G. E. Scuseria, 
 M. A. Robb, J. R. Cheeseman, G. Scalmani, V. Barone, 
 G. A. Petersson, H. Nakatsuji, X. Li, M. Caricato, A. V. Marenich, 
 J. Bloino, B. G. Janesko, R. Gomperts, B. Mennucci, H. P. Hratchian, 
 J. V. Ortiz, A. F. Izmaylov, J. L. Sonnenberg, D. Williams-Young, 
 F. Ding, F. Lipparini, F. Egidi, J. Goings, B. Peng, A. Petrone, 
 T. Henderson, D. Ranasinghe, V. G. Zakrzewski, J. Gao, N. Rega, 
 G. Zheng, W. Liang, M. Hada, M. Ehara, K. Toyota, R. Fukuda, 
 J. Hasegawa, M. Ishida, T. Nakajima, Y. Honda, O. Kitao, H. Nakai, 
 T. Vreven, K. Throssell, J. A. Montgomery, Jr., J. E. Peralta, 
 F. Ogliaro, M. J. Bearpark, J. J. Heyd, E. N. Brothers, K. N. Kudin, 
 V. N. Staroverov, T. A. Keith, R. Kobayashi, J. Normand, 
 K. Raghavachari, A. P. Rendell, J. C. Burant, S. S. Iyengar, 
 J. Tomasi, M. Cossi, J. M. Millam, M. Klene, C. Adamo, R. Cammi, 
 J. W. Ochterski, R. L. Martin, K. Morokuma, O. Farkas, 
 J. B. Foresman, and D. J. Fox, Gaussian, Inc., Wallingford CT, 2016.
 
 ******************************************
 Gaussian 16:  ES64L-G16RevA.03 25-Dec-2016
                24-Jan-2026 
 ******************************************
 %nprocshared=16
 Will use up to   16 processors via shared memory.
 %mem=16GB
 %chk=DDL-LR-5.chk
 --------------------------------------------------------------------
 #p CAM-B3LYP TZVP em=gd3bj td(nstates=6,root=1) scrf=(Solvent=Water)
 --------------------------------------------------------------------
 1/38=1,172=1/1;
 2/12=2,17=6,18=5,40=1/2;
 3/5=19,7=101,11=9,25=1,30=1,70=2201,72=1,74=-40,124=41/1,2,3,8;
 4//1;
 5/5=2,38=5,53=1/2;
 8/6=1,10=1,107=1,108=6/1;
 9/8=1,41=6,42=1,70=2/14;
 6/7=2,8=2,9=2,10=2/1;
 99/5=1,9=1/99;
 Leave Link    1 at Sat Jan 24 15:47:08 2026, MaxMem=  2147483648 cpu:               0.4 elap:               0.2
 (Enter /data/home/wyx/g16/l101.exe)
 -------------------
 Title Card Required
 -------------------
 Symbolic Z-matrix:
 Charge =  0 Multiplicity = 1
 O                     2.72096  -1.55942   0.84977 
 O                    -3.29489  -1.65947  -0.93032 
 N                    -0.68657   1.5162   -0.03201 
 H                    -0.99499   2.47654  -0.09867 
 C                    -1.25222  -0.76292  -0.17107 
 C                     0.64345   1.33006   0.21366 
 C                    -1.62689   0.57118  -0.28206 
 C                    -2.16333  -1.84837  -0.47559 
 C                     0.11731  -1.08398   0.3006 
 H                     0.06685  -1.50591   1.31943 
 H                     0.53608  -1.91714  -0.27122 
 C                     1.10358   0.02658   0.31918 
 C                     2.48149  -0.39504   0.50672 
 C                    -2.97312   1.10017  -0.63291 
 H                    -3.01493   2.17971  -0.50469 
 H                    -3.23028   0.87088  -1.66292 
 H                    -3.74474   0.64935  -0.01836 
 C                    -1.70263  -3.26475  -0.25153 
 H                    -2.56354  -3.92406  -0.2401 
 H                    -1.04902  -3.58383  -1.06229 
 H                    -1.14887  -3.39262   0.6733 
 C                     3.64921   0.52577   0.25218 
 H                     3.46651   1.2417   -0.54448 
 H                     3.90324   1.08053   1.1578 
 H                     4.50643  -0.09132  -0.00916 
 C                     1.41508   2.59868   0.36703 
 H                     2.1568    2.52334   1.15467 
 H                     1.93019   2.87752  -0.55231 
 H                     0.74884   3.4206    0.62533 
 
 ITRead=  0  0  0  0  0  0  0  0  0  0  0  0  0  0  0  0  0  0  0  0
 ITRead=  0  0  0  0  0  0  0  0  0
 MicOpt= -1 -1 -1 -1 -1 -1 -1 -1 -1 -1 -1 -1 -1 -1 -1 -1 -1 -1 -1 -1
 MicOpt= -1 -1 -1 -1 -1 -1 -1 -1 -1
 NAtoms=     29 NQM=       29 NQMF=       0 NMMI=      0 NMMIF=      0
                NMic=       0 NMicF=      0.
                    Isotopes and Nuclear Properties:
 (Nuclear quadrupole moments (NQMom) in fm**2, nuclear magnetic moments (NMagM)
  in nuclear magnetons)

  Atom         1           2           3           4           5           6           7           8           9          10
 IAtWgt=          16          16          14           1          12          12          12          12          12           1
 AtmWgt=  15.9949146  15.9949146  14.0030740   1.0078250  12.0000000  12.0000000  12.0000000  12.0000000  12.0000000   1.0078250
 NucSpn=           0           0           2           1           0           0           0           0           0           1
 AtZEff=  -0.0000000  -0.0000000  -0.0000000  -0.0000000  -0.0000000  -0.0000000  -0.0000000  -0.0000000  -0.0000000  -0.0000000
 NQMom=    0.0000000   0.0000000   2.0440000   0.0000000   0.0000000   0.0000000   0.0000000   0.0000000   0.0000000   0.0000000
 NMagM=    0.0000000   0.0000000   0.4037610   2.7928460   0.0000000   0.0000000   0.0000000   0.0000000   0.0000000   2.7928460
 AtZNuc=   8.0000000   8.0000000   7.0000000   1.0000000   6.0000000   6.0000000   6.0000000   6.0000000   6.0000000   1.0000000

  Atom        11          12          13          14          15          16          17          18          19          20
 IAtWgt=           1          12          12          12           1           1           1          12           1           1
 AtmWgt=   1.0078250  12.0000000  12.0000000  12.0000000   1.0078250   1.0078250   1.0078250  12.0000000   1.0078250   1.0078250
 NucSpn=           1           0           0           0           1           1           1           0           1           1
 AtZEff=  -0.0000000  -0.0000000  -0.0000000  -0.0000000  -0.0000000  -0.0000000  -0.0000000  -0.0000000  -0.0000000  -0.0000000
 NQMom=    0.0000000   0.0000000   0.0000000   0.0000000   0.0000000   0.0000000   0.0000000   0.0000000   0.0000000   0.0000000
 NMagM=    2.7928460   0.0000000   0.0000000   0.0000000   2.7928460   2.7928460   2.7928460   0.0000000   2.7928460   2.7928460
 AtZNuc=   1.0000000   6.0000000   6.0000000   6.0000000   1.0000000   1.0000000   1.0000000   6.0000000   1.0000000   1.0000000

  Atom        21          22          23          24          25          26          27          28          29
 IAtWgt=           1          12           1           1           1          12           1           1           1
 AtmWgt=   1.0078250  12.0000000   1.0078250   1.0078250   1.0078250  12.0000000   1.0078250   1.0078250   1.0078250
 NucSpn=           1           0           1           1           1           0           1           1           1
 AtZEff=  -0.0000000  -0.0000000  -0.0000000  -0.0000000  -0.0000000  -0.0000000  -0.0000000  -0.0000000  -0.0000000
 NQMom=    0.0000000   0.0000000   0.0000000   0.0000000   0.0000000   0.0000000   0.0000000   0.0000000   0.0000000
 NMagM=    2.7928460   0.0000000   2.7928460   2.7928460   2.7928460   0.0000000   2.7928460   2.7928460   2.7928460
 AtZNuc=   1.0000000   6.0000000   1.0000000   1.0000000   1.0000000   6.0000000   1.0000000   1.0000000   1.0000000
 Leave Link  101 at Sat Jan 24 15:47:08 2026, MaxMem=  2147483648 cpu:               0.8 elap:               0.1
 (Enter /data/home/wyx/g16/l202.exe)
                          Input orientation:                          
 ---------------------------------------------------------------------
 Center     Atomic      Atomic             Coordinates (Angstroms)
 Number     Number       Type             X           Y           Z
 ---------------------------------------------------------------------
      1          8           0        2.720956   -1.559423    0.849765
      2          8           0       -3.294889   -1.659465   -0.930321
      3          7           0       -0.686565    1.516200   -0.032006
      4          1           0       -0.994989    2.476539   -0.098671
      5          6           0       -1.252221   -0.762919   -0.171068
      6          6           0        0.643454    1.330057    0.213659
      7          6           0       -1.626893    0.571178   -0.282063
      8          6           0       -2.163329   -1.848374   -0.475593
      9          6           0        0.117312   -1.083983    0.300604
     10          1           0        0.066850   -1.505911    1.319428
     11          1           0        0.536084   -1.917138   -0.271218
     12          6           0        1.103584    0.026584    0.319178
     13          6           0        2.481485   -0.395040    0.506718
     14          6           0       -2.973124    1.100170   -0.632911
     15          1           0       -3.014930    2.179714   -0.504687
     16          1           0       -3.230283    0.870878   -1.662921
     17          1           0       -3.744737    0.649353   -0.018359
     18          6           0       -1.702628   -3.264746   -0.251527
     19          1           0       -2.563536   -3.924056   -0.240095
     20          1           0       -1.049015   -3.583830   -1.062288
     21          1           0       -1.148874   -3.392622    0.673304
     22          6           0        3.649213    0.525774    0.252183
     23          1           0        3.466512    1.241698   -0.544475
     24          1           0        3.903236    1.080532    1.157805
     25          1           0        4.506434   -0.091317   -0.009159
     26          6           0        1.415077    2.598683    0.367030
     27          1           0        2.156797    2.523341    1.154674
     28          1           0        1.930187    2.877522   -0.552311
     29          1           0        0.748835    3.420602    0.625326
 ---------------------------------------------------------------------
                    Distance matrix (angstroms):
                    1          2          3          4          5
     1  O    0.000000
     2  O    6.274481   0.000000
     3  N    4.674203   4.206563   0.000000
     4  H    5.567474   4.804967   1.010851   0.000000
     5  C    4.178834   2.356428   2.352379   3.250461   0.000000
     6  C    3.615210   5.075084   1.365266   2.023973   2.849938
     7  C    4.972352   2.859758   1.356397   2.015772   1.390149
     8  C    5.069152   1.234055   3.701075   4.495771   1.449505
     9  C    2.703069   3.672802   2.741861   3.751526   1.483636
    10  H    2.695872   4.047992   3.395168   4.358717   2.124515
    11  H    2.481578   3.895788   3.652383   4.656002   2.130795
    12  C    2.326550   4.873456   2.355190   3.252827   2.532484
    13  C    1.237261   6.085257   3.738931   4.549542   3.812517
    14  C    6.457113   2.794203   2.400525   2.468364   2.577966
    15  H    6.979690   3.872833   2.466772   2.081614   3.446380
    16  H    6.901971   2.635055   3.089794   3.165685   2.967768
    17  H    6.887490   2.522831   3.178683   3.302450   2.868879
    18  C    4.867141   2.360717   4.892649   5.786750   2.543320
    19  H    5.891107   2.477834   5.758707   6.591506   3.423025
    20  H    4.686881   2.960498   5.215665   6.136738   2.965317
    21  H    4.285714   3.190741   4.980735   5.921712   2.763871
    22  C    2.359409   7.375238   4.456532   5.049475   5.085659
    23  H    3.216526   7.367643   4.193569   4.650652   5.140463
    24  H    2.908958   7.980029   4.761484   5.245968   5.634088
    25  H    2.465972   8.010510   5.436163   6.071866   5.799946
    26  C    4.384997   6.480642   2.397477   2.457685   4.324858
    27  H    4.132821   7.180804   3.241489   3.392170   4.917164
    28  H    4.719917   6.930264   2.995214   2.987178   4.850348
    29  H    5.360996   6.676737   2.473703   2.111007   4.705350
                    6          7          8          9         10
     6  C    0.000000
     7  C    2.444609   0.000000
     8  C    4.295989   2.485850   0.000000
     9  C    2.472241   2.474128   2.527469   0.000000
    10  H    3.098050   3.122153   2.883241   1.103889   0.000000
    11  H    3.284952   3.297014   2.708012   1.093845   1.708638
    12  C    1.386325   2.848434   3.849656   1.485408   2.103297
    13  C    2.537755   4.293544   4.965019   2.471121   2.779387
    14  C    3.721447   1.488377   3.061769   3.897790   4.454742
    15  H    3.823835   2.136258   4.117228   4.594687   5.138929
    16  H    4.328768   2.137159   3.153168   4.345492   5.041291
    17  H    4.446730   2.135630   2.991413   4.245187   4.578540
    18  C    5.180030   3.836793   1.506174   2.893572   2.948297
    19  H    6.172227   4.591970   2.126989   3.942755   3.898521
    20  H    5.351521   4.266941   2.144228   3.076854   3.351936
    21  H    5.072219   4.105233   2.175726   2.659313   2.335624
    22  C    3.111743   5.303280   6.320750   3.881750   4.254419
    23  H    2.924420   5.144048   6.422492   4.164144   4.751967
    24  H    3.402918   5.737159   6.931788   4.444450   4.629651
    25  H    4.122204   6.175037   6.913071   4.510624   4.845217
    26  C    1.492761   3.712907   5.769863   3.905206   4.424078
    27  H    2.144678   4.493491   6.358707   4.231043   4.542014
    28  H    2.153379   4.247949   6.252748   4.439313   5.117608
    29  H    2.133296   3.819248   6.120035   4.560214   5.021694
                   11         12         13         14         15
    11  H    0.000000
    12  C    2.109189   0.000000
    13  C    2.589701   1.453117   0.000000
    14  C    4.642145   4.321876   5.769503   0.000000
    15  H    5.426638   4.719839   6.153282   1.087936   0.000000
    16  H    4.888291   4.839830   6.239726   1.086106   1.760947
    17  H    4.997624   4.899795   6.335006   1.084572   1.763842
    18  C    2.613095   4.362727   5.130005   4.562029   5.606101
    19  H    3.692741   5.419235   6.201929   5.056176   6.126155
    20  H    2.432323   4.424615   5.009450   5.081970   6.115078
    21  H    2.430691   4.109737   4.710919   5.021879   5.993393
    22  C    3.991659   2.594977   1.508733   6.705868   6.907906
    23  H    4.317444   2.793891   2.180412   6.441798   6.549088
    24  H    4.729254   3.106791   2.150024   7.105728   7.199521
    25  H    4.377896   3.420686   2.111586   7.599506   7.872360
    26  C    4.644634   2.591334   3.181056   4.743599   4.534356
    27  H    4.937381   2.835685   3.007028   5.615778   5.442271
    28  H    5.001130   3.093641   3.483552   5.216123   4.994335
    29  H    5.416689   3.426212   4.192287   4.562953   4.121002
                   16         17         18         19         20
    16  H    0.000000
    17  H    1.737331   0.000000
    18  C    4.629163   4.420944   0.000000
    19  H    5.045828   4.728686   1.084427   0.000000
    20  H    4.996310   5.126065   1.089201   1.756567   0.000000
    21  H    5.288444   4.853294   1.085499   1.765783   1.748946
    22  C    7.149419   7.399930   6.577535   7.657779   6.378873
    23  H    6.799669   7.254639   6.863954   7.946014   6.629015
    24  H    7.673822   7.749888   7.231415   8.295732   7.156108
    25  H    7.969789   8.284353   6.977238   8.045352   6.646032
    26  C    5.355873   5.529204   6.669520   7.664469   6.807214
    27  H    6.300008   6.302058   7.097501   8.111464   7.244977
    28  H    5.647170   6.120017   7.142498   8.157971   7.133358
    29  H    5.250766   5.318490   7.174428   8.103379   7.425791
                   21         22         23         24         25
    21  H    0.000000
    22  C    6.209091   0.000000
    23  H    6.652946   1.086550   0.000000
    24  H    6.765180   1.091987   1.764783   0.000000
    25  H    6.583835   1.088085   1.773395   1.760364   0.000000
    26  C    6.524062   3.049837   2.623096   3.020106   4.115107
    27  H    6.793953   2.651805   2.499014   2.265338   3.702936
    28  H    7.092070   3.022082   2.244165   3.169636   3.968132
    29  H    7.072738   4.114785   3.674483   3.963547   5.182248
                   26         27         28         29
    26  C    0.000000
    27  H    1.084531   0.000000
    28  H    1.090081   1.758009   0.000000
    29  H    1.089103   1.751469   1.754240   0.000000
 Stoichiometry    C11H15NO2
 Framework group  C1[X(C11H15NO2)]
 Deg. of freedom    81
 Full point group                 C1      NOp   1
 Largest Abelian subgroup         C1      NOp   1
 Largest concise Abelian subgroup C1      NOp   1
                         Standard orientation:                         
 ---------------------------------------------------------------------
 Center     Atomic      Atomic             Coordinates (Angstroms)
 Number     Number       Type             X           Y           Z
 ---------------------------------------------------------------------
      1          8           0       -2.288426   -2.285132   -0.256834
      2          8           0        3.623122   -0.257841    0.302457
      3          7           0       -0.022057    1.800307   -0.112120
      4          1           0       -0.049909    2.810722   -0.122374
      5          6           0        1.296209   -0.147077   -0.052453
      6          6           0       -1.231878    1.168100   -0.087613
      7          6           0        1.211160    1.240393   -0.038063
      8          6           0        2.559767   -0.844331    0.082916
      9          6           0        0.054694   -0.937512   -0.239614
     10          1           0        0.059943   -1.400371   -1.241765
     11          1           0        0.052955   -1.812868    0.416318
     12          6           0       -1.235123   -0.218201   -0.080242
     13          6           0       -2.399037   -1.083023    0.014302
     14          6           0        2.339015    2.209047    0.032072
     15          1           0        1.989403    3.228225   -0.118432
     16          1           0        2.840120    2.161152    0.994479
     17          1           0        3.093106    1.988754   -0.715667
     18          6           0        2.572758   -2.346644   -0.024069
     19          1           0        3.588772   -2.684974   -0.195041
     20          1           0        2.223443   -2.796139    0.904528
     21          1           0        1.937501   -2.723813   -0.819369
     22          6           0       -3.742944   -0.579811    0.480099
     23          1           0       -3.672396    0.218354    1.213956
     24          1           0       -4.328744   -0.214571   -0.365994
     25          1           0       -4.278778   -1.421095    0.914898
     26          6           0       -2.401246    2.095789   -0.105155
     27          1           0       -3.203090    1.717367   -0.729695
     28          1           0       -2.805222    2.263228    0.893367
     29          1           0       -2.110512    3.067280   -0.502425
 ---------------------------------------------------------------------
 Rotational constants (GHZ):           1.0753577           0.4901393           0.3437541
 Leave Link  202 at Sat Jan 24 15:47:09 2026, MaxMem=  2147483648 cpu:               0.0 elap:               0.0
 (Enter /data/home/wyx/g16/l301.exe)
 Standard basis: TZVP (5D, 7F)
 Ernie: Thresh=  0.10000D-02 Tol=  0.10000D-05 Strict=F.
 There are   370 symmetry adapted cartesian basis functions of A   symmetry.
 There are   356 symmetry adapted basis functions of A   symmetry.
   356 basis functions,   610 primitive gaussians,   370 cartesian basis functions
    52 alpha electrons       52 beta electrons
       nuclear repulsion energy       899.7021803292 Hartrees.
 IExCor=20419 DFT=T Ex+Corr=CAM-B3LYP ExCW=0 ScaHFX=  1.000000
 ScaDFX=  1.000000  1.000000  1.000000  0.810000 ScalE2=  1.000000  1.000000
 IRadAn=      5 IRanWt=     -1 IRanGd=            0 ICorTp=0 IEmpDi=141
 HFx  wShort=  0.000000 wLong=  0.330000 cFull=  0.190000 cShort=  0.000000 cLong=  0.460000
 DFx  wShort=  0.000000 wLong=  0.330000 cFull=  0.190000 cShort=  0.000000 cLong=  0.460000
 NAtoms=   29 NActive=   29 NUniq=   29 SFac= 1.00D+00 NAtFMM=   60 NAOKFM=F Big=F
 Integral buffers will be    131072 words long.
 Raffenetti 1 integral format.
 Two-electron integral symmetry is turned on.
 R6Disp:  Grimme-D3(BJ) Dispersion energy=       -0.0261494983 Hartrees.
 Nuclear repulsion after empirical dispersion term =      899.6760308309 Hartrees.
 ------------------------------------------------------------------------------
 Polarizable Continuum Model (PCM)
 =================================
 Model                : PCM.
 Atomic radii         : UFF (Universal Force Field).
 Polarization charges : Total charges.
 Charge compensation  : None.
 Solution method      : On-the-fly selection.
 Cavity type          : Scaled VdW (van der Waals Surface) (Alpha=1.100).
 Cavity algorithm     : GePol (No added spheres)
                        Default sphere list used, NSphG=   29.
                        Lebedev-Laikov grids with approx.  5.0 points / Ang**2.
                        Smoothing algorithm: York/Karplus (Gamma=1.0000).
                        Polarization charges: spherical gaussians, with
                                              point-specific exponents (IZeta= 3).
                        Self-potential: point-specific (ISelfS= 7).
                        Self-field    : sphere-specific E.n sum rule (ISelfD= 2).
 Solvent              : Water, Eps=  78.355300 Eps(inf)=   1.777849
 ------------------------------------------------------------------------------
 GePol: Number of generator spheres                  =      29
 GePol: Total number of spheres                      =      29
 GePol: Number of exposed spheres                    =      29 (100.00%)
 GePol: Number of points                             =    2118
 GePol: Average weight of points                     =       0.13
 GePol: Minimum weight of points                     =   0.39D-11
 GePol: Maximum weight of points                     =    0.20577
 GePol: Number of points with low weight             =     135
 GePol: Fraction of low-weight points (<1% of avg)   =       6.37%
 GePol: Cavity surface area                          =    269.079 Ang**2
 GePol: Cavity volume                                =    287.080 Ang**3
 Leave Link  301 at Sat Jan 24 15:47:09 2026, MaxMem=  2147483648 cpu:               0.6 elap:               0.0
 (Enter /data/home/wyx/g16/l302.exe)
 NPDir=0 NMtPBC=     1 NCelOv=     1 NCel=       1 NClECP=     1 NCelD=      1
         NCelK=      1 NCelE2=     1 NClLst=     1 CellRange=     0.0.
 One-electron integrals computed using PRISM.
 One-electron integral symmetry used in STVInt
 NBasis=   356 RedAO= T EigKep=  4.36D-05  NBF=   356
 NBsUse=   356 1.00D-06 EigRej= -1.00D+00 NBFU=   356
 Precomputing XC quadrature grid using
 IXCGrd= 4 IRadAn=           5 IRanWt=          -1 IRanGd=           0 AccXCQ= 0.00D+00.
 Generated NRdTot=       0 NPtTot=           0 NUsed=           0 NTot=          32
 NSgBfM=   366   366   366   366   366 MxSgAt=    29 MxSgA2=    29.
 Leave Link  302 at Sat Jan 24 15:47:09 2026, MaxMem=  2147483648 cpu:               3.1 elap:               0.2
 (Enter /data/home/wyx/g16/l303.exe)
 DipDrv:  MaxL=1.
 Leave Link  303 at Sat Jan 24 15:47:09 2026, MaxMem=  2147483648 cpu:               0.5 elap:               0.0
 (Enter /data/home/wyx/g16/l308.exe)
 Leave Link  308 at Sat Jan 24 15:47:09 2026, MaxMem=  2147483648 cpu:               0.7 elap:               0.1
 (Enter /data/home/wyx/g16/l401.exe)
 ExpMin= 9.52D-02 ExpMax= 2.70D+04 ExpMxC= 9.22D+02 IAcc=3 IRadAn=         5 AccDes= 0.00D+00
 Harris functional with IExCor=20419 and IRadAn=       5 diagonalized for initial guess.
 HarFok:  IExCor=20419 AccDes= 0.00D+00 IRadAn=         5 IDoV= 1 UseB2=F ITyADJ=14
 ICtDFT=  3500011 ScaDFX=  1.000000  1.000000  1.000000  1.000000
 FoFCou: FMM=F IPFlag=           0 FMFlag=      100000 FMFlg1=           0
         NFxFlg=           0 DoJE=T BraDBF=F KetDBF=T FulRan=T
         wScrn=  0.000000 ICntrl=       500 IOpCl=  0 I1Cent=   200000004 NGrid=           0
         NMat0=    1 NMatS0=      1 NMatT0=    0 NMatD0=    1 NMtDS0=    0 NMtDT0=    0
 Petite list used in FoFCou.
 Harris En= -608.710903608069    
 JPrj=0 DoOrth=F DoCkMO=F.
 Leave Link  401 at Sat Jan 24 15:47:10 2026, MaxMem=  2147483648 cpu:              11.8 elap:               0.8
 (Enter /data/home/wyx/g16/l502.exe)
 Integral symmetry usage will be decided dynamically.
 Closed shell SCF:
 Using DIIS extrapolation, IDIIS=  1040.
 NGot=  2147483648 LenX=  2147200095 LenY=  2147062754
 Requested convergence on RMS density matrix=1.00D-08 within 128 cycles.
 Requested convergence on MAX density matrix=1.00D-06.
 Requested convergence on             energy=1.00D-06.
 No special actions if energy rises.
 Fock matrices will be formed incrementally for  20 cycles.

 Cycle   1  Pass 1  IDiag  1:
 FoFJK:  IHMeth= 1 ICntrl=       0 DoSepK=T KAlg= 0 I1Cent=           0 FoldK=F
 IRaf=         1 NMat=       1 IRICut=       1 DoRegI=T DoRafI=F ISym2E= 0 IDoP0=0 IntGTp=1.
 FoFCou: FMM=F IPFlag=           0 FMFlag=      100000 FMFlg1=           0
         NFxFlg=           0 DoJE=T BraDBF=F KetDBF=F FulRan=T
         wScrn=  0.000000 ICntrl=       500 IOpCl=  0 I1Cent=           0 NGrid=           0
         NMat0=    1 NMatS0=      1 NMatT0=    0 NMatD0=    1 NMtDS0=    0 NMtDT0=    0
 Symmetry not used in FoFCou.
 Inv3:  Mode=1 IEnd=    13457772.
 Iteration    1 A*A^-1 deviation from unit magnitude is 2.89D-15 for    692.
 Iteration    1 A*A^-1 deviation from orthogonality  is 2.37D-15 for   1780    238.
 Iteration    1 A^-1*A deviation from unit magnitude is 2.89D-15 for   1151.
 Iteration    1 A^-1*A deviation from orthogonality  is 2.44D-15 for   2031   1568.
 E= -633.126235765509    
 DIIS: error= 4.18D-02 at cycle   1 NSaved=   1.
 NSaved= 1 IEnMin= 1 EnMin= -633.126235765509     IErMin= 1 ErrMin= 4.18D-02
 ErrMax= 4.18D-02  0.00D+00 EMaxC= 1.00D-01 BMatC= 1.10D+00 BMatP= 1.10D+00
 IDIUse=3 WtCom= 5.82D-01 WtEn= 4.18D-01
 Coeff-Com:  0.100D+01
 Coeff-En:   0.100D+01
 Coeff:      0.100D+01
 Gap=     0.207 Goal=   None    Shift=    0.000
 GapD=    0.207 DampG=1.000 DampE=0.500 DampFc=0.5000 IDamp=-1.
 Damping current iteration by 5.00D-01
 RMSDP=4.01D-03 MaxDP=1.90D-01              OVMax= 1.53D-01

 Cycle   2  Pass 1  IDiag  1:
 RMSU=  1.75D-03    CP:  9.30D-01
 E= -633.222497914834     Delta-E=       -0.096262149325 Rises=F Damp=T
 DIIS: error= 1.96D-02 at cycle   2 NSaved=   2.
 NSaved= 2 IEnMin= 2 EnMin= -633.222497914834     IErMin= 2 ErrMin= 1.96D-02
 ErrMax= 1.96D-02  0.00D+00 EMaxC= 1.00D-01 BMatC= 2.24D-01 BMatP= 1.10D+00
 IDIUse=3 WtCom= 8.04D-01 WtEn= 1.96D-01
 Coeff-Com: -0.583D+00 0.158D+01
 Coeff-En:   0.000D+00 0.100D+01
 Coeff:     -0.469D+00 0.147D+01
 Gap=     0.229 Goal=   None    Shift=    0.000
 RMSDP=1.51D-03 MaxDP=4.69D-02 DE=-9.63D-02 OVMax= 1.44D-01

 Cycle   3  Pass 1  IDiag  1:
 RMSU=  1.39D-03    CP:  9.04D-01  1.25D+00
 E= -633.270191659188     Delta-E=       -0.047693744354 Rises=F Damp=F
 DIIS: error= 1.48D-02 at cycle   3 NSaved=   3.
 NSaved= 3 IEnMin= 3 EnMin= -633.270191659188     IErMin= 3 ErrMin= 1.48D-02
 ErrMax= 1.48D-02  0.00D+00 EMaxC= 1.00D-01 BMatC= 6.68D-02 BMatP= 2.24D-01
 IDIUse=3 WtCom= 8.52D-01 WtEn= 1.48D-01
 Coeff-Com: -0.363D+00 0.796D+00 0.567D+00
 Coeff-En:   0.000D+00 0.000D+00 0.100D+01
 Coeff:     -0.309D+00 0.678D+00 0.631D+00
 Gap=     0.223 Goal=   None    Shift=    0.000
 RMSDP=1.38D-03 MaxDP=7.53D-02 DE=-4.77D-02 OVMax= 8.25D-02

 Cycle   4  Pass 1  IDiag  1:
 RMSU=  5.01D-04    CP:  8.55D-01  1.75D+00  5.25D-01
 E= -633.320192244907     Delta-E=       -0.050000585720 Rises=F Damp=F
 DIIS: error= 4.71D-03 at cycle   4 NSaved=   4.
 NSaved= 4 IEnMin= 4 EnMin= -633.320192244907     IErMin= 4 ErrMin= 4.71D-03
 ErrMax= 4.71D-03  0.00D+00 EMaxC= 1.00D-01 BMatC= 8.23D-03 BMatP= 6.68D-02
 IDIUse=3 WtCom= 9.53D-01 WtEn= 4.71D-02
 Coeff-Com: -0.163D+00 0.354D+00 0.368D+00 0.441D+00
 Coeff-En:   0.000D+00 0.000D+00 0.486D-01 0.951D+00
 Coeff:     -0.156D+00 0.338D+00 0.353D+00 0.465D+00
 Gap=     0.220 Goal=   None    Shift=    0.000
 RMSDP=3.68D-04 MaxDP=2.22D-02 DE=-5.00D-02 OVMax= 1.90D-02

 Cycle   5  Pass 1  IDiag  1:
 RMSU=  9.72D-05    CP:  8.67D-01  1.67D+00  6.76D-01  6.34D-01
 E= -633.326628225875     Delta-E=       -0.006435980968 Rises=F Damp=F
 DIIS: error= 4.60D-04 at cycle   5 NSaved=   5.
 NSaved= 5 IEnMin= 5 EnMin= -633.326628225875     IErMin= 5 ErrMin= 4.60D-04
 ErrMax= 4.60D-04  0.00D+00 EMaxC= 1.00D-01 BMatC= 7.43D-05 BMatP= 8.23D-03
 IDIUse=3 WtCom= 9.95D-01 WtEn= 4.60D-03
 Coeff-Com: -0.247D-01 0.528D-01 0.684D-01 0.144D+00 0.760D+00
 Coeff-En:   0.000D+00 0.000D+00 0.000D+00 0.000D+00 0.100D+01
 Coeff:     -0.246D-01 0.525D-01 0.681D-01 0.143D+00 0.761D+00
 Gap=     0.221 Goal=   None    Shift=    0.000
 RMSDP=1.29D-04 MaxDP=8.31D-03 DE=-6.44D-03 OVMax= 1.92D-03

 Cycle   6  Pass 1  IDiag  1:
 RMSU=  5.02D-05    CP:  8.62D-01  1.71D+00  6.79D-01  7.65D-01  1.12D+00
 E= -633.326673325943     Delta-E=       -0.000045100067 Rises=F Damp=F
 DIIS: error= 4.12D-04 at cycle   6 NSaved=   6.
 NSaved= 6 IEnMin= 6 EnMin= -633.326673325943     IErMin= 6 ErrMin= 4.12D-04
 ErrMax= 4.12D-04  0.00D+00 EMaxC= 1.00D-01 BMatC= 2.58D-05 BMatP= 7.43D-05
 IDIUse=3 WtCom= 9.96D-01 WtEn= 4.12D-03
 Coeff-Com:  0.169D-01-0.370D-01-0.301D-01-0.411D-02 0.452D+00 0.603D+00
 Coeff-En:   0.000D+00 0.000D+00 0.000D+00 0.000D+00 0.131D+00 0.869D+00
 Coeff:      0.169D-01-0.369D-01-0.300D-01-0.409D-02 0.450D+00 0.604D+00
 Gap=     0.221 Goal=   None    Shift=    0.000
 RMSDP=2.54D-05 MaxDP=1.17D-03 DE=-4.51D-05 OVMax= 2.75D-03

 Cycle   7  Pass 1  IDiag  1:
 RMSU=  1.68D-05    CP:  8.62D-01  1.71D+00  6.82D-01  7.58D-01  1.22D+00
                    CP:  7.54D-01
 E= -633.326696475469     Delta-E=       -0.000023149527 Rises=F Damp=F
 DIIS: error= 4.32D-05 at cycle   7 NSaved=   7.
 NSaved= 7 IEnMin= 7 EnMin= -633.326696475469     IErMin= 7 ErrMin= 4.32D-05
 ErrMax= 4.32D-05  0.00D+00 EMaxC= 1.00D-01 BMatC= 8.19D-07 BMatP= 2.58D-05
 IDIUse=1 WtCom= 1.00D+00 WtEn= 0.00D+00
 Coeff-Com:  0.333D-02-0.718D-02-0.678D-02-0.995D-02-0.566D-02 0.133D+00
 Coeff-Com:  0.893D+00
 Coeff:      0.333D-02-0.718D-02-0.678D-02-0.995D-02-0.566D-02 0.133D+00
 Coeff:      0.893D+00
 Gap=     0.221 Goal=   None    Shift=    0.000
 RMSDP=1.69D-05 MaxDP=7.55D-04 DE=-2.31D-05 OVMax= 6.42D-04

 Cycle   8  Pass 1  IDiag  1:
 RMSU=  4.78D-06    CP:  8.62D-01  1.71D+00  6.84D-01  7.74D-01  1.28D+00
                    CP:  8.88D-01  1.07D+00
 E= -633.326697768674     Delta-E=       -0.000001293205 Rises=F Damp=F
 DIIS: error= 2.58D-05 at cycle   8 NSaved=   8.
 NSaved= 8 IEnMin= 8 EnMin= -633.326697768674     IErMin= 8 ErrMin= 2.58D-05
 ErrMax= 2.58D-05  0.00D+00 EMaxC= 1.00D-01 BMatC= 1.10D-07 BMatP= 8.19D-07
 IDIUse=1 WtCom= 1.00D+00 WtEn= 0.00D+00
 Coeff-Com: -0.656D-03 0.149D-02 0.808D-03-0.444D-02-0.655D-01-0.148D-01
 Coeff-Com:  0.309D+00 0.774D+00
 Coeff:     -0.656D-03 0.149D-02 0.808D-03-0.444D-02-0.655D-01-0.148D-01
 Coeff:      0.309D+00 0.774D+00
 Gap=     0.221 Goal=   None    Shift=    0.000
 RMSDP=4.64D-06 MaxDP=2.30D-04 DE=-1.29D-06 OVMax= 3.95D-04

 Cycle   9  Pass 1  IDiag  1:
 RMSU=  1.35D-06    CP:  8.61D-01  1.71D+00  6.84D-01  7.78D-01  1.29D+00
                    CP:  9.21D-01  1.17D+00  1.24D+00
 E= -633.326697963121     Delta-E=       -0.000000194446 Rises=F Damp=F
 DIIS: error= 4.64D-06 at cycle   9 NSaved=   9.
 NSaved= 9 IEnMin= 9 EnMin= -633.326697963121     IErMin= 9 ErrMin= 4.64D-06
 ErrMax= 4.64D-06  0.00D+00 EMaxC= 1.00D-01 BMatC= 1.73D-08 BMatP= 1.10D-07
 IDIUse=1 WtCom= 1.00D+00 WtEn= 0.00D+00
 Coeff-Com: -0.860D-03 0.187D-02 0.165D-02 0.186D-03-0.230D-01-0.200D-01
 Coeff-Com: -0.405D-01 0.279D+00 0.802D+00
 Coeff:     -0.860D-03 0.187D-02 0.165D-02 0.186D-03-0.230D-01-0.200D-01
 Coeff:     -0.405D-01 0.279D+00 0.802D+00
 Gap=     0.221 Goal=   None    Shift=    0.000
 RMSDP=2.16D-06 MaxDP=1.14D-04 DE=-1.94D-07 OVMax= 1.23D-04

 Cycle  10  Pass 1  IDiag  1:
 RMSU=  8.33D-07    CP:  8.61D-01  1.71D+00  6.84D-01  7.80D-01  1.30D+00
                    CP:  9.42D-01  1.20D+00  1.37D+00  1.10D+00
 E= -633.326697989957     Delta-E=       -0.000000026836 Rises=F Damp=F
 DIIS: error= 2.05D-06 at cycle  10 NSaved=  10.
 NSaved=10 IEnMin=10 EnMin= -633.326697989957     IErMin=10 ErrMin= 2.05D-06
 ErrMax= 2.05D-06  0.00D+00 EMaxC= 1.00D-01 BMatC= 1.41D-09 BMatP= 1.73D-08
 IDIUse=1 WtCom= 1.00D+00 WtEn= 0.00D+00
 Coeff-Com: -0.226D-03 0.488D-03 0.474D-03 0.324D-03-0.302D-02-0.429D-02
 Coeff-Com: -0.418D-01 0.370D-01 0.267D+00 0.744D+00
 Coeff:     -0.226D-03 0.488D-03 0.474D-03 0.324D-03-0.302D-02-0.429D-02
 Coeff:     -0.418D-01 0.370D-01 0.267D+00 0.744D+00
 Gap=     0.221 Goal=   None    Shift=    0.000
 RMSDP=4.80D-07 MaxDP=2.62D-05 DE=-2.68D-08 OVMax= 3.16D-05

 Cycle  11  Pass 1  IDiag  1:
 RMSU=  2.84D-07    CP:  8.61D-01  1.71D+00  6.84D-01  7.80D-01  1.30D+00
                    CP:  9.44D-01  1.20D+00  1.41D+00  1.22D+00  8.53D-01
 E= -633.326697991629     Delta-E=       -0.000000001672 Rises=F Damp=F
 DIIS: error= 1.31D-06 at cycle  11 NSaved=  11.
 NSaved=11 IEnMin=11 EnMin= -633.326697991629     IErMin=11 ErrMin= 1.31D-06
 ErrMax= 1.31D-06  0.00D+00 EMaxC= 1.00D-01 BMatC= 4.85D-10 BMatP= 1.41D-09
 IDIUse=1 WtCom= 1.00D+00 WtEn= 0.00D+00
 Coeff-Com:  0.260D-04-0.595D-04-0.226D-04 0.142D-03 0.240D-02 0.154D-02
 Coeff-Com: -0.170D-01-0.277D-01-0.147D-02 0.423D+00 0.619D+00
 Coeff:      0.260D-04-0.595D-04-0.226D-04 0.142D-03 0.240D-02 0.154D-02
 Coeff:     -0.170D-01-0.277D-01-0.147D-02 0.423D+00 0.619D+00
 Gap=     0.221 Goal=   None    Shift=    0.000
 RMSDP=1.96D-07 MaxDP=1.01D-05 DE=-1.67D-09 OVMax= 1.13D-05

 Cycle  12  Pass 1  IDiag  1:
 RMSU=  8.61D-08    CP:  8.61D-01  1.71D+00  6.84D-01  7.80D-01  1.30D+00
                    CP:  9.45D-01  1.20D+00  1.42D+00  1.22D+00  9.75D-01
                    CP:  7.95D-01
 E= -633.326697992060     Delta-E=       -0.000000000431 Rises=F Damp=F
 DIIS: error= 2.47D-07 at cycle  12 NSaved=  12.
 NSaved=12 IEnMin=12 EnMin= -633.326697992060     IErMin=12 ErrMin= 2.47D-07
 ErrMax= 2.47D-07  0.00D+00 EMaxC= 1.00D-01 BMatC= 3.24D-11 BMatP= 4.85D-10
 IDIUse=1 WtCom= 1.00D+00 WtEn= 0.00D+00
 Coeff-Com:  0.252D-04-0.558D-04-0.380D-04 0.428D-04 0.127D-02 0.101D-02
 Coeff-Com: -0.437D-02-0.141D-01-0.263D-01 0.127D+00 0.278D+00 0.637D+00
 Coeff:      0.252D-04-0.558D-04-0.380D-04 0.428D-04 0.127D-02 0.101D-02
 Coeff:     -0.437D-02-0.141D-01-0.263D-01 0.127D+00 0.278D+00 0.637D+00
 Gap=     0.221 Goal=   None    Shift=    0.000
 RMSDP=4.42D-08 MaxDP=2.14D-06 DE=-4.31D-10 OVMax= 1.85D-06

 Cycle  13  Pass 1  IDiag  1:
 RMSU=  2.12D-08    CP:  8.61D-01  1.71D+00  6.84D-01  7.80D-01  1.30D+00
                    CP:  9.46D-01  1.20D+00  1.42D+00  1.24D+00  9.82D-01
                    CP:  8.82D-01  9.77D-01
 E= -633.326697992091     Delta-E=       -0.000000000031 Rises=F Damp=F
 DIIS: error= 6.06D-08 at cycle  13 NSaved=  13.
 NSaved=13 IEnMin=13 EnMin= -633.326697992091     IErMin=13 ErrMin= 6.06D-08
 ErrMax= 6.06D-08  0.00D+00 EMaxC= 1.00D-01 BMatC= 2.51D-12 BMatP= 3.24D-11
 IDIUse=1 WtCom= 1.00D+00 WtEn= 0.00D+00
 Coeff-Com:  0.549D-05-0.117D-04-0.114D-04-0.113D-04 0.553D-04 0.118D-03
 Coeff-Com:  0.110D-02 0.267D-03-0.105D-01-0.237D-01-0.383D-02 0.201D+00
 Coeff-Com:  0.835D+00
 Coeff:      0.549D-05-0.117D-04-0.114D-04-0.113D-04 0.553D-04 0.118D-03
 Coeff:      0.110D-02 0.267D-03-0.105D-01-0.237D-01-0.383D-02 0.201D+00
 Coeff:      0.835D+00
 Gap=     0.221 Goal=   None    Shift=    0.000
 RMSDP=1.63D-08 MaxDP=9.19D-07 DE=-3.13D-11 OVMax= 8.27D-07

 Cycle  14  Pass 1  IDiag  1:
 RMSU=  9.49D-09    CP:  8.61D-01  1.71D+00  6.84D-01  7.81D-01  1.30D+00
                    CP:  9.46D-01  1.20D+00  1.42D+00  1.24D+00  9.86D-01
                    CP:  9.11D-01  1.06D+00  1.01D+00
 E= -633.326697992097     Delta-E=       -0.000000000006 Rises=F Damp=F
 DIIS: error= 2.19D-08 at cycle  14 NSaved=  14.
 NSaved=14 IEnMin=14 EnMin= -633.326697992097     IErMin=14 ErrMin= 2.19D-08
 ErrMax= 2.19D-08  0.00D+00 EMaxC= 1.00D-01 BMatC= 2.06D-13 BMatP= 2.51D-12
 IDIUse=1 WtCom= 1.00D+00 WtEn= 0.00D+00
 Coeff-Com:  0.296D-06-0.489D-06-0.119D-05-0.605D-05-0.564D-04-0.842D-05
 Coeff-Com:  0.571D-03 0.115D-02-0.167D-02-0.143D-01-0.167D-01 0.122D-01
 Coeff-Com:  0.232D+00 0.787D+00
 Coeff:      0.296D-06-0.489D-06-0.119D-05-0.605D-05-0.564D-04-0.842D-05
 Coeff:      0.571D-03 0.115D-02-0.167D-02-0.143D-01-0.167D-01 0.122D-01
 Coeff:      0.232D+00 0.787D+00
 Gap=     0.221 Goal=   None    Shift=    0.000
 RMSDP=4.07D-09 MaxDP=1.54D-07 DE=-5.57D-12 OVMax= 3.27D-07

 Error on total polarization charges =  0.01553
 SCF Done:  E(RCAM-B3LYP) =  -633.326697992     A.U. after   14 cycles
            NFock= 14  Conv=0.41D-08     -V/T= 2.0042
 KE= 6.306748427033D+02 PE=-3.275332066030D+03 EE= 1.111654494504D+03
 Leave Link  502 at Sat Jan 24 15:48:05 2026, MaxMem=  2147483648 cpu:             873.6 elap:              55.1
 (Enter /data/home/wyx/g16/l801.exe)
 DoSCS=F DFT=T ScalE2(SS,OS)=  1.000000  1.000000
 ExpMin= 9.52D-02 ExpMax= 2.70D+04 ExpMxC= 9.22D+02 IAcc=3 IRadAn=         5 AccDes= 0.00D+00
 HarFok:  IExCor=  205 AccDes= 0.00D+00 IRadAn=         5 IDoV=-2 UseB2=F ITyADJ=14
 ICtDFT= 12500011 ScaDFX=  1.000000  1.000000  1.000000  1.000000
 Largest valence mixing into a core orbital is  5.60D-05
 Largest core mixing into a valence orbital is  1.16D-05
 Range of M.O.s used for correlation:    15   356
 NBasis=   356 NAE=    52 NBE=    52 NFC=    14 NFV=     0
 NROrb=    342 NOA=    38 NOB=    38 NVA=   304 NVB=   304

 **** Warning!!: The largest alpha MO coefficient is  0.61174619D+02

 Leave Link  801 at Sat Jan 24 15:48:06 2026, MaxMem=  2147483648 cpu:               1.0 elap:               0.1
 (Enter /data/home/wyx/g16/l914.exe)
 RHF ground state
 Two-electron integrals replicated using symmetry.
 MDV=  2147483648 DFT=T DoStab=F Mixed=T DoRPA=T DoScal=F NonHer=T
 NEqPCM:  Using non-equilibrium solvation (IEInf=1, Eps=  78.3553, EpsInf=   1.7778)
 Inv3:  Mode=1 IEnd=    13457772.
 Iteration    1 A*A^-1 deviation from unit magnitude is 3.44D-15 for    603.
 Iteration    1 A*A^-1 deviation from orthogonality  is 1.55D-15 for   2056   1885.
 Iteration    1 A^-1*A deviation from unit magnitude is 3.44D-15 for    603.
 Iteration    1 A^-1*A deviation from orthogonality  is 1.89D-15 for   1953    349.
 Making orbital integer symmetry assigments:
 Orbital symmetries:
       Occupied  (A) (A) (A) (A) (A) (A) (A) (A) (A) (A) (A) (A)
                 (A) (A) (A) (A) (A) (A) (A) (A) (A) (A) (A) (A)
                 (A) (A) (A) (A) (A) (A) (A) (A) (A) (A) (A) (A)
                 (A) (A) (A) (A) (A) (A) (A) (A) (A) (A) (A) (A)
                 (A) (A) (A) (A)
       Virtual   (A) (A) (A) (A) (A) (A) (A) (A) (A) (A) (A) (A)
                 (A) (A) (A) (A) (A) (A) (A) (A) (A) (A) (A) (A)
                 (A) (A) (A) (A) (A) (A) (A) (A) (A) (A) (A) (A)
                 (A) (A) (A) (A) (A) (A) (A) (A) (A) (A) (A) (A)
                 (A) (A) (A) (A) (A) (A) (A) (A) (A) (A) (A) (A)
                 (A) (A) (A) (A) (A) (A) (A) (A) (A) (A) (A) (A)
                 (A) (A) (A) (A) (A) (A) (A) (A) (A) (A) (A) (A)
                 (A) (A) (A) (A) (A) (A) (A) (A) (A) (A) (A) (A)
                 (A) (A) (A) (A) (A) (A) (A) (A) (A) (A) (A) (A)
                 (A) (A) (A) (A) (A) (A) (A) (A) (A) (A) (A) (A)
                 (A) (A) (A) (A) (A) (A) (A) (A) (A) (A) (A) (A)
                 (A) (A) (A) (A) (A) (A) (A) (A) (A) (A) (A) (A)
                 (A) (A) (A) (A) (A) (A) (A) (A) (A) (A) (A) (A)
                 (A) (A) (A) (A) (A) (A) (A) (A) (A) (A) (A) (A)
                 (A) (A) (A) (A) (A) (A) (A) (A) (A) (A) (A) (A)
                 (A) (A) (A) (A) (A) (A) (A) (A) (A) (A) (A) (A)
                 (A) (A) (A) (A) (A) (A) (A) (A) (A) (A) (A) (A)
                 (A) (A) (A) (A) (A) (A) (A) (A) (A) (A) (A) (A)
                 (A) (A) (A) (A) (A) (A) (A) (A) (A) (A) (A) (A)
                 (A) (A) (A) (A) (A) (A) (A) (A) (A) (A) (A) (A)
                 (A) (A) (A) (A) (A) (A) (A) (A) (A) (A) (A) (A)
                 (A) (A) (A) (A) (A) (A) (A) (A) (A) (A) (A) (A)
                 (A) (A) (A) (A) (A) (A) (A) (A) (A) (A) (A) (A)
                 (A) (A) (A) (A) (A) (A) (A) (A) (A) (A) (A) (A)
                 (A) (A) (A) (A) (A) (A) (A) (A) (A) (A) (A) (A)
                 (A) (A) (A) (A)
    24 initial guesses have been made.
 Convergence on wavefunction:    0.001000000000000
 Davidson Disk Diagonalization:  ConvIn= 1.00D-03 SkipCon=T Conv= 1.00D-03.
 Max sub-space:  2000 roots to seek:    24 dimension of matrix:        23104
 Iteration     1 Dimension    24 NMult     0 NNew     24
 CISAX will form    24 AO SS matrices at one time.
 NMat=    24 NSing=    24 JSym2X= 0.
 FoFJK:  IHMeth= 1 ICntrl=       0 DoSepK=T KAlg= 0 I1Cent=           0 FoldK=F
 IRaf=         1 NMat=      48 IRICut=       1 DoRegI=T DoRafI=F ISym2E= 0 IDoP0=3 IntGTp=3.
 New state      2 was old state      3
 New state      3 was old state      4
 New state      4 was old state      2
 New state      5 was old state      6
 New state      6 was old state      5
 Excitation Energies [eV] at current iteration:
 Root      1 :     3.561474017543337
 Root      2 :     4.219481276876471
 Root      3 :     4.432562278378813
 Root      4 :     5.336284803305401
 Root      5 :     5.984593543568480
 Root      6 :     6.232335774806906
 Root      7 :     6.619396616503592
 Root      8 :     6.758354844238613
 Root      9 :     6.923188311731709
 Root     10 :     6.981974231262976
 Root     11 :     7.140782604025885
 Root     12 :     7.289757888376364
 Root     13 :     7.380141785582122
 Root     14 :     7.409542925675806
 Root     15 :     7.728099325023628
 Root     16 :     7.864918570900608
 Root     17 :     8.050805920738657
 Root     18 :     8.147316773921347
 Root     19 :     8.219380096934865
 Root     20 :     8.323450361289085
 Root     21 :     8.476300076456035
 Root     22 :     8.630306547414534
 Root     23 :     8.807608359451324
 Root     24 :     8.946581840073314
 Iteration     2 Dimension    36 NMult    24 NNew     12
 CISAX will form    12 AO SS matrices at one time.
 NMat=    12 NSing=    12 JSym2X= 0.
 Root      1 not converged, maximum delta is    0.035988722592615
 Root      2 not converged, maximum delta is    0.075567723956043
 Root      3 not converged, maximum delta is    0.081363218006773
 Root      4 not converged, maximum delta is    0.232179775405207
 New state      5 was old state      6
 Root      5 not converged, maximum delta is    0.244919533101988
 New state      6 was old state      5
 Root      6 not converged, maximum delta is    0.107157048109950
 Excitation Energies [eV] at current iteration:
 Root      1 :     3.105859014617144   Change is   -0.455615002926194
 Root      2 :     4.003653208193253   Change is   -0.215828068683219
 Root      3 :     4.175801046276670   Change is   -0.256761232102143
 Root      4 :     4.997339849053889   Change is   -0.338944954251513
 Root      5 :     5.423401244242613   Change is   -0.808934530564292
 Root      6 :     5.879670555853236   Change is   -0.104922987715245
 Iteration     3 Dimension    48 NMult    36 NNew     12
 CISAX will form    12 AO SS matrices at one time.
 NMat=    12 NSing=    12 JSym2X= 0.
 Root      1 not converged, maximum delta is    0.006985968505690
 Root      2 not converged, maximum delta is    0.014411665756857
 Root      3 not converged, maximum delta is    0.011798659731650
 Root      4 not converged, maximum delta is    0.018915399438097
 Root      5 not converged, maximum delta is    0.022013575330461
 Root      6 not converged, maximum delta is    0.007577361955444
 Excitation Energies [eV] at current iteration:
 Root      1 :     3.088367802109132   Change is   -0.017491212508012
 Root      2 :     3.991196773016260   Change is   -0.012456435176993
 Root      3 :     4.162242095910648   Change is   -0.013558950366022
 Root      4 :     4.977133168910953   Change is   -0.020206680142935
 Root      5 :     5.395773694990679   Change is   -0.027627549251934
 Root      6 :     5.874671506585678   Change is   -0.004999049267558
 Iteration     4 Dimension    60 NMult    48 NNew     12
 CISAX will form    12 AO SS matrices at one time.
 NMat=    12 NSing=    12 JSym2X= 0.
 Root      1 not converged, maximum delta is    0.002088466435280
 Root      2 not converged, maximum delta is    0.001908527210739
 Root      3 not converged, maximum delta is    0.002131198033562
 Root      4 not converged, maximum delta is    0.002653541550844
 Root      5 not converged, maximum delta is    0.003538562681328
 Root      6 not converged, maximum delta is    0.002173774355446
 Excitation Energies [eV] at current iteration:
 Root      1 :     3.087052427236762   Change is   -0.001315374872370
 Root      2 :     3.990529117138923   Change is   -0.000667655877337
 Root      3 :     4.161293055230198   Change is   -0.000949040680451
 Root      4 :     4.975372473449719   Change is   -0.001760695461234
 Root      5 :     5.393101946926922   Change is   -0.002671748063757
 Root      6 :     5.874345221162703   Change is   -0.000326285422976
 Iteration     5 Dimension    72 NMult    60 NNew     12
 CISAX will form    12 AO SS matrices at one time.
 NMat=    12 NSing=    12 JSym2X= 0.
 Root      1 has converged.
 Root      2 has converged.
 Root      3 has converged.
 Root      4 has converged.
 Root      5 not converged, maximum delta is    0.001237702245994
 Root      6 has converged.
 Excitation Energies [eV] at current iteration:
 Root      1 :     3.086986880740389   Change is   -0.000065546496374
 Root      2 :     3.990481156143174   Change is   -0.000047960995748
 Root      3 :     4.161248359155865   Change is   -0.000044696074333
 Root      4 :     4.975245813911974   Change is   -0.000126659537744
 Root      5 :     5.392890672672766   Change is   -0.000211274254156
 Root      6 :     5.874317537765876   Change is   -0.000027683396827
 Iteration     6 Dimension    74 NMult    72 NNew      2
 CISAX will form     2 AO SS matrices at one time.
 NMat=     2 NSing=     2 JSym2X= 0.
 Root      1 has converged.
 Root      2 has converged.
 Root      3 has converged.
 Root      4 has converged.
 Root      5 has converged.
 Root      6 has converged.
 Excitation Energies [eV] at current iteration:
 Root      1 :     3.086986834755593   Change is   -0.000000045984796
 Root      2 :     3.990481133713117   Change is   -0.000000022430057
 Root      3 :     4.161248306562197   Change is   -0.000000052593668
 Root      4 :     4.975243119339932   Change is   -0.000002694572043
 Root      5 :     5.392869964673402   Change is   -0.000020707999365
 Root      6 :     5.874317240817136   Change is   -0.000000296948739
 Convergence achieved on expansion vectors.
 ***********************************************************************
 Excited states from <AA,BB:AA,BB> singles matrix:
 ***********************************************************************
 
 1PDM for each excited state written to RWF  633
 Ground to excited state transition densities written to RWF  633
 Ground to excited state transition electric dipole moments (Au):
       state          X           Y           Z        Dip. S.      Osc.
         1        -1.4946     -0.1401     -0.0406      2.2550      0.1705
         2         0.0402     -0.0281      0.0358      0.0037      0.0004
         3        -0.0554     -0.0940      0.0256      0.0126      0.0013
         4        -0.1422      1.2482     -0.0683      1.5830      0.1929
         5         0.0891     -1.5347      0.0287      2.3641      0.3123
         6         0.0237     -0.2260     -0.0657      0.0560      0.0081
 Ground to excited state transition velocity dipole moments (Au):
       state          X           Y           Z        Dip. S.      Osc.
         1         0.1629      0.0119      0.0050      0.0267      0.1568
         2        -0.0056      0.0045     -0.0020      0.0001      0.0003
         3         0.0079      0.0123     -0.0005      0.0002      0.0009
         4         0.0304     -0.2161      0.0090      0.0477      0.1739
         5        -0.0188      0.2969     -0.0062      0.0886      0.2979
         6        -0.0064      0.0460      0.0340      0.0033      0.0102
 Ground to excited state transition magnetic dipole moments (Au):
       state          X           Y           Z
         1         0.0365      0.0564     -1.4679
         2         0.7841      0.1190      0.1640
         3        -0.1815     -0.9665     -0.2159
         4        -0.0165     -0.0504      0.0148
         5         0.1385      0.1061     -0.2464
         6        -0.1002     -0.0163      0.0383
 Ground to excited state transition velocity quadrupole moments (Au):
       state          XX          YY          ZZ          XY          XZ          YZ
         1         0.1405     -0.0759     -0.0047     -0.4704      0.0384     -0.0163
         2         0.0200     -0.0085     -0.0059      0.0231     -0.0087      0.0727
         3         0.0214     -0.0026     -0.0196     -0.0591      0.0581     -0.0076
         4         1.1422     -0.2028     -0.0079      0.0334      0.0606      0.0240
         5        -0.6753      0.3041      0.0400     -0.1848     -0.0651      0.0111
         6         0.1122      0.1664     -0.1458      0.0173      0.0290     -0.1425
 <0|del|b> * <b|rxdel|0> + <0|del|b> * <b|delr+rdel|0>
 Rotatory Strengths (R) in cgs (10**-40 erg-esu-cm/Gauss)
       state          XX          YY          ZZ    R(velocity)    E-M Angle
         1       -29.6834     -5.3363     30.3054     -1.5714       90.18
         2         0.4853    -12.2107     -8.3968     -6.7074      134.01
         3       -28.8258     -3.2641    -29.0285    -20.3728      153.75
         4        47.2149      0.1202     -6.6776     13.5525       29.01
         5        95.4429     -4.3490     17.4133     36.1691       70.22
         6        -0.3150      3.6977      0.5139      1.2988       79.02
 1/2[<0|r|b>*<b|rxdel|0> + (<0|rxdel|b>*<b|r|0>)*]
 Rotatory Strengths (R) in cgs (10**-40 erg-esu-cm/Gauss)
       state          XX          YY          ZZ     R(length)
         1        38.5968      5.5880    -42.1425      0.6808
         2       -22.3094      2.3654     -4.1492     -8.0310
         3        -7.1076    -64.2335      3.9107    -22.4768
         4        -1.6619     44.4507      0.7173     14.5020
         5        -8.7296    115.1236      5.0036     37.1326
         6         1.6819     -2.6109      1.7806      0.2839
  1/2[<0|del|b>*<b|r|0> + (<0|r|b>*<b|del|0>)*] (Au)
       state          X           Y           Z        Dip. S.   Osc.(frdel)
         1        -0.2434     -0.0017     -0.0002      0.2453      0.1635
         2        -0.0002     -0.0001     -0.0001      0.0004      0.0003
         3        -0.0004     -0.0012     -0.0000      0.0016      0.0011
         4        -0.0043     -0.2697     -0.0006      0.2747      0.1831
         5        -0.0017     -0.4557     -0.0002      0.4576      0.3050
         6        -0.0002     -0.0104     -0.0022      0.0128      0.0085

 Excitation energies and oscillator strengths:
 
 Excited State   1:      Singlet-A      3.0870 eV  401.63 nm  f=0.1705  <S**2>=0.000
      52 -> 53         0.70151
 This state for optimization and/or second-order correction.
 Total Energy, E(TD-HF/TD-DFT) =  -633.213253313    
 Copying the excited state density for this state as the 1-particle RhoCI density.
 
 Excited State   2:      Singlet-A      3.9905 eV  310.70 nm  f=0.0004  <S**2>=0.000
      50 -> 54        -0.17415
      51 -> 53         0.58321
      51 -> 54         0.30746
 
 Excited State   3:      Singlet-A      4.1612 eV  297.95 nm  f=0.0013  <S**2>=0.000
      49 -> 53        -0.34125
      49 -> 54         0.19417
      50 -> 53         0.47937
      50 -> 54        -0.21139
      50 -> 58         0.10025
      51 -> 54        -0.20295
 
 Excited State   4:      Singlet-A      4.9752 eV  249.20 nm  f=0.1929  <S**2>=0.000
      52 -> 54         0.69889
 
 Excited State   5:      Singlet-A      5.3929 eV  229.90 nm  f=0.3123  <S**2>=0.000
      49 -> 53         0.55632
      50 -> 53         0.39118
      51 -> 53         0.12657
 
 Excited State   6:      Singlet-A      5.8743 eV  211.06 nm  f=0.0081  <S**2>=0.000
      52 -> 55         0.66192
      52 -> 56         0.15496
 SavETr:  write IOETrn=   770 NScale= 10 NData=  16 NLR=1 NState=    6 LETran=     118.
 Leave Link  914 at Sat Jan 24 15:50:16 2026, MaxMem=  2147483648 cpu:            2071.2 elap:             130.2
 (Enter /data/home/wyx/g16/l601.exe)
 Copying SCF densities to generalized density rwf, IOpCl= 0 IROHF=0.

 **********************************************************************

            Population analysis using the SCF density.

 **********************************************************************

 Orbital symmetries:
       Occupied  (A) (A) (A) (A) (A) (A) (A) (A) (A) (A) (A) (A)
                 (A) (A) (A) (A) (A) (A) (A) (A) (A) (A) (A) (A)
                 (A) (A) (A) (A) (A) (A) (A) (A) (A) (A) (A) (A)
                 (A) (A) (A) (A) (A) (A) (A) (A) (A) (A) (A) (A)
                 (A) (A) (A) (A)
       Virtual   (A) (A) (A) (A) (A) (A) (A) (A) (A) (A) (A) (A)
                 (A) (A) (A) (A) (A) (A) (A) (A) (A) (A) (A) (A)
                 (A) (A) (A) (A) (A) (A) (A) (A) (A) (A) (A) (A)
                 (A) (A) (A) (A) (A) (A) (A) (A) (A) (A) (A) (A)
                 (A) (A) (A) (A) (A) (A) (A) (A) (A) (A) (A) (A)
                 (A) (A) (A) (A) (A) (A) (A) (A) (A) (A) (A) (A)
                 (A) (A) (A) (A) (A) (A) (A) (A) (A) (A) (A) (A)
                 (A) (A) (A) (A) (A) (A) (A) (A) (A) (A) (A) (A)
                 (A) (A) (A) (A) (A) (A) (A) (A) (A) (A) (A) (A)
                 (A) (A) (A) (A) (A) (A) (A) (A) (A) (A) (A) (A)
                 (A) (A) (A) (A) (A) (A) (A) (A) (A) (A) (A) (A)
                 (A) (A) (A) (A) (A) (A) (A) (A) (A) (A) (A) (A)
                 (A) (A) (A) (A) (A) (A) (A) (A) (A) (A) (A) (A)
                 (A) (A) (A) (A) (A) (A) (A) (A) (A) (A) (A) (A)
                 (A) (A) (A) (A) (A) (A) (A) (A) (A) (A) (A) (A)
                 (A) (A) (A) (A) (A) (A) (A) (A) (A) (A) (A) (A)
                 (A) (A) (A) (A) (A) (A) (A) (A) (A) (A) (A) (A)
                 (A) (A) (A) (A) (A) (A) (A) (A) (A) (A) (A) (A)
                 (A) (A) (A) (A) (A) (A) (A) (A) (A) (A) (A) (A)
                 (A) (A) (A) (A) (A) (A) (A) (A) (A) (A) (A) (A)
                 (A) (A) (A) (A) (A) (A) (A) (A) (A) (A) (A) (A)
                 (A) (A) (A) (A) (A) (A) (A) (A) (A) (A) (A) (A)
                 (A) (A) (A) (A) (A) (A) (A) (A) (A) (A) (A) (A)
                 (A) (A) (A) (A) (A) (A) (A) (A) (A) (A) (A) (A)
                 (A) (A) (A) (A) (A) (A) (A) (A) (A) (A) (A) (A)
                 (A) (A) (A) (A)
 The electronic state is 1-A.
 Alpha  occ. eigenvalues --  -19.17918 -19.17185 -14.44600 -10.33439 -10.32999
 Alpha  occ. eigenvalues --  -10.32669 -10.32164 -10.25796 -10.25277 -10.24908
 Alpha  occ. eigenvalues --  -10.24715 -10.24597 -10.24136 -10.23731  -1.11541
 Alpha  occ. eigenvalues --   -1.11114  -1.08324  -0.91377  -0.90542  -0.83992
 Alpha  occ. eigenvalues --   -0.82620  -0.81639  -0.78579  -0.73853  -0.71996
 Alpha  occ. eigenvalues --   -0.68758  -0.61662  -0.58286  -0.57019  -0.55167
 Alpha  occ. eigenvalues --   -0.54571  -0.54057  -0.52561  -0.51806  -0.50855
 Alpha  occ. eigenvalues --   -0.49863  -0.49544  -0.49286  -0.48504  -0.48096
 Alpha  occ. eigenvalues --   -0.47090  -0.45341  -0.45158  -0.43822  -0.43220
 Alpha  occ. eigenvalues --   -0.42303  -0.42191  -0.41718  -0.32701  -0.32296
 Alpha  occ. eigenvalues --   -0.31378  -0.25355
 Alpha virt. eigenvalues --   -0.03205   0.02467   0.06491   0.08206   0.08697
 Alpha virt. eigenvalues --    0.09894   0.10751   0.11670   0.12635   0.13522
 Alpha virt. eigenvalues --    0.13931   0.15111   0.15698   0.16314   0.16970
 Alpha virt. eigenvalues --    0.17448   0.17942   0.18164   0.18331   0.19207
 Alpha virt. eigenvalues --    0.20058   0.22023   0.22947   0.23477   0.23820
 Alpha virt. eigenvalues --    0.24216   0.24729   0.25743   0.26257   0.26696
 Alpha virt. eigenvalues --    0.27242   0.28004   0.28762   0.29200   0.30187
 Alpha virt. eigenvalues --    0.31725   0.31971   0.32395   0.33524   0.34428
 Alpha virt. eigenvalues --    0.34957   0.35890   0.36630   0.37876   0.38459
 Alpha virt. eigenvalues --    0.39634   0.41003   0.41458   0.41963   0.42558
 Alpha virt. eigenvalues --    0.44120   0.44717   0.45474   0.46214   0.46377
 Alpha virt. eigenvalues --    0.47337   0.47823   0.47941   0.48411   0.49248
 Alpha virt. eigenvalues --    0.49662   0.50548   0.51019   0.51463   0.51585
 Alpha virt. eigenvalues --    0.52663   0.52843   0.53466   0.53639   0.54295
 Alpha virt. eigenvalues --    0.54486   0.55498   0.55986   0.56672   0.58403
 Alpha virt. eigenvalues --    0.58542   0.59832   0.60887   0.61440   0.62959
 Alpha virt. eigenvalues --    0.63968   0.65325   0.66420   0.66571   0.67632
 Alpha virt. eigenvalues --    0.68474   0.69548   0.71137   0.71529   0.72249
 Alpha virt. eigenvalues --    0.73216   0.74301   0.74955   0.75903   0.77556
 Alpha virt. eigenvalues --    0.78881   0.80195   0.82790   0.86148   0.87218
 Alpha virt. eigenvalues --    0.90509   0.94879   1.01504   1.03179   1.22612
 Alpha virt. eigenvalues --    1.24862   1.27320   1.28243   1.29404   1.30688
 Alpha virt. eigenvalues --    1.32153   1.33007   1.34295   1.35027   1.36352
 Alpha virt. eigenvalues --    1.36612   1.37629   1.38539   1.39115   1.39858
 Alpha virt. eigenvalues --    1.39957   1.40413   1.40941   1.41380   1.41935
 Alpha virt. eigenvalues --    1.43452   1.43731   1.44263   1.45275   1.47375
 Alpha virt. eigenvalues --    1.48062   1.49592   1.50153   1.50352   1.50563
 Alpha virt. eigenvalues --    1.51292   1.52366   1.52708   1.55031   1.58167
 Alpha virt. eigenvalues --    1.58955   1.60322   1.60824   1.61430   1.62665
 Alpha virt. eigenvalues --    1.62750   1.63038   1.64233   1.64595   1.65830
 Alpha virt. eigenvalues --    1.66692   1.67120   1.67716   1.68099   1.68553
 Alpha virt. eigenvalues --    1.69161   1.70024   1.70119   1.71325   1.72398
 Alpha virt. eigenvalues --    1.74156   1.74879   1.75848   1.76641   1.78484
 Alpha virt. eigenvalues --    1.81239   1.83123   1.84247   1.86139   1.86679
 Alpha virt. eigenvalues --    1.86747   1.87903   1.88546   1.89217   1.90328
 Alpha virt. eigenvalues --    1.91429   1.94664   1.95329   1.99079   1.99728
 Alpha virt. eigenvalues --    2.01592   2.03892   2.05530   2.06985   2.09610
 Alpha virt. eigenvalues --    2.10630   2.12042   2.15667   2.17551   2.19872
 Alpha virt. eigenvalues --    2.20416   2.21461   2.22097   2.23129   2.26251
 Alpha virt. eigenvalues --    2.27226   2.27713   2.29414   2.31343   2.32328
 Alpha virt. eigenvalues --    2.33871   2.34373   2.36885   2.38046   2.38839
 Alpha virt. eigenvalues --    2.39658   2.40242   2.41424   2.42991   2.45132
 Alpha virt. eigenvalues --    2.46022   2.47866   2.49584   2.50023   2.51292
 Alpha virt. eigenvalues --    2.52480   2.54120   2.54872   2.56612   2.57766
 Alpha virt. eigenvalues --    2.58929   2.60796   2.61773   2.62605   2.63483
 Alpha virt. eigenvalues --    2.64711   2.65911   2.66601   2.67646   2.68474
 Alpha virt. eigenvalues --    2.72010   2.72085   2.73680   2.74683   2.75125
 Alpha virt. eigenvalues --    2.76265   2.77016   2.77358   2.78090   2.78968
 Alpha virt. eigenvalues --    2.80590   2.81946   2.82980   2.83924   2.84655
 Alpha virt. eigenvalues --    2.85419   2.86649   2.88808   2.89154   2.91804
 Alpha virt. eigenvalues --    2.97289   2.98782   3.00939   3.06699   3.10855
 Alpha virt. eigenvalues --    3.12525   3.14725   3.17875   3.18868   3.21552
 Alpha virt. eigenvalues --    3.21743   3.23599   3.24459   3.25551   3.26398
 Alpha virt. eigenvalues --    3.28166   3.29971   3.32794   3.34348   3.36762
 Alpha virt. eigenvalues --    3.37852   3.39062   3.39516   3.40111   3.41926
 Alpha virt. eigenvalues --    3.42250   3.44530   3.45343   3.47510   3.48430
 Alpha virt. eigenvalues --    3.49536   3.50135   3.55586   3.58395   3.59803
 Alpha virt. eigenvalues --    3.60980   3.90977   4.00801   4.32951   4.35837
 Alpha virt. eigenvalues --   21.67161  21.80509  22.08141  22.10696  22.11732
 Alpha virt. eigenvalues --   22.15093  22.15225  22.18515  22.19545  22.24748
 Alpha virt. eigenvalues --   22.27962  31.91802  43.63712  43.66435
          Condensed to atoms (all electrons):
               1          2          3          4          5          6
     1  O    7.953756   0.000000  -0.000200   0.000019   0.019681   0.009040
     2  O    0.000000   7.992186   0.000334   0.000010  -0.200908   0.001305
     3  N   -0.000200   0.000334   6.360479   0.369142  -0.117671   0.333282
     4  H    0.000019   0.000010   0.369142   0.402801   0.016202  -0.044547
     5  C    0.019681  -0.200908  -0.117671   0.016202   7.152689  -0.079663
     6  C    0.009040   0.001305   0.333282  -0.044547  -0.079663   5.544701
     7  C   -0.000123  -0.045262   0.395629  -0.035973   0.458751  -0.123719
     8  C   -0.000657   0.710134   0.003995  -0.000850  -0.359563   0.033762
     9  C   -0.009677   0.025074   0.012339  -0.000010  -0.667996  -0.050181
    10  H    0.007510   0.000123   0.003710   0.000035  -0.049604  -0.020543
    11  H    0.010703   0.000023  -0.001327   0.000020  -0.115649   0.027748
    12  C   -0.232120  -0.002961  -0.088912   0.014558   0.184049  -0.065147
    13  C    0.713887  -0.000022   0.001333   0.000519   0.083713   0.123716
    14  C   -0.000008  -0.009668  -0.032806  -0.010256  -0.082469   0.010636
    15  H   -0.000000   0.004082   0.005482   0.001870   0.019169   0.006218
    16  H   -0.000000   0.003368  -0.002590   0.000909  -0.007489  -0.001410
    17  H    0.000000   0.002781  -0.000011   0.000791  -0.005112  -0.001208
    18  C    0.000223  -0.102826  -0.000508   0.000018  -0.256075   0.000095
    19  H   -0.000002   0.008034   0.000006  -0.000001   0.026248   0.000015
    20  H   -0.000004   0.000784   0.000012  -0.000001   0.001924   0.000204
    21  H    0.000127   0.004241   0.000119   0.000001   0.044732  -0.001234
    22  C   -0.105256   0.000000  -0.000083   0.000110   0.003961  -0.025609
    23  H    0.005145  -0.000000   0.000133  -0.000056  -0.000762  -0.026154
    24  H    0.001403   0.000000   0.000005  -0.000011  -0.000024   0.009234
    25  H    0.006336   0.000000   0.000025  -0.000002  -0.000147  -0.000871
    26  C    0.000807   0.000009  -0.026015  -0.006518   0.000402   0.194042
    27  H   -0.000241  -0.000000   0.001469   0.000759   0.000092  -0.048423
    28  H   -0.000055  -0.000000  -0.002446   0.000489   0.000366  -0.031594
    29  H    0.000023   0.000000   0.001894   0.001696  -0.000355  -0.047789
               7          8          9         10         11         12
     1  O   -0.000123  -0.000657  -0.009677   0.007510   0.010703  -0.232120
     2  O   -0.045262   0.710134   0.025074   0.000123   0.000023  -0.002961
     3  N    0.395629   0.003995   0.012339   0.003710  -0.001327  -0.088912
     4  H   -0.035973  -0.000850  -0.000010   0.000035   0.000020   0.014558
     5  C    0.458751  -0.359563  -0.667996  -0.049604  -0.115649   0.184049
     6  C   -0.123719   0.033762  -0.050181  -0.020543   0.027748  -0.065147
     7  C    5.395218  -0.230807  -0.213375  -0.006038   0.016444   0.023223
     8  C   -0.230807   5.429054   0.187616  -0.002951  -0.008793  -0.048255
     9  C   -0.213375   0.187616   6.412731   0.413543   0.536353  -0.113629
    10  H   -0.006038  -0.002951   0.413543   0.580180  -0.048969  -0.017414
    11  H    0.016444  -0.008793   0.536353  -0.048969   0.533753  -0.111319
    12  C    0.023223  -0.048255  -0.113629  -0.017414  -0.111319   7.321418
    13  C    0.018752  -0.009367  -0.254100  -0.004284   0.000260  -0.467100
    14  C    0.284843  -0.035638   0.005692  -0.000981   0.000520  -0.000390
    15  H   -0.081257   0.005381   0.000585   0.000052  -0.000005  -0.001468
    16  H   -0.019920  -0.000709   0.000878  -0.000064   0.000059   0.000371
    17  H   -0.027861  -0.007266  -0.000298   0.000193  -0.000059   0.000166
    18  C   -0.000422   0.330673  -0.002051  -0.012685   0.007678  -0.000901
    19  H    0.000403  -0.054913  -0.001871   0.000091   0.000562  -0.000177
    20  H   -0.000148  -0.024437  -0.009590   0.000764  -0.000852  -0.002697
    21  H    0.003255  -0.070132  -0.007684   0.002913  -0.007198   0.007086
    22  C    0.000261  -0.000081   0.009750   0.002947  -0.000851  -0.242559
    23  H    0.000008   0.000004   0.003164  -0.000205   0.000048   0.063421
    24  H   -0.000004   0.000002  -0.002193   0.000172  -0.000122  -0.012625
    25  H    0.000005   0.000003   0.000189  -0.000092  -0.000052   0.021821
    26  C    0.002601   0.000789   0.022320  -0.000737   0.000106  -0.085371
    27  H   -0.000783   0.000003  -0.000283  -0.000092   0.000009  -0.007258
    28  H   -0.000840  -0.000014  -0.000475  -0.000014   0.000045  -0.017768
    29  H    0.003166  -0.000005  -0.000514   0.000087  -0.000013   0.022674
              13         14         15         16         17         18
     1  O    0.713887  -0.000008  -0.000000  -0.000000   0.000000   0.000223
     2  O   -0.000022  -0.009668   0.004082   0.003368   0.002781  -0.102826
     3  N    0.001333  -0.032806   0.005482  -0.002590  -0.000011  -0.000508
     4  H    0.000519  -0.010256   0.001870   0.000909   0.000791   0.000018
     5  C    0.083713  -0.082469   0.019169  -0.007489  -0.005112  -0.256075
     6  C    0.123716   0.010636   0.006218  -0.001410  -0.001208   0.000095
     7  C    0.018752   0.284843  -0.081257  -0.019920  -0.027861  -0.000422
     8  C   -0.009367  -0.035638   0.005381  -0.000709  -0.007266   0.330673
     9  C   -0.254100   0.005692   0.000585   0.000878  -0.000298  -0.002051
    10  H   -0.004284  -0.000981   0.000052  -0.000064   0.000193  -0.012685
    11  H    0.000260   0.000520  -0.000005   0.000059  -0.000059   0.007678
    12  C   -0.467100  -0.000390  -0.001468   0.000371   0.000166  -0.000901
    13  C    5.554168   0.000109  -0.000038  -0.000011  -0.000004   0.001156
    14  C    0.000109   5.043052   0.391941   0.405504   0.417636   0.001017
    15  H   -0.000038   0.391941   0.566623  -0.024382  -0.026705   0.000228
    16  H   -0.000011   0.405504  -0.024382   0.509142  -0.027806   0.000108
    17  H   -0.000004   0.417636  -0.026705  -0.027806   0.512261  -0.000154
    18  C    0.001156   0.001017   0.000228   0.000108  -0.000154   5.317539
    19  H   -0.000010   0.000058  -0.000005  -0.000035   0.000038   0.394765
    20  H   -0.000145  -0.000215  -0.000005  -0.000007   0.000013   0.401086
    21  H    0.000820   0.000102  -0.000015  -0.000001  -0.000034   0.379073
    22  C    0.286730  -0.000012   0.000002   0.000000  -0.000000   0.000035
    23  H   -0.097730   0.000003   0.000000   0.000000   0.000000   0.000001
    24  H   -0.021620  -0.000001   0.000000   0.000000  -0.000000  -0.000002
    25  H   -0.037214   0.000000   0.000000  -0.000000   0.000000  -0.000001
    26  C   -0.056661   0.000759   0.000234  -0.000095   0.000023   0.000010
    27  H   -0.003176   0.000062  -0.000009   0.000001  -0.000002  -0.000000
    28  H    0.006912  -0.000105  -0.000003  -0.000006   0.000004  -0.000000
    29  H   -0.000997  -0.000154   0.000108  -0.000000  -0.000002  -0.000000
              19         20         21         22         23         24
     1  O   -0.000002  -0.000004   0.000127  -0.105256   0.005145   0.001403
     2  O    0.008034   0.000784   0.004241   0.000000  -0.000000   0.000000
     3  N    0.000006   0.000012   0.000119  -0.000083   0.000133   0.000005
     4  H   -0.000001  -0.000001   0.000001   0.000110  -0.000056  -0.000011
     5  C    0.026248   0.001924   0.044732   0.003961  -0.000762  -0.000024
     6  C    0.000015   0.000204  -0.001234  -0.025609  -0.026154   0.009234
     7  C    0.000403  -0.000148   0.003255   0.000261   0.000008  -0.000004
     8  C   -0.054913  -0.024437  -0.070132  -0.000081   0.000004   0.000002
     9  C   -0.001871  -0.009590  -0.007684   0.009750   0.003164  -0.002193
    10  H    0.000091   0.000764   0.002913   0.002947  -0.000205   0.000172
    11  H    0.000562  -0.000852  -0.007198  -0.000851   0.000048  -0.000122
    12  C   -0.000177  -0.002697   0.007086  -0.242559   0.063421  -0.012625
    13  C   -0.000010  -0.000145   0.000820   0.286730  -0.097730  -0.021620
    14  C    0.000058  -0.000215   0.000102  -0.000012   0.000003  -0.000001
    15  H   -0.000005  -0.000005  -0.000015   0.000002   0.000000   0.000000
    16  H   -0.000035  -0.000007  -0.000001   0.000000   0.000000   0.000000
    17  H    0.000038   0.000013  -0.000034  -0.000000   0.000000  -0.000000
    18  C    0.394765   0.401086   0.379073   0.000035   0.000001  -0.000002
    19  H    0.509301  -0.009988  -0.024081  -0.000000   0.000000   0.000000
    20  H   -0.009988   0.489694  -0.023724  -0.000012   0.000000   0.000000
    21  H   -0.024081  -0.023724   0.538882   0.000028  -0.000000  -0.000000
    22  C   -0.000000  -0.000012   0.000028   5.413668   0.398535   0.401709
    23  H    0.000000   0.000000  -0.000000   0.398535   0.540739  -0.026014
    24  H    0.000000   0.000000  -0.000000   0.401709  -0.026014   0.489294
    25  H   -0.000000   0.000000  -0.000000   0.381918  -0.022528  -0.008721
    26  C    0.000000   0.000003  -0.000017  -0.032102   0.016093  -0.010513
    27  H   -0.000000   0.000000  -0.000000   0.005098  -0.007854  -0.000228
    28  H    0.000000  -0.000000   0.000000  -0.011080  -0.001580   0.000849
    29  H    0.000000  -0.000000   0.000000   0.001978   0.000616   0.000156
              25         26         27         28         29
     1  O    0.006336   0.000807  -0.000241  -0.000055   0.000023
     2  O    0.000000   0.000009  -0.000000  -0.000000   0.000000
     3  N    0.000025  -0.026015   0.001469  -0.002446   0.001894
     4  H   -0.000002  -0.006518   0.000759   0.000489   0.001696
     5  C   -0.000147   0.000402   0.000092   0.000366  -0.000355
     6  C   -0.000871   0.194042  -0.048423  -0.031594  -0.047789
     7  C    0.000005   0.002601  -0.000783  -0.000840   0.003166
     8  C    0.000003   0.000789   0.000003  -0.000014  -0.000005
     9  C    0.000189   0.022320  -0.000283  -0.000475  -0.000514
    10  H   -0.000092  -0.000737  -0.000092  -0.000014   0.000087
    11  H   -0.000052   0.000106   0.000009   0.000045  -0.000013
    12  C    0.021821  -0.085371  -0.007258  -0.017768   0.022674
    13  C   -0.037214  -0.056661  -0.003176   0.006912  -0.000997
    14  C    0.000000   0.000759   0.000062  -0.000105  -0.000154
    15  H    0.000000   0.000234  -0.000009  -0.000003   0.000108
    16  H   -0.000000  -0.000095   0.000001  -0.000006  -0.000000
    17  H    0.000000   0.000023  -0.000002   0.000004  -0.000002
    18  C   -0.000001   0.000010  -0.000000  -0.000000  -0.000000
    19  H   -0.000000   0.000000  -0.000000   0.000000   0.000000
    20  H    0.000000   0.000003   0.000000  -0.000000  -0.000000
    21  H   -0.000000  -0.000017  -0.000000   0.000000   0.000000
    22  C    0.381918  -0.032102   0.005098  -0.011080   0.001978
    23  H   -0.022528   0.016093  -0.007854  -0.001580   0.000616
    24  H   -0.008721  -0.010513  -0.000228   0.000849   0.000156
    25  H    0.497902   0.002054   0.000626   0.000126  -0.000037
    26  C    0.002054   5.241237   0.432033   0.425746   0.388218
    27  H    0.000626   0.432033   0.504218  -0.027127  -0.024825
    28  H    0.000126   0.425746  -0.027127   0.476296  -0.016186
    29  H   -0.000037   0.388218  -0.024825  -0.016186   0.511559
 Mulliken charges:
               1
     1  O   -0.380316
     2  O   -0.390841
     3  N   -0.216818
     4  H    0.288274
     5  C   -0.068494
     6  C    0.274093
     7  C    0.183975
     8  C    0.153024
     9  C   -0.296308
    10  H    0.152353
    11  H    0.160879
    12  C   -0.140715
    13  C    0.160407
    14  C   -0.389233
    15  H    0.131914
    16  H    0.164183
    17  H    0.162617
    18  C   -0.458079
    19  H    0.151563
    20  H    0.177339
    21  H    0.152741
    22  C   -0.489083
    23  H    0.154972
    24  H    0.179253
    25  H    0.158660
    26  C   -0.509458
    27  H    0.175932
    28  H    0.198461
    29  H    0.158702
 Sum of Mulliken charges =  -0.00000
 Mulliken charges with hydrogens summed into heavy atoms:
               1
     1  O   -0.380316
     2  O   -0.390841
     3  N    0.071456
     5  C   -0.068494
     6  C    0.274093
     7  C    0.183975
     8  C    0.153024
     9  C    0.016923
    12  C   -0.140715
    13  C    0.160407
    14  C    0.069481
    18  C    0.023564
    22  C    0.003803
    26  C    0.023638
 Electronic spatial extent (au):  <R**2>=           3200.9030
 Charge=             -0.0000 electrons
 Dipole moment (field-independent basis, Debye):
    X=             -4.2176    Y=              8.0582    Z=              0.0382  Tot=              9.0953
 Quadrupole moment (field-independent basis, Debye-Ang):
   XX=            -99.0066   YY=            -77.8410   ZZ=            -84.8859
   XY=            -12.9071   XZ=             -4.5634   YZ=             -2.2725
 Traceless Quadrupole moment (field-independent basis, Debye-Ang):
   XX=            -11.7622   YY=              9.4035   ZZ=              2.3586
   XY=            -12.9071   XZ=             -4.5634   YZ=             -2.2725
 Octapole moment (field-independent basis, Debye-Ang**2):
  XXX=           -115.1816  YYY=             68.7441  ZZZ=              1.4016  XYY=             35.7689
  XXY=             34.4243  XXZ=             -6.1298  XZZ=             -1.1506  YZZ=             -0.8164
  YYZ=              4.5154  XYZ=              5.4510
 Hexadecapole moment (field-independent basis, Debye-Ang**3):
 XXXX=          -3071.6054 YYYY=          -1283.7695 ZZZZ=           -145.3663 XXXY=            -38.1314
 XXXZ=            -51.0743 YYYX=            -91.8652 YYYZ=            -21.2154 ZZZX=              3.3093
 ZZZY=              2.6427 XXYY=           -691.7130 XXZZ=           -480.5998 YYZZ=           -244.2116
 XXYZ=             -9.5028 YYXZ=             -9.5851 ZZXY=             -0.0987
 N-N= 8.996760308309D+02 E-N=-3.275332064026D+03  KE= 6.306748427033D+02
 Leave Link  601 at Sat Jan 24 15:50:17 2026, MaxMem=  2147483648 cpu:               0.7 elap:               0.1
 (Enter /data/home/wyx/g16/l9999.exe)
 Electronic transition elements 
                 1             2             3             4             5 
      1  -0.633213D+03 -0.633180D+03 -0.633174D+03 -0.633144D+03 -0.633129D+03
      2   0.141841D+01 -0.208568D-01  0.871009D-01 -0.292479D+00  0.427820D+00
      3   0.374158D+00 -0.406136D-01 -0.700921D-01  0.122366D+01 -0.147467D+01
      4   0.321104D+00 -0.400659D-01 -0.749874D-02 -0.833327D-02  0.799204D-01
      5  -0.153335D+00  0.330479D-02 -0.114485D-01  0.447278D-01 -0.814231D-01
      6  -0.439534D-01  0.611886D-02  0.891711D-02 -0.213738D+00  0.285867D+00
      7  -0.353055D-01  0.257804D-02 -0.190773D-02  0.320673D-02 -0.145704D-01
      8  -0.341934D+00 -0.730924D+00  0.442690D+00  0.347504D-01 -0.211435D+00
      9   0.632361D-01 -0.155734D+00 -0.844795D+00 -0.420219D-01  0.567509D-01
     10   0.142775D+01 -0.311996D+00  0.322607D+00 -0.749149D-02  0.207929D+00
     11  -0.186058D+00  0.236572D-01 -0.388770D-01  0.947095D+00 -0.631577D+00
     12   0.249072D+00 -0.221564D-01  0.386441D-01 -0.702950D-01  0.308661D+00
     13  -0.321095D-02  0.402355D-02 -0.516144D-03  0.546062D-01 -0.835146D-02
     14   0.418809D+00  0.574251D-02  0.478545D-01  0.395594D+00 -0.159461D+00
     15  -0.123525D-01  0.220744D-01  0.475947D-01  0.251251D+00 -0.190346D+00
     16   0.109187D+00 -0.713531D-01  0.360780D-01  0.784552D-01 -0.693894D-01
                 6 
      1  -0.633111D+03
      2   0.393973D-01
      3  -0.219719D+00
      4   0.784376D-01
      5  -0.252433D-02
      6   0.449003D-01
      7  -0.359243D-01
      8   0.105438D+00
      9   0.179152D-01
     10  -0.181287D-01
     11   0.126467D+00
     12   0.153515D+00
     13  -0.147186D+00
     14  -0.577936D-01
     15   0.352825D-01
     16   0.130445D+00
 1\1\GINC-CN012\SP\RCAM-B3LYP TD-FC\TZVP\C11H15N1O2\WYX\24-Jan-2026\0\\
 #p CAM-B3LYP TZVP em=gd3bj td(nstates=6,root=1) scrf=(Solvent=Water)\\
 Title Card Required\\0,1\O,0,2.720956,-1.559423,0.849765\O,0,-3.294889
 ,-1.659465,-0.930321\N,0,-0.686565,1.5162,-0.032006\H,0,-0.994989,2.47
 6539,-0.098671\C,0,-1.252221,-0.762919,-0.171068\C,0,0.643454,1.330057
 ,0.213659\C,0,-1.626893,0.571178,-0.282063\C,0,-2.163329,-1.848374,-0.
 475593\C,0,0.117312,-1.083983,0.300604\H,0,0.06685,-1.505911,1.319428\
 H,0,0.536084,-1.917138,-0.271218\C,0,1.103584,0.026584,0.319178\C,0,2.
 481485,-0.39504,0.506718\C,0,-2.973124,1.10017,-0.632911\H,0,-3.01493,
 2.179714,-0.504687\H,0,-3.230283,0.870878,-1.662921\H,0,-3.744737,0.64
 9353,-0.018359\C,0,-1.702628,-3.264746,-0.251527\H,0,-2.563536,-3.9240
 56,-0.240095\H,0,-1.049015,-3.58383,-1.062288\H,0,-1.148874,-3.392622,
 0.673304\C,0,3.649213,0.525774,0.252183\H,0,3.466512,1.241698,-0.54447
 5\H,0,3.903236,1.080532,1.157805\H,0,4.506434,-0.091317,-0.009159\C,0,
 1.415077,2.598683,0.36703\H,0,2.156797,2.523341,1.154674\H,0,1.930187,
 2.877522,-0.552311\H,0,0.748835,3.420602,0.625326\\Version=ES64L-G16Re
 vA.03\State=1-A\HF=-633.326698\RMSD=4.066e-09\PG=C01 [X(C11H15N1O2)]\\
 @


 WERE I TO AWAIT PERFECTION, MY BOOK WOULD NEVER BE FINISHED.
                                    -- HISTORY OF CHINESE WRITING

                                       TAI T'UNG, 13TH CENTURY
 Job cpu time:       0 days  0 hours 49 minutes 24.9 seconds.
 Elapsed time:       0 days  0 hours  3 minutes  6.8 seconds.
 File lengths (MBytes):  RWF=    835 Int=      0 D2E=      0 Chk=     34 Scr=      1
 Normal termination of Gaussian 16 at Sat Jan 24 15:50:20 2026.
