 Entering Gaussian System, Link 0=g16
 Input=DDL-S2-cLR-13.gjf
 Output=DDL-S2-cLR-13.log
 Initial command:
 /data/home/wyx/g16/l1.exe "/scr/tmp/wyx/13117/Gau-2027706.inp" -scrdir="/scr/tmp/wyx/13117/"
 Entering Link 1 = /data/home/wyx/g16/l1.exe PID=   2027707.
  
 Copyright (c) 1988,1990,1992,1993,1995,1998,2003,2009,2016,
            Gaussian, Inc.  All Rights Reserved.
  
 This is part of the Gaussian(R) 16 program.  It is based on
 the Gaussian(R) 09 system (copyright 2009, Gaussian, Inc.),
 the Gaussian(R) 03 system (copyright 2003, Gaussian, Inc.),
 the Gaussian(R) 98 system (copyright 1998, Gaussian, Inc.),
 the Gaussian(R) 94 system (copyright 1995, Gaussian, Inc.),
 the Gaussian 92(TM) system (copyright 1992, Gaussian, Inc.),
 the Gaussian 90(TM) system (copyright 1990, Gaussian, Inc.),
 the Gaussian 88(TM) system (copyright 1988, Gaussian, Inc.),
 the Gaussian 86(TM) system (copyright 1986, Carnegie Mellon
 University), and the Gaussian 82(TM) system (copyright 1983,
 Carnegie Mellon University). Gaussian is a federally registered
 trademark of Gaussian, Inc.
  
 This software contains proprietary and confidential information,
 including trade secrets, belonging to Gaussian, Inc.
  
 This software is provided under written license and may be
 used, copied, transmitted, or stored only in accord with that
 written license.
  
 The following legend is applicable only to US Government
 contracts under FAR:
  
                    RESTRICTED RIGHTS LEGEND
  
 Use, reproduction and disclosure by the US Government is
 subject to restrictions as set forth in subparagraphs (a)
 and (c) of the Commercial Computer Software - Restricted
 Rights clause in FAR 52.227-19.
  
 Gaussian, Inc.
 340 Quinnipiac St., Bldg. 40, Wallingford CT 06492
  
  
 ---------------------------------------------------------------
 Warning -- This program may not be used in any manner that
 competes with the business of Gaussian, Inc. or will provide
 assistance to any competitor of Gaussian, Inc.  The licensee
 of this program is prohibited from giving any competitor of
 Gaussian, Inc. access to this program.  By using this program,
 the user acknowledges that Gaussian, Inc. is engaged in the
 business of creating and licensing software in the field of
 computational chemistry and represents and warrants to the
 licensee that it is not a competitor of Gaussian, Inc. and that
 it will not use this program in any manner prohibited above.
 ---------------------------------------------------------------
  

 Cite this work as:
 Gaussian 16, Revision A.03,
 M. J. Frisch, G. W. Trucks, H. B. Schlegel, G. E. Scuseria, 
 M. A. Robb, J. R. Cheeseman, G. Scalmani, V. Barone, 
 G. A. Petersson, H. Nakatsuji, X. Li, M. Caricato, A. V. Marenich, 
 J. Bloino, B. G. Janesko, R. Gomperts, B. Mennucci, H. P. Hratchian, 
 J. V. Ortiz, A. F. Izmaylov, J. L. Sonnenberg, D. Williams-Young, 
 F. Ding, F. Lipparini, F. Egidi, J. Goings, B. Peng, A. Petrone, 
 T. Henderson, D. Ranasinghe, V. G. Zakrzewski, J. Gao, N. Rega, 
 G. Zheng, W. Liang, M. Hada, M. Ehara, K. Toyota, R. Fukuda, 
 J. Hasegawa, M. Ishida, T. Nakajima, Y. Honda, O. Kitao, H. Nakai, 
 T. Vreven, K. Throssell, J. A. Montgomery, Jr., J. E. Peralta, 
 F. Ogliaro, M. J. Bearpark, J. J. Heyd, E. N. Brothers, K. N. Kudin, 
 V. N. Staroverov, T. A. Keith, R. Kobayashi, J. Normand, 
 K. Raghavachari, A. P. Rendell, J. C. Burant, S. S. Iyengar, 
 J. Tomasi, M. Cossi, J. M. Millam, M. Klene, C. Adamo, R. Cammi, 
 J. W. Ochterski, R. L. Martin, K. Morokuma, O. Farkas, 
 J. B. Foresman, and D. J. Fox, Gaussian, Inc., Wallingford CT, 2016.
 
 ******************************************
 Gaussian 16:  ES64L-G16RevA.03 25-Dec-2016
                24-Jan-2026 
 ******************************************
 %nprocshared=16
 Will use up to   16 processors via shared memory.
 %mem=16GB
 %oldchk=DDL-LR-13.chk
 %chk=DDL-S2-cLR-13.chk
 Copying data from "DDL-LR-13.chk" to current chk file "DDL-S2-cLR-13.chk"
 IOpt=  2 FromEx=T IUOpen= 4 IOptOp= 5 NList=   0 IFRang= 0 IUIn= 4 IUOut= 2.
 ----------------------------------------------------------------------
 #p CAM-B3LYP TZVP em=gd3bj td(nstates=6,root=2) scrf=(Solvent=Water,Co
 rrectedLR,NonEquilibrium=Save) Geom=Check Guess=Read
 ----------------------------------------------------------------------
 1/29=2,30=1,38=1,172=1/1;
 2/12=2,40=1/2;
 3/5=19,7=101,11=9,14=-4,25=1,30=1,70=9002201,71=1,72=1,74=-40,116=-2,124=41/1,2,3,8;
 4/5=1/1;
 5/5=2,38=6,53=1/2;
 8/6=1,10=1,107=2,108=6/1;
 9/8=2,15=1,41=6,42=1,70=2,73=22/14;
 10/5=4,13=10,28=2,74=20/2;
 6/7=2,8=2,9=2,10=2,22=-1/1;
 99/5=1,9=1/99;
 Leave Link    1 at Sat Jan 24 21:22:59 2026, MaxMem=  2147483648 cpu:               0.9 elap:               0.1
 (Enter /data/home/wyx/g16/l101.exe)
 -------------------
 Title Card Required
 -------------------
 Structure from the checkpoint file:  "DDL-S2-cLR-13.chk"
 Charge =  0 Multiplicity = 1
 Z-Matrix found in chk file.
 O,0,2.741595,-1.558465,0.760281
 O,0,-3.238037,-1.643825,-1.078266
 N,0,-0.706159,1.513866,0.096963
 H,0,-1.014389,2.471855,0.038108
 C,0,-1.248955,-0.759125,-0.155137
 C,0,0.64132,1.305949,0.271082
 C,0,-1.621025,0.549228,-0.23585
 C,0,-2.153207,-1.837192,-0.536163
 C,0,0.100317,-1.102153,0.411519
 H,0,0.000684,-1.441704,1.452344
 H,0,0.526714,-1.958701,-0.108748
 C,0,1.095069,0.025045,0.352977
 C,0,2.490051,-0.391226,0.464639
 C,0,-2.9477,1.086696,-0.653728
 H,0,-3.036023,2.141031,-0.399083
 H,0,-3.084171,0.983518,-1.727801
 H,0,-3.75882,0.540117,-0.186713
 C,0,-1.720508,-3.251368,-0.252136
 H,0,-2.56052,-3.922597,-0.395986
 H,0,-0.922986,-3.54738,-0.932973
 H,0,-1.333788,-3.366582,0.757715
 C,0,3.647338,0.536881,0.189614
 H,0,3.45113,1.237521,-0.617493
 H,0,3.895556,1.109342,1.085122
 H,0,4.51,-0.075299,-0.06329
 C,0,1.41779,2.58199,0.352
 H,0,2.241648,2.518481,1.05169
 H,0,1.817491,2.86175,-0.622772
 H,0,0.769583,3.392345,0.682082
 Recover connectivity data from disk.
 ITRead=  0  0  0  0  0  0  0  0  0  0  0  0  0  0  0  0  0  0  0  0
 ITRead=  0  0  0  0  0  0  0  0  0
 MicOpt= -1 -1 -1 -1 -1 -1 -1 -1 -1 -1 -1 -1 -1 -1 -1 -1 -1 -1 -1 -1
 MicOpt= -1 -1 -1 -1 -1 -1 -1 -1 -1
 NAtoms=     29 NQM=       29 NQMF=       0 NMMI=      0 NMMIF=      0
                NMic=       0 NMicF=      0.
                    Isotopes and Nuclear Properties:
 (Nuclear quadrupole moments (NQMom) in fm**2, nuclear magnetic moments (NMagM)
  in nuclear magnetons)

  Atom         1           2           3           4           5           6           7           8           9          10
 IAtWgt=          16          16          14           1          12          12          12          12          12           1
 AtmWgt=  15.9949146  15.9949146  14.0030740   1.0078250  12.0000000  12.0000000  12.0000000  12.0000000  12.0000000   1.0078250
 NucSpn=           0           0           2           1           0           0           0           0           0           1
 AtZEff=   5.6000000   5.6000000   4.5500000   1.0000000   3.6000000   3.6000000   3.6000000   3.6000000   3.6000000   1.0000000
 NQMom=    0.0000000   0.0000000   2.0440000   0.0000000   0.0000000   0.0000000   0.0000000   0.0000000   0.0000000   0.0000000
 NMagM=    0.0000000   0.0000000   0.4037610   2.7928460   0.0000000   0.0000000   0.0000000   0.0000000   0.0000000   2.7928460
 AtZNuc=   8.0000000   8.0000000   7.0000000   1.0000000   6.0000000   6.0000000   6.0000000   6.0000000   6.0000000   1.0000000

  Atom        11          12          13          14          15          16          17          18          19          20
 IAtWgt=           1          12          12          12           1           1           1          12           1           1
 AtmWgt=   1.0078250  12.0000000  12.0000000  12.0000000   1.0078250   1.0078250   1.0078250  12.0000000   1.0078250   1.0078250
 NucSpn=           1           0           0           0           1           1           1           0           1           1
 AtZEff=   1.0000000   3.6000000   3.6000000   3.6000000   1.0000000   1.0000000   1.0000000   3.6000000   1.0000000   1.0000000
 NQMom=    0.0000000   0.0000000   0.0000000   0.0000000   0.0000000   0.0000000   0.0000000   0.0000000   0.0000000   0.0000000
 NMagM=    2.7928460   0.0000000   0.0000000   0.0000000   2.7928460   2.7928460   2.7928460   0.0000000   2.7928460   2.7928460
 AtZNuc=   1.0000000   6.0000000   6.0000000   6.0000000   1.0000000   1.0000000   1.0000000   6.0000000   1.0000000   1.0000000

  Atom        21          22          23          24          25          26          27          28          29
 IAtWgt=           1          12           1           1           1          12           1           1           1
 AtmWgt=   1.0078250  12.0000000   1.0078250   1.0078250   1.0078250  12.0000000   1.0078250   1.0078250   1.0078250
 NucSpn=           1           0           1           1           1           0           1           1           1
 AtZEff=   1.0000000   3.6000000   1.0000000   1.0000000   1.0000000   3.6000000   1.0000000   1.0000000   1.0000000
 NQMom=    0.0000000   0.0000000   0.0000000   0.0000000   0.0000000   0.0000000   0.0000000   0.0000000   0.0000000
 NMagM=    2.7928460   0.0000000   2.7928460   2.7928460   2.7928460   0.0000000   2.7928460   2.7928460   2.7928460
 AtZNuc=   1.0000000   6.0000000   1.0000000   1.0000000   1.0000000   6.0000000   1.0000000   1.0000000   1.0000000
 Leave Link  101 at Sat Jan 24 21:23:01 2026, MaxMem=  2147483648 cpu:               0.9 elap:               0.1
 (Enter /data/home/wyx/g16/l202.exe)
                          Input orientation:                          
 ---------------------------------------------------------------------
 Center     Atomic      Atomic             Coordinates (Angstroms)
 Number     Number       Type             X           Y           Z
 ---------------------------------------------------------------------
      1          8           0        2.741595   -1.558465    0.760281
      2          8           0       -3.238037   -1.643825   -1.078266
      3          7           0       -0.706159    1.513866    0.096963
      4          1           0       -1.014389    2.471855    0.038108
      5          6           0       -1.248955   -0.759125   -0.155137
      6          6           0        0.641320    1.305949    0.271082
      7          6           0       -1.621025    0.549228   -0.235850
      8          6           0       -2.153207   -1.837192   -0.536163
      9          6           0        0.100317   -1.102153    0.411519
     10          1           0        0.000684   -1.441704    1.452344
     11          1           0        0.526714   -1.958701   -0.108748
     12          6           0        1.095069    0.025045    0.352977
     13          6           0        2.490051   -0.391226    0.464639
     14          6           0       -2.947700    1.086696   -0.653728
     15          1           0       -3.036023    2.141031   -0.399083
     16          1           0       -3.084171    0.983518   -1.727801
     17          1           0       -3.758820    0.540117   -0.186713
     18          6           0       -1.720508   -3.251368   -0.252136
     19          1           0       -2.560520   -3.922597   -0.395986
     20          1           0       -0.922986   -3.547380   -0.932973
     21          1           0       -1.333788   -3.366582    0.757715
     22          6           0        3.647338    0.536881    0.189614
     23          1           0        3.451130    1.237521   -0.617493
     24          1           0        3.895556    1.109342    1.085122
     25          1           0        4.510000   -0.075299   -0.063290
     26          6           0        1.417790    2.581990    0.352000
     27          1           0        2.241648    2.518481    1.051690
     28          1           0        1.817491    2.861750   -0.622772
     29          1           0        0.769583    3.392345    0.682082
 ---------------------------------------------------------------------
                    Distance matrix (angstroms):
                    1          2          3          4          5
     1  O    0.000000
     2  O    6.256480   0.000000
     3  N    4.665428   4.214568   0.000000
     4  H    5.556296   4.809337   1.008074   0.000000
     5  C    4.171501   2.364595   2.350462   3.245242   0.000000
     6  C    3.585434   5.056809   1.374499   2.038378   2.831843
     7  C    4.946423   2.851995   1.370500   2.034590   1.362622
     8  C    5.071247   1.228056   3.704644   4.493838   1.457766
     9  C    2.702999   3.695602   2.755523   3.762385   1.503098
    10  H    2.829342   4.115113   3.327473   4.283268   2.147442
    11  H    2.412695   3.900316   3.690666   4.693228   2.143393
    12  C    2.320441   4.858950   2.350862   3.245895   2.523401
    13  C    1.230092   6.063048   3.739027   4.545356   3.807839
    14  C    6.431514   2.778538   2.402190   2.476892   2.557613
    15  H    6.957820   3.850615   2.463263   2.094656   3.415264
    16  H    6.825817   2.710812   3.044006   3.101222   2.979613
    17  H    6.896103   2.415716   3.216737   3.363638   2.826384
    18  C    4.878655   2.359996   4.884489   5.773918   2.538316
    19  H    5.919332   2.473325   5.765135   6.593025   3.433040
    20  H    4.500227   3.000682   5.169525   6.097749   2.913014
    21  H    4.458480   3.156720   4.964805   5.891281   2.763933
    22  C    2.352978   7.332898   4.462737   5.049631   5.076630
    23  H    3.196754   7.297905   4.227276   4.679130   5.127491
    24  H    2.924781   7.946592   4.723969   5.201946   5.612077
    25  H    2.450573   7.970102   5.455221   6.084172   5.800139
    26  C    4.366065   6.448248   2.391044   2.454822   4.304854
    27  H    4.117809   7.203364   3.257349   3.410469   4.937959
    28  H    4.722828   6.787197   2.950190   2.933995   4.767862
    29  H    5.329678   6.672545   2.459443   2.108213   4.691496
                    6          7          8          9         10
     6  C    0.000000
     7  C    2.438814   0.000000
     8  C    4.282565   2.463413   0.000000
     9  C    2.472117   2.471672   2.552793   0.000000
    10  H    3.058658   3.073068   2.958009   1.099335   0.000000
    11  H    3.288669   3.304337   2.716510   1.089113   1.726558
    12  C    1.361363   2.828189   3.848349   1.504505   2.134863
    13  C    2.517076   4.275054   4.965105   2.493806   2.876806
    14  C    3.712736   1.491161   3.032188   3.900797   4.418293
    15  H    3.830057   2.136048   4.077305   4.583879   5.048303
    16  H    4.240139   2.134320   3.200484   4.366655   5.050877
    17  H    4.489689   2.138379   2.889932   4.236493   4.554996
    18  C    5.159567   3.801933   1.505919   2.893953   3.023680
    19  H    6.167208   4.572255   2.129429   3.960685   4.016332
    20  H    5.239428   4.213720   2.143746   2.972195   3.313122
    21  H    5.096117   4.050092   2.164394   2.702619   2.443047
    22  C    3.103908   5.285529   6.309461   3.913698   4.336747
    23  H    2.947758   5.132851   6.392892   4.214367   4.834051
    24  H    3.360263   5.700119   6.920850   4.443905   4.670409
    25  H    4.121448   6.165167   6.908415   4.552491   4.949560
    26  C    1.495906   3.702983   5.750654   3.913079   4.405571
    27  H    2.154213   4.522826   6.388107   4.254892   4.567878
    28  H    2.145430   4.161834   6.152560   4.441956   5.111420
    29  H    2.130357   3.826346   6.113500   4.552102   4.955052
                   11         12         13         14         15
    11  H    0.000000
    12  C    2.114584   0.000000
    13  C    2.576906   1.460043   0.000000
    14  C    4.652204   4.299365   5.744922   0.000000
    15  H    5.439227   4.702011   6.139693   1.088240   0.000000
    16  H    4.931174   4.765958   6.145622   1.087613   1.762852
    17  H    4.961449   4.910886   6.351382   1.083867   1.769311
    18  C    2.596450   4.362169   5.140329   4.526155   5.552490
    19  H    3.670205   5.432141   6.222501   5.030840   6.082244
    20  H    2.303232   4.299818   4.854220   5.064791   6.091632
    21  H    2.488846   4.191216   4.853904   4.942527   5.879591
    22  C    4.006899   2.608206   1.508753   6.671435   6.898346
    23  H    4.361980   2.821867   2.178876   6.400710   6.553410
    24  H    4.710341   3.091030   2.147591   7.060755   7.163381
    25  H    4.406341   3.441671   2.111566   7.570742   7.871934
    26  C    4.650181   2.577231   3.162664   4.722806   4.538174
    27  H    4.932826   2.831972   2.978712   5.646928   5.486440
    28  H    5.016680   3.085592   3.495233   5.085157   4.911830
    29  H    5.414618   3.398965   4.162055   4.573685   4.149378
                   16         17         18         19         20
    16  H    0.000000
    17  H    1.739744   0.000000
    18  C    4.687368   4.305154   0.000000
    19  H    5.110568   4.625531   1.084832   0.000000
    20  H    5.082471   5.030556   1.089589   1.763706   0.000000
    21  H    5.307071   4.694148   1.087486   1.773429   1.749249
    22  C    7.013500   7.415714   6.584812   7.665988   6.231312
    23  H    6.633812   7.256399   6.857802   7.925643   6.490585
    24  H    7.526284   7.780171   7.234931   8.318354   6.998294
    25  H    7.846217   8.292608   6.995878   8.056342   6.506077
    26  C    5.210407   5.590773   6.651463   7.661337   6.685773
    27  H    6.200486   6.438415   7.119677   8.163582   7.123796
    28  H    5.364246   6.056019   7.072837   8.077486   6.977348
    29  H    5.144065   5.421849   7.156273   8.109266   7.323454
                   21         22         23         24         25
    21  H    0.000000
    22  C    6.353848   0.000000
    23  H    6.781180   1.086653   0.000000
    24  H    6.891091   1.091448   1.764325   0.000000
    25  H    6.756956   1.087617   1.775343   1.760615   0.000000
    26  C    6.566681   3.029806   2.623354   2.974136   4.098221
    27  H    6.892324   2.577960   2.426907   2.173063   3.621643
    28  H    7.115365   3.068115   2.303676   3.210326   4.023541
    29  H    7.079052   4.083831   3.677344   3.891818   5.154692
                   26         27         28         29
    26  C    0.000000
    27  H    1.082747   0.000000
    28  H    1.090049   1.761126   0.000000
    29  H    1.088945   1.751349   1.755644   0.000000
 Stoichiometry    C11H15NO2
 Framework group  C1[X(C11H15NO2)]
 Deg. of freedom    81
 Full point group                 C1      NOp   1
 RotChk:  IX=0 Diff= 5.16D-16
 Largest Abelian subgroup         C1      NOp   1
 Largest concise Abelian subgroup C1      NOp   1
                         Standard orientation:                         
 ---------------------------------------------------------------------
 Center     Atomic      Atomic             Coordinates (Angstroms)
 Number     Number       Type             X           Y           Z
 ---------------------------------------------------------------------
      1          8           0       -2.286812   -2.281543   -0.195685
      2          8           0        3.595915   -0.248973    0.441281
      3          7           0       -0.026390    1.799609   -0.225656
      4          1           0       -0.056207    2.807230   -0.230546
      5          6           0        1.291661   -0.140938   -0.078387
      6          6           0       -1.231101    1.144371   -0.133031
      7          6           0        1.205885    1.218978   -0.075202
      8          6           0        2.561429   -0.828492    0.121719
      9          6           0        0.059438   -0.950788   -0.370055
     10          1           0        0.076473   -1.308471   -1.409435
     11          1           0        0.051570   -1.862533    0.225617
     12          6           0       -1.230226   -0.216944   -0.121513
     13          6           0       -2.396680   -1.079680    0.042177
     14          6           0        2.324119    2.194026    0.074451
     15          1           0        2.001428    3.197714   -0.195267
     16          1           0        2.681229    2.215965    1.101531
     17          1           0        3.172747    1.917340   -0.540401
     18          6           0        2.590023   -2.322041   -0.068772
     19          1           0        3.619171   -2.664494   -0.089809
     20          1           0        2.078847   -2.818793    0.755328
     21          1           0        2.087805   -2.628163   -0.983480
     22          6           0       -3.729250   -0.572277    0.535266
     23          1           0       -3.638471    0.207348    1.286771
     24          1           0       -4.316071   -0.177650   -0.296099
     25          1           0       -4.271435   -1.417435    0.953183
     26          6           0       -2.395302    2.081193   -0.064236
     27          1           0       -3.261801    1.699735   -0.589603
     28          1           0       -2.681018    2.278401    0.969051
     29          1           0       -2.132342    3.036225   -0.516527
 ---------------------------------------------------------------------
 Rotational constants (GHZ):           1.0786873           0.4908173           0.3465011
 Leave Link  202 at Sat Jan 24 21:23:01 2026, MaxMem=  2147483648 cpu:               0.0 elap:               0.0
 (Enter /data/home/wyx/g16/l301.exe)
 Standard basis: TZVP (5D, 7F)
 Ernie: Thresh=  0.10000D-02 Tol=  0.10000D-05 Strict=F.
 There are   370 symmetry adapted cartesian basis functions of A   symmetry.
 There are   356 symmetry adapted basis functions of A   symmetry.
   356 basis functions,   610 primitive gaussians,   370 cartesian basis functions
    52 alpha electrons       52 beta electrons
       nuclear repulsion energy       900.8238931682 Hartrees.
 IExCor=20419 DFT=T Ex+Corr=CAM-B3LYP ExCW=0 ScaHFX=  1.000000
 ScaDFX=  1.000000  1.000000  1.000000  0.810000 ScalE2=  1.000000  1.000000
 IRadAn=      5 IRanWt=     -1 IRanGd=            0 ICorTp=0 IEmpDi=141
 HFx  wShort=  0.000000 wLong=  0.330000 cFull=  0.190000 cShort=  0.000000 cLong=  0.460000
 DFx  wShort=  0.000000 wLong=  0.330000 cFull=  0.190000 cShort=  0.000000 cLong=  0.460000
 NAtoms=   29 NActive=   29 NUniq=   29 SFac= 1.00D+00 NAtFMM=   60 NAOKFM=F Big=F
 Integral buffers will be    131072 words long.
 Raffenetti 1 integral format.
 Two-electron integral symmetry is turned on.
 R6Disp:  Grimme-D3(BJ) Dispersion energy=       -0.0262072292 Hartrees.
 Nuclear repulsion after empirical dispersion term =      900.7976859391 Hartrees.
 ------------------------------------------------------------------------------
 Polarizable Continuum Model (PCM)
 =================================
 Model                : PCM.
 Atomic radii         : UFF (Universal Force Field).
 Polarization charges : Total charges.
 Charge compensation  : None.
 Solution method      : On-the-fly selection.
 Cavity type          : Scaled VdW (van der Waals Surface) (Alpha=1.100).
 Cavity algorithm     : GePol (No added spheres)
                        Default sphere list used, NSphG=   29.
                        Lebedev-Laikov grids with approx.  5.0 points / Ang**2.
                        Smoothing algorithm: York/Karplus (Gamma=1.0000).
                        Polarization charges: spherical gaussians, with
                                              point-specific exponents (IZeta= 3).
                        Self-potential: point-specific (ISelfS= 7).
                        Self-field    : sphere-specific E.n sum rule (ISelfD= 2).
 1st derivatives      : Analytical E(r).r(x)/FMM algorithm (CHGder, D1EAlg=3).
                        Cavity 1st derivative terms included.
 Solvent              : Water, Eps=  78.355300 Eps(inf)=   1.777849
 ------------------------------------------------------------------------------
 GePol: Number of generator spheres                  =      29
 GePol: Total number of spheres                      =      29
 GePol: Number of exposed spheres                    =      29 (100.00%)
 GePol: Number of points                             =    2104
 GePol: Average weight of points                     =       0.13
 GePol: Minimum weight of points                     =   0.84D-11
 GePol: Maximum weight of points                     =    0.20577
 GePol: Number of points with low weight             =     157
 GePol: Fraction of low-weight points (<1% of avg)   =       7.46%
 GePol: Cavity surface area                          =    268.542 Ang**2
 GePol: Cavity volume                                =    286.646 Ang**3
 Leave Link  301 at Sat Jan 24 21:23:01 2026, MaxMem=  2147483648 cpu:               0.6 elap:               0.0
 (Enter /data/home/wyx/g16/l302.exe)
 NPDir=0 NMtPBC=     1 NCelOv=     1 NCel=       1 NClECP=     1 NCelD=      1
         NCelK=      1 NCelE2=     1 NClLst=     1 CellRange=     0.0.
 One-electron integrals computed using PRISM.
 One-electron integral symmetry used in STVInt
 NBasis=   356 RedAO= T EigKep=  4.70D-05  NBF=   356
 NBsUse=   356 1.00D-06 EigRej= -1.00D+00 NBFU=   356
 Precomputing XC quadrature grid using
 IXCGrd= 4 IRadAn=           5 IRanWt=          -1 IRanGd=           0 AccXCQ= 0.00D+00.
 Generated NRdTot=       0 NPtTot=           0 NUsed=           0 NTot=          32
 NSgBfM=   366   366   366   366   366 MxSgAt=    29 MxSgA2=    29.
 Leave Link  302 at Sat Jan 24 21:23:01 2026, MaxMem=  2147483648 cpu:               3.1 elap:               0.2
 (Enter /data/home/wyx/g16/l303.exe)
 DipDrv:  MaxL=1.
 Leave Link  303 at Sat Jan 24 21:23:02 2026, MaxMem=  2147483648 cpu:               0.6 elap:               0.0
 (Enter /data/home/wyx/g16/l308.exe)
 Leave Link  308 at Sat Jan 24 21:23:02 2026, MaxMem=  2147483648 cpu:               0.7 elap:               0.1
 (Enter /data/home/wyx/g16/l401.exe)
 Initial guess from the checkpoint file:  "DDL-S2-cLR-13.chk"
 B after Tr=     0.000000    0.000000   -0.000000
         Rot=    1.000000    0.000000   -0.000000    0.000000 Ang=   0.00 deg.
 Guess basis will be translated and rotated to current coordinates.
 JPrj=2 DoOrth=T DoCkMO=T.
 Leave Link  401 at Sat Jan 24 21:23:03 2026, MaxMem=  2147483648 cpu:               2.2 elap:               0.2
 (Enter /data/home/wyx/g16/l502.exe)
 Integral symmetry usage will be decided dynamically.
 Closed shell SCF:
 Using DIIS extrapolation, IDIIS=  1040.
 NGot=  2147483648 LenX=  2147200095 LenY=  2147062754
 Requested convergence on RMS density matrix=1.00D-08 within 128 cycles.
 Requested convergence on MAX density matrix=1.00D-06.
 Requested convergence on             energy=1.00D-06.
 No special actions if energy rises.
 Fock matrices will be formed incrementally for  20 cycles.

 Cycle   1  Pass 1  IDiag  1:
 FoFJK:  IHMeth= 1 ICntrl=       0 DoSepK=T KAlg= 0 I1Cent=           0 FoldK=F
 IRaf=         1 NMat=       1 IRICut=       1 DoRegI=T DoRafI=F ISym2E= 0 IDoP0=0 IntGTp=1.
 FoFCou: FMM=F IPFlag=           0 FMFlag=      100000 FMFlg1=           0
         NFxFlg=           0 DoJE=T BraDBF=F KetDBF=F FulRan=T
         wScrn=  0.000000 ICntrl=       500 IOpCl=  0 I1Cent=           0 NGrid=           0
         NMat0=    1 NMatS0=      1 NMatT0=    0 NMatD0=    1 NMtDS0=    0 NMtDT0=    0
 Symmetry not used in FoFCou.
 Inv3:  Mode=1 IEnd=    13280448.
 Iteration    1 A*A^-1 deviation from unit magnitude is 3.33D-15 for   1766.
 Iteration    1 A*A^-1 deviation from orthogonality  is 2.23D-15 for   1910    136.
 Iteration    1 A^-1*A deviation from unit magnitude is 3.11D-15 for   1566.
 Iteration    1 A^-1*A deviation from orthogonality  is 1.89D-15 for   1086     74.
 E= -633.331967753230    
 DIIS: error= 1.40D-08 at cycle   1 NSaved=   1.
 NSaved= 1 IEnMin= 1 EnMin= -633.331967753230     IErMin= 1 ErrMin= 1.40D-08
 ErrMax= 1.40D-08  0.00D+00 EMaxC= 1.00D-01 BMatC= 5.41D-14 BMatP= 5.41D-14
 IDIUse=1 WtCom= 1.00D+00 WtEn= 0.00D+00
 Coeff-Com:  0.100D+01
 Coeff:      0.100D+01
 Gap=     0.235 Goal=   None    Shift=    0.000
 RMSDP=2.56D-09 MaxDP=7.47D-08              OVMax= 3.04D-07

 Error on total polarization charges =  0.01548
 SCF Done:  E(RCAM-B3LYP) =  -633.331967753     A.U. after    1 cycles
            NFock=  1  Conv=0.26D-08     -V/T= 2.0041
 KE= 6.307272535754D+02 PE=-3.277677081782D+03 EE= 1.112820174515D+03
 Leave Link  502 at Sat Jan 24 21:23:08 2026, MaxMem=  2147483648 cpu:              85.1 elap:               5.6
 (Enter /data/home/wyx/g16/l801.exe)
 DoSCS=F DFT=T ScalE2(SS,OS)=  1.000000  1.000000
 ExpMin= 9.52D-02 ExpMax= 2.70D+04 ExpMxC= 9.22D+02 IAcc=3 IRadAn=         5 AccDes= 0.00D+00
 HarFok:  IExCor=  205 AccDes= 0.00D+00 IRadAn=         5 IDoV=-2 UseB2=F ITyADJ=14
 ICtDFT= 12500011 ScaDFX=  1.000000  1.000000  1.000000  1.000000
 Largest valence mixing into a core orbital is  5.63D-05
 Largest core mixing into a valence orbital is  1.20D-05
 Range of M.O.s used for correlation:    15   356
 NBasis=   356 NAE=    52 NBE=    52 NFC=    14 NFV=     0
 NROrb=    342 NOA=    38 NOB=    38 NVA=   304 NVB=   304

 **** Warning!!: The largest alpha MO coefficient is  0.55150267D+02

 Leave Link  801 at Sat Jan 24 21:23:09 2026, MaxMem=  2147483648 cpu:               1.0 elap:               0.1
 (Enter /data/home/wyx/g16/l914.exe)
 RHF ground state
 Two-electron integrals replicated using symmetry.
 MDV=  2147483648 DFT=T DoStab=F Mixed=T DoRPA=T DoScal=F NonHer=T
 NEqPCM:  Using equilibrium solvation (IEInf=0, Eps=  78.3553, EpsInf=   1.7778)
 Making orbital integer symmetry assigments:
 Orbital symmetries:
       Occupied  (A) (A) (A) (A) (A) (A) (A) (A) (A) (A) (A) (A)
                 (A) (A) (A) (A) (A) (A) (A) (A) (A) (A) (A) (A)
                 (A) (A) (A) (A) (A) (A) (A) (A) (A) (A) (A) (A)
                 (A) (A) (A) (A) (A) (A) (A) (A) (A) (A) (A) (A)
                 (A) (A) (A) (A)
       Virtual   (A) (A) (A) (A) (A) (A) (A) (A) (A) (A) (A) (A)
                 (A) (A) (A) (A) (A) (A) (A) (A) (A) (A) (A) (A)
                 (A) (A) (A) (A) (A) (A) (A) (A) (A) (A) (A) (A)
                 (A) (A) (A) (A) (A) (A) (A) (A) (A) (A) (A) (A)
                 (A) (A) (A) (A) (A) (A) (A) (A) (A) (A) (A) (A)
                 (A) (A) (A) (A) (A) (A) (A) (A) (A) (A) (A) (A)
                 (A) (A) (A) (A) (A) (A) (A) (A) (A) (A) (A) (A)
                 (A) (A) (A) (A) (A) (A) (A) (A) (A) (A) (A) (A)
                 (A) (A) (A) (A) (A) (A) (A) (A) (A) (A) (A) (A)
                 (A) (A) (A) (A) (A) (A) (A) (A) (A) (A) (A) (A)
                 (A) (A) (A) (A) (A) (A) (A) (A) (A) (A) (A) (A)
                 (A) (A) (A) (A) (A) (A) (A) (A) (A) (A) (A) (A)
                 (A) (A) (A) (A) (A) (A) (A) (A) (A) (A) (A) (A)
                 (A) (A) (A) (A) (A) (A) (A) (A) (A) (A) (A) (A)
                 (A) (A) (A) (A) (A) (A) (A) (A) (A) (A) (A) (A)
                 (A) (A) (A) (A) (A) (A) (A) (A) (A) (A) (A) (A)
                 (A) (A) (A) (A) (A) (A) (A) (A) (A) (A) (A) (A)
                 (A) (A) (A) (A) (A) (A) (A) (A) (A) (A) (A) (A)
                 (A) (A) (A) (A) (A) (A) (A) (A) (A) (A) (A) (A)
                 (A) (A) (A) (A) (A) (A) (A) (A) (A) (A) (A) (A)
                 (A) (A) (A) (A) (A) (A) (A) (A) (A) (A) (A) (A)
                 (A) (A) (A) (A) (A) (A) (A) (A) (A) (A) (A) (A)
                 (A) (A) (A) (A) (A) (A) (A) (A) (A) (A) (A) (A)
                 (A) (A) (A) (A) (A) (A) (A) (A) (A) (A) (A) (A)
                 (A) (A) (A) (A) (A) (A) (A) (A) (A) (A) (A) (A)
                 (A) (A) (A) (A)
 PCM Corrected Linear-Response:
 Compute the excitation energies in the ground state reaction field.
    24 initial guesses have been made.
 Convergence on wavefunction:    0.000001000000000
 Davidson Disk Diagonalization:  ConvIn= 1.00D-06 SkipCon=T Conv= 1.00D-06.
 Max sub-space:  2000 roots to seek:    24 dimension of matrix:        23104
 Iteration     1 Dimension    24 NMult     0 NNew     24
 CISAX will form    24 AO SS matrices at one time.
 NMat=    24 NSing=    24 JSym2X= 0.
 FoFJK:  IHMeth= 1 ICntrl=       0 DoSepK=T KAlg= 0 I1Cent=           0 FoldK=F
 IRaf=         1 NMat=      48 IRICut=       1 DoRegI=T DoRafI=F ISym2E= 0 IDoP0=3 IntGTp=3.
 FoFCou: FMM=F IPFlag=           0 FMFlag=      100000 FMFlg1=           0
         NFxFlg=           0 DoJE=F BraDBF=F KetDBF=F FulRan=T
         wScrn=  0.000000 ICntrl=       500 IOpCl=  0 I1Cent=           0 NGrid=           0
         NMat0=   24 NMatS0=     24 NMatT0=    0 NMatD0=   24 NMtDS0=    0 NMtDT0=    0
 Symmetry not used in FoFCou.
 New state      2 was old state      3
 New state      3 was old state      4
 New state      4 was old state      2
 New state      5 was old state      6
 New state      6 was old state      5
 Excitation Energies [eV] at current iteration:
 Root      1 :     3.958638378970680
 Root      2 :     4.347133396735082
 Root      3 :     4.536746261599044
 Root      4 :     5.529088598733492
 Root      5 :     6.196881213063400
 Root      6 :     6.514820021468727
 Root      7 :     6.810430652450177
 Root      8 :     6.843258327644695
 Root      9 :     7.032621340650672
 Root     10 :     7.104240387987330
 Root     11 :     7.284083900225581
 Root     12 :     7.417701270291864
 Root     13 :     7.580147673350581
 Root     14 :     7.632556673268316
 Root     15 :     7.876438394629022
 Root     16 :     8.002240302856885
 Root     17 :     8.187382717827576
 Root     18 :     8.297108069017478
 Root     19 :     8.343495470786442
 Root     20 :     8.468675987856157
 Root     21 :     8.695605071774539
 Root     22 :     8.922796738888870
 Root     23 :     8.967581843973257
 Root     24 :     9.145023345286889
 Iteration     2 Dimension    36 NMult    24 NNew     12
 CISAX will form    12 AO SS matrices at one time.
 NMat=    12 NSing=    12 JSym2X= 0.
 Root      1 not converged, maximum delta is    0.045133955002811
 Root      2 not converged, maximum delta is    0.073366406496916
 Root      3 not converged, maximum delta is    0.086713542276206
 Root      4 not converged, maximum delta is    0.209778009325181
 New state      5 was old state      6
 Root      5 not converged, maximum delta is    0.195902905440510
 New state      6 was old state      5
 Root      6 not converged, maximum delta is    0.107331629128111
 Excitation Energies [eV] at current iteration:
 Root      1 :     3.497862455640047   Change is   -0.460775923330634
 Root      2 :     4.110366800068487   Change is   -0.236766596666594
 Root      3 :     4.266712211308626   Change is   -0.270034050290418
 Root      4 :     5.209671444230747   Change is   -0.319417154502745
 Root      5 :     5.678745278113515   Change is   -0.836074743355211
 Root      6 :     6.086250659700247   Change is   -0.110630553363153
 Iteration     3 Dimension    48 NMult    36 NNew     12
 CISAX will form    12 AO SS matrices at one time.
 NMat=    12 NSing=    12 JSym2X= 0.
 Root      1 not converged, maximum delta is    0.009387704592991
 Root      2 not converged, maximum delta is    0.012406732191540
 Root      3 not converged, maximum delta is    0.012577297165210
 Root      4 not converged, maximum delta is    0.022267607286917
 Root      5 not converged, maximum delta is    0.024181137251087
 Root      6 not converged, maximum delta is    0.007383815876916
 Excitation Energies [eV] at current iteration:
 Root      1 :     3.477628452264692   Change is   -0.020234003375355
 Root      2 :     4.096836153160688   Change is   -0.013530646907799
 Root      3 :     4.252723498276841   Change is   -0.013988713031785
 Root      4 :     5.188437093379050   Change is   -0.021234350851697
 Root      5 :     5.642821914334061   Change is   -0.035923363779454
 Root      6 :     6.080268215490201   Change is   -0.005982444210046
 Iteration     4 Dimension    60 NMult    48 NNew     12
 CISAX will form    12 AO SS matrices at one time.
 NMat=    12 NSing=    12 JSym2X= 0.
 Root      1 not converged, maximum delta is    0.002175529525750
 Root      2 not converged, maximum delta is    0.001994270117139
 Root      3 not converged, maximum delta is    0.002046636388585
 Root      4 not converged, maximum delta is    0.002355468649920
 Root      5 not converged, maximum delta is    0.003310805390177
 Root      6 not converged, maximum delta is    0.002006139625826
 Excitation Energies [eV] at current iteration:
 Root      1 :     3.475998204632119   Change is   -0.001630247632573
 Root      2 :     4.095995725846986   Change is   -0.000840427313702
 Root      3 :     4.251896390097450   Change is   -0.000827108179391
 Root      4 :     5.186590539197382   Change is   -0.001846554181668
 Root      5 :     5.639312554136878   Change is   -0.003509360197184
 Root      6 :     6.079863426719879   Change is   -0.000404788770322
 Iteration     5 Dimension    72 NMult    60 NNew     12
 CISAX will form    12 AO SS matrices at one time.
 NMat=    12 NSing=    12 JSym2X= 0.
 Root      1 not converged, maximum delta is    0.000725479013139
 Root      2 not converged, maximum delta is    0.000293235068754
 Root      3 not converged, maximum delta is    0.000520754667900
 Root      4 not converged, maximum delta is    0.000936373269386
 Root      5 not converged, maximum delta is    0.000868205985817
 Root      6 not converged, maximum delta is    0.000369306329413
 Excitation Energies [eV] at current iteration:
 Root      1 :     3.475900351417240   Change is   -0.000097853214879
 Root      2 :     4.095940651374137   Change is   -0.000055074472850
 Root      3 :     4.251846182544359   Change is   -0.000050207553091
 Root      4 :     5.186448227182120   Change is   -0.000142312015263
 Root      5 :     5.639034657696213   Change is   -0.000277896440665
 Root      6 :     6.079828674277644   Change is   -0.000034752442234
 Iteration     6 Dimension    84 NMult    72 NNew     12
 CISAX will form    12 AO SS matrices at one time.
 NMat=    12 NSing=    12 JSym2X= 0.
 Root      1 not converged, maximum delta is    0.000204688423414
 Root      2 not converged, maximum delta is    0.000089865598041
 Root      3 not converged, maximum delta is    0.000149238125404
 Root      4 not converged, maximum delta is    0.000536283887838
 Root      5 not converged, maximum delta is    0.000268961368849
 Root      6 not converged, maximum delta is    0.000160855884146
 Excitation Energies [eV] at current iteration:
 Root      1 :     3.475894904066975   Change is   -0.000005447350265
 Root      2 :     4.095936833222559   Change is   -0.000003818151578
 Root      3 :     4.251843359876067   Change is   -0.000002822668291
 Root      4 :     5.186434474451995   Change is   -0.000013752730124
 Root      5 :     5.639009026977576   Change is   -0.000025630718636
 Root      6 :     6.079825422953691   Change is   -0.000003251323953
 Iteration     7 Dimension    96 NMult    84 NNew     12
 CISAX will form    12 AO SS matrices at one time.
 NMat=    12 NSing=    12 JSym2X= 0.
 Root      1 not converged, maximum delta is    0.000017780645402
 Root      2 not converged, maximum delta is    0.000018037078497
 Root      3 not converged, maximum delta is    0.000033907895069
 Root      4 not converged, maximum delta is    0.000148311806909
 Root      5 not converged, maximum delta is    0.000083795977582
 Root      6 not converged, maximum delta is    0.000070611104633
 Excitation Energies [eV] at current iteration:
 Root      1 :     3.475894597769927   Change is   -0.000000306297048
 Root      2 :     4.095936644634581   Change is   -0.000000188587977
 Root      3 :     4.251843209096184   Change is   -0.000000150779883
 Root      4 :     5.186433216476666   Change is   -0.000001257975329
 Root      5 :     5.639006478650066   Change is   -0.000002548327511
 Root      6 :     6.079825129119631   Change is   -0.000000293834061
 Iteration     8 Dimension   108 NMult    96 NNew     12
 CISAX will form    12 AO SS matrices at one time.
 NMat=    12 NSing=    12 JSym2X= 0.
 Root      1 not converged, maximum delta is    0.000002853558741
 Root      2 not converged, maximum delta is    0.000003532517436
 Root      3 not converged, maximum delta is    0.000003970117626
 Root      4 not converged, maximum delta is    0.000018405594422
 Root      5 not converged, maximum delta is    0.000024231118458
 Root      6 not converged, maximum delta is    0.000018153453977
 Excitation Energies [eV] at current iteration:
 Root      1 :     3.475894587137306   Change is   -0.000000010632621
 Root      2 :     4.095936635224083   Change is   -0.000000009410498
 Root      3 :     4.251843200474846   Change is   -0.000000008621339
 Root      4 :     5.186433127472351   Change is   -0.000000089004315
 Root      5 :     5.639006289857417   Change is   -0.000000188792648
 Root      6 :     6.079825099561406   Change is   -0.000000029558224
 Iteration     9 Dimension   120 NMult   108 NNew     12
 CISAX will form    12 AO SS matrices at one time.
 NMat=    12 NSing=    12 JSym2X= 0.
 Root      1 has converged.
 Root      2 has converged.
 Root      3 not converged, maximum delta is    0.000001088708396
 Root      4 not converged, maximum delta is    0.000002179564866
 Root      5 not converged, maximum delta is    0.000006439722224
 Root      6 not converged, maximum delta is    0.000007056071185
 Excitation Energies [eV] at current iteration:
 Root      1 :     3.475894586687942   Change is   -0.000000000449364
 Root      2 :     4.095936634905885   Change is   -0.000000000318197
 Root      3 :     4.251843200129260   Change is   -0.000000000345586
 Root      4 :     5.186433123269182   Change is   -0.000000004203169
 Root      5 :     5.639006279107021   Change is   -0.000000010750396
 Root      6 :     6.079825096665049   Change is   -0.000000002896357
 Iteration    10 Dimension   128 NMult   120 NNew      8
 CISAX will form     8 AO SS matrices at one time.
 NMat=     8 NSing=     8 JSym2X= 0.
 Root      1 has converged.
 Root      2 has converged.
 Root      3 has converged.
 Root      4 has converged.
 Root      5 not converged, maximum delta is    0.000001502281450
 Root      6 not converged, maximum delta is    0.000002164905948
 Excitation Energies [eV] at current iteration:
 Root      1 :     3.475894586686050   Change is   -0.000000000001892
 Root      2 :     4.095936634901951   Change is   -0.000000000003934
 Root      3 :     4.251843200115281   Change is   -0.000000000013979
 Root      4 :     5.186433123090436   Change is   -0.000000000178746
 Root      5 :     5.639006278525126   Change is   -0.000000000581895
 Root      6 :     6.079825096415499   Change is   -0.000000000249550
 Iteration    11 Dimension   132 NMult   128 NNew      4
 CISAX will form     4 AO SS matrices at one time.
 NMat=     4 NSing=     4 JSym2X= 0.
 Root      1 has converged.
 Root      2 has converged.
 Root      3 has converged.
 Root      4 has converged.
 Root      5 has converged.
 Root      6 has converged.
 Excitation Energies [eV] at current iteration:
 Root      1 :     3.475894586686050   Change is    0.000000000000000
 Root      2 :     4.095936634901912   Change is   -0.000000000000040
 Root      3 :     4.251843200115204   Change is   -0.000000000000077
 Root      4 :     5.186433123088660   Change is   -0.000000000001775
 Root      5 :     5.639006278495823   Change is   -0.000000000029303
 Root      6 :     6.079825096397502   Change is   -0.000000000017997
 Convergence achieved on expansion vectors.
 PCM Corrected Linear-Response:
 The state of interest is root number   2
 Excitation energy =    4.0959 eV, Total energy =  -633.181444852    
 Recompute the excitation energies using the linear response reaction field.
 Convergence on wavefunction:    0.000001000000000
 Davidson Disk Diagonalization:  ConvIn= 1.00D-06 SkipCon=T Conv= 1.00D-06.
 Max sub-space:  2000 roots to seek:     6 dimension of matrix:        23104
 Iteration     1 Dimension     6 NMult     0 NNew      6
 CISAX will form     6 AO SS matrices at one time.
 NMat=     6 NSing=     6 JSym2X= 0.
 Excitation Energies [eV] at current iteration:
 Root      1 :     3.548625473090219
 Root      2 :     4.122397321511522
 Root      3 :     4.277649050215373
 Root      4 :     5.248200209546127
 Root      5 :     5.772571071590557
 Root      6 :     6.041118593571532
 Iteration     2 Dimension    18 NMult     6 NNew     12
 CISAX will form    12 AO SS matrices at one time.
 NMat=    12 NSing=    12 JSym2X= 0.
 Root      1 not converged, maximum delta is    0.015665762567671
 Root      2 not converged, maximum delta is    0.020692053838098
 Root      3 not converged, maximum delta is    0.010527274179492
 Root      4 not converged, maximum delta is    0.226545937478025
 Root      5 not converged, maximum delta is    0.277088293444696
 Root      6 not converged, maximum delta is    0.062215684521070
 Excitation Energies [eV] at current iteration:
 Root      1 :     3.332620837079113   Change is   -0.216004636011106
 Root      2 :     4.089618450792162   Change is   -0.032778870719359
 Root      3 :     4.244998023556612   Change is   -0.032651026658760
 Root      4 :     5.014686012213682   Change is   -0.233514197332446
 Root      5 :     5.494584250379100   Change is   -0.277986821211457
 Root      6 :     6.016334854223095   Change is   -0.024783739348438
 Iteration     3 Dimension    30 NMult    18 NNew     12
 CISAX will form    12 AO SS matrices at one time.
 NMat=    12 NSing=    12 JSym2X= 0.
 Root      1 not converged, maximum delta is    0.003080403334029
 Root      2 not converged, maximum delta is    0.001088526308008
 Root      3 not converged, maximum delta is    0.001460830289108
 Root      4 not converged, maximum delta is    0.012602264105578
 Root      5 not converged, maximum delta is    0.011612616536151
 Root      6 not converged, maximum delta is    0.009001972731094
 Excitation Energies [eV] at current iteration:
 Root      1 :     3.329139214672101   Change is   -0.003481622407012
 Root      2 :     4.089263386948730   Change is   -0.000355063843432
 Root      3 :     4.244605345193576   Change is   -0.000392678363037
 Root      4 :     5.004277813927200   Change is   -0.010408198286482
 Root      5 :     5.486350122289995   Change is   -0.008234128089105
 Root      6 :     6.014165659787817   Change is   -0.002169194435277
 Iteration     4 Dimension    42 NMult    30 NNew     12
 CISAX will form    12 AO SS matrices at one time.
 NMat=    12 NSing=    12 JSym2X= 0.
 Root      1 not converged, maximum delta is    0.001719645941032
 Root      2 not converged, maximum delta is    0.000180048436065
 Root      3 not converged, maximum delta is    0.000191811191784
 Root      4 not converged, maximum delta is    0.002696827890700
 Root      5 not converged, maximum delta is    0.002946224458269
 Root      6 not converged, maximum delta is    0.008997488230942
 Excitation Energies [eV] at current iteration:
 Root      1 :     3.328686284988441   Change is   -0.000452929683660
 Root      2 :     4.089245512006915   Change is   -0.000017874941815
 Root      3 :     4.244581647126041   Change is   -0.000023698067535
 Root      4 :     5.002556870239177   Change is   -0.001720943688023
 Root      5 :     5.485086472292029   Change is   -0.001263649997966
 Root      6 :     6.013493122040947   Change is   -0.000672537746871
 Iteration     5 Dimension    54 NMult    42 NNew     12
 CISAX will form    12 AO SS matrices at one time.
 NMat=    12 NSing=    12 JSym2X= 0.
 Root      1 not converged, maximum delta is    0.000526299396116
 Root      2 not converged, maximum delta is    0.000082720230153
 Root      3 not converged, maximum delta is    0.000072591173570
 Root      4 not converged, maximum delta is    0.000868337010077
 Root      5 not converged, maximum delta is    0.000799801726336
 Root      6 not converged, maximum delta is    0.003835308787584
 Excitation Energies [eV] at current iteration:
 Root      1 :     3.328655319929391   Change is   -0.000030965059050
 Root      2 :     4.089244317495355   Change is   -0.000001194511560
 Root      3 :     4.244579801813071   Change is   -0.000001845312970
 Root      4 :     5.002404743563106   Change is   -0.000152126676071
 Root      5 :     5.484960354908763   Change is   -0.000126117383265
 Root      6 :     6.013353662516356   Change is   -0.000139459524590
 Iteration     6 Dimension    66 NMult    54 NNew     12
 CISAX will form    12 AO SS matrices at one time.
 NMat=    12 NSing=    12 JSym2X= 0.
 Root      1 not converged, maximum delta is    0.000079026376201
 Root      2 not converged, maximum delta is    0.000023758685268
 Root      3 not converged, maximum delta is    0.000029933468780
 Root      4 not converged, maximum delta is    0.000349452474517
 Root      5 not converged, maximum delta is    0.000457495791840
 Root      6 not converged, maximum delta is    0.001075999436887
 Excitation Energies [eV] at current iteration:
 Root      1 :     3.328653380991554   Change is   -0.000001938937837
 Root      2 :     4.089244189740485   Change is   -0.000000127754870
 Root      3 :     4.244579619626257   Change is   -0.000000182186814
 Root      4 :     5.002390577313887   Change is   -0.000014166249218
 Root      5 :     5.484945333251203   Change is   -0.000015021657560
 Root      6 :     6.013332252188477   Change is   -0.000021410327879
 Iteration     7 Dimension    78 NMult    66 NNew     12
 CISAX will form    12 AO SS matrices at one time.
 NMat=    12 NSing=    12 JSym2X= 0.
 Root      1 not converged, maximum delta is    0.000011014526614
 Root      2 not converged, maximum delta is    0.000006258567607
 Root      3 not converged, maximum delta is    0.000008200559272
 Root      4 not converged, maximum delta is    0.000109870651063
 Root      5 not converged, maximum delta is    0.000121130546904
 Root      6 not converged, maximum delta is    0.000149543022869
 Excitation Energies [eV] at current iteration:
 Root      1 :     3.328653305571034   Change is   -0.000000075420520
 Root      2 :     4.089244184016758   Change is   -0.000000005723726
 Root      3 :     4.244579609523415   Change is   -0.000000010102842
 Root      4 :     5.002389397452838   Change is   -0.000001179861049
 Root      5 :     5.484943970729637   Change is   -0.000001362521566
 Root      6 :     6.013330241442310   Change is   -0.000002010746167
 Iteration     8 Dimension    90 NMult    78 NNew     12
 CISAX will form    12 AO SS matrices at one time.
 NMat=    12 NSing=    12 JSym2X= 0.
 Root      1 not converged, maximum delta is    0.000002685921675
 Root      2 not converged, maximum delta is    0.000001624644901
 Root      3 not converged, maximum delta is    0.000001303415019
 Root      4 not converged, maximum delta is    0.000030229929209
 Root      5 not converged, maximum delta is    0.000037374342481
 Root      6 not converged, maximum delta is    0.000038382274867
 Excitation Energies [eV] at current iteration:
 Root      1 :     3.328653302088496   Change is   -0.000000003482539
 Root      2 :     4.089244183801411   Change is   -0.000000000215346
 Root      3 :     4.244579609048113   Change is   -0.000000000475301
 Root      4 :     5.002389312145433   Change is   -0.000000085307405
 Root      5 :     5.484943848894530   Change is   -0.000000121835108
 Root      6 :     6.013330043375741   Change is   -0.000000198066569
 Iteration     9 Dimension   102 NMult    90 NNew     12
 CISAX will form    12 AO SS matrices at one time.
 NMat=    12 NSing=    12 JSym2X= 0.
 Root      1 has converged.
 Root      2 has converged.
 Root      3 has converged.
 Root      4 not converged, maximum delta is    0.000007442823025
 Root      5 not converged, maximum delta is    0.000011412031073
 Root      6 not converged, maximum delta is    0.000024491487643
 Excitation Energies [eV] at current iteration:
 Root      1 :     3.328653301909468   Change is   -0.000000000179028
 Root      2 :     4.089244183791199   Change is   -0.000000000010213
 Root      3 :     4.244579609014898   Change is   -0.000000000033215
 Root      4 :     5.002389305773630   Change is   -0.000000006371803
 Root      5 :     5.484943836869252   Change is   -0.000000012025277
 Root      6 :     6.013330022408958   Change is   -0.000000020966783
 Iteration    10 Dimension   108 NMult   102 NNew      6
 CISAX will form     6 AO SS matrices at one time.
 NMat=     6 NSing=     6 JSym2X= 0.
 Root      1 has converged.
 Root      2 has converged.
 Root      3 has converged.
 Root      4 not converged, maximum delta is    0.000001506174868
 Root      5 not converged, maximum delta is    0.000002818635809
 Root      6 not converged, maximum delta is    0.000010318225086
 Excitation Energies [eV] at current iteration:
 Root      1 :     3.328653301908455   Change is   -0.000000000001012
 Root      2 :     4.089244183790998   Change is   -0.000000000000201
 Root      3 :     4.244579609014123   Change is   -0.000000000000775
 Root      4 :     5.002389305431070   Change is   -0.000000000342560
 Root      5 :     5.484943836002025   Change is   -0.000000000867227
 Root      6 :     6.013330019707537   Change is   -0.000000002701421
 Iteration    11 Dimension   114 NMult   108 NNew      6
 CISAX will form     6 AO SS matrices at one time.
 NMat=     6 NSing=     6 JSym2X= 0.
 Root      1 has converged.
 Root      2 has converged.
 Root      3 has converged.
 Root      4 has converged.
 Root      5 has converged.
 Root      6 not converged, maximum delta is    0.000001996733443
 Excitation Energies [eV] at current iteration:
 Root      1 :     3.328653301908282   Change is   -0.000000000000173
 Root      2 :     4.089244183790978   Change is   -0.000000000000020
 Root      3 :     4.244579609014007   Change is   -0.000000000000116
 Root      4 :     5.002389305411531   Change is   -0.000000000019540
 Root      5 :     5.484943835942659   Change is   -0.000000000059366
 Root      6 :     6.013330019448925   Change is   -0.000000000258612
 Iteration    12 Dimension   116 NMult   114 NNew      2
 CISAX will form     2 AO SS matrices at one time.
 NMat=     2 NSing=     2 JSym2X= 0.
 Root      1 has converged.
 Root      2 has converged.
 Root      3 has converged.
 Root      4 has converged.
 Root      5 has converged.
 Root      6 has converged.
 Excitation Energies [eV] at current iteration:
 Root      1 :     3.328653301908258   Change is   -0.000000000000025
 Root      2 :     4.089244183791018   Change is    0.000000000000040
 Root      3 :     4.244579609013988   Change is   -0.000000000000019
 Root      4 :     5.002389305411531   Change is    0.000000000000000
 Root      5 :     5.484943835942509   Change is   -0.000000000000150
 Root      6 :     6.013330019429512   Change is   -0.000000000019413
 Convergence achieved on expansion vectors.
 ***********************************************************************
 Excited states from <AA,BB:AA,BB> singles matrix:
 ***********************************************************************
 
 1PDM for each excited state written to RWF  633
 Ground to excited state transition densities written to RWF  633
 Ground to excited state transition electric dipole moments (Au):
       state          X           Y           Z        Dip. S.      Osc.
         1         1.7050      0.2171      0.0579      2.9574      0.2412
         2         0.1425     -0.0088      0.0451      0.0224      0.0022
         3        -0.0109     -0.1732      0.0380      0.0316      0.0033
         4         0.2025     -1.9815      0.1374      3.9861      0.4885
         5         0.0703     -1.4295      0.0148      2.0486      0.2753
         6        -0.0275      0.2770      0.0543      0.0804      0.0118
 Ground to excited state transition velocity dipole moments (Au):
       state          X           Y           Z        Dip. S.      Osc.
         1        -0.2004     -0.0221     -0.0078      0.0407      0.2220
         2        -0.0206      0.0016     -0.0038      0.0004      0.0020
         3         0.0017      0.0254     -0.0025      0.0007      0.0028
         4        -0.0396      0.3499     -0.0207      0.1244      0.4512
         5        -0.0141      0.2835     -0.0042      0.0806      0.2665
         6         0.0068     -0.0572     -0.0316      0.0043      0.0130
 Ground to excited state transition magnetic dipole moments (Au):
       state          X           Y           Z
         1        -0.0702     -0.0116      1.4358
         2         0.8083      0.1410      0.3434
         3        -0.1588     -0.9973     -0.1924
         4         0.0807      0.1271     -0.1232
         5         0.1893      0.1054     -0.2673
         6         0.0616      0.0235     -0.0361
 Ground to excited state transition velocity quadrupole moments (Au):
       state          XX          YY          ZZ          XY          XZ          YZ
         1        -0.1930      0.1113      0.0003      0.5527     -0.0612      0.0130
         2         0.0042     -0.0083      0.0027      0.0568     -0.0171      0.0892
         3        -0.0179      0.0106     -0.0293     -0.0579      0.0678     -0.0090
         4        -1.3819      0.3189      0.0012     -0.1277     -0.1004     -0.0502
         5        -0.4039      0.2483      0.0482     -0.2148     -0.0655      0.0409
         6        -0.3224     -0.2503      0.2088     -0.0222     -0.0428      0.1170
 <0|del|b> * <b|rxdel|0> + <0|del|b> * <b|delr+rdel|0>
 Rotatory Strengths (R) in cgs (10**-40 erg-esu-cm/Gauss)
       state          XX          YY          ZZ    R(velocity)    E-M Angle
         1       -47.8232     13.2738     52.8535      6.1014       89.37
         2        -2.9822    -46.1599    -34.4792    -27.8738      161.61
         3       -59.8643      0.0980    -54.0371    -37.9345      162.90
         4       163.0806     -2.4962      7.9571     56.1805       50.32
         5        88.4872     -5.3242     16.1441     33.1024       73.16
         6        -3.1111      2.6547      1.1611      0.2349       87.44
 1/2[<0|r|b>*<b|rxdel|0> + (<0|rxdel|b>*<b|r|0>)*]
 Rotatory Strengths (R) in cgs (10**-40 erg-esu-cm/Gauss)
       state          XX          YY          ZZ     R(length)
         1        84.6089      1.7779    -58.7946      9.1974
         2       -81.4567      0.8745    -10.9496    -30.5106
         3        -1.2289   -122.1460      5.1770    -39.3993
         4       -11.5557    178.0618     11.9743     59.4935
         5        -9.4149    106.5229      2.8060     33.3047
         6         1.1972     -4.5947      1.3838     -0.6713
  1/2[<0|del|b>*<b|r|0> + (<0|r|b>*<b|del|0>)*] (Au)
       state          X           Y           Z        Dip. S.   Osc.(frdel)
         1        -0.3418     -0.0048     -0.0004      0.3470      0.2313
         2        -0.0029     -0.0000     -0.0002      0.0031      0.0021
         3        -0.0000     -0.0044     -0.0001      0.0045      0.0030
         4        -0.0080     -0.6933     -0.0028      0.7041      0.4694
         5        -0.0010     -0.4052     -0.0001      0.4063      0.2708
         6        -0.0002     -0.0158     -0.0017      0.0177      0.0118

 Excitation energies and oscillator strengths:
 
 Excited State   1:      Singlet-A      3.3287 eV  372.48 nm  f=0.2412  <S**2>=0.000
      52 -> 53         0.69913
 
 Excited State   2:      Singlet-A      4.0892 eV  303.20 nm  f=0.0022  <S**2>=0.000
      50 -> 53        -0.11135
      50 -> 54        -0.19760
      51 -> 53         0.56305
      51 -> 54         0.31797
 This state for optimization and/or second-order correction.
 Total Energy, E(TD-HF/TD-DFT) =  -633.181690795    
 Copying the excited state density for this state as the 1-particle RhoCI density.
 
 Excited State   3:      Singlet-A      4.2446 eV  292.10 nm  f=0.0033  <S**2>=0.000
      49 -> 53        -0.27098
      49 -> 54         0.17864
      50 -> 53         0.50331
      50 -> 54        -0.23840
      50 -> 58         0.10671
      51 -> 53         0.10046
      51 -> 54        -0.21320
 
 Excited State   4:      Singlet-A      5.0024 eV  247.85 nm  f=0.4885  <S**2>=0.000
      49 -> 53         0.13245
      52 -> 54         0.68412
 
 Excited State   5:      Singlet-A      5.4849 eV  226.04 nm  f=0.2753  <S**2>=0.000
      49 -> 53         0.58490
      50 -> 53         0.31334
      51 -> 53         0.14824
      52 -> 54        -0.13737
 
 Excited State   6:      Singlet-A      6.0133 eV  206.18 nm  f=0.0118  <S**2>=0.000
      52 -> 55         0.66249
      52 -> 56        -0.14621
 SavETr:  write IOETrn=   770 NScale= 10 NData=  16 NLR=1 NState=    6 LETran=     118.
 The selected state is a singlet.
 CISGrd: IGrad=1 NXY=2 DFT=T
 CISAX will form     1 AO SS matrices at one time.
 NMat=     1 NSing=     1 JSym2X= 0.
 Leave Link  914 at Sat Jan 24 21:31:15 2026, MaxMem=  2147483648 cpu:            7749.5 elap:             486.0
 (Enter /data/home/wyx/g16/l1002.exe)
 Minotr:  Closed shell wavefunction.
          Computing CIS/TDA/TD derivatives.
          Using Z-Vector for PSCF gradient.
          Skipping F1 and S1 gradient terms here.
 NEqPCM:  Using equilibrium solvation (IEInf=0, Eps=  78.3553, EpsInf=   1.7778)
          Frozen-core window.
          Direct CPHF calculation.
          Differentiating once with respect to electric field.
                with respect to dipole field.
          Electric field/nuclear overlap derivatives assumed to be zero.
          Requested convergence is 1.0D-10 RMS, and 1.0D-09 maximum.
          NewPWx=F KeepS1=T KeepF1=T KeepIn=T MapXYZ=F SortEE=F KeepMc=T.
 Two-electron integral symmetry used by symmetrizing perturbed Fock matrices.
          MDV=    2147483648 using IRadAn=       5.
          Solving linear equations separately, MaxMat=     384.
          There are     1 degrees of freedom in the 1st order CPHF.  IDoFFX=0 NUNeed=     1.
 FoFJK:  IHMeth= 1 ICntrl=       0 DoSepK=T KAlg= 0 I1Cent=           0 FoldK=F
 IRaf=         1 NMat=       1 IRICut=       1 DoRegI=T DoRafI=F ISym2E=-1 IDoP0=0 IntGTp=1.
 FoFCou: FMM=F IPFlag=           0 FMFlag=      100000 FMFlg1=           0
         NFxFlg=           0 DoJE=T BraDBF=F KetDBF=F FulRan=T
         wScrn=  0.000000 ICntrl=       500 IOpCl=  0 I1Cent=           0 NGrid=           0
         NMat0=    1 NMatS0=      1 NMatT0=    0 NMatD0=    1 NMtDS0=    0 NMtDT0=    0
 Petite list used in FoFCou.
 LinEq1:  Iter=  0 NonCon=     1 RMS=7.59D-03 Max=3.01D-01 NDo=     1
 AX will form     1 AO Fock derivatives at one time.
 LinEq1:  Iter=  1 NonCon=     1 RMS=2.04D-03 Max=8.29D-02 NDo=     1
 LinEq1:  Iter=  2 NonCon=     1 RMS=1.44D-03 Max=8.37D-02 NDo=     1
 LinEq1:  Iter=  3 NonCon=     1 RMS=5.78D-04 Max=3.04D-02 NDo=     1
 LinEq1:  Iter=  4 NonCon=     1 RMS=3.06D-04 Max=1.33D-02 NDo=     1
 LinEq1:  Iter=  5 NonCon=     1 RMS=1.56D-04 Max=7.77D-03 NDo=     1
 LinEq1:  Iter=  6 NonCon=     1 RMS=7.74D-05 Max=2.45D-03 NDo=     1
 LinEq1:  Iter=  7 NonCon=     1 RMS=4.34D-05 Max=1.73D-03 NDo=     1
 LinEq1:  Iter=  8 NonCon=     1 RMS=1.84D-05 Max=6.43D-04 NDo=     1
 LinEq1:  Iter=  9 NonCon=     1 RMS=1.38D-05 Max=6.71D-04 NDo=     1
 LinEq1:  Iter= 10 NonCon=     1 RMS=5.31D-06 Max=9.82D-05 NDo=     1
 LinEq1:  Iter= 11 NonCon=     1 RMS=3.22D-06 Max=1.18D-04 NDo=     1
 LinEq1:  Iter= 12 NonCon=     1 RMS=1.05D-06 Max=3.00D-05 NDo=     1
 LinEq1:  Iter= 13 NonCon=     1 RMS=4.85D-07 Max=1.35D-05 NDo=     1
 LinEq1:  Iter= 14 NonCon=     1 RMS=1.84D-07 Max=5.45D-06 NDo=     1
 LinEq1:  Iter= 15 NonCon=     1 RMS=8.32D-08 Max=3.31D-06 NDo=     1
 LinEq1:  Iter= 16 NonCon=     1 RMS=3.52D-08 Max=1.60D-06 NDo=     1
 LinEq1:  Iter= 17 NonCon=     1 RMS=1.37D-08 Max=4.51D-07 NDo=     1
 LinEq1:  Iter= 18 NonCon=     1 RMS=5.66D-09 Max=1.08D-07 NDo=     1
 LinEq1:  Iter= 19 NonCon=     1 RMS=1.59D-09 Max=3.14D-08 NDo=     1
 LinEq1:  Iter= 20 NonCon=     1 RMS=4.14D-10 Max=1.17D-08 NDo=     1
 LinEq1:  Iter= 21 NonCon=     1 RMS=1.47D-10 Max=3.80D-09 NDo=     1
 LinEq1:  Iter= 22 NonCon=     1 RMS=6.09D-11 Max=1.62D-09 NDo=     1
 LinEq1:  Iter= 23 NonCon=     0 RMS=1.82D-11 Max=5.72D-10 NDo=     1
 Linear equations converged to 1.000D-10 1.000D-09 after    23 iterations.
 PCM Corrected Linear-Response - Equilibrium solvation:
 Corrected transition energy               =    3.9991          eV
 Total energy after correction             = -633.185004308     a.u.
 NEqPCM:  Using non-equilibrium solvation (IEInf=1, Eps=  78.3553, EpsInf=   1.7778)
 Inv3:  Mode=1 IEnd=    13280448.
 Iteration    1 A*A^-1 deviation from unit magnitude is 3.11D-15 for    230.
 Iteration    1 A*A^-1 deviation from orthogonality  is 2.31D-15 for   1790    236.
 Iteration    1 A^-1*A deviation from unit magnitude is 3.33D-15 for    882.
 Iteration    1 A^-1*A deviation from orthogonality  is 1.57D-15 for    681    634.
 NEqSol: Computing the dynamic-inertial partition of the PCM polarization charges.
 End of Minotr F.D. properties file   721 does not exist.
 End of Minotr F.D. properties file   722 does not exist.
 End of Minotr F.D. properties file   788 does not exist.
 Leave Link 1002 at Sat Jan 24 21:33:16 2026, MaxMem=  2147483648 cpu:            1906.9 elap:             120.0
 (Enter /data/home/wyx/g16/l601.exe)
 Copying SCF densities to generalized density rwf, IOpCl= 0 IROHF=0.

 **********************************************************************

            Population analysis using the CI density.

 **********************************************************************

 Orbital symmetries:
       Occupied  (A) (A) (A) (A) (A) (A) (A) (A) (A) (A) (A) (A)
                 (A) (A) (A) (A) (A) (A) (A) (A) (A) (A) (A) (A)
                 (A) (A) (A) (A) (A) (A) (A) (A) (A) (A) (A) (A)
                 (A) (A) (A) (A) (A) (A) (A) (A) (A) (A) (A) (A)
                 (A) (A) (A) (A)
       Virtual   (A) (A) (A) (A) (A) (A) (A) (A) (A) (A) (A) (A)
                 (A) (A) (A) (A) (A) (A) (A) (A) (A) (A) (A) (A)
                 (A) (A) (A) (A) (A) (A) (A) (A) (A) (A) (A) (A)
                 (A) (A) (A) (A) (A) (A) (A) (A) (A) (A) (A) (A)
                 (A) (A) (A) (A) (A) (A) (A) (A) (A) (A) (A) (A)
                 (A) (A) (A) (A) (A) (A) (A) (A) (A) (A) (A) (A)
                 (A) (A) (A) (A) (A) (A) (A) (A) (A) (A) (A) (A)
                 (A) (A) (A) (A) (A) (A) (A) (A) (A) (A) (A) (A)
                 (A) (A) (A) (A) (A) (A) (A) (A) (A) (A) (A) (A)
                 (A) (A) (A) (A) (A) (A) (A) (A) (A) (A) (A) (A)
                 (A) (A) (A) (A) (A) (A) (A) (A) (A) (A) (A) (A)
                 (A) (A) (A) (A) (A) (A) (A) (A) (A) (A) (A) (A)
                 (A) (A) (A) (A) (A) (A) (A) (A) (A) (A) (A) (A)
                 (A) (A) (A) (A) (A) (A) (A) (A) (A) (A) (A) (A)
                 (A) (A) (A) (A) (A) (A) (A) (A) (A) (A) (A) (A)
                 (A) (A) (A) (A) (A) (A) (A) (A) (A) (A) (A) (A)
                 (A) (A) (A) (A) (A) (A) (A) (A) (A) (A) (A) (A)
                 (A) (A) (A) (A) (A) (A) (A) (A) (A) (A) (A) (A)
                 (A) (A) (A) (A) (A) (A) (A) (A) (A) (A) (A) (A)
                 (A) (A) (A) (A) (A) (A) (A) (A) (A) (A) (A) (A)
                 (A) (A) (A) (A) (A) (A) (A) (A) (A) (A) (A) (A)
                 (A) (A) (A) (A) (A) (A) (A) (A) (A) (A) (A) (A)
                 (A) (A) (A) (A) (A) (A) (A) (A) (A) (A) (A) (A)
                 (A) (A) (A) (A) (A) (A) (A) (A) (A) (A) (A) (A)
                 (A) (A) (A) (A) (A) (A) (A) (A) (A) (A) (A) (A)
                 (A) (A) (A) (A)
 The electronic state is 1-A.
 Alpha  occ. eigenvalues --  -19.17968 -19.17478 -14.44137 -10.33503 -10.33157
 Alpha  occ. eigenvalues --  -10.32121 -10.31627 -10.25612 -10.25064 -10.24802
 Alpha  occ. eigenvalues --  -10.24731 -10.24570 -10.24172 -10.23778  -1.11981
 Alpha  occ. eigenvalues --   -1.11620  -1.07650  -0.91236  -0.90337  -0.83897
 Alpha  occ. eigenvalues --   -0.82538  -0.81540  -0.78535  -0.73954  -0.71301
 Alpha  occ. eigenvalues --   -0.68655  -0.61629  -0.58214  -0.56849  -0.55182
 Alpha  occ. eigenvalues --   -0.54504  -0.54029  -0.52600  -0.51902  -0.50743
 Alpha  occ. eigenvalues --   -0.50069  -0.49545  -0.49134  -0.48484  -0.48154
 Alpha  occ. eigenvalues --   -0.46869  -0.45457  -0.45029  -0.43443  -0.43078
 Alpha  occ. eigenvalues --   -0.42450  -0.42127  -0.42052  -0.32809  -0.32349
 Alpha  occ. eigenvalues --   -0.31428  -0.26010
 Alpha virt. eigenvalues --   -0.02509   0.02448   0.06527   0.08245   0.08799
 Alpha virt. eigenvalues --    0.10089   0.10756   0.11970   0.12721   0.13628
 Alpha virt. eigenvalues --    0.14162   0.15092   0.15742   0.16232   0.16993
 Alpha virt. eigenvalues --    0.17513   0.17836   0.18022   0.18255   0.19209
 Alpha virt. eigenvalues --    0.20052   0.22153   0.22903   0.23418   0.23645
 Alpha virt. eigenvalues --    0.24216   0.24850   0.25717   0.25864   0.26583
 Alpha virt. eigenvalues --    0.26880   0.27442   0.28775   0.29145   0.30229
 Alpha virt. eigenvalues --    0.31667   0.32025   0.32660   0.33631   0.34467
 Alpha virt. eigenvalues --    0.35320   0.35952   0.36732   0.38145   0.38805
 Alpha virt. eigenvalues --    0.39881   0.40960   0.41757   0.42226   0.42678
 Alpha virt. eigenvalues --    0.44109   0.44305   0.45403   0.46090   0.46165
 Alpha virt. eigenvalues --    0.47345   0.47835   0.48081   0.48272   0.49037
 Alpha virt. eigenvalues --    0.49572   0.50237   0.50790   0.51382   0.51614
 Alpha virt. eigenvalues --    0.52773   0.53181   0.53466   0.54166   0.54375
 Alpha virt. eigenvalues --    0.54680   0.55948   0.56137   0.56558   0.58341
 Alpha virt. eigenvalues --    0.58683   0.59118   0.60751   0.60989   0.62690
 Alpha virt. eigenvalues --    0.63236   0.65678   0.66073   0.66362   0.67895
 Alpha virt. eigenvalues --    0.68744   0.70215   0.71318   0.72268   0.73122
 Alpha virt. eigenvalues --    0.73318   0.73895   0.74780   0.76139   0.77751
 Alpha virt. eigenvalues --    0.78169   0.79657   0.82072   0.84505   0.85082
 Alpha virt. eigenvalues --    0.89279   0.93196   0.99287   1.00092   1.24492
 Alpha virt. eigenvalues --    1.25602   1.27252   1.27703   1.29429   1.31474
 Alpha virt. eigenvalues --    1.32512   1.33000   1.34120   1.35019   1.36068
 Alpha virt. eigenvalues --    1.36500   1.37178   1.38344   1.39249   1.39859
 Alpha virt. eigenvalues --    1.40121   1.40460   1.41096   1.41568   1.41772
 Alpha virt. eigenvalues --    1.43364   1.44185   1.44510   1.45151   1.47089
 Alpha virt. eigenvalues --    1.48071   1.49146   1.49689   1.50452   1.51126
 Alpha virt. eigenvalues --    1.52030   1.52400   1.53612   1.54381   1.57696
 Alpha virt. eigenvalues --    1.58165   1.60433   1.60737   1.61291   1.62255
 Alpha virt. eigenvalues --    1.62725   1.63335   1.64251   1.65418   1.65653
 Alpha virt. eigenvalues --    1.67144   1.67459   1.67957   1.68220   1.68799
 Alpha virt. eigenvalues --    1.68830   1.69988   1.70561   1.72039   1.72329
 Alpha virt. eigenvalues --    1.73476   1.75167   1.76180   1.76647   1.78753
 Alpha virt. eigenvalues --    1.80164   1.83363   1.84562   1.86251   1.86646
 Alpha virt. eigenvalues --    1.87023   1.87378   1.88503   1.89340   1.90926
 Alpha virt. eigenvalues --    1.91409   1.94578   1.95411   1.98364   1.99671
 Alpha virt. eigenvalues --    2.01042   2.03847   2.04708   2.06664   2.09573
 Alpha virt. eigenvalues --    2.11283   2.12873   2.14761   2.16920   2.19659
 Alpha virt. eigenvalues --    2.20472   2.21405   2.21874   2.22952   2.25946
 Alpha virt. eigenvalues --    2.27059   2.27767   2.29135   2.30793   2.31721
 Alpha virt. eigenvalues --    2.33202   2.34580   2.36331   2.37043   2.37962
 Alpha virt. eigenvalues --    2.39527   2.40202   2.41641   2.43836   2.44917
 Alpha virt. eigenvalues --    2.45987   2.47632   2.50096   2.50591   2.51904
 Alpha virt. eigenvalues --    2.52817   2.53506   2.54921   2.56920   2.58691
 Alpha virt. eigenvalues --    2.59074   2.60171   2.61202   2.62068   2.62706
 Alpha virt. eigenvalues --    2.64493   2.65680   2.67114   2.67575   2.69121
 Alpha virt. eigenvalues --    2.70958   2.72128   2.72986   2.73714   2.74979
 Alpha virt. eigenvalues --    2.76264   2.76626   2.77390   2.77984   2.79327
 Alpha virt. eigenvalues --    2.80663   2.81486   2.83084   2.83465   2.84455
 Alpha virt. eigenvalues --    2.85545   2.86209   2.87943   2.90201   2.91764
 Alpha virt. eigenvalues --    2.97554   2.99653   3.00934   3.04534   3.10414
 Alpha virt. eigenvalues --    3.12402   3.15541   3.16955   3.17369   3.20020
 Alpha virt. eigenvalues --    3.20969   3.22139   3.24792   3.26114   3.27017
 Alpha virt. eigenvalues --    3.27298   3.29527   3.33402   3.34493   3.36676
 Alpha virt. eigenvalues --    3.37160   3.38931   3.39880   3.40475   3.41648
 Alpha virt. eigenvalues --    3.42742   3.45010   3.45504   3.46549   3.47957
 Alpha virt. eigenvalues --    3.48901   3.49856   3.55276   3.58310   3.59589
 Alpha virt. eigenvalues --    3.60282   3.90072   3.99829   4.33868   4.35790
 Alpha virt. eigenvalues --   21.64038  21.79475  22.08276  22.11027  22.11837
 Alpha virt. eigenvalues --   22.14705  22.15480  22.18268  22.20931  22.24673
 Alpha virt. eigenvalues --   22.29962  31.92983  43.62908  43.65309
          Condensed to atoms (all electrons):
               1          2          3          4          5          6
     1  O    7.980489   0.000000  -0.000235   0.000019   0.017212   0.016049
     2  O    0.000000   7.983607   0.000807   0.000024  -0.103437   0.000161
     3  N   -0.000235   0.000807   6.392587   0.373287  -0.091148   0.380912
     4  H    0.000019   0.000024   0.373287   0.412526   0.017166  -0.047002
     5  C    0.017212  -0.103437  -0.091148   0.017166   6.078152  -0.081090
     6  C    0.016049   0.000161   0.380912  -0.047002  -0.081090   5.616400
     7  C   -0.000559   0.009035   0.318555  -0.041065   0.289327  -0.103568
     8  C    0.000102   0.315483   0.014502  -0.000950   0.322209   0.018618
     9  C   -0.027415   0.009846   0.002765  -0.000348  -0.392917  -0.102203
    10  H    0.004902   0.000002   0.004236   0.000019  -0.024700  -0.018450
    11  H    0.017221   0.000005  -0.001148   0.000022  -0.104739   0.024168
    12  C   -0.233060  -0.000625  -0.102406   0.015970   0.188740  -0.156779
    13  C    0.703043   0.000023   0.000021   0.000439   0.082444   0.166162
    14  C   -0.000005   0.005068  -0.030398  -0.007782  -0.086871   0.010892
    15  H    0.000000   0.000811   0.003641   0.001769   0.015395   0.004012
    16  H   -0.000000  -0.002134  -0.001721   0.000720  -0.000951  -0.000601
    17  H    0.000000   0.000598   0.001317   0.000697   0.001662  -0.000970
    18  C   -0.000034  -0.047754  -0.000370   0.000014  -0.030105  -0.000492
    19  H   -0.000005   0.000405  -0.000001  -0.000001   0.009333   0.000092
    20  H   -0.000099   0.002473  -0.000022   0.000000  -0.012868  -0.000076
    21  H    0.000032   0.002411   0.000038   0.000000  -0.010864  -0.000465
    22  C   -0.106400   0.000000   0.000059   0.000119   0.004329  -0.011156
    23  H    0.004855  -0.000000  -0.000030  -0.000053  -0.000636  -0.030959
    24  H    0.001636  -0.000000  -0.000026  -0.000017  -0.000096   0.011268
    25  H    0.007820  -0.000000   0.000037  -0.000003  -0.000163  -0.001355
    26  C    0.000825   0.000001  -0.032212  -0.006556  -0.003022   0.172492
    27  H   -0.000295   0.000000   0.002383   0.000886  -0.000078  -0.055950
    28  H   -0.000050   0.000000  -0.003503   0.000475   0.000492  -0.035296
    29  H    0.000028  -0.000000   0.000528   0.001190  -0.000382  -0.046899
               7          8          9         10         11         12
     1  O   -0.000559   0.000102  -0.027415   0.004902   0.017221  -0.233060
     2  O    0.009035   0.315483   0.009846   0.000002   0.000005  -0.000625
     3  N    0.318555   0.014502   0.002765   0.004236  -0.001148  -0.102406
     4  H   -0.041065  -0.000950  -0.000348   0.000019   0.000022   0.015970
     5  C    0.289327   0.322209  -0.392917  -0.024700  -0.104739   0.188740
     6  C   -0.103568   0.018618  -0.102203  -0.018450   0.024168  -0.156779
     7  C    5.547631  -0.118112  -0.073023  -0.008503   0.018215  -0.022372
     8  C   -0.118112   5.402113  -0.024724  -0.007381  -0.012020  -0.023449
     9  C   -0.073023  -0.024724   6.376860   0.390481   0.522414  -0.110753
    10  H   -0.008503  -0.007381   0.390481   0.562747  -0.040443  -0.018099
    11  H    0.018215  -0.012020   0.522414  -0.040443   0.517442  -0.107379
    12  C   -0.022372  -0.023449  -0.110753  -0.018099  -0.107379   7.359534
    13  C    0.008040  -0.002848  -0.295506   0.004042   0.000194  -0.350793
    14  C    0.197773  -0.020673   0.013636  -0.001225   0.000569  -0.005779
    15  H   -0.056705   0.000814  -0.001028   0.000073  -0.000004   0.000015
    16  H   -0.049641  -0.003768   0.001500  -0.000072   0.000059  -0.000148
    17  H   -0.053486  -0.015100   0.000151   0.000154  -0.000063  -0.000102
    18  C    0.013242   0.180842  -0.026286  -0.009744   0.008896  -0.001048
    19  H   -0.000051  -0.044554   0.003354  -0.000166   0.000533  -0.000801
    20  H   -0.001043  -0.054349  -0.012915   0.001277  -0.001609   0.002803
    21  H    0.000337  -0.034154   0.003588   0.002816  -0.005565   0.001857
    22  C   -0.000026  -0.000048   0.000632   0.001843   0.000866  -0.254631
    23  H    0.000005  -0.000009   0.003598  -0.000129  -0.000083   0.063130
    24  H    0.000043  -0.000001  -0.002321   0.000150  -0.000131  -0.012673
    25  H    0.000007   0.000003   0.000655  -0.000058  -0.000111   0.024594
    26  C    0.000855   0.000456   0.028623  -0.000942  -0.000002  -0.081723
    27  H   -0.001048   0.000011   0.000801  -0.000112   0.000011  -0.003526
    28  H    0.000325  -0.000035  -0.001489  -0.000015   0.000046  -0.017720
    29  H    0.004015  -0.000013  -0.001093   0.000109  -0.000011   0.022692
              13         14         15         16         17         18
     1  O    0.703043  -0.000005   0.000000  -0.000000   0.000000  -0.000034
     2  O    0.000023   0.005068   0.000811  -0.002134   0.000598  -0.047754
     3  N    0.000021  -0.030398   0.003641  -0.001721   0.001317  -0.000370
     4  H    0.000439  -0.007782   0.001769   0.000720   0.000697   0.000014
     5  C    0.082444  -0.086871   0.015395  -0.000951   0.001662  -0.030105
     6  C    0.166162   0.010892   0.004012  -0.000601  -0.000970  -0.000492
     7  C    0.008040   0.197773  -0.056705  -0.049641  -0.053486   0.013242
     8  C   -0.002848  -0.020673   0.000814  -0.003768  -0.015100   0.180842
     9  C   -0.295506   0.013636  -0.001028   0.001500   0.000151  -0.026286
    10  H    0.004042  -0.001225   0.000073  -0.000072   0.000154  -0.009744
    11  H    0.000194   0.000569  -0.000004   0.000059  -0.000063   0.008896
    12  C   -0.350793  -0.005779   0.000015  -0.000148  -0.000102  -0.001048
    13  C    5.456278  -0.000227   0.000020  -0.000033  -0.000002   0.000547
    14  C   -0.000227   5.130637   0.399207   0.421938   0.442742   0.002717
    15  H    0.000020   0.399207   0.537472  -0.022210  -0.023352   0.000021
    16  H   -0.000033   0.421938  -0.022210   0.525534  -0.033436  -0.000596
    17  H   -0.000002   0.442742  -0.023352  -0.033436   0.517082  -0.000604
    18  C    0.000547   0.002717   0.000021  -0.000596  -0.000604   5.093799
    19  H   -0.000042  -0.000029   0.000003   0.000029   0.000083   0.400646
    20  H    0.000072  -0.000193   0.000001  -0.000045  -0.000026   0.436413
    21  H    0.000051  -0.000343  -0.000003   0.000032   0.000047   0.406780
    22  C    0.288053  -0.000025   0.000002  -0.000000  -0.000000   0.000017
    23  H   -0.090499   0.000000  -0.000000   0.000000   0.000000   0.000003
    24  H   -0.025106  -0.000001   0.000000  -0.000000  -0.000000  -0.000002
    25  H   -0.042339   0.000001  -0.000000   0.000000   0.000000  -0.000001
    26  C   -0.055871   0.001598  -0.000150  -0.000066   0.000082   0.000017
    27  H   -0.006064   0.000102  -0.000015   0.000003  -0.000000   0.000000
    28  H    0.006974  -0.000168   0.000010  -0.000025   0.000002  -0.000001
    29  H   -0.000110  -0.000297   0.000137  -0.000003  -0.000010   0.000000
              19         20         21         22         23         24
     1  O   -0.000005  -0.000099   0.000032  -0.106400   0.004855   0.001636
     2  O    0.000405   0.002473   0.002411   0.000000  -0.000000  -0.000000
     3  N   -0.000001  -0.000022   0.000038   0.000059  -0.000030  -0.000026
     4  H   -0.000001   0.000000   0.000000   0.000119  -0.000053  -0.000017
     5  C    0.009333  -0.012868  -0.010864   0.004329  -0.000636  -0.000096
     6  C    0.000092  -0.000076  -0.000465  -0.011156  -0.030959   0.011268
     7  C   -0.000051  -0.001043   0.000337  -0.000026   0.000005   0.000043
     8  C   -0.044554  -0.054349  -0.034154  -0.000048  -0.000009  -0.000001
     9  C    0.003354  -0.012915   0.003588   0.000632   0.003598  -0.002321
    10  H   -0.000166   0.001277   0.002816   0.001843  -0.000129   0.000150
    11  H    0.000533  -0.001609  -0.005565   0.000866  -0.000083  -0.000131
    12  C   -0.000801   0.002803   0.001857  -0.254631   0.063130  -0.012673
    13  C   -0.000042   0.000072   0.000051   0.288053  -0.090499  -0.025106
    14  C   -0.000029  -0.000193  -0.000343  -0.000025   0.000000  -0.000001
    15  H    0.000003   0.000001  -0.000003   0.000002  -0.000000   0.000000
    16  H    0.000029  -0.000045   0.000032  -0.000000   0.000000  -0.000000
    17  H    0.000083  -0.000026   0.000047  -0.000000   0.000000  -0.000000
    18  C    0.400646   0.436413   0.406780   0.000017   0.000003  -0.000002
    19  H    0.506517  -0.024542  -0.018040  -0.000001   0.000000  -0.000000
    20  H   -0.024542   0.523695  -0.039523  -0.000000  -0.000000   0.000000
    21  H   -0.018040  -0.039523   0.517841   0.000008  -0.000000  -0.000000
    22  C   -0.000001  -0.000000   0.000008   5.415615   0.398588   0.404126
    23  H    0.000000  -0.000000  -0.000000   0.398588   0.538728  -0.026690
    24  H   -0.000000   0.000000  -0.000000   0.404126  -0.026690   0.497557
    25  H    0.000000  -0.000001   0.000000   0.381421  -0.021747  -0.010242
    26  C    0.000001  -0.000005  -0.000005  -0.030513   0.014724  -0.013913
    27  H    0.000000  -0.000000   0.000000   0.007065  -0.009342  -0.001779
    28  H   -0.000000   0.000001  -0.000000  -0.010729  -0.001752   0.001350
    29  H   -0.000000   0.000000   0.000000   0.001983   0.000696   0.000209
              25         26         27         28         29
     1  O    0.007820   0.000825  -0.000295  -0.000050   0.000028
     2  O   -0.000000   0.000001   0.000000   0.000000  -0.000000
     3  N    0.000037  -0.032212   0.002383  -0.003503   0.000528
     4  H   -0.000003  -0.006556   0.000886   0.000475   0.001190
     5  C   -0.000163  -0.003022  -0.000078   0.000492  -0.000382
     6  C   -0.001355   0.172492  -0.055950  -0.035296  -0.046899
     7  C    0.000007   0.000855  -0.001048   0.000325   0.004015
     8  C    0.000003   0.000456   0.000011  -0.000035  -0.000013
     9  C    0.000655   0.028623   0.000801  -0.001489  -0.001093
    10  H   -0.000058  -0.000942  -0.000112  -0.000015   0.000109
    11  H   -0.000111  -0.000002   0.000011   0.000046  -0.000011
    12  C    0.024594  -0.081723  -0.003526  -0.017720   0.022692
    13  C   -0.042339  -0.055871  -0.006064   0.006974  -0.000110
    14  C    0.000001   0.001598   0.000102  -0.000168  -0.000297
    15  H   -0.000000  -0.000150  -0.000015   0.000010   0.000137
    16  H    0.000000  -0.000066   0.000003  -0.000025  -0.000003
    17  H    0.000000   0.000082  -0.000000   0.000002  -0.000010
    18  C   -0.000001   0.000017   0.000000  -0.000001   0.000000
    19  H    0.000000   0.000001   0.000000  -0.000000  -0.000000
    20  H   -0.000001  -0.000005  -0.000000   0.000001   0.000000
    21  H    0.000000  -0.000005   0.000000  -0.000000   0.000000
    22  C    0.381421  -0.030513   0.007065  -0.010729   0.001983
    23  H   -0.021747   0.014724  -0.009342  -0.001752   0.000696
    24  H   -0.010242  -0.013913  -0.001779   0.001350   0.000209
    25  H    0.503774   0.002019   0.000969   0.000034  -0.000048
    26  C    0.002019   5.266784   0.434875   0.424862   0.387500
    27  H    0.000969   0.434875   0.520877  -0.029492  -0.027356
    28  H    0.000034   0.424862  -0.029492   0.492413  -0.017722
    29  H   -0.000048   0.387500  -0.027356  -0.017722   0.521531
 Mulliken charges:
               1
     1  O   -0.386077
     2  O   -0.176811
     3  N   -0.232455
     4  H    0.278435
     5  C   -0.082395
     6  C    0.272086
     7  C    0.121797
     8  C    0.107034
     9  C   -0.286884
    10  H    0.157188
    11  H    0.162649
    12  C   -0.175470
    13  C    0.153037
    14  C   -0.472862
    15  H    0.140063
    16  H    0.165634
    17  H    0.162535
    18  C   -0.426918
    19  H    0.167237
    20  H    0.180582
    21  H    0.173122
    22  C   -0.491196
    23  H    0.157600
    24  H    0.176657
    25  H    0.154732
    26  C   -0.510736
    27  H    0.167075
    28  H    0.191014
    29  H    0.153327
 Sum of Mulliken charges =  -0.00000
 Mulliken charges with hydrogens summed into heavy atoms:
               1
     1  O   -0.386077
     2  O   -0.176811
     3  N    0.045980
     5  C   -0.082395
     6  C    0.272086
     7  C    0.121797
     8  C    0.107034
     9  C    0.032952
    12  C   -0.175470
    13  C    0.153037
    14  C   -0.004630
    18  C    0.094022
    22  C   -0.002207
    26  C    0.000680
 Electronic spatial extent (au):  <R**2>=           3178.3109
 Charge=              0.0000 electrons
 Dipole moment (field-independent basis, Debye):
    X=             -0.2733    Y=              6.2657    Z=              0.1139  Tot=              6.2727
 Quadrupole moment (field-independent basis, Debye-Ang):
   XX=            -86.7033   YY=            -78.7456   ZZ=            -86.1987
   XY=            -16.1130   XZ=             -3.7551   YZ=             -1.4773
 Traceless Quadrupole moment (field-independent basis, Debye-Ang):
   XX=             -2.8208   YY=              5.1370   ZZ=             -2.3161
   XY=            -16.1130   XZ=             -3.7551   YZ=             -1.4773
 Octapole moment (field-independent basis, Debye-Ang**2):
  XXX=            -43.8896  YYY=             56.9711  ZZZ=              2.0764  XYY=             42.8027
  XXY=             18.8502  XXZ=             -2.3803  XZZ=             -1.9001  YZZ=             -1.9357
  YYZ=              2.5200  XYZ=              4.8749
 Hexadecapole moment (field-independent basis, Debye-Ang**3):
 XXXX=          -2805.2874 YYYY=          -1268.7962 ZZZZ=           -159.2638 XXXY=            -90.3790
 XXXZ=            -33.1859 YYYX=           -108.7395 YYYZ=            -20.4869 ZZZX=              3.3006
 ZZZY=              5.6049 XXYY=           -680.1849 XXZZ=           -487.0512 YYZZ=           -245.0723
 XXYZ=             -9.3186 YYXZ=             -8.2320 ZZXY=             -0.8204
 N-N= 9.007976859391D+02 E-N=-3.277885854059D+03  KE= 6.308303759223D+02
 No NMR shielding tensors so no spin-rotation constants.
 Leave Link  601 at Sat Jan 24 21:33:16 2026, MaxMem=  2147483648 cpu:               1.8 elap:               0.1
 (Enter /data/home/wyx/g16/l9999.exe)
 Electronic transition elements 
                 1             2             3             4             5 
      1  -0.633210D+03 -0.633182D+03 -0.633176D+03 -0.633148D+03 -0.633130D+03
      2  -0.163419D+01 -0.119790D+00  0.750697D-01  0.498286D+00  0.412965D+00
      3  -0.374323D+00 -0.567129D-01 -0.159312D+00 -0.193302D+01 -0.136860D+01
      4  -0.383082D+00 -0.696447D-01 -0.234416D-01 -0.358642D-01  0.706260D-01
      5   0.190785D+00  0.177907D-01 -0.104878D-01 -0.837139D-01 -0.819569D-01
      6   0.472704D-01  0.849965D-02  0.232937D-01  0.342621D+00  0.271458D+00
      7   0.457428D-01  0.738052D-02  0.355369D-03  0.355477D-02 -0.127838D-01
      8   0.348701D+00 -0.725764D+00  0.440327D+00 -0.140723D+00 -0.261880D+00
      9   0.918741D-02 -0.142501D+00 -0.883765D+00  0.924845D-01  0.355888D-01
     10  -0.139465D+01 -0.494132D+00  0.286092D+00  0.974227D-01  0.220405D+00
     11   0.207271D+00  0.321774D-01 -0.739842D-01 -0.117709D+01 -0.428131D+00
     12  -0.276706D+00 -0.435469D-01  0.444605D-01  0.204653D+00  0.310048D+00
     13  -0.119609D-01  0.997979D-02 -0.710846D-02 -0.893386D-01  0.106875D-01
     14  -0.506362D+00 -0.214804D-01  0.288444D-01 -0.438704D+00 -0.301177D-01
     15  -0.106965D-01  0.200555D-01  0.518112D-01 -0.344708D+00 -0.142424D+00
     16  -0.133664D+00 -0.955843D-01  0.375993D-01 -0.743369D-01 -0.686129D-01
                 6 
      1  -0.633111D+03
      2  -0.560627D-01
      3   0.269717D+00
      4  -0.671812D-01
      5   0.651196D-02
      6  -0.560204D-01
      7   0.336690D-01
      8  -0.716429D-01
      9   0.127599D-02
     10   0.225208D-01
     11  -0.307601D+00
     12  -0.245063D+00
     13   0.188720D+00
     14   0.183082D-01
     15  -0.103384D+00
     16  -0.122138D+00
 1\1\GINC-CN012\SP\RCAM-B3LYP TD-FC\TZVP\C11H15N1O2\WYX\24-Jan-2026\0\\
 #p CAM-B3LYP TZVP em=gd3bj td(nstates=6,root=2) scrf=(Solvent=Water,Co
 rrectedLR,NonEquilibrium=Save) Geom=Check Guess=Read\\Title Card Requi
 red\\0,1\O,0,2.741595,-1.558465,0.760281\O,0,-3.238037,-1.643825,-1.07
 8266\N,0,-0.706159,1.513866,0.096963\H,0,-1.014389,2.471855,0.038108\C
 ,0,-1.248955,-0.759125,-0.155137\C,0,0.64132,1.305949,0.271082\C,0,-1.
 621025,0.549228,-0.23585\C,0,-2.153207,-1.837192,-0.536163\C,0,0.10031
 7,-1.102153,0.411519\H,0,0.000684,-1.441704,1.452344\H,0,0.526714,-1.9
 58701,-0.108748\C,0,1.095069,0.025045,0.352977\C,0,2.490051,-0.391226,
 0.464639\C,0,-2.9477,1.086696,-0.653728\H,0,-3.036023,2.141031,-0.3990
 83\H,0,-3.084171,0.983518,-1.727801\H,0,-3.75882,0.540117,-0.186713\C,
 0,-1.720508,-3.251368,-0.252136\H,0,-2.56052,-3.922597,-0.395986\H,0,-
 0.922986,-3.54738,-0.932973\H,0,-1.333788,-3.366582,0.757715\C,0,3.647
 338,0.536881,0.189614\H,0,3.45113,1.237521,-0.617493\H,0,3.895556,1.10
 9342,1.085122\H,0,4.51,-0.075299,-0.06329\C,0,1.41779,2.58199,0.352\H,
 0,2.241648,2.518481,1.05169\H,0,1.817491,2.86175,-0.622772\H,0,0.76958
 3,3.392345,0.682082\\Version=ES64L-G16RevA.03\State=1-A\HF=-633.331967
 8\RMSD=2.559e-09\Dipole=-0.7111191,2.3552872,-0.1933545\Quadrupole=-7.
 6283487,10.7848436,-3.1564949,7.1749505,-4.1925676,1.4816946\PG=C01 [X
 (C11H15N1O2)]\\@


 WHEN YOU'VE SEEN ONE NUCLEAR WAR YOU'VE SEEN THEM ALL.
 Job cpu time:       0 days  2 hours 42 minutes 34.0 seconds.
 Elapsed time:       0 days  0 hours 10 minutes 12.6 seconds.
 File lengths (MBytes):  RWF=    734 Int=      0 D2E=      0 Chk=     67 Scr=      1
 Normal termination of Gaussian 16 at Sat Jan 24 21:33:18 2026.
