 Entering Gaussian System, Link 0=g16
 Input=DDL-S2-cLR-5.gjf
 Output=DDL-S2-cLR-5.log
 Initial command:
 /data/home/wyx/g16/l1.exe "/scr/tmp/wyx/13117/Gau-2020768.inp" -scrdir="/scr/tmp/wyx/13117/"
 Entering Link 1 = /data/home/wyx/g16/l1.exe PID=   2020769.
  
 Copyright (c) 1988,1990,1992,1993,1995,1998,2003,2009,2016,
            Gaussian, Inc.  All Rights Reserved.
  
 This is part of the Gaussian(R) 16 program.  It is based on
 the Gaussian(R) 09 system (copyright 2009, Gaussian, Inc.),
 the Gaussian(R) 03 system (copyright 2003, Gaussian, Inc.),
 the Gaussian(R) 98 system (copyright 1998, Gaussian, Inc.),
 the Gaussian(R) 94 system (copyright 1995, Gaussian, Inc.),
 the Gaussian 92(TM) system (copyright 1992, Gaussian, Inc.),
 the Gaussian 90(TM) system (copyright 1990, Gaussian, Inc.),
 the Gaussian 88(TM) system (copyright 1988, Gaussian, Inc.),
 the Gaussian 86(TM) system (copyright 1986, Carnegie Mellon
 University), and the Gaussian 82(TM) system (copyright 1983,
 Carnegie Mellon University). Gaussian is a federally registered
 trademark of Gaussian, Inc.
  
 This software contains proprietary and confidential information,
 including trade secrets, belonging to Gaussian, Inc.
  
 This software is provided under written license and may be
 used, copied, transmitted, or stored only in accord with that
 written license.
  
 The following legend is applicable only to US Government
 contracts under FAR:
  
                    RESTRICTED RIGHTS LEGEND
  
 Use, reproduction and disclosure by the US Government is
 subject to restrictions as set forth in subparagraphs (a)
 and (c) of the Commercial Computer Software - Restricted
 Rights clause in FAR 52.227-19.
  
 Gaussian, Inc.
 340 Quinnipiac St., Bldg. 40, Wallingford CT 06492
  
  
 ---------------------------------------------------------------
 Warning -- This program may not be used in any manner that
 competes with the business of Gaussian, Inc. or will provide
 assistance to any competitor of Gaussian, Inc.  The licensee
 of this program is prohibited from giving any competitor of
 Gaussian, Inc. access to this program.  By using this program,
 the user acknowledges that Gaussian, Inc. is engaged in the
 business of creating and licensing software in the field of
 computational chemistry and represents and warrants to the
 licensee that it is not a competitor of Gaussian, Inc. and that
 it will not use this program in any manner prohibited above.
 ---------------------------------------------------------------
  

 Cite this work as:
 Gaussian 16, Revision A.03,
 M. J. Frisch, G. W. Trucks, H. B. Schlegel, G. E. Scuseria, 
 M. A. Robb, J. R. Cheeseman, G. Scalmani, V. Barone, 
 G. A. Petersson, H. Nakatsuji, X. Li, M. Caricato, A. V. Marenich, 
 J. Bloino, B. G. Janesko, R. Gomperts, B. Mennucci, H. P. Hratchian, 
 J. V. Ortiz, A. F. Izmaylov, J. L. Sonnenberg, D. Williams-Young, 
 F. Ding, F. Lipparini, F. Egidi, J. Goings, B. Peng, A. Petrone, 
 T. Henderson, D. Ranasinghe, V. G. Zakrzewski, J. Gao, N. Rega, 
 G. Zheng, W. Liang, M. Hada, M. Ehara, K. Toyota, R. Fukuda, 
 J. Hasegawa, M. Ishida, T. Nakajima, Y. Honda, O. Kitao, H. Nakai, 
 T. Vreven, K. Throssell, J. A. Montgomery, Jr., J. E. Peralta, 
 F. Ogliaro, M. J. Bearpark, J. J. Heyd, E. N. Brothers, K. N. Kudin, 
 V. N. Staroverov, T. A. Keith, R. Kobayashi, J. Normand, 
 K. Raghavachari, A. P. Rendell, J. C. Burant, S. S. Iyengar, 
 J. Tomasi, M. Cossi, J. M. Millam, M. Klene, C. Adamo, R. Cammi, 
 J. W. Ochterski, R. L. Martin, K. Morokuma, O. Farkas, 
 J. B. Foresman, and D. J. Fox, Gaussian, Inc., Wallingford CT, 2016.
 
 ******************************************
 Gaussian 16:  ES64L-G16RevA.03 25-Dec-2016
                24-Jan-2026 
 ******************************************
 %nprocshared=16
 Will use up to   16 processors via shared memory.
 %mem=16GB
 %oldchk=DDL-LR-5.chk
 %chk=DDL-S2-cLR-5.chk
 Copying data from "DDL-LR-5.chk" to current chk file "DDL-S2-cLR-5.chk"
 IOpt=  2 FromEx=T IUOpen= 4 IOptOp= 5 NList=   0 IFRang= 0 IUIn= 4 IUOut= 2.
 ----------------------------------------------------------------------
 #p CAM-B3LYP TZVP em=gd3bj td(nstates=6,root=2) scrf=(Solvent=Water,Co
 rrectedLR,NonEquilibrium=Save) Geom=Check Guess=Read
 ----------------------------------------------------------------------
 1/29=2,30=1,38=1,172=1/1;
 2/12=2,40=1/2;
 3/5=19,7=101,11=9,14=-4,25=1,30=1,70=9002201,71=1,72=1,74=-40,116=-2,124=41/1,2,3,8;
 4/5=1/1;
 5/5=2,38=6,53=1/2;
 8/6=1,10=1,107=2,108=6/1;
 9/8=2,15=1,41=6,42=1,70=2,73=22/14;
 10/5=4,13=10,28=2,74=20/2;
 6/7=2,8=2,9=2,10=2,22=-1/1;
 99/5=1,9=1/99;
 Leave Link    1 at Sat Jan 24 18:37:42 2026, MaxMem=  2147483648 cpu:               1.3 elap:               0.1
 (Enter /data/home/wyx/g16/l101.exe)
 -------------------
 Title Card Required
 -------------------
 Structure from the checkpoint file:  "DDL-S2-cLR-5.chk"
 Charge =  0 Multiplicity = 1
 Z-Matrix found in chk file.
 O,0,2.720956,-1.559423,0.849765
 O,0,-3.294889,-1.659465,-0.930321
 N,0,-0.686565,1.5162,-0.032006
 H,0,-0.994989,2.476539,-0.098671
 C,0,-1.252221,-0.762919,-0.171068
 C,0,0.643454,1.330057,0.213659
 C,0,-1.626893,0.571178,-0.282063
 C,0,-2.163329,-1.848374,-0.475593
 C,0,0.117312,-1.083983,0.300604
 H,0,0.06685,-1.505911,1.319428
 H,0,0.536084,-1.917138,-0.271218
 C,0,1.103584,0.026584,0.319178
 C,0,2.481485,-0.39504,0.506718
 C,0,-2.973124,1.10017,-0.632911
 H,0,-3.01493,2.179714,-0.504687
 H,0,-3.230283,0.870878,-1.662921
 H,0,-3.744737,0.649353,-0.018359
 C,0,-1.702628,-3.264746,-0.251527
 H,0,-2.563536,-3.924056,-0.240095
 H,0,-1.049015,-3.58383,-1.062288
 H,0,-1.148874,-3.392622,0.673304
 C,0,3.649213,0.525774,0.252183
 H,0,3.466512,1.241698,-0.544475
 H,0,3.903236,1.080532,1.157805
 H,0,4.506434,-0.091317,-0.009159
 C,0,1.415077,2.598683,0.36703
 H,0,2.156797,2.523341,1.154674
 H,0,1.930187,2.877522,-0.552311
 H,0,0.748835,3.420602,0.625326
 Recover connectivity data from disk.
 ITRead=  0  0  0  0  0  0  0  0  0  0  0  0  0  0  0  0  0  0  0  0
 ITRead=  0  0  0  0  0  0  0  0  0
 MicOpt= -1 -1 -1 -1 -1 -1 -1 -1 -1 -1 -1 -1 -1 -1 -1 -1 -1 -1 -1 -1
 MicOpt= -1 -1 -1 -1 -1 -1 -1 -1 -1
 NAtoms=     29 NQM=       29 NQMF=       0 NMMI=      0 NMMIF=      0
                NMic=       0 NMicF=      0.
                    Isotopes and Nuclear Properties:
 (Nuclear quadrupole moments (NQMom) in fm**2, nuclear magnetic moments (NMagM)
  in nuclear magnetons)

  Atom         1           2           3           4           5           6           7           8           9          10
 IAtWgt=          16          16          14           1          12          12          12          12          12           1
 AtmWgt=  15.9949146  15.9949146  14.0030740   1.0078250  12.0000000  12.0000000  12.0000000  12.0000000  12.0000000   1.0078250
 NucSpn=           0           0           2           1           0           0           0           0           0           1
 AtZEff=   5.6000000   5.6000000   4.5500000   1.0000000   3.6000000   3.6000000   3.6000000   3.6000000   3.6000000   1.0000000
 NQMom=    0.0000000   0.0000000   2.0440000   0.0000000   0.0000000   0.0000000   0.0000000   0.0000000   0.0000000   0.0000000
 NMagM=    0.0000000   0.0000000   0.4037610   2.7928460   0.0000000   0.0000000   0.0000000   0.0000000   0.0000000   2.7928460
 AtZNuc=   8.0000000   8.0000000   7.0000000   1.0000000   6.0000000   6.0000000   6.0000000   6.0000000   6.0000000   1.0000000

  Atom        11          12          13          14          15          16          17          18          19          20
 IAtWgt=           1          12          12          12           1           1           1          12           1           1
 AtmWgt=   1.0078250  12.0000000  12.0000000  12.0000000   1.0078250   1.0078250   1.0078250  12.0000000   1.0078250   1.0078250
 NucSpn=           1           0           0           0           1           1           1           0           1           1
 AtZEff=   1.0000000   3.6000000   3.6000000   3.6000000   1.0000000   1.0000000   1.0000000   3.6000000   1.0000000   1.0000000
 NQMom=    0.0000000   0.0000000   0.0000000   0.0000000   0.0000000   0.0000000   0.0000000   0.0000000   0.0000000   0.0000000
 NMagM=    2.7928460   0.0000000   0.0000000   0.0000000   2.7928460   2.7928460   2.7928460   0.0000000   2.7928460   2.7928460
 AtZNuc=   1.0000000   6.0000000   6.0000000   6.0000000   1.0000000   1.0000000   1.0000000   6.0000000   1.0000000   1.0000000

  Atom        21          22          23          24          25          26          27          28          29
 IAtWgt=           1          12           1           1           1          12           1           1           1
 AtmWgt=   1.0078250  12.0000000   1.0078250   1.0078250   1.0078250  12.0000000   1.0078250   1.0078250   1.0078250
 NucSpn=           1           0           1           1           1           0           1           1           1
 AtZEff=   1.0000000   3.6000000   1.0000000   1.0000000   1.0000000   3.6000000   1.0000000   1.0000000   1.0000000
 NQMom=    0.0000000   0.0000000   0.0000000   0.0000000   0.0000000   0.0000000   0.0000000   0.0000000   0.0000000
 NMagM=    2.7928460   0.0000000   2.7928460   2.7928460   2.7928460   0.0000000   2.7928460   2.7928460   2.7928460
 AtZNuc=   1.0000000   6.0000000   1.0000000   1.0000000   1.0000000   6.0000000   1.0000000   1.0000000   1.0000000
 Leave Link  101 at Sat Jan 24 18:37:45 2026, MaxMem=  2147483648 cpu:               0.8 elap:               0.1
 (Enter /data/home/wyx/g16/l202.exe)
                          Input orientation:                          
 ---------------------------------------------------------------------
 Center     Atomic      Atomic             Coordinates (Angstroms)
 Number     Number       Type             X           Y           Z
 ---------------------------------------------------------------------
      1          8           0        2.720956   -1.559423    0.849765
      2          8           0       -3.294889   -1.659465   -0.930321
      3          7           0       -0.686565    1.516200   -0.032006
      4          1           0       -0.994989    2.476539   -0.098671
      5          6           0       -1.252221   -0.762919   -0.171068
      6          6           0        0.643454    1.330057    0.213659
      7          6           0       -1.626893    0.571178   -0.282063
      8          6           0       -2.163329   -1.848374   -0.475593
      9          6           0        0.117312   -1.083983    0.300604
     10          1           0        0.066850   -1.505911    1.319428
     11          1           0        0.536084   -1.917138   -0.271218
     12          6           0        1.103584    0.026584    0.319178
     13          6           0        2.481485   -0.395040    0.506718
     14          6           0       -2.973124    1.100170   -0.632911
     15          1           0       -3.014930    2.179714   -0.504687
     16          1           0       -3.230283    0.870878   -1.662921
     17          1           0       -3.744737    0.649353   -0.018359
     18          6           0       -1.702628   -3.264746   -0.251527
     19          1           0       -2.563536   -3.924056   -0.240095
     20          1           0       -1.049015   -3.583830   -1.062288
     21          1           0       -1.148874   -3.392622    0.673304
     22          6           0        3.649213    0.525774    0.252183
     23          1           0        3.466512    1.241698   -0.544475
     24          1           0        3.903236    1.080532    1.157805
     25          1           0        4.506434   -0.091317   -0.009159
     26          6           0        1.415077    2.598683    0.367030
     27          1           0        2.156797    2.523341    1.154674
     28          1           0        1.930187    2.877522   -0.552311
     29          1           0        0.748835    3.420602    0.625326
 ---------------------------------------------------------------------
                    Distance matrix (angstroms):
                    1          2          3          4          5
     1  O    0.000000
     2  O    6.274481   0.000000
     3  N    4.674203   4.206563   0.000000
     4  H    5.567474   4.804967   1.010851   0.000000
     5  C    4.178834   2.356428   2.352379   3.250461   0.000000
     6  C    3.615210   5.075084   1.365266   2.023973   2.849938
     7  C    4.972352   2.859758   1.356397   2.015772   1.390149
     8  C    5.069152   1.234055   3.701075   4.495771   1.449505
     9  C    2.703069   3.672802   2.741861   3.751526   1.483636
    10  H    2.695872   4.047992   3.395168   4.358717   2.124515
    11  H    2.481578   3.895788   3.652383   4.656002   2.130795
    12  C    2.326550   4.873456   2.355190   3.252827   2.532484
    13  C    1.237261   6.085257   3.738931   4.549542   3.812517
    14  C    6.457113   2.794203   2.400525   2.468364   2.577966
    15  H    6.979690   3.872833   2.466772   2.081614   3.446380
    16  H    6.901971   2.635055   3.089794   3.165685   2.967768
    17  H    6.887490   2.522831   3.178683   3.302450   2.868879
    18  C    4.867141   2.360717   4.892649   5.786750   2.543320
    19  H    5.891107   2.477834   5.758707   6.591506   3.423025
    20  H    4.686881   2.960498   5.215665   6.136738   2.965317
    21  H    4.285714   3.190741   4.980735   5.921712   2.763871
    22  C    2.359409   7.375238   4.456532   5.049475   5.085659
    23  H    3.216526   7.367643   4.193569   4.650652   5.140463
    24  H    2.908958   7.980029   4.761484   5.245968   5.634088
    25  H    2.465972   8.010510   5.436163   6.071866   5.799946
    26  C    4.384997   6.480642   2.397477   2.457685   4.324858
    27  H    4.132821   7.180804   3.241489   3.392170   4.917164
    28  H    4.719917   6.930264   2.995214   2.987178   4.850348
    29  H    5.360996   6.676737   2.473703   2.111007   4.705350
                    6          7          8          9         10
     6  C    0.000000
     7  C    2.444609   0.000000
     8  C    4.295989   2.485850   0.000000
     9  C    2.472241   2.474128   2.527469   0.000000
    10  H    3.098050   3.122153   2.883241   1.103889   0.000000
    11  H    3.284952   3.297014   2.708012   1.093845   1.708638
    12  C    1.386325   2.848434   3.849656   1.485408   2.103297
    13  C    2.537755   4.293544   4.965019   2.471121   2.779387
    14  C    3.721447   1.488377   3.061769   3.897790   4.454742
    15  H    3.823835   2.136258   4.117228   4.594687   5.138929
    16  H    4.328768   2.137159   3.153168   4.345492   5.041291
    17  H    4.446730   2.135630   2.991413   4.245187   4.578540
    18  C    5.180030   3.836793   1.506174   2.893572   2.948297
    19  H    6.172227   4.591970   2.126989   3.942755   3.898521
    20  H    5.351521   4.266941   2.144228   3.076854   3.351936
    21  H    5.072219   4.105233   2.175726   2.659313   2.335624
    22  C    3.111743   5.303280   6.320750   3.881750   4.254419
    23  H    2.924420   5.144048   6.422492   4.164144   4.751967
    24  H    3.402918   5.737159   6.931788   4.444450   4.629651
    25  H    4.122204   6.175037   6.913071   4.510624   4.845217
    26  C    1.492761   3.712907   5.769863   3.905206   4.424078
    27  H    2.144678   4.493491   6.358707   4.231043   4.542014
    28  H    2.153379   4.247949   6.252748   4.439313   5.117608
    29  H    2.133296   3.819248   6.120035   4.560214   5.021694
                   11         12         13         14         15
    11  H    0.000000
    12  C    2.109189   0.000000
    13  C    2.589701   1.453117   0.000000
    14  C    4.642145   4.321876   5.769503   0.000000
    15  H    5.426638   4.719839   6.153282   1.087936   0.000000
    16  H    4.888291   4.839830   6.239726   1.086106   1.760947
    17  H    4.997624   4.899795   6.335006   1.084572   1.763842
    18  C    2.613095   4.362727   5.130005   4.562029   5.606101
    19  H    3.692741   5.419235   6.201929   5.056176   6.126155
    20  H    2.432323   4.424615   5.009450   5.081970   6.115078
    21  H    2.430691   4.109737   4.710919   5.021879   5.993393
    22  C    3.991659   2.594977   1.508733   6.705868   6.907906
    23  H    4.317444   2.793891   2.180412   6.441798   6.549088
    24  H    4.729254   3.106791   2.150024   7.105728   7.199521
    25  H    4.377896   3.420686   2.111586   7.599506   7.872360
    26  C    4.644634   2.591334   3.181056   4.743599   4.534356
    27  H    4.937381   2.835685   3.007028   5.615778   5.442271
    28  H    5.001130   3.093641   3.483552   5.216123   4.994335
    29  H    5.416689   3.426212   4.192287   4.562953   4.121002
                   16         17         18         19         20
    16  H    0.000000
    17  H    1.737331   0.000000
    18  C    4.629163   4.420944   0.000000
    19  H    5.045828   4.728686   1.084427   0.000000
    20  H    4.996310   5.126065   1.089201   1.756567   0.000000
    21  H    5.288444   4.853294   1.085499   1.765783   1.748946
    22  C    7.149419   7.399930   6.577535   7.657779   6.378873
    23  H    6.799669   7.254639   6.863954   7.946014   6.629015
    24  H    7.673822   7.749888   7.231415   8.295732   7.156108
    25  H    7.969789   8.284353   6.977238   8.045352   6.646032
    26  C    5.355873   5.529204   6.669520   7.664469   6.807214
    27  H    6.300008   6.302058   7.097501   8.111464   7.244977
    28  H    5.647170   6.120017   7.142498   8.157971   7.133358
    29  H    5.250766   5.318490   7.174428   8.103379   7.425791
                   21         22         23         24         25
    21  H    0.000000
    22  C    6.209091   0.000000
    23  H    6.652946   1.086550   0.000000
    24  H    6.765180   1.091987   1.764783   0.000000
    25  H    6.583835   1.088085   1.773395   1.760364   0.000000
    26  C    6.524062   3.049837   2.623096   3.020106   4.115107
    27  H    6.793953   2.651805   2.499014   2.265338   3.702936
    28  H    7.092070   3.022082   2.244165   3.169636   3.968132
    29  H    7.072738   4.114785   3.674483   3.963547   5.182248
                   26         27         28         29
    26  C    0.000000
    27  H    1.084531   0.000000
    28  H    1.090081   1.758009   0.000000
    29  H    1.089103   1.751469   1.754240   0.000000
 Stoichiometry    C11H15NO2
 Framework group  C1[X(C11H15NO2)]
 Deg. of freedom    81
 Full point group                 C1      NOp   1
 RotChk:  IX=0 Diff= 1.04D-15
 Largest Abelian subgroup         C1      NOp   1
 Largest concise Abelian subgroup C1      NOp   1
                         Standard orientation:                         
 ---------------------------------------------------------------------
 Center     Atomic      Atomic             Coordinates (Angstroms)
 Number     Number       Type             X           Y           Z
 ---------------------------------------------------------------------
      1          8           0       -2.288426   -2.285132   -0.256834
      2          8           0        3.623122   -0.257841    0.302457
      3          7           0       -0.022057    1.800307   -0.112120
      4          1           0       -0.049909    2.810722   -0.122374
      5          6           0        1.296209   -0.147077   -0.052453
      6          6           0       -1.231878    1.168100   -0.087613
      7          6           0        1.211160    1.240393   -0.038063
      8          6           0        2.559767   -0.844331    0.082916
      9          6           0        0.054694   -0.937512   -0.239614
     10          1           0        0.059943   -1.400371   -1.241765
     11          1           0        0.052955   -1.812868    0.416318
     12          6           0       -1.235123   -0.218201   -0.080242
     13          6           0       -2.399037   -1.083023    0.014302
     14          6           0        2.339015    2.209047    0.032072
     15          1           0        1.989403    3.228225   -0.118432
     16          1           0        2.840120    2.161152    0.994479
     17          1           0        3.093106    1.988754   -0.715667
     18          6           0        2.572758   -2.346644   -0.024069
     19          1           0        3.588772   -2.684974   -0.195041
     20          1           0        2.223443   -2.796139    0.904528
     21          1           0        1.937501   -2.723813   -0.819369
     22          6           0       -3.742944   -0.579811    0.480099
     23          1           0       -3.672396    0.218354    1.213956
     24          1           0       -4.328744   -0.214571   -0.365994
     25          1           0       -4.278778   -1.421095    0.914898
     26          6           0       -2.401246    2.095789   -0.105155
     27          1           0       -3.203090    1.717367   -0.729695
     28          1           0       -2.805222    2.263228    0.893367
     29          1           0       -2.110512    3.067280   -0.502425
 ---------------------------------------------------------------------
 Rotational constants (GHZ):           1.0753577           0.4901393           0.3437541
 Leave Link  202 at Sat Jan 24 18:37:46 2026, MaxMem=  2147483648 cpu:               0.0 elap:               0.0
 (Enter /data/home/wyx/g16/l301.exe)
 Standard basis: TZVP (5D, 7F)
 Ernie: Thresh=  0.10000D-02 Tol=  0.10000D-05 Strict=F.
 There are   370 symmetry adapted cartesian basis functions of A   symmetry.
 There are   356 symmetry adapted basis functions of A   symmetry.
   356 basis functions,   610 primitive gaussians,   370 cartesian basis functions
    52 alpha electrons       52 beta electrons
       nuclear repulsion energy       899.7021803292 Hartrees.
 IExCor=20419 DFT=T Ex+Corr=CAM-B3LYP ExCW=0 ScaHFX=  1.000000
 ScaDFX=  1.000000  1.000000  1.000000  0.810000 ScalE2=  1.000000  1.000000
 IRadAn=      5 IRanWt=     -1 IRanGd=            0 ICorTp=0 IEmpDi=141
 HFx  wShort=  0.000000 wLong=  0.330000 cFull=  0.190000 cShort=  0.000000 cLong=  0.460000
 DFx  wShort=  0.000000 wLong=  0.330000 cFull=  0.190000 cShort=  0.000000 cLong=  0.460000
 NAtoms=   29 NActive=   29 NUniq=   29 SFac= 1.00D+00 NAtFMM=   60 NAOKFM=F Big=F
 Integral buffers will be    131072 words long.
 Raffenetti 1 integral format.
 Two-electron integral symmetry is turned on.
 R6Disp:  Grimme-D3(BJ) Dispersion energy=       -0.0261494983 Hartrees.
 Nuclear repulsion after empirical dispersion term =      899.6760308309 Hartrees.
 ------------------------------------------------------------------------------
 Polarizable Continuum Model (PCM)
 =================================
 Model                : PCM.
 Atomic radii         : UFF (Universal Force Field).
 Polarization charges : Total charges.
 Charge compensation  : None.
 Solution method      : On-the-fly selection.
 Cavity type          : Scaled VdW (van der Waals Surface) (Alpha=1.100).
 Cavity algorithm     : GePol (No added spheres)
                        Default sphere list used, NSphG=   29.
                        Lebedev-Laikov grids with approx.  5.0 points / Ang**2.
                        Smoothing algorithm: York/Karplus (Gamma=1.0000).
                        Polarization charges: spherical gaussians, with
                                              point-specific exponents (IZeta= 3).
                        Self-potential: point-specific (ISelfS= 7).
                        Self-field    : sphere-specific E.n sum rule (ISelfD= 2).
 1st derivatives      : Analytical E(r).r(x)/FMM algorithm (CHGder, D1EAlg=3).
                        Cavity 1st derivative terms included.
 Solvent              : Water, Eps=  78.355300 Eps(inf)=   1.777849
 ------------------------------------------------------------------------------
 GePol: Number of generator spheres                  =      29
 GePol: Total number of spheres                      =      29
 GePol: Number of exposed spheres                    =      29 (100.00%)
 GePol: Number of points                             =    2118
 GePol: Average weight of points                     =       0.13
 GePol: Minimum weight of points                     =   0.39D-11
 GePol: Maximum weight of points                     =    0.20577
 GePol: Number of points with low weight             =     135
 GePol: Fraction of low-weight points (<1% of avg)   =       6.37%
 GePol: Cavity surface area                          =    269.079 Ang**2
 GePol: Cavity volume                                =    287.080 Ang**3
 Leave Link  301 at Sat Jan 24 18:37:46 2026, MaxMem=  2147483648 cpu:               0.6 elap:               0.0
 (Enter /data/home/wyx/g16/l302.exe)
 NPDir=0 NMtPBC=     1 NCelOv=     1 NCel=       1 NClECP=     1 NCelD=      1
         NCelK=      1 NCelE2=     1 NClLst=     1 CellRange=     0.0.
 One-electron integrals computed using PRISM.
 One-electron integral symmetry used in STVInt
 NBasis=   356 RedAO= T EigKep=  4.36D-05  NBF=   356
 NBsUse=   356 1.00D-06 EigRej= -1.00D+00 NBFU=   356
 Precomputing XC quadrature grid using
 IXCGrd= 4 IRadAn=           5 IRanWt=          -1 IRanGd=           0 AccXCQ= 0.00D+00.
 Generated NRdTot=       0 NPtTot=           0 NUsed=           0 NTot=          32
 NSgBfM=   366   366   366   366   366 MxSgAt=    29 MxSgA2=    29.
 Leave Link  302 at Sat Jan 24 18:37:46 2026, MaxMem=  2147483648 cpu:               3.1 elap:               0.2
 (Enter /data/home/wyx/g16/l303.exe)
 DipDrv:  MaxL=1.
 Leave Link  303 at Sat Jan 24 18:37:46 2026, MaxMem=  2147483648 cpu:               0.6 elap:               0.0
 (Enter /data/home/wyx/g16/l308.exe)
 Leave Link  308 at Sat Jan 24 18:37:46 2026, MaxMem=  2147483648 cpu:               0.7 elap:               0.1
 (Enter /data/home/wyx/g16/l401.exe)
 Initial guess from the checkpoint file:  "DDL-S2-cLR-5.chk"
 B after Tr=     0.000000   -0.000000   -0.000000
         Rot=    1.000000   -0.000000   -0.000000    0.000000 Ang=   0.00 deg.
 Guess basis will be translated and rotated to current coordinates.
 JPrj=2 DoOrth=T DoCkMO=T.
 Leave Link  401 at Sat Jan 24 18:37:47 2026, MaxMem=  2147483648 cpu:               2.2 elap:               0.1
 (Enter /data/home/wyx/g16/l502.exe)
 Integral symmetry usage will be decided dynamically.
 Closed shell SCF:
 Using DIIS extrapolation, IDIIS=  1040.
 NGot=  2147483648 LenX=  2147200095 LenY=  2147062754
 Requested convergence on RMS density matrix=1.00D-08 within 128 cycles.
 Requested convergence on MAX density matrix=1.00D-06.
 Requested convergence on             energy=1.00D-06.
 No special actions if energy rises.
 Fock matrices will be formed incrementally for  20 cycles.

 Cycle   1  Pass 1  IDiag  1:
 FoFJK:  IHMeth= 1 ICntrl=       0 DoSepK=T KAlg= 0 I1Cent=           0 FoldK=F
 IRaf=         1 NMat=       1 IRICut=       1 DoRegI=T DoRafI=F ISym2E= 0 IDoP0=0 IntGTp=1.
 FoFCou: FMM=F IPFlag=           0 FMFlag=      100000 FMFlg1=           0
         NFxFlg=           0 DoJE=T BraDBF=F KetDBF=F FulRan=T
         wScrn=  0.000000 ICntrl=       500 IOpCl=  0 I1Cent=           0 NGrid=           0
         NMat0=    1 NMatS0=      1 NMatT0=    0 NMatD0=    1 NMtDS0=    0 NMtDT0=    0
 Symmetry not used in FoFCou.
 Inv3:  Mode=1 IEnd=    13457772.
 Iteration    1 A*A^-1 deviation from unit magnitude is 2.78D-15 for   1110.
 Iteration    1 A*A^-1 deviation from orthogonality  is 1.92D-15 for   1780    238.
 Iteration    1 A^-1*A deviation from unit magnitude is 3.11D-15 for   1225.
 Iteration    1 A^-1*A deviation from orthogonality  is 1.78D-15 for   2031   1568.
 E= -633.326697992107    
 DIIS: error= 1.17D-08 at cycle   1 NSaved=   1.
 NSaved= 1 IEnMin= 1 EnMin= -633.326697992107     IErMin= 1 ErrMin= 1.17D-08
 ErrMax= 1.17D-08  0.00D+00 EMaxC= 1.00D-01 BMatC= 5.06D-14 BMatP= 5.06D-14
 IDIUse=1 WtCom= 1.00D+00 WtEn= 0.00D+00
 Coeff-Com:  0.100D+01
 Coeff:      0.100D+01
 Gap=     0.221 Goal=   None    Shift=    0.000
 RMSDP=2.85D-09 MaxDP=1.05D-07              OVMax= 2.22D-07

 Error on total polarization charges =  0.01553
 SCF Done:  E(RCAM-B3LYP) =  -633.326697992     A.U. after    1 cycles
            NFock=  1  Conv=0.28D-08     -V/T= 2.0042
 KE= 6.306748435915D+02 PE=-3.275332064915D+03 EE= 1.111654492500D+03
 Leave Link  502 at Sat Jan 24 18:37:52 2026, MaxMem=  2147483648 cpu:              85.1 elap:               5.6
 (Enter /data/home/wyx/g16/l801.exe)
 DoSCS=F DFT=T ScalE2(SS,OS)=  1.000000  1.000000
 ExpMin= 9.52D-02 ExpMax= 2.70D+04 ExpMxC= 9.22D+02 IAcc=3 IRadAn=         5 AccDes= 0.00D+00
 HarFok:  IExCor=  205 AccDes= 0.00D+00 IRadAn=         5 IDoV=-2 UseB2=F ITyADJ=14
 ICtDFT= 12500011 ScaDFX=  1.000000  1.000000  1.000000  1.000000
 Largest valence mixing into a core orbital is  5.60D-05
 Largest core mixing into a valence orbital is  1.16D-05
 Range of M.O.s used for correlation:    15   356
 NBasis=   356 NAE=    52 NBE=    52 NFC=    14 NFV=     0
 NROrb=    342 NOA=    38 NOB=    38 NVA=   304 NVB=   304

 **** Warning!!: The largest alpha MO coefficient is  0.61174632D+02

 Leave Link  801 at Sat Jan 24 18:37:53 2026, MaxMem=  2147483648 cpu:               1.0 elap:               0.1
 (Enter /data/home/wyx/g16/l914.exe)
 RHF ground state
 Two-electron integrals replicated using symmetry.
 MDV=  2147483648 DFT=T DoStab=F Mixed=T DoRPA=T DoScal=F NonHer=T
 NEqPCM:  Using equilibrium solvation (IEInf=0, Eps=  78.3553, EpsInf=   1.7778)
 Making orbital integer symmetry assigments:
 Orbital symmetries:
       Occupied  (A) (A) (A) (A) (A) (A) (A) (A) (A) (A) (A) (A)
                 (A) (A) (A) (A) (A) (A) (A) (A) (A) (A) (A) (A)
                 (A) (A) (A) (A) (A) (A) (A) (A) (A) (A) (A) (A)
                 (A) (A) (A) (A) (A) (A) (A) (A) (A) (A) (A) (A)
                 (A) (A) (A) (A)
       Virtual   (A) (A) (A) (A) (A) (A) (A) (A) (A) (A) (A) (A)
                 (A) (A) (A) (A) (A) (A) (A) (A) (A) (A) (A) (A)
                 (A) (A) (A) (A) (A) (A) (A) (A) (A) (A) (A) (A)
                 (A) (A) (A) (A) (A) (A) (A) (A) (A) (A) (A) (A)
                 (A) (A) (A) (A) (A) (A) (A) (A) (A) (A) (A) (A)
                 (A) (A) (A) (A) (A) (A) (A) (A) (A) (A) (A) (A)
                 (A) (A) (A) (A) (A) (A) (A) (A) (A) (A) (A) (A)
                 (A) (A) (A) (A) (A) (A) (A) (A) (A) (A) (A) (A)
                 (A) (A) (A) (A) (A) (A) (A) (A) (A) (A) (A) (A)
                 (A) (A) (A) (A) (A) (A) (A) (A) (A) (A) (A) (A)
                 (A) (A) (A) (A) (A) (A) (A) (A) (A) (A) (A) (A)
                 (A) (A) (A) (A) (A) (A) (A) (A) (A) (A) (A) (A)
                 (A) (A) (A) (A) (A) (A) (A) (A) (A) (A) (A) (A)
                 (A) (A) (A) (A) (A) (A) (A) (A) (A) (A) (A) (A)
                 (A) (A) (A) (A) (A) (A) (A) (A) (A) (A) (A) (A)
                 (A) (A) (A) (A) (A) (A) (A) (A) (A) (A) (A) (A)
                 (A) (A) (A) (A) (A) (A) (A) (A) (A) (A) (A) (A)
                 (A) (A) (A) (A) (A) (A) (A) (A) (A) (A) (A) (A)
                 (A) (A) (A) (A) (A) (A) (A) (A) (A) (A) (A) (A)
                 (A) (A) (A) (A) (A) (A) (A) (A) (A) (A) (A) (A)
                 (A) (A) (A) (A) (A) (A) (A) (A) (A) (A) (A) (A)
                 (A) (A) (A) (A) (A) (A) (A) (A) (A) (A) (A) (A)
                 (A) (A) (A) (A) (A) (A) (A) (A) (A) (A) (A) (A)
                 (A) (A) (A) (A) (A) (A) (A) (A) (A) (A) (A) (A)
                 (A) (A) (A) (A) (A) (A) (A) (A) (A) (A) (A) (A)
                 (A) (A) (A) (A)
 PCM Corrected Linear-Response:
 Compute the excitation energies in the ground state reaction field.
    24 initial guesses have been made.
 Convergence on wavefunction:    0.000001000000000
 Davidson Disk Diagonalization:  ConvIn= 1.00D-06 SkipCon=T Conv= 1.00D-06.
 Max sub-space:  2000 roots to seek:    24 dimension of matrix:        23104
 Iteration     1 Dimension    24 NMult     0 NNew     24
 CISAX will form    24 AO SS matrices at one time.
 NMat=    24 NSing=    24 JSym2X= 0.
 FoFJK:  IHMeth= 1 ICntrl=       0 DoSepK=T KAlg= 0 I1Cent=           0 FoldK=F
 IRaf=         1 NMat=      48 IRICut=       1 DoRegI=T DoRafI=F ISym2E= 0 IDoP0=3 IntGTp=3.
 FoFCou: FMM=F IPFlag=           0 FMFlag=      100000 FMFlg1=           0
         NFxFlg=           0 DoJE=F BraDBF=F KetDBF=F FulRan=T
         wScrn=  0.000000 ICntrl=       500 IOpCl=  0 I1Cent=           0 NGrid=           0
         NMat0=   24 NMatS0=     24 NMatT0=    0 NMatD0=   24 NMtDS0=    0 NMtDT0=    0
 Symmetry not used in FoFCou.
 New state      2 was old state      3
 New state      3 was old state      4
 New state      4 was old state      2
 New state      5 was old state      6
 New state      6 was old state      5
 Excitation Energies [eV] at current iteration:
 Root      1 :     3.630211276736632
 Root      2 :     4.222142258893049
 Root      3 :     4.435572637361529
 Root      4 :     5.351650504817071
 Root      5 :     6.003758646175892
 Root      6 :     6.342900728302080
 Root      7 :     6.633067379504846
 Root      8 :     6.760301884383919
 Root      9 :     6.929881783709068
 Root     10 :     6.984931696550677
 Root     11 :     7.163701346516438
 Root     12 :     7.311559805737851
 Root     13 :     7.383186017317380
 Root     14 :     7.418179850929732
 Root     15 :     7.793950743418816
 Root     16 :     7.867019480101316
 Root     17 :     8.059967388301551
 Root     18 :     8.153968722010729
 Root     19 :     8.231328910166607
 Root     20 :     8.326110994709646
 Root     21 :     8.487223611250432
 Root     22 :     8.685505770577304
 Root     23 :     8.842435110752188
 Root     24 :     8.977843935558697
 Iteration     2 Dimension    36 NMult    24 NNew     12
 CISAX will form    12 AO SS matrices at one time.
 NMat=    12 NSing=    12 JSym2X= 0.
 Root      1 not converged, maximum delta is    0.035518806504496
 Root      2 not converged, maximum delta is    0.075315940664816
 Root      3 not converged, maximum delta is    0.081023154638122
 Root      4 not converged, maximum delta is    0.184571533829529
 New state      5 was old state      6
 Root      5 not converged, maximum delta is    0.185582748964742
 New state      6 was old state      5
 Root      6 not converged, maximum delta is    0.087978056768652
 Excitation Energies [eV] at current iteration:
 Root      1 :     3.158374693516466   Change is   -0.471836583220166
 Root      2 :     4.005473221138407   Change is   -0.216669037754642
 Root      3 :     4.178007614973900   Change is   -0.257565022387628
 Root      4 :     5.039045389549826   Change is   -0.312605115267245
 Root      5 :     5.497311574122916   Change is   -0.845589154179164
 Root      6 :     5.898453124427364   Change is   -0.105305521748527
 Iteration     3 Dimension    48 NMult    36 NNew     12
 CISAX will form    12 AO SS matrices at one time.
 NMat=    12 NSing=    12 JSym2X= 0.
 Root      1 not converged, maximum delta is    0.007909422880888
 Root      2 not converged, maximum delta is    0.014398444932886
 Root      3 not converged, maximum delta is    0.011878061337362
 Root      4 not converged, maximum delta is    0.020613292050844
 Root      5 not converged, maximum delta is    0.023901313689944
 Root      6 not converged, maximum delta is    0.007551806347781
 Excitation Energies [eV] at current iteration:
 Root      1 :     3.138353208916970   Change is   -0.020021484599496
 Root      2 :     3.992805970944780   Change is   -0.012667250193627
 Root      3 :     4.164248396560446   Change is   -0.013759218413454
 Root      4 :     5.019417961596052   Change is   -0.019627427953773
 Root      5 :     5.459487414452690   Change is   -0.037824159670226
 Root      6 :     5.893175674370334   Change is   -0.005277450057031
 Iteration     4 Dimension    60 NMult    48 NNew     12
 CISAX will form    12 AO SS matrices at one time.
 NMat=    12 NSing=    12 JSym2X= 0.
 Root      1 not converged, maximum delta is    0.002180209869515
 Root      2 not converged, maximum delta is    0.001883600692187
 Root      3 not converged, maximum delta is    0.002152290970272
 Root      4 not converged, maximum delta is    0.002471774735618
 Root      5 not converged, maximum delta is    0.004020185384869
 Root      6 not converged, maximum delta is    0.002246978707867
 Excitation Energies [eV] at current iteration:
 Root      1 :     3.136862470368768   Change is   -0.001490738548202
 Root      2 :     3.992143208597324   Change is   -0.000662762347456
 Root      3 :     4.163293187823007   Change is   -0.000955208737439
 Root      4 :     5.017606394446686   Change is   -0.001811567149367
 Root      5 :     5.455633651003259   Change is   -0.003853763449431
 Root      6 :     5.892829900199144   Change is   -0.000345774171190
 Iteration     5 Dimension    72 NMult    60 NNew     12
 CISAX will form    12 AO SS matrices at one time.
 NMat=    12 NSing=    12 JSym2X= 0.
 Root      1 not converged, maximum delta is    0.000745564778526
 Root      2 not converged, maximum delta is    0.000362249726443
 Root      3 not converged, maximum delta is    0.000505642023917
 Root      4 not converged, maximum delta is    0.000532591459681
 Root      5 not converged, maximum delta is    0.001277154690371
 Root      6 not converged, maximum delta is    0.000391127399906
 Excitation Energies [eV] at current iteration:
 Root      1 :     3.136776049161988   Change is   -0.000086421206779
 Root      2 :     3.992089754092496   Change is   -0.000053454504828
 Root      3 :     4.163245461771335   Change is   -0.000047726051673
 Root      4 :     5.017478962978295   Change is   -0.000127431468391
 Root      5 :     5.455329046697645   Change is   -0.000304604305615
 Root      6 :     5.892802737217556   Change is   -0.000027162981588
 Iteration     6 Dimension    84 NMult    72 NNew     12
 CISAX will form    12 AO SS matrices at one time.
 NMat=    12 NSing=    12 JSym2X= 0.
 Root      1 not converged, maximum delta is    0.000150489474980
 Root      2 not converged, maximum delta is    0.000107577881108
 Root      3 not converged, maximum delta is    0.000101207414867
 Root      4 not converged, maximum delta is    0.000181956861889
 Root      5 not converged, maximum delta is    0.000709180077216
 Root      6 not converged, maximum delta is    0.000176051139708
 Excitation Energies [eV] at current iteration:
 Root      1 :     3.136771927950597   Change is   -0.000004121211391
 Root      2 :     3.992086783450099   Change is   -0.000002970642397
 Root      3 :     4.163242827250865   Change is   -0.000002634520470
 Root      4 :     5.017469882919076   Change is   -0.000009080059219
 Root      5 :     5.455300546171549   Change is   -0.000028500526095
 Root      6 :     5.892800170113107   Change is   -0.000002567104449
 Iteration     7 Dimension    96 NMult    84 NNew     12
 CISAX will form    12 AO SS matrices at one time.
 NMat=    12 NSing=    12 JSym2X= 0.
 Root      1 not converged, maximum delta is    0.000016081989785
 Root      2 not converged, maximum delta is    0.000023943170696
 Root      3 not converged, maximum delta is    0.000027099102698
 Root      4 not converged, maximum delta is    0.000055476651122
 Root      5 not converged, maximum delta is    0.000261440368134
 Root      6 not converged, maximum delta is    0.000070180915219
 Excitation Energies [eV] at current iteration:
 Root      1 :     3.136771711317039   Change is   -0.000000216633558
 Root      2 :     3.992086625640385   Change is   -0.000000157809714
 Root      3 :     4.163242674262871   Change is   -0.000000152987994
 Root      4 :     5.017469204226516   Change is   -0.000000678692561
 Root      5 :     5.455297179295754   Change is   -0.000003366875796
 Root      6 :     5.892799934290162   Change is   -0.000000235822946
 Iteration     8 Dimension   108 NMult    96 NNew     12
 CISAX will form    12 AO SS matrices at one time.
 NMat=    12 NSing=    12 JSym2X= 0.
 Root      1 not converged, maximum delta is    0.000002198249895
 Root      2 not converged, maximum delta is    0.000002958340522
 Root      3 not converged, maximum delta is    0.000002760751099
 Root      4 not converged, maximum delta is    0.000018619475521
 Root      5 not converged, maximum delta is    0.000035261275161
 Root      6 not converged, maximum delta is    0.000016948763831
 Excitation Energies [eV] at current iteration:
 Root      1 :     3.136771704533469   Change is   -0.000000006783570
 Root      2 :     3.992086617878347   Change is   -0.000000007762037
 Root      3 :     4.163242665901315   Change is   -0.000000008361555
 Root      4 :     5.017469153637821   Change is   -0.000000050588695
 Root      5 :     5.455296943500894   Change is   -0.000000235794859
 Root      6 :     5.892799910898574   Change is   -0.000000023391588
 Iteration     9 Dimension   120 NMult   108 NNew     12
 CISAX will form    12 AO SS matrices at one time.
 NMat=    12 NSing=    12 JSym2X= 0.
 Root      1 has converged.
 Root      2 has converged.
 Root      3 has converged.
 Root      4 not converged, maximum delta is    0.000003324956289
 Root      5 not converged, maximum delta is    0.000006266203813
 Root      6 not converged, maximum delta is    0.000004644704154
 Excitation Energies [eV] at current iteration:
 Root      1 :     3.136771704351116   Change is   -0.000000000182353
 Root      2 :     3.992086617576788   Change is   -0.000000000301559
 Root      3 :     4.163242665642820   Change is   -0.000000000258495
 Root      4 :     5.017469151029792   Change is   -0.000000002608030
 Root      5 :     5.455296931391596   Change is   -0.000000012109299
 Root      6 :     5.892799908983589   Change is   -0.000000001914985
 Iteration    10 Dimension   126 NMult   120 NNew      6
 CISAX will form     6 AO SS matrices at one time.
 NMat=     6 NSing=     6 JSym2X= 0.
 Root      1 has converged.
 Root      2 has converged.
 Root      3 has converged.
 Root      4 has converged.
 Root      5 not converged, maximum delta is    0.000001113897795
 Root      6 not converged, maximum delta is    0.000001205019375
 Excitation Energies [eV] at current iteration:
 Root      1 :     3.136771704350854   Change is   -0.000000000000262
 Root      2 :     3.992086617575574   Change is   -0.000000000001214
 Root      3 :     4.163242665642188   Change is   -0.000000000000632
 Root      4 :     5.017469150920624   Change is   -0.000000000109168
 Root      5 :     5.455296930803787   Change is   -0.000000000587808
 Root      6 :     5.892799908855578   Change is   -0.000000000128010
 Iteration    11 Dimension   130 NMult   126 NNew      4
 CISAX will form     4 AO SS matrices at one time.
 NMat=     4 NSing=     4 JSym2X= 0.
 Root      1 has converged.
 Root      2 has converged.
 Root      3 has converged.
 Root      4 has converged.
 Root      5 has converged.
 Root      6 has converged.
 Excitation Energies [eV] at current iteration:
 Root      1 :     3.136771704350828   Change is   -0.000000000000026
 Root      2 :     3.992086617575470   Change is   -0.000000000000103
 Root      3 :     4.163242665642168   Change is   -0.000000000000020
 Root      4 :     5.017469150919197   Change is   -0.000000000001426
 Root      5 :     5.455296930776557   Change is   -0.000000000027230
 Root      6 :     5.892799908847069   Change is   -0.000000000008510
 Convergence achieved on expansion vectors.
 PCM Corrected Linear-Response:
 The state of interest is root number   2
 Excitation energy =    3.9921 eV, Total energy =  -633.179991508    
 Recompute the excitation energies using the linear response reaction field.
 Convergence on wavefunction:    0.000001000000000
 Davidson Disk Diagonalization:  ConvIn= 1.00D-06 SkipCon=T Conv= 1.00D-06.
 Max sub-space:  2000 roots to seek:     6 dimension of matrix:        23104
 Iteration     1 Dimension     6 NMult     0 NNew      6
 CISAX will form     6 AO SS matrices at one time.
 NMat=     6 NSing=     6 JSym2X= 0.
 Excitation Energies [eV] at current iteration:
 Root      1 :     3.225440040507526
 Root      2 :     4.016928954891282
 Root      3 :     4.188439465034627
 Root      4 :     5.080921557886568
 Root      5 :     5.603320854212051
 Root      6 :     5.852263801814965
 Iteration     2 Dimension    18 NMult     6 NNew     12
 CISAX will form    12 AO SS matrices at one time.
 NMat=    12 NSing=    12 JSym2X= 0.
 Root      1 not converged, maximum delta is    0.020058950661824
 Root      2 not converged, maximum delta is    0.006131901706844
 Root      3 not converged, maximum delta is    0.008498488431990
 Root      4 not converged, maximum delta is    0.223589647067830
 Root      5 not converged, maximum delta is    0.293627490844021
 Root      6 not converged, maximum delta is    0.061096348427763
 Excitation Energies [eV] at current iteration:
 Root      1 :     2.991685402486629   Change is   -0.233754638020897
 Root      2 :     3.986931700069815   Change is   -0.029997254821467
 Root      3 :     4.156820640249977   Change is   -0.031618824784650
 Root      4 :     4.849945759798276   Change is   -0.230975798088292
 Root      5 :     5.302833653847222   Change is   -0.300487200364829
 Root      6 :     5.829144729302137   Change is   -0.023119072512828
 Iteration     3 Dimension    30 NMult    18 NNew     12
 CISAX will form    12 AO SS matrices at one time.
 NMat=    12 NSing=    12 JSym2X= 0.
 Root      1 not converged, maximum delta is    0.002662060156808
 Root      2 not converged, maximum delta is    0.001092690308604
 Root      3 not converged, maximum delta is    0.001408601825119
 Root      4 not converged, maximum delta is    0.012072729023661
 Root      5 not converged, maximum delta is    0.015111351582689
 Root      6 not converged, maximum delta is    0.008667717086529
 Excitation Energies [eV] at current iteration:
 Root      1 :     2.988238486894795   Change is   -0.003446915591834
 Root      2 :     3.986609753464509   Change is   -0.000321946605306
 Root      3 :     4.156443908147734   Change is   -0.000376732102243
 Root      4 :     4.839962258319006   Change is   -0.009983501479270
 Root      5 :     5.293817847589323   Change is   -0.009015806257899
 Root      6 :     5.827313108633571   Change is   -0.001831620668566
 Iteration     4 Dimension    42 NMult    30 NNew     12
 CISAX will form    12 AO SS matrices at one time.
 NMat=    12 NSing=    12 JSym2X= 0.
 Root      1 not converged, maximum delta is    0.001717589629930
 Root      2 not converged, maximum delta is    0.000212980910819
 Root      3 not converged, maximum delta is    0.000253809473205
 Root      4 not converged, maximum delta is    0.003087520650783
 Root      5 not converged, maximum delta is    0.004845971133740
 Root      6 not converged, maximum delta is    0.009005720229243
 Excitation Energies [eV] at current iteration:
 Root      1 :     2.987827047968261   Change is   -0.000411438926534
 Root      2 :     3.986594456369182   Change is   -0.000015297095327
 Root      3 :     4.156420876261442   Change is   -0.000023031886292
 Root      4 :     4.838203943057191   Change is   -0.001758315261815
 Root      5 :     5.292244996047642   Change is   -0.001572851541681
 Root      6 :     5.826748421433424   Change is   -0.000564687200147
 Iteration     5 Dimension    54 NMult    42 NNew     12
 CISAX will form    12 AO SS matrices at one time.
 NMat=    12 NSing=    12 JSym2X= 0.
 Root      1 not converged, maximum delta is    0.000351234552959
 Root      2 not converged, maximum delta is    0.000086878764603
 Root      3 not converged, maximum delta is    0.000087486569178
 Root      4 not converged, maximum delta is    0.000666590402676
 Root      5 not converged, maximum delta is    0.000706151667872
 Root      6 not converged, maximum delta is    0.003317064190151
 Excitation Energies [eV] at current iteration:
 Root      1 :     2.987799443404159   Change is   -0.000027604564102
 Root      2 :     3.986593419090899   Change is   -0.000001037278282
 Root      3 :     4.156418927397721   Change is   -0.000001948863721
 Root      4 :     4.838048861135539   Change is   -0.000155081921652
 Root      5 :     5.292100057858705   Change is   -0.000144938188937
 Root      6 :     5.826645786726444   Change is   -0.000102634706980
 Iteration     6 Dimension    66 NMult    54 NNew     12
 CISAX will form    12 AO SS matrices at one time.
 NMat=    12 NSing=    12 JSym2X= 0.
 Root      1 not converged, maximum delta is    0.000065119266949
 Root      2 not converged, maximum delta is    0.000024660074449
 Root      3 not converged, maximum delta is    0.000032495043648
 Root      4 not converged, maximum delta is    0.000248529528185
 Root      5 not converged, maximum delta is    0.000244539947704
 Root      6 not converged, maximum delta is    0.000811437240878
 Excitation Energies [eV] at current iteration:
 Root      1 :     2.987797887903710   Change is   -0.000001555500449
 Root      2 :     3.986593321323264   Change is   -0.000000097767636
 Root      3 :     4.156418757564298   Change is   -0.000000169833423
 Root      4 :     4.838034296179659   Change is   -0.000014564955880
 Root      5 :     5.292086345919224   Change is   -0.000013711939480
 Root      6 :     5.826632145663824   Change is   -0.000013641062619
 Iteration     7 Dimension    78 NMult    66 NNew     12
 CISAX will form    12 AO SS matrices at one time.
 NMat=    12 NSing=    12 JSym2X= 0.
 Root      1 not converged, maximum delta is    0.000011665007988
 Root      2 not converged, maximum delta is    0.000006032455827
 Root      3 not converged, maximum delta is    0.000005948520689
 Root      4 not converged, maximum delta is    0.000111016783811
 Root      5 not converged, maximum delta is    0.000093511774135
 Root      6 not converged, maximum delta is    0.000140069897989
 Excitation Energies [eV] at current iteration:
 Root      1 :     2.987797829639208   Change is   -0.000000058264502
 Root      2 :     3.986593316240601   Change is   -0.000000005082662
 Root      3 :     4.156418749500328   Change is   -0.000000008063970
 Root      4 :     4.838033243153607   Change is   -0.000001053026052
 Root      5 :     5.292085312548177   Change is   -0.000001033371047
 Root      6 :     5.826630759972099   Change is   -0.000001385691725
 Iteration     8 Dimension    90 NMult    78 NNew     12
 CISAX will form    12 AO SS matrices at one time.
 NMat=    12 NSing=    12 JSym2X= 0.
 Root      1 not converged, maximum delta is    0.000002958960022
 Root      2 not converged, maximum delta is    0.000001337717390
 Root      3 has converged.
 Root      4 not converged, maximum delta is    0.000024791111989
 Root      5 not converged, maximum delta is    0.000033170687775
 Root      6 not converged, maximum delta is    0.000050173549114
 Excitation Energies [eV] at current iteration:
 Root      1 :     2.987797826919820   Change is   -0.000000002719388
 Root      2 :     3.986593316068065   Change is   -0.000000000172536
 Root      3 :     4.156418749013898   Change is   -0.000000000486431
 Root      4 :     4.838033162635161   Change is   -0.000000080518446
 Root      5 :     5.292085200661295   Change is   -0.000000111886883
 Root      6 :     5.826630585384422   Change is   -0.000000174587677
 Iteration     9 Dimension   100 NMult    90 NNew     10
 CISAX will form    10 AO SS matrices at one time.
 NMat=    10 NSing=    10 JSym2X= 0.
 Root      1 has converged.
 Root      2 has converged.
 Root      3 has converged.
 Root      4 not converged, maximum delta is    0.000006106727752
 Root      5 not converged, maximum delta is    0.000009278114235
 Root      6 not converged, maximum delta is    0.000022175466982
 Excitation Energies [eV] at current iteration:
 Root      1 :     2.987797826809625   Change is   -0.000000000110195
 Root      2 :     3.986593316060477   Change is   -0.000000000007588
 Root      3 :     4.156418748995523   Change is   -0.000000000018374
 Root      4 :     4.838033158136310   Change is   -0.000000004498851
 Root      5 :     5.292085191766932   Change is   -0.000000008894362
 Root      6 :     5.826630564843459   Change is   -0.000000020540964
 Iteration    10 Dimension   106 NMult   100 NNew      6
 CISAX will form     6 AO SS matrices at one time.
 NMat=     6 NSing=     6 JSym2X= 0.
 Root      1 has converged.
 Root      2 has converged.
 Root      3 has converged.
 Root      4 not converged, maximum delta is    0.000001486954233
 Root      5 not converged, maximum delta is    0.000002809295321
 Root      6 not converged, maximum delta is    0.000007150710605
 Excitation Energies [eV] at current iteration:
 Root      1 :     2.987797826808992   Change is   -0.000000000000633
 Root      2 :     3.986593316060457   Change is   -0.000000000000020
 Root      3 :     4.156418748994514   Change is   -0.000000000001009
 Root      4 :     4.838033157901141   Change is   -0.000000000235168
 Root      5 :     5.292085191149439   Change is   -0.000000000617494
 Root      6 :     5.826630562746223   Change is   -0.000000002097236
 Iteration    11 Dimension   112 NMult   106 NNew      6
 CISAX will form     6 AO SS matrices at one time.
 NMat=     6 NSing=     6 JSym2X= 0.
 Root      1 has converged.
 Root      2 has converged.
 Root      3 has converged.
 Root      4 has converged.
 Root      5 has converged.
 Root      6 not converged, maximum delta is    0.000001200464069
 Excitation Energies [eV] at current iteration:
 Root      1 :     2.987797826808937   Change is   -0.000000000000055
 Root      2 :     3.986593316060353   Change is   -0.000000000000103
 Root      3 :     4.156418748994059   Change is   -0.000000000000455
 Root      4 :     4.838033157886325   Change is   -0.000000000014817
 Root      5 :     5.292085191102775   Change is   -0.000000000046664
 Root      6 :     5.826630562565347   Change is   -0.000000000180876
 Iteration    12 Dimension   114 NMult   112 NNew      2
 CISAX will form     2 AO SS matrices at one time.
 NMat=     2 NSing=     2 JSym2X= 0.
 Root      1 has converged.
 Root      2 has converged.
 Root      3 has converged.
 Root      4 has converged.
 Root      5 has converged.
 Root      6 has converged.
 Excitation Energies [eV] at current iteration:
 Root      1 :     2.987797826808910   Change is   -0.000000000000028
 Root      2 :     3.986593316060353   Change is    0.000000000000000
 Root      3 :     4.156418748994040   Change is   -0.000000000000020
 Root      4 :     4.838033157886392   Change is    0.000000000000068
 Root      5 :     5.292085191102820   Change is    0.000000000000046
 Root      6 :     5.826630562551209   Change is   -0.000000000014138
 Convergence achieved on expansion vectors.
 ***********************************************************************
 Excited states from <AA,BB:AA,BB> singles matrix:
 ***********************************************************************
 
 1PDM for each excited state written to RWF  633
 Ground to excited state transition densities written to RWF  633
 Ground to excited state transition electric dipole moments (Au):
       state          X           Y           Z        Dip. S.      Osc.
         1        -1.7241     -0.2092     -0.0554      3.0195      0.2210
         2         0.0430     -0.0367      0.0376      0.0046      0.0005
         3        -0.0507     -0.1434      0.0277      0.0239      0.0024
         4        -0.2060      1.9615     -0.0728      3.8951      0.4617
         5         0.0752     -1.4745     -0.0024      2.1798      0.2826
         6         0.0257     -0.2541     -0.0375      0.0666      0.0095
 Ground to excited state transition velocity dipole moments (Au):
       state          X           Y           Z        Dip. S.      Osc.
         1         0.1822      0.0188      0.0064      0.0336      0.2039
         2        -0.0060      0.0057     -0.0023      0.0001      0.0003
         3         0.0072      0.0196     -0.0008      0.0004      0.0019
         4         0.0409     -0.3343      0.0097      0.1135      0.4256
         5        -0.0145      0.2818     -0.0007      0.0796      0.2730
         6        -0.0067      0.0516      0.0281      0.0035      0.0109
 Ground to excited state transition magnetic dipole moments (Au):
       state          X           Y           Z
         1         0.0312      0.0461     -1.4608
         2         0.7940      0.1198      0.1616
         3        -0.1828     -0.9740     -0.2176
         4        -0.0430     -0.0957      0.1097
         5         0.1269      0.1034     -0.2602
         6        -0.1372     -0.0284      0.0533
 Ground to excited state transition velocity quadrupole moments (Au):
       state          XX          YY          ZZ          XY          XZ          YZ
         1         0.1851     -0.1005     -0.0050     -0.5062      0.0371     -0.0181
         2         0.0187     -0.0091     -0.0062      0.0229     -0.0079      0.0832
         3         0.0106      0.0001     -0.0220     -0.0682      0.0648     -0.0102
         4         1.4117     -0.2979     -0.0136      0.1174      0.0860      0.0312
         5        -0.3405      0.2641      0.0328     -0.2190     -0.0567      0.0132
         6         0.2241      0.1926     -0.1597      0.0248      0.0383     -0.1798
 <0|del|b> * <b|rxdel|0> + <0|del|b> * <b|delr+rdel|0>
 Rotatory Strengths (R) in cgs (10**-40 erg-esu-cm/Gauss)
       state          XX          YY          ZZ    R(velocity)    E-M Angle
         1       -40.3027    -12.1714     33.9675     -6.1689       90.61
         2         0.7480    -13.3930     -8.7065     -7.1171      129.19
         3       -46.5297     -2.9136    -44.0800    -31.1744      162.52
         4       125.2018     -1.1043      0.4159     41.5045       52.25
         5        82.6543     -3.6433     20.9505     33.3205       71.52
         6        -2.0671      4.8298      0.3743      1.0457       83.85
 1/2[<0|r|b>*<b|rxdel|0> + (<0|rxdel|b>*<b|r|0>)*]
 Rotatory Strengths (R) in cgs (10**-40 erg-esu-cm/Gauss)
       state          XX          YY          ZZ     R(length)
         1        38.0106      6.8148    -57.1950     -4.1232
         2       -24.1581      3.1123     -4.2947     -8.4468
         3        -6.5556    -98.7580      4.2648    -33.6829
         4        -6.2592    132.7613      5.6477     44.0499
         5        -6.7446    107.8234     -0.4392     33.5465
         6         2.4989     -5.1088      1.4136     -0.3988
  1/2[<0|del|b>*<b|r|0> + (<0|r|b>*<b|del|0>)*] (Au)
       state          X           Y           Z        Dip. S.   Osc.(frdel)
         1        -0.3141     -0.0039     -0.0004      0.3184      0.2123
         2        -0.0003     -0.0002     -0.0001      0.0006      0.0004
         3        -0.0004     -0.0028     -0.0000      0.0032      0.0021
         4        -0.0084     -0.6557     -0.0007      0.6648      0.4432
         5        -0.0011     -0.4155      0.0000      0.4166      0.2778
         6        -0.0002     -0.0131     -0.0011      0.0143      0.0096

 Excitation energies and oscillator strengths:
 
 Excited State   1:      Singlet-A      2.9878 eV  414.97 nm  f=0.2210  <S**2>=0.000
      52 -> 53         0.70109
 
 Excited State   2:      Singlet-A      3.9866 eV  311.00 nm  f=0.0005  <S**2>=0.000
      50 -> 54        -0.17411
      51 -> 53         0.58309
      51 -> 54         0.30794
 This state for optimization and/or second-order correction.
 Total Energy, E(TD-HF/TD-DFT) =  -633.180193383    
 Copying the excited state density for this state as the 1-particle RhoCI density.
 
 Excited State   3:      Singlet-A      4.1564 eV  298.30 nm  f=0.0024  <S**2>=0.000
      49 -> 53        -0.33713
      49 -> 54         0.19392
      50 -> 53         0.48184
      50 -> 54        -0.21182
      50 -> 58         0.10065
      51 -> 54        -0.20296
 
 Excited State   4:      Singlet-A      4.8380 eV  256.27 nm  f=0.4617  <S**2>=0.000
      49 -> 53        -0.11793
      52 -> 54         0.68658
 
 Excited State   5:      Singlet-A      5.2921 eV  234.28 nm  f=0.2826  <S**2>=0.000
      49 -> 53         0.54966
      50 -> 53         0.38830
      51 -> 53         0.11659
      52 -> 54         0.13711
 
 Excited State   6:      Singlet-A      5.8266 eV  212.79 nm  f=0.0095  <S**2>=0.000
      52 -> 55         0.65601
      52 -> 56         0.17396
 SavETr:  write IOETrn=   770 NScale= 10 NData=  16 NLR=1 NState=    6 LETran=     118.
 The selected state is a singlet.
 CISGrd: IGrad=1 NXY=2 DFT=T
 CISAX will form     1 AO SS matrices at one time.
 NMat=     1 NSing=     1 JSym2X= 0.
 Leave Link  914 at Sat Jan 24 18:45:56 2026, MaxMem=  2147483648 cpu:            7699.3 elap:             482.6
 (Enter /data/home/wyx/g16/l1002.exe)
 Minotr:  Closed shell wavefunction.
          Computing CIS/TDA/TD derivatives.
          Using Z-Vector for PSCF gradient.
          Skipping F1 and S1 gradient terms here.
 NEqPCM:  Using equilibrium solvation (IEInf=0, Eps=  78.3553, EpsInf=   1.7778)
          Frozen-core window.
          Direct CPHF calculation.
          Differentiating once with respect to electric field.
                with respect to dipole field.
          Electric field/nuclear overlap derivatives assumed to be zero.
          Requested convergence is 1.0D-10 RMS, and 1.0D-09 maximum.
          NewPWx=F KeepS1=T KeepF1=T KeepIn=T MapXYZ=F SortEE=F KeepMc=T.
 Two-electron integral symmetry used by symmetrizing perturbed Fock matrices.
          MDV=    2147483648 using IRadAn=       5.
          Solving linear equations separately, MaxMat=     384.
          There are     1 degrees of freedom in the 1st order CPHF.  IDoFFX=0 NUNeed=     1.
 FoFJK:  IHMeth= 1 ICntrl=       0 DoSepK=T KAlg= 0 I1Cent=           0 FoldK=F
 IRaf=         1 NMat=       1 IRICut=       1 DoRegI=T DoRafI=F ISym2E=-1 IDoP0=0 IntGTp=1.
 FoFCou: FMM=F IPFlag=           0 FMFlag=      100000 FMFlg1=           0
         NFxFlg=           0 DoJE=T BraDBF=F KetDBF=F FulRan=T
         wScrn=  0.000000 ICntrl=       500 IOpCl=  0 I1Cent=           0 NGrid=           0
         NMat0=    1 NMatS0=      1 NMatT0=    0 NMatD0=    1 NMtDS0=    0 NMtDT0=    0
 Petite list used in FoFCou.
 LinEq1:  Iter=  0 NonCon=     1 RMS=8.07D-03 Max=3.51D-01 NDo=     1
 AX will form     1 AO Fock derivatives at one time.
 LinEq1:  Iter=  1 NonCon=     1 RMS=2.20D-03 Max=1.03D-01 NDo=     1
 LinEq1:  Iter=  2 NonCon=     1 RMS=1.57D-03 Max=9.56D-02 NDo=     1
 LinEq1:  Iter=  3 NonCon=     1 RMS=6.38D-04 Max=3.33D-02 NDo=     1
 LinEq1:  Iter=  4 NonCon=     1 RMS=3.41D-04 Max=1.49D-02 NDo=     1
 LinEq1:  Iter=  5 NonCon=     1 RMS=1.77D-04 Max=9.16D-03 NDo=     1
 LinEq1:  Iter=  6 NonCon=     1 RMS=8.99D-05 Max=2.94D-03 NDo=     1
 LinEq1:  Iter=  7 NonCon=     1 RMS=5.25D-05 Max=2.11D-03 NDo=     1
 LinEq1:  Iter=  8 NonCon=     1 RMS=2.40D-05 Max=8.66D-04 NDo=     1
 LinEq1:  Iter=  9 NonCon=     1 RMS=1.75D-05 Max=8.35D-04 NDo=     1
 LinEq1:  Iter= 10 NonCon=     1 RMS=6.94D-06 Max=1.28D-04 NDo=     1
 LinEq1:  Iter= 11 NonCon=     1 RMS=4.12D-06 Max=1.42D-04 NDo=     1
 LinEq1:  Iter= 12 NonCon=     1 RMS=1.29D-06 Max=4.10D-05 NDo=     1
 LinEq1:  Iter= 13 NonCon=     1 RMS=6.12D-07 Max=1.50D-05 NDo=     1
 LinEq1:  Iter= 14 NonCon=     1 RMS=2.24D-07 Max=5.49D-06 NDo=     1
 LinEq1:  Iter= 15 NonCon=     1 RMS=9.60D-08 Max=2.18D-06 NDo=     1
 LinEq1:  Iter= 16 NonCon=     1 RMS=3.42D-08 Max=1.33D-06 NDo=     1
 LinEq1:  Iter= 17 NonCon=     1 RMS=1.40D-08 Max=6.25D-07 NDo=     1
 LinEq1:  Iter= 18 NonCon=     1 RMS=6.12D-09 Max=2.34D-07 NDo=     1
 LinEq1:  Iter= 19 NonCon=     1 RMS=1.82D-09 Max=5.60D-08 NDo=     1
 LinEq1:  Iter= 20 NonCon=     1 RMS=5.17D-10 Max=1.41D-08 NDo=     1
 LinEq1:  Iter= 21 NonCon=     1 RMS=2.00D-10 Max=4.73D-09 NDo=     1
 LinEq1:  Iter= 22 NonCon=     1 RMS=8.17D-11 Max=2.07D-09 NDo=     1
 LinEq1:  Iter= 23 NonCon=     0 RMS=2.19D-11 Max=6.28D-10 NDo=     1
 Linear equations converged to 1.000D-10 1.000D-09 after    23 iterations.
 PCM Corrected Linear-Response - Equilibrium solvation:
 Corrected transition energy               =    3.8806          eV
 Total energy after correction             = -633.184088913     a.u.
 NEqPCM:  Using non-equilibrium solvation (IEInf=1, Eps=  78.3553, EpsInf=   1.7778)
 Inv3:  Mode=1 IEnd=    13457772.
 Iteration    1 A*A^-1 deviation from unit magnitude is 3.22D-15 for    603.
 Iteration    1 A*A^-1 deviation from orthogonality  is 1.63D-15 for   1800    258.
 Iteration    1 A^-1*A deviation from unit magnitude is 3.22D-15 for    603.
 Iteration    1 A^-1*A deviation from orthogonality  is 1.78D-15 for   1953    349.
 NEqSol: Computing the dynamic-inertial partition of the PCM polarization charges.
 End of Minotr F.D. properties file   721 does not exist.
 End of Minotr F.D. properties file   722 does not exist.
 End of Minotr F.D. properties file   788 does not exist.
 Leave Link 1002 at Sat Jan 24 18:47:57 2026, MaxMem=  2147483648 cpu:            1907.8 elap:             120.8
 (Enter /data/home/wyx/g16/l601.exe)
 Copying SCF densities to generalized density rwf, IOpCl= 0 IROHF=0.

 **********************************************************************

            Population analysis using the CI density.

 **********************************************************************

 Orbital symmetries:
       Occupied  (A) (A) (A) (A) (A) (A) (A) (A) (A) (A) (A) (A)
                 (A) (A) (A) (A) (A) (A) (A) (A) (A) (A) (A) (A)
                 (A) (A) (A) (A) (A) (A) (A) (A) (A) (A) (A) (A)
                 (A) (A) (A) (A) (A) (A) (A) (A) (A) (A) (A) (A)
                 (A) (A) (A) (A)
       Virtual   (A) (A) (A) (A) (A) (A) (A) (A) (A) (A) (A) (A)
                 (A) (A) (A) (A) (A) (A) (A) (A) (A) (A) (A) (A)
                 (A) (A) (A) (A) (A) (A) (A) (A) (A) (A) (A) (A)
                 (A) (A) (A) (A) (A) (A) (A) (A) (A) (A) (A) (A)
                 (A) (A) (A) (A) (A) (A) (A) (A) (A) (A) (A) (A)
                 (A) (A) (A) (A) (A) (A) (A) (A) (A) (A) (A) (A)
                 (A) (A) (A) (A) (A) (A) (A) (A) (A) (A) (A) (A)
                 (A) (A) (A) (A) (A) (A) (A) (A) (A) (A) (A) (A)
                 (A) (A) (A) (A) (A) (A) (A) (A) (A) (A) (A) (A)
                 (A) (A) (A) (A) (A) (A) (A) (A) (A) (A) (A) (A)
                 (A) (A) (A) (A) (A) (A) (A) (A) (A) (A) (A) (A)
                 (A) (A) (A) (A) (A) (A) (A) (A) (A) (A) (A) (A)
                 (A) (A) (A) (A) (A) (A) (A) (A) (A) (A) (A) (A)
                 (A) (A) (A) (A) (A) (A) (A) (A) (A) (A) (A) (A)
                 (A) (A) (A) (A) (A) (A) (A) (A) (A) (A) (A) (A)
                 (A) (A) (A) (A) (A) (A) (A) (A) (A) (A) (A) (A)
                 (A) (A) (A) (A) (A) (A) (A) (A) (A) (A) (A) (A)
                 (A) (A) (A) (A) (A) (A) (A) (A) (A) (A) (A) (A)
                 (A) (A) (A) (A) (A) (A) (A) (A) (A) (A) (A) (A)
                 (A) (A) (A) (A) (A) (A) (A) (A) (A) (A) (A) (A)
                 (A) (A) (A) (A) (A) (A) (A) (A) (A) (A) (A) (A)
                 (A) (A) (A) (A) (A) (A) (A) (A) (A) (A) (A) (A)
                 (A) (A) (A) (A) (A) (A) (A) (A) (A) (A) (A) (A)
                 (A) (A) (A) (A) (A) (A) (A) (A) (A) (A) (A) (A)
                 (A) (A) (A) (A) (A) (A) (A) (A) (A) (A) (A) (A)
                 (A) (A) (A) (A)
 The electronic state is 1-A.
 Alpha  occ. eigenvalues --  -19.17918 -19.17185 -14.44600 -10.33439 -10.32999
 Alpha  occ. eigenvalues --  -10.32669 -10.32164 -10.25796 -10.25277 -10.24908
 Alpha  occ. eigenvalues --  -10.24715 -10.24597 -10.24136 -10.23731  -1.11541
 Alpha  occ. eigenvalues --   -1.11114  -1.08324  -0.91377  -0.90542  -0.83992
 Alpha  occ. eigenvalues --   -0.82620  -0.81639  -0.78579  -0.73853  -0.71996
 Alpha  occ. eigenvalues --   -0.68758  -0.61662  -0.58286  -0.57019  -0.55167
 Alpha  occ. eigenvalues --   -0.54571  -0.54057  -0.52561  -0.51806  -0.50855
 Alpha  occ. eigenvalues --   -0.49863  -0.49544  -0.49286  -0.48504  -0.48096
 Alpha  occ. eigenvalues --   -0.47090  -0.45341  -0.45158  -0.43822  -0.43220
 Alpha  occ. eigenvalues --   -0.42303  -0.42191  -0.41718  -0.32701  -0.32296
 Alpha  occ. eigenvalues --   -0.31378  -0.25355
 Alpha virt. eigenvalues --   -0.03205   0.02467   0.06491   0.08206   0.08697
 Alpha virt. eigenvalues --    0.09894   0.10751   0.11670   0.12635   0.13522
 Alpha virt. eigenvalues --    0.13931   0.15111   0.15698   0.16314   0.16970
 Alpha virt. eigenvalues --    0.17448   0.17942   0.18164   0.18331   0.19207
 Alpha virt. eigenvalues --    0.20058   0.22023   0.22947   0.23477   0.23820
 Alpha virt. eigenvalues --    0.24216   0.24729   0.25743   0.26257   0.26696
 Alpha virt. eigenvalues --    0.27242   0.28004   0.28762   0.29200   0.30187
 Alpha virt. eigenvalues --    0.31725   0.31971   0.32395   0.33524   0.34428
 Alpha virt. eigenvalues --    0.34957   0.35890   0.36630   0.37876   0.38459
 Alpha virt. eigenvalues --    0.39634   0.41003   0.41458   0.41963   0.42558
 Alpha virt. eigenvalues --    0.44120   0.44717   0.45474   0.46214   0.46377
 Alpha virt. eigenvalues --    0.47337   0.47823   0.47941   0.48411   0.49248
 Alpha virt. eigenvalues --    0.49662   0.50548   0.51019   0.51463   0.51585
 Alpha virt. eigenvalues --    0.52663   0.52843   0.53466   0.53639   0.54295
 Alpha virt. eigenvalues --    0.54486   0.55498   0.55986   0.56672   0.58403
 Alpha virt. eigenvalues --    0.58542   0.59832   0.60887   0.61440   0.62959
 Alpha virt. eigenvalues --    0.63968   0.65325   0.66420   0.66571   0.67632
 Alpha virt. eigenvalues --    0.68474   0.69548   0.71137   0.71529   0.72249
 Alpha virt. eigenvalues --    0.73216   0.74301   0.74955   0.75903   0.77556
 Alpha virt. eigenvalues --    0.78881   0.80195   0.82790   0.86148   0.87218
 Alpha virt. eigenvalues --    0.90509   0.94879   1.01504   1.03179   1.22612
 Alpha virt. eigenvalues --    1.24862   1.27320   1.28243   1.29404   1.30688
 Alpha virt. eigenvalues --    1.32153   1.33007   1.34295   1.35027   1.36352
 Alpha virt. eigenvalues --    1.36612   1.37629   1.38539   1.39115   1.39858
 Alpha virt. eigenvalues --    1.39957   1.40413   1.40941   1.41380   1.41935
 Alpha virt. eigenvalues --    1.43452   1.43731   1.44263   1.45275   1.47375
 Alpha virt. eigenvalues --    1.48062   1.49592   1.50153   1.50352   1.50563
 Alpha virt. eigenvalues --    1.51292   1.52366   1.52708   1.55031   1.58167
 Alpha virt. eigenvalues --    1.58955   1.60322   1.60824   1.61430   1.62665
 Alpha virt. eigenvalues --    1.62750   1.63038   1.64233   1.64595   1.65830
 Alpha virt. eigenvalues --    1.66692   1.67120   1.67716   1.68099   1.68553
 Alpha virt. eigenvalues --    1.69161   1.70024   1.70119   1.71325   1.72398
 Alpha virt. eigenvalues --    1.74156   1.74879   1.75848   1.76641   1.78484
 Alpha virt. eigenvalues --    1.81239   1.83123   1.84247   1.86139   1.86679
 Alpha virt. eigenvalues --    1.86747   1.87903   1.88546   1.89217   1.90328
 Alpha virt. eigenvalues --    1.91429   1.94664   1.95329   1.99079   1.99728
 Alpha virt. eigenvalues --    2.01592   2.03892   2.05530   2.06985   2.09610
 Alpha virt. eigenvalues --    2.10630   2.12042   2.15667   2.17551   2.19872
 Alpha virt. eigenvalues --    2.20416   2.21461   2.22097   2.23129   2.26251
 Alpha virt. eigenvalues --    2.27226   2.27713   2.29414   2.31343   2.32328
 Alpha virt. eigenvalues --    2.33871   2.34373   2.36885   2.38046   2.38839
 Alpha virt. eigenvalues --    2.39658   2.40242   2.41424   2.42991   2.45132
 Alpha virt. eigenvalues --    2.46022   2.47866   2.49584   2.50023   2.51292
 Alpha virt. eigenvalues --    2.52480   2.54120   2.54872   2.56612   2.57766
 Alpha virt. eigenvalues --    2.58929   2.60796   2.61773   2.62605   2.63483
 Alpha virt. eigenvalues --    2.64711   2.65911   2.66601   2.67646   2.68474
 Alpha virt. eigenvalues --    2.72010   2.72085   2.73680   2.74683   2.75125
 Alpha virt. eigenvalues --    2.76265   2.77016   2.77358   2.78090   2.78968
 Alpha virt. eigenvalues --    2.80590   2.81946   2.82980   2.83924   2.84655
 Alpha virt. eigenvalues --    2.85419   2.86649   2.88808   2.89154   2.91804
 Alpha virt. eigenvalues --    2.97289   2.98782   3.00939   3.06699   3.10855
 Alpha virt. eigenvalues --    3.12525   3.14725   3.17875   3.18868   3.21552
 Alpha virt. eigenvalues --    3.21743   3.23599   3.24459   3.25551   3.26398
 Alpha virt. eigenvalues --    3.28166   3.29971   3.32794   3.34348   3.36762
 Alpha virt. eigenvalues --    3.37852   3.39062   3.39516   3.40111   3.41926
 Alpha virt. eigenvalues --    3.42250   3.44530   3.45343   3.47510   3.48430
 Alpha virt. eigenvalues --    3.49536   3.50135   3.55586   3.58395   3.59803
 Alpha virt. eigenvalues --    3.60980   3.90977   4.00801   4.32951   4.35837
 Alpha virt. eigenvalues --   21.67161  21.80509  22.08141  22.10696  22.11732
 Alpha virt. eigenvalues --   22.15093  22.15225  22.18515  22.19545  22.24748
 Alpha virt. eigenvalues --   22.27962  31.91802  43.63712  43.66435
          Condensed to atoms (all electrons):
               1          2          3          4          5          6
     1  O    7.981697   0.000000  -0.000195   0.000019   0.019534   0.010161
     2  O    0.000000   7.978230   0.000787   0.000023  -0.101591   0.000243
     3  N   -0.000195   0.000787   6.356588   0.368832  -0.093703   0.387855
     4  H    0.000019   0.000023   0.368832   0.413478   0.016942  -0.045623
     5  C    0.019534  -0.101591  -0.093703   0.016942   6.087737  -0.091951
     6  C    0.010161   0.000243   0.387855  -0.045623  -0.091951   5.559756
     7  C   -0.000336   0.004528   0.334663  -0.038364   0.334370  -0.122971
     8  C   -0.000290   0.315843   0.014634  -0.001031   0.330921   0.017773
     9  C   -0.010477   0.011725   0.002560  -0.000045  -0.459688  -0.052220
    10  H    0.008621  -0.000011   0.004147   0.000041  -0.045789  -0.021243
    11  H    0.011540   0.000016  -0.001108   0.000025  -0.108917   0.026414
    12  C   -0.243911  -0.000924  -0.100129   0.015755   0.199548  -0.070929
    13  C    0.703661   0.000033   0.000693   0.000552   0.086745   0.119843
    14  C   -0.000007   0.013458  -0.029727  -0.009384  -0.096661   0.014278
    15  H    0.000000   0.000763   0.004982   0.002652   0.016118   0.003839
    16  H   -0.000000  -0.002442  -0.001652   0.000750   0.000126  -0.000916
    17  H    0.000000  -0.002280   0.000148   0.000688   0.002901  -0.001561
    18  C    0.000280  -0.048418  -0.000305   0.000018  -0.021856  -0.000584
    19  H   -0.000002   0.001118  -0.000003  -0.000001   0.011411   0.000100
    20  H   -0.000092   0.002686  -0.000020  -0.000000  -0.020604  -0.000054
    21  H    0.000039   0.002336   0.000039   0.000000  -0.010962  -0.000545
    22  C   -0.104887   0.000000  -0.000100   0.000118   0.004174  -0.023252
    23  H    0.005197  -0.000000   0.000152  -0.000057  -0.000771  -0.024157
    24  H    0.001898  -0.000000   0.000005  -0.000012  -0.000031   0.009472
    25  H    0.006826  -0.000000   0.000033  -0.000003  -0.000167  -0.000986
    26  C    0.000706   0.000002  -0.028789  -0.007311  -0.002962   0.182645
    27  H   -0.000318   0.000000   0.001040   0.000760  -0.000065  -0.059558
    28  H   -0.000055   0.000000  -0.003456   0.000555   0.000466  -0.032758
    29  H    0.000026  -0.000000   0.001808   0.001938  -0.000309  -0.046434
               7          8          9         10         11         12
     1  O   -0.000336  -0.000290  -0.010477   0.008621   0.011540  -0.243911
     2  O    0.004528   0.315843   0.011725  -0.000011   0.000016  -0.000924
     3  N    0.334663   0.014634   0.002560   0.004147  -0.001108  -0.100129
     4  H   -0.038364  -0.001031  -0.000045   0.000041   0.000025   0.015755
     5  C    0.334370   0.330921  -0.459688  -0.045789  -0.108917   0.199548
     6  C   -0.122971   0.017773  -0.052220  -0.021243   0.026414  -0.070929
     7  C    5.483589  -0.121062  -0.073424  -0.009457   0.016174  -0.015391
     8  C   -0.121062   5.342133  -0.014200  -0.003637  -0.013076  -0.016724
     9  C   -0.073424  -0.014200   6.423449   0.403686   0.533895  -0.205950
    10  H   -0.009457  -0.003637   0.403686   0.587153  -0.052197  -0.010414
    11  H    0.016174  -0.013076   0.533895  -0.052197   0.541018  -0.114800
    12  C   -0.015391  -0.016724  -0.205950  -0.010414  -0.114800   7.431885
    13  C    0.011668  -0.003865  -0.272839  -0.001195   0.001335  -0.420268
    14  C    0.219347  -0.012979   0.015015  -0.000901   0.000537  -0.005187
    15  H   -0.061669   0.000542  -0.000759   0.000052  -0.000003  -0.000184
    16  H   -0.045962  -0.006161   0.001038  -0.000068   0.000065   0.000023
    17  H   -0.054059  -0.010814  -0.000680   0.000175  -0.000061   0.000553
    18  C    0.012365   0.198037  -0.031148  -0.014291   0.009531  -0.001962
    19  H   -0.000405  -0.048121   0.002212  -0.000273   0.000653  -0.000972
    20  H   -0.000651  -0.046939  -0.008543   0.001465  -0.001192   0.002530
    21  H    0.000660  -0.035163   0.007182   0.003373  -0.007321   0.002863
    22  C    0.000155  -0.000031   0.004591   0.003233  -0.000911  -0.246833
    23  H   -0.000007   0.000002   0.003270  -0.000202   0.000034   0.062182
    24  H    0.000010  -0.000001  -0.002670   0.000191  -0.000139  -0.012629
    25  H    0.000008   0.000001   0.000886  -0.000123  -0.000022   0.021808
    26  C    0.004415   0.000373   0.030686  -0.001050   0.000121  -0.093476
    27  H   -0.000796   0.000001   0.001577  -0.000142   0.000019  -0.004379
    28  H   -0.000126  -0.000022  -0.001842   0.000001   0.000042  -0.015074
    29  H    0.003313  -0.000009  -0.001025   0.000100  -0.000015   0.021949
              13         14         15         16         17         18
     1  O    0.703661  -0.000007   0.000000  -0.000000   0.000000   0.000280
     2  O    0.000033   0.013458   0.000763  -0.002442  -0.002280  -0.048418
     3  N    0.000693  -0.029727   0.004982  -0.001652   0.000148  -0.000305
     4  H    0.000552  -0.009384   0.002652   0.000750   0.000688   0.000018
     5  C    0.086745  -0.096661   0.016118   0.000126   0.002901  -0.021856
     6  C    0.119843   0.014278   0.003839  -0.000916  -0.001561  -0.000584
     7  C    0.011668   0.219347  -0.061669  -0.045962  -0.054059   0.012365
     8  C   -0.003865  -0.012979   0.000542  -0.006161  -0.010814   0.198037
     9  C   -0.272839   0.015015  -0.000759   0.001038  -0.000680  -0.031148
    10  H   -0.001195  -0.000901   0.000052  -0.000068   0.000175  -0.014291
    11  H    0.001335   0.000537  -0.000003   0.000065  -0.000061   0.009531
    12  C   -0.420268  -0.005187  -0.000184   0.000023   0.000553  -0.001962
    13  C    5.551691  -0.000134   0.000007  -0.000010   0.000004   0.001031
    14  C   -0.000134   5.093590   0.402596   0.425765   0.440705   0.002169
    15  H    0.000007   0.402596   0.534249  -0.021297  -0.022420   0.000010
    16  H   -0.000010   0.425765  -0.021297   0.522122  -0.035973  -0.000514
    17  H    0.000004   0.440705  -0.022420  -0.035973   0.519463  -0.000397
    18  C    0.001031   0.002169   0.000010  -0.000514  -0.000397   5.085737
    19  H   -0.000046   0.000020   0.000003   0.000029   0.000030   0.397434
    20  H   -0.000040  -0.000268   0.000000  -0.000032   0.000011   0.430384
    21  H    0.000171  -0.000208  -0.000002   0.000025   0.000006   0.406583
    22  C    0.285504  -0.000014   0.000002  -0.000000  -0.000000   0.000011
    23  H   -0.096638   0.000003  -0.000000   0.000000   0.000000   0.000001
    24  H   -0.026145  -0.000001   0.000000  -0.000000  -0.000000  -0.000002
    25  H   -0.037747   0.000001  -0.000000  -0.000000  -0.000000   0.000000
    26  C   -0.054600   0.001036   0.000005  -0.000051   0.000011   0.000016
    27  H   -0.002925   0.000061  -0.000011   0.000002  -0.000002   0.000001
    28  H    0.006761  -0.000134   0.000003  -0.000011   0.000004  -0.000001
    29  H   -0.000755  -0.000171   0.000104  -0.000000  -0.000004  -0.000000
              19         20         21         22         23         24
     1  O   -0.000002  -0.000092   0.000039  -0.104887   0.005197   0.001898
     2  O    0.001118   0.002686   0.002336   0.000000  -0.000000  -0.000000
     3  N   -0.000003  -0.000020   0.000039  -0.000100   0.000152   0.000005
     4  H   -0.000001  -0.000000   0.000000   0.000118  -0.000057  -0.000012
     5  C    0.011411  -0.020604  -0.010962   0.004174  -0.000771  -0.000031
     6  C    0.000100  -0.000054  -0.000545  -0.023252  -0.024157   0.009472
     7  C   -0.000405  -0.000651   0.000660   0.000155  -0.000007   0.000010
     8  C   -0.048121  -0.046939  -0.035163  -0.000031   0.000002  -0.000001
     9  C    0.002212  -0.008543   0.007182   0.004591   0.003270  -0.002670
    10  H   -0.000273   0.001465   0.003373   0.003233  -0.000202   0.000191
    11  H    0.000653  -0.001192  -0.007321  -0.000911   0.000034  -0.000139
    12  C   -0.000972   0.002530   0.002863  -0.246833   0.062182  -0.012629
    13  C   -0.000046  -0.000040   0.000171   0.285504  -0.096638  -0.026145
    14  C    0.000020  -0.000268  -0.000208  -0.000014   0.000003  -0.000001
    15  H    0.000003   0.000000  -0.000002   0.000002  -0.000000   0.000000
    16  H    0.000029  -0.000032   0.000025  -0.000000   0.000000  -0.000000
    17  H    0.000030   0.000011   0.000006  -0.000000   0.000000  -0.000000
    18  C    0.397434   0.430384   0.406583   0.000011   0.000001  -0.000002
    19  H    0.520675  -0.030183  -0.019370  -0.000001   0.000000  -0.000000
    20  H   -0.030183   0.523657  -0.035328   0.000002  -0.000000   0.000000
    21  H   -0.019370  -0.035328   0.510153   0.000017  -0.000000   0.000000
    22  C   -0.000001   0.000002   0.000017   5.418459   0.397342   0.405288
    23  H    0.000000  -0.000000  -0.000000   0.397342   0.543598  -0.026768
    24  H   -0.000000   0.000000   0.000000   0.405288  -0.026768   0.499038
    25  H    0.000000  -0.000001   0.000000   0.379117  -0.022163  -0.011201
    26  C    0.000001  -0.000005  -0.000006  -0.034071   0.014932  -0.010360
    27  H    0.000000  -0.000000   0.000000   0.003364  -0.007227  -0.001345
    28  H   -0.000000   0.000001  -0.000000  -0.010201  -0.002236   0.001181
    29  H   -0.000000   0.000000   0.000000   0.002048   0.000611   0.000174
              25         26         27         28         29
     1  O    0.006826   0.000706  -0.000318  -0.000055   0.000026
     2  O   -0.000000   0.000002   0.000000   0.000000  -0.000000
     3  N    0.000033  -0.028789   0.001040  -0.003456   0.001808
     4  H   -0.000003  -0.007311   0.000760   0.000555   0.001938
     5  C   -0.000167  -0.002962  -0.000065   0.000466  -0.000309
     6  C   -0.000986   0.182645  -0.059558  -0.032758  -0.046434
     7  C    0.000008   0.004415  -0.000796  -0.000126   0.003313
     8  C    0.000001   0.000373   0.000001  -0.000022  -0.000009
     9  C    0.000886   0.030686   0.001577  -0.001842  -0.001025
    10  H   -0.000123  -0.001050  -0.000142   0.000001   0.000100
    11  H   -0.000022   0.000121   0.000019   0.000042  -0.000015
    12  C    0.021808  -0.093476  -0.004379  -0.015074   0.021949
    13  C   -0.037747  -0.054600  -0.002925   0.006761  -0.000755
    14  C    0.000001   0.001036   0.000061  -0.000134  -0.000171
    15  H   -0.000000   0.000005  -0.000011   0.000003   0.000104
    16  H   -0.000000  -0.000051   0.000002  -0.000011  -0.000000
    17  H   -0.000000   0.000011  -0.000002   0.000004  -0.000004
    18  C    0.000000   0.000016   0.000001  -0.000001  -0.000000
    19  H    0.000000   0.000001   0.000000  -0.000000  -0.000000
    20  H   -0.000001  -0.000005  -0.000000   0.000001   0.000000
    21  H    0.000000  -0.000006   0.000000  -0.000000   0.000000
    22  C    0.379117  -0.034071   0.003364  -0.010201   0.002048
    23  H   -0.022163   0.014932  -0.007227  -0.002236   0.000611
    24  H   -0.011201  -0.010360  -0.001345   0.001181   0.000174
    25  H    0.506312   0.002132   0.000789   0.000022  -0.000043
    26  C    0.002132   5.258481   0.440097   0.420655   0.387110
    27  H    0.000789   0.440097   0.518012  -0.031808  -0.025956
    28  H    0.000022   0.420655  -0.031808   0.495410  -0.016525
    29  H   -0.000043   0.387110  -0.025956  -0.016525   0.518378
 Mulliken charges:
               1
     1  O   -0.389638
     2  O   -0.176127
     3  N   -0.219778
     4  H    0.278685
     5  C   -0.054964
     6  C    0.263365
     7  C    0.119412
     8  C    0.113862
     9  C   -0.306263
    10  H    0.148757
    11  H    0.158342
    12  C   -0.178959
    13  C    0.147509
    14  C   -0.472804
    15  H    0.140417
    16  H    0.165145
    17  H    0.163551
    18  C   -0.424128
    19  H    0.165689
    20  H    0.183217
    21  H    0.175457
    22  C   -0.483123
    23  H    0.152903
    24  H    0.174048
    25  H    0.154520
    26  C   -0.510742
    27  H    0.168810
    28  H    0.189152
    29  H    0.153687
 Sum of Mulliken charges =  -0.00000
 Mulliken charges with hydrogens summed into heavy atoms:
               1
     1  O   -0.389638
     2  O   -0.176127
     3  N    0.058907
     5  C   -0.054964
     6  C    0.263365
     7  C    0.119412
     8  C    0.113862
     9  C    0.000837
    12  C   -0.178959
    13  C    0.147509
    14  C   -0.003692
    18  C    0.100235
    22  C   -0.001652
    26  C    0.000907
 Electronic spatial extent (au):  <R**2>=           3193.3520
 Charge=             -0.0000 electrons
 Dipole moment (field-independent basis, Debye):
    X=             -0.0166    Y=              6.5603    Z=              0.3728  Tot=              6.5709
 Quadrupole moment (field-independent basis, Debye-Ang):
   XX=            -86.9754   YY=            -78.2767   ZZ=            -86.3249
   XY=            -16.4431   XZ=             -3.1824   YZ=             -2.1113
 Traceless Quadrupole moment (field-independent basis, Debye-Ang):
   XX=             -3.1164   YY=              5.5823   ZZ=             -2.4659
   XY=            -16.4431   XZ=             -3.1824   YZ=             -2.1113
 Octapole moment (field-independent basis, Debye-Ang**2):
  XXX=            -43.0176  YYY=             58.6573  ZZZ=              1.5705  XYY=             44.3044
  XXY=             20.4461  XXZ=             -0.1622  XZZ=             -0.7371  YZZ=             -1.7353
  YYZ=              3.8356  XYZ=              5.3162
 Hexadecapole moment (field-independent basis, Debye-Ang**3):
 XXXX=          -2832.9491 YYYY=          -1278.8945 ZZZZ=           -148.6600 XXXY=            -91.5163
 XXXZ=            -27.1869 YYYX=           -112.4081 YYYZ=            -18.9020 ZZZX=              4.0330
 ZZZY=              2.8371 XXYY=           -682.6693 XXZZ=           -484.3048 YYZZ=           -246.9699
 XXYZ=            -11.2575 YYXZ=            -10.7569 ZZXY=             -1.8253
 N-N= 8.996760308309D+02 E-N=-3.275546923968D+03  KE= 6.307693691392D+02
 No NMR shielding tensors so no spin-rotation constants.
 Leave Link  601 at Sat Jan 24 18:47:57 2026, MaxMem=  2147483648 cpu:               1.8 elap:               0.1
 (Enter /data/home/wyx/g16/l9999.exe)
 Electronic transition elements 
                 1             2             3             4             5 
      1  -0.633217D+03 -0.633180D+03 -0.633174D+03 -0.633149D+03 -0.633132D+03
      2   0.165023D+01 -0.202449D-01  0.994380D-01 -0.468809D+00  0.414768D+00
      3   0.387074D+00 -0.496881D-01 -0.118191D+00  0.191645D+01 -0.141283D+01
      4   0.382637D+00 -0.416455D-01 -0.640728D-02 -0.501100D-01  0.108055D+00
      5  -0.173163D+00  0.320019D-02 -0.132337D-01  0.740112D-01 -0.793670D-01
      6  -0.439934D-01  0.740092D-02  0.160121D-01 -0.328523D+00  0.270109D+00
      7  -0.407496D-01  0.282940D-02 -0.204847D-02  0.101091D-01 -0.194578D-01
      8  -0.332205D+00 -0.740862D+00  0.446045D+00  0.927849D-01 -0.202509D+00
      9   0.552292D-01 -0.158245D+00 -0.851354D+00 -0.772187D-01  0.583901D-01
     10   0.142257D+01 -0.311496D+00  0.325104D+00 -0.920233D-01  0.223731D+00
     11  -0.171739D+00  0.207729D-01 -0.555049D-01  0.120738D+01 -0.374685D+00
     12   0.255300D+00 -0.229986D-01  0.456868D-01 -0.177055D+00  0.333288D+00
     13  -0.393427D-02  0.562914D-02 -0.142056D-02  0.698440D-01 -0.222718D-02
     14   0.467158D+00  0.760829D-02  0.497064D-01  0.445518D+00 -0.166925D-01
     15  -0.119981D-01  0.257371D-01  0.501385D-01  0.330345D+00 -0.130738D+00
     16   0.120181D+00 -0.808025D-01  0.411390D-01  0.919428D-01 -0.402717D-01
                 6 
      1  -0.633113D+03
      2   0.523299D-01
      3  -0.247213D+00
      4   0.526976D-01
      5  -0.523130D-02
      6   0.504106D-01
      7  -0.305514D-01
      8   0.146611D+00
      9   0.188389D-01
     10  -0.251104D-01
     11   0.230101D+00
     12   0.185911D+00
     13  -0.159085D+00
     14  -0.441868D-01
     15   0.549925D-01
     16   0.171549D+00
 1\1\GINC-CN012\SP\RCAM-B3LYP TD-FC\TZVP\C11H15N1O2\WYX\24-Jan-2026\0\\
 #p CAM-B3LYP TZVP em=gd3bj td(nstates=6,root=2) scrf=(Solvent=Water,Co
 rrectedLR,NonEquilibrium=Save) Geom=Check Guess=Read\\Title Card Requi
 red\\0,1\O,0,2.720956,-1.559423,0.849765\O,0,-3.294889,-1.659465,-0.93
 0321\N,0,-0.686565,1.5162,-0.032006\H,0,-0.994989,2.476539,-0.098671\C
 ,0,-1.252221,-0.762919,-0.171068\C,0,0.643454,1.330057,0.213659\C,0,-1
 .626893,0.571178,-0.282063\C,0,-2.163329,-1.848374,-0.475593\C,0,0.117
 312,-1.083983,0.300604\H,0,0.06685,-1.505911,1.319428\H,0,0.536084,-1.
 917138,-0.271218\C,0,1.103584,0.026584,0.319178\C,0,2.481485,-0.39504,
 0.506718\C,0,-2.973124,1.10017,-0.632911\H,0,-3.01493,2.179714,-0.5046
 87\H,0,-3.230283,0.870878,-1.662921\H,0,-3.744737,0.649353,-0.018359\C
 ,0,-1.702628,-3.264746,-0.251527\H,0,-2.563536,-3.924056,-0.240095\H,0
 ,-1.049015,-3.58383,-1.062288\H,0,-1.148874,-3.392622,0.673304\C,0,3.6
 49213,0.525774,0.252183\H,0,3.466512,1.241698,-0.544475\H,0,3.903236,1
 .080532,1.157805\H,0,4.506434,-0.091317,-0.009159\C,0,1.415077,2.59868
 3,0.36703\H,0,2.156797,2.523341,1.154674\H,0,1.930187,2.877522,-0.5523
 11\H,0,0.748835,3.420602,0.625326\\Version=ES64L-G16RevA.03\State=1-A\
 HF=-633.326698\RMSD=2.849e-09\Dipole=-0.8133867,2.4285881,-0.3514161\Q
 uadrupole=-7.9559563,11.2100708,-3.2541144,7.088697,-4.0993007,1.91338
 31\PG=C01 [X(C11H15N1O2)]\\@


 Sacred cows make the best hamburger.
                               -- Mark Twain
 Job cpu time:       0 days  2 hours 41 minutes 44.7 seconds.
 Elapsed time:       0 days  0 hours 10 minutes 10.0 seconds.
 File lengths (MBytes):  RWF=    735 Int=      0 D2E=      0 Chk=     67 Scr=      1
 Normal termination of Gaussian 16 at Sat Jan 24 18:47:59 2026.
