 Entering Gaussian System, Link 0=g16
 Input=DDL-S1-cLR-9.gjf
 Output=DDL-S1-cLR-9.log
 Initial command:
 /data/home/wyx/g16/l1.exe "/scr/tmp/wyx/13117/Gau-2024588.inp" -scrdir="/scr/tmp/wyx/13117/"
 Entering Link 1 = /data/home/wyx/g16/l1.exe PID=   2024589.
  
 Copyright (c) 1988,1990,1992,1993,1995,1998,2003,2009,2016,
            Gaussian, Inc.  All Rights Reserved.
  
 This is part of the Gaussian(R) 16 program.  It is based on
 the Gaussian(R) 09 system (copyright 2009, Gaussian, Inc.),
 the Gaussian(R) 03 system (copyright 2003, Gaussian, Inc.),
 the Gaussian(R) 98 system (copyright 1998, Gaussian, Inc.),
 the Gaussian(R) 94 system (copyright 1995, Gaussian, Inc.),
 the Gaussian 92(TM) system (copyright 1992, Gaussian, Inc.),
 the Gaussian 90(TM) system (copyright 1990, Gaussian, Inc.),
 the Gaussian 88(TM) system (copyright 1988, Gaussian, Inc.),
 the Gaussian 86(TM) system (copyright 1986, Carnegie Mellon
 University), and the Gaussian 82(TM) system (copyright 1983,
 Carnegie Mellon University). Gaussian is a federally registered
 trademark of Gaussian, Inc.
  
 This software contains proprietary and confidential information,
 including trade secrets, belonging to Gaussian, Inc.
  
 This software is provided under written license and may be
 used, copied, transmitted, or stored only in accord with that
 written license.
  
 The following legend is applicable only to US Government
 contracts under FAR:
  
                    RESTRICTED RIGHTS LEGEND
  
 Use, reproduction and disclosure by the US Government is
 subject to restrictions as set forth in subparagraphs (a)
 and (c) of the Commercial Computer Software - Restricted
 Rights clause in FAR 52.227-19.
  
 Gaussian, Inc.
 340 Quinnipiac St., Bldg. 40, Wallingford CT 06492
  
  
 ---------------------------------------------------------------
 Warning -- This program may not be used in any manner that
 competes with the business of Gaussian, Inc. or will provide
 assistance to any competitor of Gaussian, Inc.  The licensee
 of this program is prohibited from giving any competitor of
 Gaussian, Inc. access to this program.  By using this program,
 the user acknowledges that Gaussian, Inc. is engaged in the
 business of creating and licensing software in the field of
 computational chemistry and represents and warrants to the
 licensee that it is not a competitor of Gaussian, Inc. and that
 it will not use this program in any manner prohibited above.
 ---------------------------------------------------------------
  

 Cite this work as:
 Gaussian 16, Revision A.03,
 M. J. Frisch, G. W. Trucks, H. B. Schlegel, G. E. Scuseria, 
 M. A. Robb, J. R. Cheeseman, G. Scalmani, V. Barone, 
 G. A. Petersson, H. Nakatsuji, X. Li, M. Caricato, A. V. Marenich, 
 J. Bloino, B. G. Janesko, R. Gomperts, B. Mennucci, H. P. Hratchian, 
 J. V. Ortiz, A. F. Izmaylov, J. L. Sonnenberg, D. Williams-Young, 
 F. Ding, F. Lipparini, F. Egidi, J. Goings, B. Peng, A. Petrone, 
 T. Henderson, D. Ranasinghe, V. G. Zakrzewski, J. Gao, N. Rega, 
 G. Zheng, W. Liang, M. Hada, M. Ehara, K. Toyota, R. Fukuda, 
 J. Hasegawa, M. Ishida, T. Nakajima, Y. Honda, O. Kitao, H. Nakai, 
 T. Vreven, K. Throssell, J. A. Montgomery, Jr., J. E. Peralta, 
 F. Ogliaro, M. J. Bearpark, J. J. Heyd, E. N. Brothers, K. N. Kudin, 
 V. N. Staroverov, T. A. Keith, R. Kobayashi, J. Normand, 
 K. Raghavachari, A. P. Rendell, J. C. Burant, S. S. Iyengar, 
 J. Tomasi, M. Cossi, J. M. Millam, M. Klene, C. Adamo, R. Cammi, 
 J. W. Ochterski, R. L. Martin, K. Morokuma, O. Farkas, 
 J. B. Foresman, and D. J. Fox, Gaussian, Inc., Wallingford CT, 2016.
 
 ******************************************
 Gaussian 16:  ES64L-G16RevA.03 25-Dec-2016
                24-Jan-2026 
 ******************************************
 %nprocshared=16
 Will use up to   16 processors via shared memory.
 %mem=16GB
 %oldchk=DDL-LR-9.chk
 %chk=DDL-S1-cLR-9.chk
 Copying data from "DDL-LR-9.chk" to current chk file "DDL-S1-cLR-9.chk"
 IOpt=  2 FromEx=T IUOpen= 4 IOptOp= 5 NList=   0 IFRang= 0 IUIn= 4 IUOut= 2.
 ----------------------------------------------------------------------
 #p CAM-B3LYP TZVP em=gd3bj td(nstates=6,root=1) scrf=(Solvent=Water,Co
 rrectedLR,NonEquilibrium=Save) Geom=Check Guess=Read
 ----------------------------------------------------------------------
 1/29=2,30=1,38=1,172=1/1;
 2/12=2,40=1/2;
 3/5=19,7=101,11=9,14=-4,25=1,30=1,70=9002201,71=1,72=1,74=-40,116=-2,124=41/1,2,3,8;
 4/5=1/1;
 5/5=2,38=6,53=1/2;
 8/6=1,10=1,107=1,108=6/1;
 9/8=1,15=1,41=6,42=1,70=2,73=22/14;
 10/5=4,13=10,28=1,74=20/2;
 6/7=2,8=2,9=2,10=2,22=-1/1;
 99/5=1,9=1/99;
 Leave Link    1 at Sat Jan 24 20:10:40 2026, MaxMem=  2147483648 cpu:               0.8 elap:               0.2
 (Enter /data/home/wyx/g16/l101.exe)
 -------------------
 Title Card Required
 -------------------
 Structure from the checkpoint file:  "DDL-S1-cLR-9.chk"
 Charge =  0 Multiplicity = 1
 Z-Matrix found in chk file.
 O,0,2.731446,-1.559025,0.805109
 O,0,-3.266936,-1.651616,-1.004444
 N,0,-0.696354,1.51519,0.032481
 H,0,-1.00471,2.474313,-0.030318
 C,0,-1.250647,-0.760918,-0.163145
 C,0,0.642372,1.317886,0.242356
 C,0,-1.623792,0.560097,-0.258912
 C,0,-2.158305,-1.842646,-0.505858
 C,0,0.108873,-1.092933,0.355795
 H,0,0.033753,-1.473973,1.386387
 H,0,0.531527,-1.938118,-0.190234
 C,0,1.099331,0.025917,0.336047
 C,0,2.485909,-0.393094,0.485694
 C,0,-2.959338,1.093494,-0.642863
 H,0,-3.025359,2.161913,-0.451497
 H,0,-3.157484,0.926836,-1.697558
 H,0,-3.753387,0.593636,-0.101298
 C,0,-1.712386,-3.25696,-0.251985
 H,0,-2.563792,-3.924326,-0.318211
 H,0,-0.984234,-3.566158,-0.999507
 H,0,-1.24039,-3.37978,0.717833
 C,0,3.64832,0.531317,0.220912
 H,0,3.458863,1.239628,-0.581003
 H,0,3.899446,1.094936,1.121511
 H,0,4.508248,-0.083327,-0.036219
 C,0,1.415987,2.59013,0.359633
 H,0,2.199924,2.520853,1.103926
 H,0,1.874287,2.869886,-0.588494
 H,0,0.758828,3.406843,0.653862
 Recover connectivity data from disk.
 ITRead=  0  0  0  0  0  0  0  0  0  0  0  0  0  0  0  0  0  0  0  0
 ITRead=  0  0  0  0  0  0  0  0  0
 MicOpt= -1 -1 -1 -1 -1 -1 -1 -1 -1 -1 -1 -1 -1 -1 -1 -1 -1 -1 -1 -1
 MicOpt= -1 -1 -1 -1 -1 -1 -1 -1 -1
 NAtoms=     29 NQM=       29 NQMF=       0 NMMI=      0 NMMIF=      0
                NMic=       0 NMicF=      0.
                    Isotopes and Nuclear Properties:
 (Nuclear quadrupole moments (NQMom) in fm**2, nuclear magnetic moments (NMagM)
  in nuclear magnetons)

  Atom         1           2           3           4           5           6           7           8           9          10
 IAtWgt=          16          16          14           1          12          12          12          12          12           1
 AtmWgt=  15.9949146  15.9949146  14.0030740   1.0078250  12.0000000  12.0000000  12.0000000  12.0000000  12.0000000   1.0078250
 NucSpn=           0           0           2           1           0           0           0           0           0           1
 AtZEff=   5.6000000   5.6000000   4.5500000   1.0000000   3.6000000   3.6000000   3.6000000   3.6000000   3.6000000   1.0000000
 NQMom=    0.0000000   0.0000000   2.0440000   0.0000000   0.0000000   0.0000000   0.0000000   0.0000000   0.0000000   0.0000000
 NMagM=    0.0000000   0.0000000   0.4037610   2.7928460   0.0000000   0.0000000   0.0000000   0.0000000   0.0000000   2.7928460
 AtZNuc=   8.0000000   8.0000000   7.0000000   1.0000000   6.0000000   6.0000000   6.0000000   6.0000000   6.0000000   1.0000000

  Atom        11          12          13          14          15          16          17          18          19          20
 IAtWgt=           1          12          12          12           1           1           1          12           1           1
 AtmWgt=   1.0078250  12.0000000  12.0000000  12.0000000   1.0078250   1.0078250   1.0078250  12.0000000   1.0078250   1.0078250
 NucSpn=           1           0           0           0           1           1           1           0           1           1
 AtZEff=   1.0000000   3.6000000   3.6000000   3.6000000   1.0000000   1.0000000   1.0000000   3.6000000   1.0000000   1.0000000
 NQMom=    0.0000000   0.0000000   0.0000000   0.0000000   0.0000000   0.0000000   0.0000000   0.0000000   0.0000000   0.0000000
 NMagM=    2.7928460   0.0000000   0.0000000   0.0000000   2.7928460   2.7928460   2.7928460   0.0000000   2.7928460   2.7928460
 AtZNuc=   1.0000000   6.0000000   6.0000000   6.0000000   1.0000000   1.0000000   1.0000000   6.0000000   1.0000000   1.0000000

  Atom        21          22          23          24          25          26          27          28          29
 IAtWgt=           1          12           1           1           1          12           1           1           1
 AtmWgt=   1.0078250  12.0000000   1.0078250   1.0078250   1.0078250  12.0000000   1.0078250   1.0078250   1.0078250
 NucSpn=           1           0           1           1           1           0           1           1           1
 AtZEff=   1.0000000   3.6000000   1.0000000   1.0000000   1.0000000   3.6000000   1.0000000   1.0000000   1.0000000
 NQMom=    0.0000000   0.0000000   0.0000000   0.0000000   0.0000000   0.0000000   0.0000000   0.0000000   0.0000000
 NMagM=    2.7928460   0.0000000   2.7928460   2.7928460   2.7928460   0.0000000   2.7928460   2.7928460   2.7928460
 AtZNuc=   1.0000000   6.0000000   1.0000000   1.0000000   1.0000000   6.0000000   1.0000000   1.0000000   1.0000000
 Leave Link  101 at Sat Jan 24 20:10:42 2026, MaxMem=  2147483648 cpu:               0.9 elap:               0.1
 (Enter /data/home/wyx/g16/l202.exe)
                          Input orientation:                          
 ---------------------------------------------------------------------
 Center     Atomic      Atomic             Coordinates (Angstroms)
 Number     Number       Type             X           Y           Z
 ---------------------------------------------------------------------
      1          8           0        2.731446   -1.559025    0.805109
      2          8           0       -3.266936   -1.651616   -1.004444
      3          7           0       -0.696354    1.515190    0.032481
      4          1           0       -1.004710    2.474313   -0.030318
      5          6           0       -1.250647   -0.760918   -0.163145
      6          6           0        0.642372    1.317886    0.242356
      7          6           0       -1.623792    0.560097   -0.258912
      8          6           0       -2.158305   -1.842646   -0.505858
      9          6           0        0.108873   -1.092933    0.355795
     10          1           0        0.033753   -1.473973    1.386387
     11          1           0        0.531527   -1.938118   -0.190234
     12          6           0        1.099331    0.025917    0.336047
     13          6           0        2.485909   -0.393094    0.485694
     14          6           0       -2.959338    1.093494   -0.642863
     15          1           0       -3.025359    2.161913   -0.451497
     16          1           0       -3.157484    0.926836   -1.697558
     17          1           0       -3.753387    0.593636   -0.101298
     18          6           0       -1.712386   -3.256960   -0.251985
     19          1           0       -2.563792   -3.924326   -0.318211
     20          1           0       -0.984234   -3.566158   -0.999507
     21          1           0       -1.240390   -3.379780    0.717833
     22          6           0        3.648320    0.531317    0.220912
     23          1           0        3.458863    1.239628   -0.581003
     24          1           0        3.899446    1.094936    1.121511
     25          1           0        4.508248   -0.083327   -0.036219
     26          6           0        1.415987    2.590130    0.359633
     27          1           0        2.199924    2.520853    1.103926
     28          1           0        1.874287    2.869886   -0.588494
     29          1           0        0.758828    3.406843    0.653862
 ---------------------------------------------------------------------
                    Distance matrix (angstroms):
                    1          2          3          4          5
     1  O    0.000000
     2  O    6.266071   0.000000
     3  N    4.668786   4.208535   0.000000
     4  H    5.560991   4.805193   1.009428   0.000000
     5  C    4.175111   2.359353   2.350782   3.247283   0.000000
     6  C    3.599658   5.065090   1.369366   2.030900   2.840665
     7  C    4.958923   2.854368   1.362811   2.024782   1.376041
     8  C    5.070379   1.230505   3.701645   4.493668   1.453076
     9  C    2.701299   3.682182   2.748678   3.756913   1.492591
    10  H    2.760918   4.079483   3.361728   4.321391   2.135224
    11  H    2.444190   3.895297   3.671870   4.674949   2.136043
    12  C    2.322899   4.865729   2.352567   3.248978   2.527983
    13  C    1.233576   6.074505   3.738148   4.546725   3.810267
    14  C    6.443408   2.785855   2.398961   2.470312   2.566826
    15  H    6.968877   3.860973   2.465106   2.087584   3.431573
    16  H    6.864572   2.672228   3.065348   3.131902   2.973040
    17  H    6.892647   2.468494   3.195717   3.331247   2.846463
    18  C    4.873200   2.357955   4.887398   5.779051   2.539945
    19  H    5.907287   2.475992   5.761826   6.592132   3.428636
    20  H    4.592548   2.979299   5.193070   6.117764   2.939362
    21  H    4.370154   3.171699   4.972566   5.906410   2.763090
    22  C    2.356157   7.354418   4.458666   5.048667   5.081068
    23  H    3.206696   7.333142   4.209290   4.663817   5.133836
    24  H    2.916821   7.963684   4.741727   5.223039   5.622988
    25  H    2.458158   7.990649   5.444985   6.077357   5.800010
    26  C    4.375428   6.463968   2.392595   2.454638   4.314366
    27  H    4.125192   7.193141   3.247734   3.399758   4.927670
    28  H    4.721451   6.859240   2.971364   2.959166   4.809249
    29  H    5.345460   6.674186   2.466175   2.108976   4.698481
                    6          7          8          9         10
     6  C    0.000000
     7  C    2.441519   0.000000
     8  C    4.288657   2.473835   0.000000
     9  C    2.471748   2.472347   2.538624   0.000000
    10  H    3.077938   3.097080   2.919183   1.101342   0.000000
    11  H    3.286485   3.300181   2.709969   1.091385   1.717249
    12  C    1.373599   2.838084   3.848704   1.494397   2.118570
    13  C    2.526914   4.284000   4.965189   2.481320   2.827122
    14  C    3.715680   1.488494   3.046530   3.897653   4.434900
    15  H    3.827018   2.137123   4.097710   4.590115   5.094669
    16  H    4.284284   2.134575   3.176246   4.354861   5.045651
    17  H    4.468258   2.135683   2.939970   4.239163   4.564060
    18  C    5.168992   3.818091   1.504520   2.892990   2.985349
    19  H    6.170455   4.582266   2.129090   3.951482   3.956908
    20  H    5.295466   4.240695   2.143041   3.024660   3.332570
    21  H    5.083201   4.077212   2.168587   2.679786   2.387992
    22  C    3.107229   5.293980   6.315124   3.896674   4.294719
    23  H    2.935416   5.137985   6.407701   4.188182   4.792247
    24  H    3.380999   5.718197   6.926331   4.443145   4.648982
    25  H    4.121407   6.169725   6.910766   4.530726   4.896816
    26  C    1.493599   3.707275   5.759700   3.908134   4.413811
    27  H    2.148348   4.508070   6.373828   4.241656   4.553100
    28  H    2.148635   4.204796   6.202950   4.439854   5.114375
    29  H    2.132285   3.822826   6.116515   4.556234   4.988456
                   11         12         13         14         15
    11  H    0.000000
    12  C    2.111115   0.000000
    13  C    2.581392   1.456215   0.000000
    14  C    4.645609   4.309383   5.756240   0.000000
    15  H    5.434147   4.711239   6.146581   1.087428   0.000000
    16  H    4.908033   4.802882   6.193278   1.086010   1.759415
    17  H    4.977768   4.905349   6.344053   1.083358   1.764131
    18  C    2.603517   4.362203   5.135327   4.542480   5.579237
    19  H    3.680000   5.426872   6.214124   5.043845   6.105171
    20  H    2.367059   4.362104   4.931131   5.073518   6.105514
    21  H    2.458183   4.149557   4.781159   4.981612   5.938334
    22  C    3.997693   2.601159   1.508590   6.687548   6.902823
    23  H    4.338210   2.807395   2.179510   6.420162   6.550765
    24  H    4.718365   3.098451   2.148624   7.082086   7.180927
    25  H    4.390704   3.430923   2.111446   7.584047   7.872026
    26  C    4.646467   2.583799   3.171790   4.731637   4.535070
    27  H    4.933642   2.832958   2.992505   5.630862   5.463677
    28  H    5.007846   3.089254   3.489269   5.149996   4.952426
    29  H    5.415974   3.412859   4.177393   4.567038   4.134216
                   16         17         18         19         20
    16  H    0.000000
    17  H    1.736136   0.000000
    18  C    4.656408   4.360674   0.000000
    19  H    5.078271   4.676983   1.083815   0.000000
    20  H    5.039572   5.077290   1.088392   1.757115   0.000000
    21  H    5.296820   4.772228   1.085547   1.766723   1.746313
    22  C    7.082085   7.408979   6.581173   7.663794   6.303910
    23  H    6.717186   7.256995   6.860712   7.937749   6.558341
    24  H    7.601031   7.766107   7.233129   8.308985   7.076358
    25  H    7.908472   8.289579   6.986758   8.052735   6.574602
    26  C    5.283485   5.560654   6.659524   7.663958   6.745977
    27  H    6.252281   6.372491   7.108290   8.139766   7.184358
    28  H    5.506740   6.090106   7.107440   8.119785   7.054271
    29  H    5.197799   5.370706   7.164756   8.107451   7.375272
                   21         22         23         24         25
    21  H    0.000000
    22  C    6.280374   0.000000
    23  H    6.716315   1.086585   0.000000
    24  H    6.826709   1.091700   1.764540   0.000000
    25  H    6.669485   1.087833   1.774319   1.760478   0.000000
    26  C    6.544041   3.039945   2.623356   2.997271   4.106842
    27  H    6.841221   2.614540   2.462814   2.218541   3.661973
    28  H    7.103945   3.044870   2.273473   3.189958   3.995526
    29  H    7.075254   4.099422   3.675854   3.927734   5.168718
                   26         27         28         29
    26  C    0.000000
    27  H    1.083203   0.000000
    28  H    1.089609   1.758451   0.000000
    29  H    1.088783   1.750512   1.753859   0.000000
 Stoichiometry    C11H15NO2
 Framework group  C1[X(C11H15NO2)]
 Deg. of freedom    81
 Full point group                 C1      NOp   1
 RotChk:  IX=0 Diff= 7.48D-16
 Largest Abelian subgroup         C1      NOp   1
 Largest concise Abelian subgroup C1      NOp   1
                         Standard orientation:                         
 ---------------------------------------------------------------------
 Center     Atomic      Atomic             Coordinates (Angstroms)
 Number     Number       Type             X           Y           Z
 ---------------------------------------------------------------------
      1          8           0       -2.287903   -2.283204   -0.226257
      2          8           0        3.609900   -0.252973    0.371843
      3          7           0       -0.024127    1.799638   -0.168901
      4          1           0       -0.052867    2.808628   -0.176443
      5          6           0        1.293978   -0.144088   -0.065417
      6          6           0       -1.231349    1.155948   -0.110224
      7          6           0        1.208479    1.229266   -0.056596
      8          6           0        2.560533   -0.836306    0.102226
      9          6           0        0.057038   -0.944493   -0.304495
     10          1           0        0.068224   -1.355207   -1.326328
     11          1           0        0.052267   -1.838546    0.321420
     12          6           0       -1.232688   -0.217618   -0.100824
     13          6           0       -2.398061   -1.081213    0.028287
     14          6           0        2.330563    2.201133    0.053019
     15          1           0        1.994914    3.213882   -0.157166
     16          1           0        2.761524    2.188637    1.049781
     17          1           0        3.134541    1.952741   -0.629320
     18          6           0        2.581723   -2.333306   -0.046503
     19          1           0        3.605790   -2.674919   -0.142642
     20          1           0        2.149995   -2.808956    0.832113
     21          1           0        2.011398   -2.677316   -0.903707
     22          6           0       -3.736173   -0.575783    0.507705
     23          1           0       -3.655476    0.213183    1.250462
     24          1           0       -4.322490   -0.195790   -0.331131
     25          1           0       -4.275194   -1.419013    0.934084
     26          6           0       -2.397725    2.088559   -0.084836
     27          1           0       -3.233201    1.708705   -0.660179
     28          1           0       -2.743343    2.271197    0.932237
     29          1           0       -2.121074    3.052133   -0.509616
 ---------------------------------------------------------------------
 Rotational constants (GHZ):           1.0779213           0.4906093           0.3451492
 Leave Link  202 at Sat Jan 24 20:10:42 2026, MaxMem=  2147483648 cpu:               0.0 elap:               0.0
 (Enter /data/home/wyx/g16/l301.exe)
 Standard basis: TZVP (5D, 7F)
 Ernie: Thresh=  0.10000D-02 Tol=  0.10000D-05 Strict=F.
 There are   370 symmetry adapted cartesian basis functions of A   symmetry.
 There are   356 symmetry adapted basis functions of A   symmetry.
   356 basis functions,   610 primitive gaussians,   370 cartesian basis functions
    52 alpha electrons       52 beta electrons
       nuclear repulsion energy       900.4960122814 Hartrees.
 IExCor=20419 DFT=T Ex+Corr=CAM-B3LYP ExCW=0 ScaHFX=  1.000000
 ScaDFX=  1.000000  1.000000  1.000000  0.810000 ScalE2=  1.000000  1.000000
 IRadAn=      5 IRanWt=     -1 IRanGd=            0 ICorTp=0 IEmpDi=141
 HFx  wShort=  0.000000 wLong=  0.330000 cFull=  0.190000 cShort=  0.000000 cLong=  0.460000
 DFx  wShort=  0.000000 wLong=  0.330000 cFull=  0.190000 cShort=  0.000000 cLong=  0.460000
 NAtoms=   29 NActive=   29 NUniq=   29 SFac= 1.00D+00 NAtFMM=   60 NAOKFM=F Big=F
 Integral buffers will be    131072 words long.
 Raffenetti 1 integral format.
 Two-electron integral symmetry is turned on.
 R6Disp:  Grimme-D3(BJ) Dispersion energy=       -0.0261825771 Hartrees.
 Nuclear repulsion after empirical dispersion term =      900.4698297043 Hartrees.
 ------------------------------------------------------------------------------
 Polarizable Continuum Model (PCM)
 =================================
 Model                : PCM.
 Atomic radii         : UFF (Universal Force Field).
 Polarization charges : Total charges.
 Charge compensation  : None.
 Solution method      : On-the-fly selection.
 Cavity type          : Scaled VdW (van der Waals Surface) (Alpha=1.100).
 Cavity algorithm     : GePol (No added spheres)
                        Default sphere list used, NSphG=   29.
                        Lebedev-Laikov grids with approx.  5.0 points / Ang**2.
                        Smoothing algorithm: York/Karplus (Gamma=1.0000).
                        Polarization charges: spherical gaussians, with
                                              point-specific exponents (IZeta= 3).
                        Self-potential: point-specific (ISelfS= 7).
                        Self-field    : sphere-specific E.n sum rule (ISelfD= 2).
 1st derivatives      : Analytical E(r).r(x)/FMM algorithm (CHGder, D1EAlg=3).
                        Cavity 1st derivative terms included.
 Solvent              : Water, Eps=  78.355300 Eps(inf)=   1.777849
 ------------------------------------------------------------------------------
 GePol: Number of generator spheres                  =      29
 GePol: Total number of spheres                      =      29
 GePol: Number of exposed spheres                    =      29 (100.00%)
 GePol: Number of points                             =    2110
 GePol: Average weight of points                     =       0.13
 GePol: Minimum weight of points                     =   0.11D-09
 GePol: Maximum weight of points                     =    0.20577
 GePol: Number of points with low weight             =     135
 GePol: Fraction of low-weight points (<1% of avg)   =       6.40%
 GePol: Cavity surface area                          =    268.623 Ang**2
 GePol: Cavity volume                                =    286.684 Ang**3
 Leave Link  301 at Sat Jan 24 20:10:43 2026, MaxMem=  2147483648 cpu:               0.6 elap:               0.0
 (Enter /data/home/wyx/g16/l302.exe)
 NPDir=0 NMtPBC=     1 NCelOv=     1 NCel=       1 NClECP=     1 NCelD=      1
         NCelK=      1 NCelE2=     1 NClLst=     1 CellRange=     0.0.
 One-electron integrals computed using PRISM.
 One-electron integral symmetry used in STVInt
 NBasis=   356 RedAO= T EigKep=  4.65D-05  NBF=   356
 NBsUse=   356 1.00D-06 EigRej= -1.00D+00 NBFU=   356
 Precomputing XC quadrature grid using
 IXCGrd= 4 IRadAn=           5 IRanWt=          -1 IRanGd=           0 AccXCQ= 0.00D+00.
 Generated NRdTot=       0 NPtTot=           0 NUsed=           0 NTot=          32
 NSgBfM=   366   366   366   366   366 MxSgAt=    29 MxSgA2=    29.
 Leave Link  302 at Sat Jan 24 20:10:43 2026, MaxMem=  2147483648 cpu:               3.1 elap:               0.2
 (Enter /data/home/wyx/g16/l303.exe)
 DipDrv:  MaxL=1.
 Leave Link  303 at Sat Jan 24 20:10:43 2026, MaxMem=  2147483648 cpu:               0.6 elap:               0.0
 (Enter /data/home/wyx/g16/l308.exe)
 Leave Link  308 at Sat Jan 24 20:10:43 2026, MaxMem=  2147483648 cpu:               0.7 elap:               0.1
 (Enter /data/home/wyx/g16/l401.exe)
 Initial guess from the checkpoint file:  "DDL-S1-cLR-9.chk"
 B after Tr=     0.000000   -0.000000   -0.000000
         Rot=    1.000000   -0.000000   -0.000000    0.000000 Ang=   0.00 deg.
 Guess basis will be translated and rotated to current coordinates.
 GSVD:  received Info=                   1 from GESDD.
 JPrj=2 DoOrth=T DoCkMO=T.
 Leave Link  401 at Sat Jan 24 20:10:43 2026, MaxMem=  2147483648 cpu:               2.4 elap:               0.2
 (Enter /data/home/wyx/g16/l502.exe)
 Integral symmetry usage will be decided dynamically.
 Closed shell SCF:
 Using DIIS extrapolation, IDIIS=  1040.
 NGot=  2147483648 LenX=  2147200095 LenY=  2147062754
 Requested convergence on RMS density matrix=1.00D-08 within 128 cycles.
 Requested convergence on MAX density matrix=1.00D-06.
 Requested convergence on             energy=1.00D-06.
 No special actions if energy rises.
 Fock matrices will be formed incrementally for  20 cycles.

 Cycle   1  Pass 1  IDiag  1:
 FoFJK:  IHMeth= 1 ICntrl=       0 DoSepK=T KAlg= 0 I1Cent=           0 FoldK=F
 IRaf=         1 NMat=       1 IRICut=       1 DoRegI=T DoRafI=F ISym2E= 0 IDoP0=0 IntGTp=1.
 FoFCou: FMM=F IPFlag=           0 FMFlag=      100000 FMFlg1=           0
         NFxFlg=           0 DoJE=T BraDBF=F KetDBF=F FulRan=T
         wScrn=  0.000000 ICntrl=       500 IOpCl=  0 I1Cent=           0 NGrid=           0
         NMat0=    1 NMatS0=      1 NMatT0=    0 NMatD0=    1 NMtDS0=    0 NMtDT0=    0
 Symmetry not used in FoFCou.
 Inv3:  Mode=1 IEnd=    13356300.
 Iteration    1 A*A^-1 deviation from unit magnitude is 3.55D-15 for    873.
 Iteration    1 A*A^-1 deviation from orthogonality  is 1.85D-15 for    744    251.
 Iteration    1 A^-1*A deviation from unit magnitude is 3.33D-15 for    873.
 Iteration    1 A^-1*A deviation from orthogonality  is 4.32D-15 for   1379   1350.
 E= -633.329960112344    
 DIIS: error= 1.35D-08 at cycle   1 NSaved=   1.
 NSaved= 1 IEnMin= 1 EnMin= -633.329960112344     IErMin= 1 ErrMin= 1.35D-08
 ErrMax= 1.35D-08  0.00D+00 EMaxC= 1.00D-01 BMatC= 5.24D-14 BMatP= 5.24D-14
 IDIUse=1 WtCom= 1.00D+00 WtEn= 0.00D+00
 Coeff-Com:  0.100D+01
 Coeff:      0.100D+01
 Gap=     0.228 Goal=   None    Shift=    0.000
 RMSDP=2.64D-09 MaxDP=7.11D-08              OVMax= 2.79D-07

 Error on total polarization charges =  0.01549
 SCF Done:  E(RCAM-B3LYP) =  -633.329960112     A.U. after    1 cycles
            NFock=  1  Conv=0.26D-08     -V/T= 2.0041
 KE= 6.307244359501D+02 PE=-3.276989685984D+03 EE= 1.112465460218D+03
 Leave Link  502 at Sat Jan 24 20:10:49 2026, MaxMem=  2147483648 cpu:              85.2 elap:               5.6
 (Enter /data/home/wyx/g16/l801.exe)
 DoSCS=F DFT=T ScalE2(SS,OS)=  1.000000  1.000000
 ExpMin= 9.52D-02 ExpMax= 2.70D+04 ExpMxC= 9.22D+02 IAcc=3 IRadAn=         5 AccDes= 0.00D+00
 HarFok:  IExCor=  205 AccDes= 0.00D+00 IRadAn=         5 IDoV=-2 UseB2=F ITyADJ=14
 ICtDFT= 12500011 ScaDFX=  1.000000  1.000000  1.000000  1.000000
 Largest valence mixing into a core orbital is  5.61D-05
 Largest core mixing into a valence orbital is  1.18D-05
 Range of M.O.s used for correlation:    15   356
 NBasis=   356 NAE=    52 NBE=    52 NFC=    14 NFV=     0
 NROrb=    342 NOA=    38 NOB=    38 NVA=   304 NVB=   304

 **** Warning!!: The largest alpha MO coefficient is  0.59070658D+02

 Leave Link  801 at Sat Jan 24 20:10:50 2026, MaxMem=  2147483648 cpu:               1.0 elap:               0.1
 (Enter /data/home/wyx/g16/l914.exe)
 RHF ground state
 Two-electron integrals replicated using symmetry.
 MDV=  2147483648 DFT=T DoStab=F Mixed=T DoRPA=T DoScal=F NonHer=T
 NEqPCM:  Using equilibrium solvation (IEInf=0, Eps=  78.3553, EpsInf=   1.7778)
 Making orbital integer symmetry assigments:
 Orbital symmetries:
       Occupied  (A) (A) (A) (A) (A) (A) (A) (A) (A) (A) (A) (A)
                 (A) (A) (A) (A) (A) (A) (A) (A) (A) (A) (A) (A)
                 (A) (A) (A) (A) (A) (A) (A) (A) (A) (A) (A) (A)
                 (A) (A) (A) (A) (A) (A) (A) (A) (A) (A) (A) (A)
                 (A) (A) (A) (A)
       Virtual   (A) (A) (A) (A) (A) (A) (A) (A) (A) (A) (A) (A)
                 (A) (A) (A) (A) (A) (A) (A) (A) (A) (A) (A) (A)
                 (A) (A) (A) (A) (A) (A) (A) (A) (A) (A) (A) (A)
                 (A) (A) (A) (A) (A) (A) (A) (A) (A) (A) (A) (A)
                 (A) (A) (A) (A) (A) (A) (A) (A) (A) (A) (A) (A)
                 (A) (A) (A) (A) (A) (A) (A) (A) (A) (A) (A) (A)
                 (A) (A) (A) (A) (A) (A) (A) (A) (A) (A) (A) (A)
                 (A) (A) (A) (A) (A) (A) (A) (A) (A) (A) (A) (A)
                 (A) (A) (A) (A) (A) (A) (A) (A) (A) (A) (A) (A)
                 (A) (A) (A) (A) (A) (A) (A) (A) (A) (A) (A) (A)
                 (A) (A) (A) (A) (A) (A) (A) (A) (A) (A) (A) (A)
                 (A) (A) (A) (A) (A) (A) (A) (A) (A) (A) (A) (A)
                 (A) (A) (A) (A) (A) (A) (A) (A) (A) (A) (A) (A)
                 (A) (A) (A) (A) (A) (A) (A) (A) (A) (A) (A) (A)
                 (A) (A) (A) (A) (A) (A) (A) (A) (A) (A) (A) (A)
                 (A) (A) (A) (A) (A) (A) (A) (A) (A) (A) (A) (A)
                 (A) (A) (A) (A) (A) (A) (A) (A) (A) (A) (A) (A)
                 (A) (A) (A) (A) (A) (A) (A) (A) (A) (A) (A) (A)
                 (A) (A) (A) (A) (A) (A) (A) (A) (A) (A) (A) (A)
                 (A) (A) (A) (A) (A) (A) (A) (A) (A) (A) (A) (A)
                 (A) (A) (A) (A) (A) (A) (A) (A) (A) (A) (A) (A)
                 (A) (A) (A) (A) (A) (A) (A) (A) (A) (A) (A) (A)
                 (A) (A) (A) (A) (A) (A) (A) (A) (A) (A) (A) (A)
                 (A) (A) (A) (A) (A) (A) (A) (A) (A) (A) (A) (A)
                 (A) (A) (A) (A) (A) (A) (A) (A) (A) (A) (A) (A)
                 (A) (A) (A) (A)
 PCM Corrected Linear-Response:
 Compute the excitation energies in the ground state reaction field.
    24 initial guesses have been made.
 Convergence on wavefunction:    0.000001000000000
 Davidson Disk Diagonalization:  ConvIn= 1.00D-06 SkipCon=T Conv= 1.00D-06.
 Max sub-space:  2000 roots to seek:    24 dimension of matrix:        23104
 Iteration     1 Dimension    24 NMult     0 NNew     24
 CISAX will form    24 AO SS matrices at one time.
 NMat=    24 NSing=    24 JSym2X= 0.
 FoFJK:  IHMeth= 1 ICntrl=       0 DoSepK=T KAlg= 0 I1Cent=           0 FoldK=F
 IRaf=         1 NMat=      48 IRICut=       1 DoRegI=T DoRafI=F ISym2E= 0 IDoP0=3 IntGTp=3.
 FoFCou: FMM=F IPFlag=           0 FMFlag=      100000 FMFlg1=           0
         NFxFlg=           0 DoJE=F BraDBF=F KetDBF=F FulRan=T
         wScrn=  0.000000 ICntrl=       500 IOpCl=  0 I1Cent=           0 NGrid=           0
         NMat0=   24 NMatS0=     24 NMatT0=    0 NMatD0=   24 NMtDS0=    0 NMtDT0=    0
 Symmetry not used in FoFCou.
 New state      2 was old state      3
 New state      3 was old state      4
 New state      4 was old state      2
 New state      5 was old state      6
 New state      6 was old state      5
 Excitation Energies [eV] at current iteration:
 Root      1 :     3.793694937582787
 Root      2 :     4.284954915321731
 Root      3 :     4.487382855506289
 Root      4 :     5.443145214418043
 Root      5 :     6.096337852825894
 Root      6 :     6.435080344863371
 Root      7 :     6.725365771053228
 Root      8 :     6.798331880931339
 Root      9 :     7.011321050456749
 Root     10 :     7.015427460130396
 Root     11 :     7.245435369152337
 Root     12 :     7.352310317716210
 Root     13 :     7.492243067786548
 Root     14 :     7.526807225032774
 Root     15 :     7.869818634464159
 Root     16 :     7.900392231751274
 Root     17 :     8.143892270365075
 Root     18 :     8.207746052283936
 Root     19 :     8.331060243589937
 Root     20 :     8.344243758263360
 Root     21 :     8.587015557828300
 Root     22 :     8.831866738867928
 Root     23 :     8.894803581086540
 Root     24 :     9.064894462312338
 Iteration     2 Dimension    36 NMult    24 NNew     12
 CISAX will form    12 AO SS matrices at one time.
 NMat=    12 NSing=    12 JSym2X= 0.
 Root      1 not converged, maximum delta is    0.038541981666254
 Root      2 not converged, maximum delta is    0.074466613926185
 Root      3 not converged, maximum delta is    0.085199455933100
 Root      4 not converged, maximum delta is    0.199034780769916
 New state      5 was old state      6
 Root      5 not converged, maximum delta is    0.191100448339378
 New state      6 was old state      5
 Root      6 not converged, maximum delta is    0.098177220971986
 Excitation Energies [eV] at current iteration:
 Root      1 :     3.325558980763085   Change is   -0.468135956819702
 Root      2 :     4.059401492210028   Change is   -0.225553423111704
 Root      3 :     4.223586026917763   Change is   -0.263796828588526
 Root      4 :     5.127184209453795   Change is   -0.315961004964248
 Root      5 :     5.591419781445399   Change is   -0.843660563417971
 Root      6 :     5.988666464840971   Change is   -0.107671387984922
 Iteration     3 Dimension    48 NMult    36 NNew     12
 CISAX will form    12 AO SS matrices at one time.
 NMat=    12 NSing=    12 JSym2X= 0.
 Root      1 not converged, maximum delta is    0.008700808971091
 Root      2 not converged, maximum delta is    0.013411157222982
 Root      3 not converged, maximum delta is    0.012380909854057
 Root      4 not converged, maximum delta is    0.021501603611485
 Root      5 not converged, maximum delta is    0.023965279850921
 Root      6 not converged, maximum delta is    0.007398665624823
 Excitation Energies [eV] at current iteration:
 Root      1 :     3.305438870443771   Change is   -0.020120110319313
 Root      2 :     4.046320653041936   Change is   -0.013080839168092
 Root      3 :     4.209764628744238   Change is   -0.013821398173526
 Root      4 :     5.106846914906215   Change is   -0.020337294547581
 Root      5 :     5.554525405631808   Change is   -0.036894375813591
 Root      6 :     5.983064357934985   Change is   -0.005602106905986
 Iteration     4 Dimension    60 NMult    48 NNew     12
 CISAX will form    12 AO SS matrices at one time.
 NMat=    12 NSing=    12 JSym2X= 0.
 Root      1 not converged, maximum delta is    0.002209251629179
 Root      2 not converged, maximum delta is    0.001966239952929
 Root      3 not converged, maximum delta is    0.002116634359234
 Root      4 not converged, maximum delta is    0.002433124758046
 Root      5 not converged, maximum delta is    0.003753436813910
 Root      6 not converged, maximum delta is    0.002139081042034
 Excitation Energies [eV] at current iteration:
 Root      1 :     3.303872110331904   Change is   -0.001566760111868
 Root      2 :     4.045571347045842   Change is   -0.000749305996094
 Root      3 :     4.208874326819402   Change is   -0.000890301924836
 Root      4 :     5.105028580468709   Change is   -0.001818334437505
 Root      5 :     5.550850148287953   Change is   -0.003675257343855
 Root      6 :     5.982692567925763   Change is   -0.000371790009223
 Iteration     5 Dimension    72 NMult    60 NNew     12
 CISAX will form    12 AO SS matrices at one time.
 NMat=    12 NSing=    12 JSym2X= 0.
 Root      1 not converged, maximum delta is    0.000745664111998
 Root      2 not converged, maximum delta is    0.000330359607300
 Root      3 not converged, maximum delta is    0.000524872243757
 Root      4 not converged, maximum delta is    0.000573695565238
 Root      5 not converged, maximum delta is    0.001012953474527
 Root      6 not converged, maximum delta is    0.000376950921380
 Excitation Energies [eV] at current iteration:
 Root      1 :     3.303780676717242   Change is   -0.000091433614662
 Root      2 :     4.045515958196100   Change is   -0.000055388849742
 Root      3 :     4.208824868449807   Change is   -0.000049458369594
 Root      4 :     5.104898238269440   Change is   -0.000130342199269
 Root      5 :     5.550561579173412   Change is   -0.000288569114541
 Root      6 :     5.982662250393006   Change is   -0.000030317532756
 Iteration     6 Dimension    84 NMult    72 NNew     12
 CISAX will form    12 AO SS matrices at one time.
 NMat=    12 NSing=    12 JSym2X= 0.
 Root      1 not converged, maximum delta is    0.000178877579079
 Root      2 not converged, maximum delta is    0.000103535304295
 Root      3 not converged, maximum delta is    0.000133138331228
 Root      4 not converged, maximum delta is    0.000350555599212
 Root      5 not converged, maximum delta is    0.000564014143589
 Root      6 not converged, maximum delta is    0.000192982493315
 Excitation Energies [eV] at current iteration:
 Root      1 :     3.303776109171577   Change is   -0.000004567545665
 Root      2 :     4.045512603893830   Change is   -0.000003354302271
 Root      3 :     4.208822160758828   Change is   -0.000002707690979
 Root      4 :     5.104887515717874   Change is   -0.000010722551566
 Root      5 :     5.550534773539082   Change is   -0.000026805634331
 Root      6 :     5.982659352303615   Change is   -0.000002898089392
 Iteration     7 Dimension    96 NMult    84 NNew     12
 CISAX will form    12 AO SS matrices at one time.
 NMat=    12 NSing=    12 JSym2X= 0.
 Root      1 not converged, maximum delta is    0.000018428116015
 Root      2 not converged, maximum delta is    0.000021604282012
 Root      3 not converged, maximum delta is    0.000030422486327
 Root      4 not converged, maximum delta is    0.000097433001291
 Root      5 not converged, maximum delta is    0.000193216200669
 Root      6 not converged, maximum delta is    0.000076200256360
 Excitation Energies [eV] at current iteration:
 Root      1 :     3.303775849191242   Change is   -0.000000259980335
 Root      2 :     4.045512428101724   Change is   -0.000000175792105
 Root      3 :     4.208822014252886   Change is   -0.000000146505943
 Root      4 :     5.104886625673290   Change is   -0.000000890044585
 Root      5 :     5.550531772110995   Change is   -0.000003001428087
 Root      6 :     5.982659084457110   Change is   -0.000000267846505
 Iteration     8 Dimension   108 NMult    96 NNew     12
 CISAX will form    12 AO SS matrices at one time.
 NMat=    12 NSing=    12 JSym2X= 0.
 Root      1 not converged, maximum delta is    0.000002417014519
 Root      2 not converged, maximum delta is    0.000002913262023
 Root      3 not converged, maximum delta is    0.000002873189215
 Root      4 not converged, maximum delta is    0.000017693726761
 Root      5 not converged, maximum delta is    0.000028086599278
 Root      6 not converged, maximum delta is    0.000018180423697
 Excitation Energies [eV] at current iteration:
 Root      1 :     3.303775840301155   Change is   -0.000000008890087
 Root      2 :     4.045512419323642   Change is   -0.000000008778082
 Root      3 :     4.208822005246513   Change is   -0.000000009006372
 Root      4 :     5.104886565102171   Change is   -0.000000060571119
 Root      5 :     5.550531553398054   Change is   -0.000000218712941
 Root      6 :     5.982659057428079   Change is   -0.000000027029030
 Iteration     9 Dimension   120 NMult   108 NNew     12
 CISAX will form    12 AO SS matrices at one time.
 NMat=    12 NSing=    12 JSym2X= 0.
 Root      1 has converged.
 Root      2 has converged.
 Root      3 has converged.
 Root      4 not converged, maximum delta is    0.000002949773938
 Root      5 not converged, maximum delta is    0.000006627664863
 Root      6 not converged, maximum delta is    0.000005939852644
 Excitation Energies [eV] at current iteration:
 Root      1 :     3.303775840021223   Change is   -0.000000000279933
 Root      2 :     4.045512419003307   Change is   -0.000000000320335
 Root      3 :     4.208822004939604   Change is   -0.000000000306909
 Root      4 :     5.104886562105628   Change is   -0.000000002996543
 Root      5 :     5.550531541430511   Change is   -0.000000011967542
 Root      6 :     5.982659055003925   Change is   -0.000000002424154
 Iteration    10 Dimension   126 NMult   120 NNew      6
 CISAX will form     6 AO SS matrices at one time.
 NMat=     6 NSing=     6 JSym2X= 0.
 Root      1 has converged.
 Root      2 has converged.
 Root      3 has converged.
 Root      4 has converged.
 Root      5 not converged, maximum delta is    0.000001154196024
 Root      6 not converged, maximum delta is    0.000001630317224
 Excitation Energies [eV] at current iteration:
 Root      1 :     3.303775840020402   Change is   -0.000000000000821
 Root      2 :     4.045512419000787   Change is   -0.000000000002520
 Root      3 :     4.208822004938511   Change is   -0.000000000001094
 Root      4 :     5.104886561983579   Change is   -0.000000000122050
 Root      5 :     5.550531540821005   Change is   -0.000000000609506
 Root      6 :     5.982659054818024   Change is   -0.000000000185902
 Iteration    11 Dimension   130 NMult   126 NNew      4
 CISAX will form     4 AO SS matrices at one time.
 NMat=     4 NSing=     4 JSym2X= 0.
 Root      1 has converged.
 Root      2 has converged.
 Root      3 has converged.
 Root      4 has converged.
 Root      5 has converged.
 Root      6 has converged.
 Excitation Energies [eV] at current iteration:
 Root      1 :     3.303775840020352   Change is   -0.000000000000050
 Root      2 :     4.045512419000381   Change is   -0.000000000000406
 Root      3 :     4.208822004938354   Change is   -0.000000000000156
 Root      4 :     5.104886561982097   Change is   -0.000000000001482
 Root      5 :     5.550531540791384   Change is   -0.000000000029622
 Root      6 :     5.982659054804476   Change is   -0.000000000013548
 Convergence achieved on expansion vectors.
 PCM Corrected Linear-Response:
 The state of interest is root number   1
 Excitation energy =    3.3038 eV, Total energy =  -633.208548584    
 Recompute the excitation energies using the linear response reaction field.
 Convergence on wavefunction:    0.000001000000000
 Davidson Disk Diagonalization:  ConvIn= 1.00D-06 SkipCon=T Conv= 1.00D-06.
 Max sub-space:  2000 roots to seek:     6 dimension of matrix:        23104
 Iteration     1 Dimension     6 NMult     0 NNew      6
 CISAX will form     6 AO SS matrices at one time.
 NMat=     6 NSing=     6 JSym2X= 0.
 Excitation Energies [eV] at current iteration:
 Root      1 :     3.384699166767430
 Root      2 :     4.071076080350815
 Root      3 :     4.234325416544205
 Root      4 :     5.167510759536316
 Root      5 :     5.691179348748617
 Root      6 :     5.943076625907374
 Iteration     2 Dimension    18 NMult     6 NNew     12
 CISAX will form    12 AO SS matrices at one time.
 NMat=    12 NSing=    12 JSym2X= 0.
 Root      1 not converged, maximum delta is    0.018050163164217
 Root      2 not converged, maximum delta is    0.012140202874198
 Root      3 not converged, maximum delta is    0.009809666019838
 Root      4 not converged, maximum delta is    0.228026989622566
 Root      5 not converged, maximum delta is    0.285379849544353
 Root      6 not converged, maximum delta is    0.065215507646185
 Excitation Energies [eV] at current iteration:
 Root      1 :     3.159252226953384   Change is   -0.225446939814046
 Root      2 :     4.039950483328981   Change is   -0.031125597021835
 Root      3 :     4.202195309797111   Change is   -0.032130106747094
 Root      4 :     4.935203942016582   Change is   -0.232306817519734
 Root      5 :     5.401700290294718   Change is   -0.289479058453898
 Root      6 :     5.918817263062224   Change is   -0.024259362845149
 Iteration     3 Dimension    30 NMult    18 NNew     12
 CISAX will form    12 AO SS matrices at one time.
 NMat=    12 NSing=    12 JSym2X= 0.
 Root      1 not converged, maximum delta is    0.002867255930808
 Root      2 not converged, maximum delta is    0.001101174628099
 Root      3 not converged, maximum delta is    0.001451660054693
 Root      4 not converged, maximum delta is    0.012414821757639
 Root      5 not converged, maximum delta is    0.013344107968802
 Root      6 not converged, maximum delta is    0.008948459577366
 Excitation Energies [eV] at current iteration:
 Root      1 :     3.155789439719891   Change is   -0.003462787233493
 Root      2 :     4.039615910277359   Change is   -0.000334573051621
 Root      3 :     4.201810407590643   Change is   -0.000384902206468
 Root      4 :     4.925022038776435   Change is   -0.010181903240147
 Root      5 :     5.393070010019143   Change is   -0.008630280275575
 Root      6 :     5.916813404859713   Change is   -0.002003858202511
 Iteration     4 Dimension    42 NMult    30 NNew     12
 CISAX will form    12 AO SS matrices at one time.
 NMat=    12 NSing=    12 JSym2X= 0.
 Root      1 not converged, maximum delta is    0.001747299433340
 Root      2 not converged, maximum delta is    0.000197256795451
 Root      3 not converged, maximum delta is    0.000232922596850
 Root      4 not converged, maximum delta is    0.002679188155649
 Root      5 not converged, maximum delta is    0.003694319282304
 Root      6 not converged, maximum delta is    0.009055801326699
 Excitation Energies [eV] at current iteration:
 Root      1 :     3.155359274816528   Change is   -0.000430164903362
 Root      2 :     4.039599898676429   Change is   -0.000016011600930
 Root      3 :     4.201786938481220   Change is   -0.000023469109423
 Root      4 :     4.923305149562113   Change is   -0.001716889214322
 Root      5 :     5.391683564377512   Change is   -0.001386445641631
 Root      6 :     5.916198326758717   Change is   -0.000615078100997
 Iteration     5 Dimension    54 NMult    42 NNew     12
 CISAX will form    12 AO SS matrices at one time.
 NMat=    12 NSing=    12 JSym2X= 0.
 Root      1 not converged, maximum delta is    0.000442179476860
 Root      2 not converged, maximum delta is    0.000084702838198
 Root      3 not converged, maximum delta is    0.000080267487042
 Root      4 not converged, maximum delta is    0.000732879439610
 Root      5 not converged, maximum delta is    0.000634297380258
 Root      6 not converged, maximum delta is    0.003537546095588
 Excitation Energies [eV] at current iteration:
 Root      1 :     3.155330089228820   Change is   -0.000029185587709
 Root      2 :     4.039598827567234   Change is   -0.000001071109195
 Root      3 :     4.201785046529666   Change is   -0.000001891951555
 Root      4 :     4.923154957409771   Change is   -0.000150192152341
 Root      5 :     5.391552617796847   Change is   -0.000130946580665
 Root      6 :     5.916080927231521   Change is   -0.000117399527196
 Iteration     6 Dimension    66 NMult    54 NNew     12
 CISAX will form    12 AO SS matrices at one time.
 NMat=    12 NSing=    12 JSym2X= 0.
 Root      1 not converged, maximum delta is    0.000072724245076
 Root      2 not converged, maximum delta is    0.000025235240216
 Root      3 not converged, maximum delta is    0.000032449759600
 Root      4 not converged, maximum delta is    0.000287621452524
 Root      5 not converged, maximum delta is    0.000345602240705
 Root      6 not converged, maximum delta is    0.000910859140322
 Excitation Energies [eV] at current iteration:
 Root      1 :     3.155328373955178   Change is   -0.000001715273641
 Root      2 :     4.039598715512064   Change is   -0.000000112055170
 Root      3 :     4.201784868443950   Change is   -0.000000178085716
 Root      4 :     4.923141181292787   Change is   -0.000013776116984
 Root      5 :     5.391538980889901   Change is   -0.000013636906946
 Root      6 :     5.916064632759578   Change is   -0.000016294471943
 Iteration     7 Dimension    78 NMult    66 NNew     12
 CISAX will form    12 AO SS matrices at one time.
 NMat=    12 NSing=    12 JSym2X= 0.
 Root      1 not converged, maximum delta is    0.000010848649133
 Root      2 not converged, maximum delta is    0.000006335892367
 Root      3 not converged, maximum delta is    0.000007594063746
 Root      4 not converged, maximum delta is    0.000088038924673
 Root      5 not converged, maximum delta is    0.000106320839384
 Root      6 not converged, maximum delta is    0.000147032885808
 Excitation Energies [eV] at current iteration:
 Root      1 :     3.155328309036236   Change is   -0.000000064918942
 Root      2 :     4.039598710248530   Change is   -0.000000005263534
 Root      3 :     4.201784859247153   Change is   -0.000000009196796
 Root      4 :     4.923140074093610   Change is   -0.000001107199177
 Root      5 :     5.391537821654655   Change is   -0.000001159235246
 Root      6 :     5.916063017788244   Change is   -0.000001614971334
 Iteration     8 Dimension    90 NMult    78 NNew     12
 CISAX will form    12 AO SS matrices at one time.
 NMat=    12 NSing=    12 JSym2X= 0.
 Root      1 not converged, maximum delta is    0.000002605219143
 Root      2 not converged, maximum delta is    0.000001498704621
 Root      3 not converged, maximum delta is    0.000001220300718
 Root      4 not converged, maximum delta is    0.000027530276813
 Root      5 not converged, maximum delta is    0.000034767616531
 Root      6 not converged, maximum delta is    0.000037644636850
 Excitation Energies [eV] at current iteration:
 Root      1 :     3.155328306109875   Change is   -0.000000002926361
 Root      2 :     4.039598710069975   Change is   -0.000000000178555
 Root      3 :     4.201784858779846   Change is   -0.000000000467308
 Root      4 :     4.923139987928791   Change is   -0.000000086164819
 Root      5 :     5.391537703084665   Change is   -0.000000118569990
 Root      6 :     5.916062849747406   Change is   -0.000000168040838
 Iteration     9 Dimension   102 NMult    90 NNew     12
 CISAX will form    12 AO SS matrices at one time.
 NMat=    12 NSing=    12 JSym2X= 0.
 Root      1 has converged.
 Root      2 has converged.
 Root      3 has converged.
 Root      4 not converged, maximum delta is    0.000006944800464
 Root      5 not converged, maximum delta is    0.000011141364141
 Root      6 not converged, maximum delta is    0.000023813656446
 Excitation Energies [eV] at current iteration:
 Root      1 :     3.155328305971426   Change is   -0.000000000138448
 Root      2 :     4.039598710061775   Change is   -0.000000000008201
 Root      3 :     4.201784858747094   Change is   -0.000000000032752
 Root      4 :     4.923139982345568   Change is   -0.000000005583222
 Root      5 :     5.391537692161777   Change is   -0.000000010922888
 Root      6 :     5.916062831599428   Change is   -0.000000018147978
 Iteration    10 Dimension   108 NMult   102 NNew      6
 CISAX will form     6 AO SS matrices at one time.
 NMat=     6 NSing=     6 JSym2X= 0.
 Root      1 has converged.
 Root      2 has converged.
 Root      3 has converged.
 Root      4 not converged, maximum delta is    0.000001397309484
 Root      5 not converged, maximum delta is    0.000002681952097
 Root      6 not converged, maximum delta is    0.000008838077269
 Excitation Energies [eV] at current iteration:
 Root      1 :     3.155328305970827   Change is   -0.000000000000599
 Root      2 :     4.039598710061672   Change is   -0.000000000000102
 Root      3 :     4.201784858746487   Change is   -0.000000000000606
 Root      4 :     4.923139982046337   Change is   -0.000000000299232
 Root      5 :     5.391537691370234   Change is   -0.000000000791544
 Root      6 :     5.916062829548348   Change is   -0.000000002051080
 Iteration    11 Dimension   114 NMult   108 NNew      6
 CISAX will form     6 AO SS matrices at one time.
 NMat=     6 NSing=     6 JSym2X= 0.
 Root      1 has converged.
 Root      2 has converged.
 Root      3 has converged.
 Root      4 has converged.
 Root      5 has converged.
 Root      6 not converged, maximum delta is    0.000001558940265
 Excitation Energies [eV] at current iteration:
 Root      1 :     3.155328305970671   Change is   -0.000000000000156
 Root      2 :     4.039598710061571   Change is   -0.000000000000102
 Root      3 :     4.201784858746350   Change is   -0.000000000000137
 Root      4 :     4.923139982028019   Change is   -0.000000000018318
 Root      5 :     5.391537691314961   Change is   -0.000000000055272
 Root      6 :     5.916062829364550   Change is   -0.000000000183798
 Iteration    12 Dimension   116 NMult   114 NNew      2
 CISAX will form     2 AO SS matrices at one time.
 NMat=     2 NSing=     2 JSym2X= 0.
 Root      1 has converged.
 Root      2 has converged.
 Root      3 has converged.
 Root      4 has converged.
 Root      5 has converged.
 Root      6 has converged.
 Excitation Energies [eV] at current iteration:
 Root      1 :     3.155328305970645   Change is   -0.000000000000026
 Root      2 :     4.039598710061551   Change is   -0.000000000000020
 Root      3 :     4.201784858746331   Change is   -0.000000000000020
 Root      4 :     4.923139982027969   Change is   -0.000000000000050
 Root      5 :     5.391537691314885   Change is   -0.000000000000076
 Root      6 :     5.916062829351376   Change is   -0.000000000013173
 Convergence achieved on expansion vectors.
 ***********************************************************************
 Excited states from <AA,BB:AA,BB> singles matrix:
 ***********************************************************************
 
 1PDM for each excited state written to RWF  633
 Ground to excited state transition densities written to RWF  633
 Ground to excited state transition electric dipole moments (Au):
       state          X           Y           Z        Dip. S.      Osc.
         1         1.7169      0.2137      0.0569      2.9967      0.2317
         2         0.0903     -0.0232      0.0411      0.0104      0.0010
         3        -0.0315     -0.1613      0.0326      0.0281      0.0029
         4         0.2044     -1.9716      0.1044      3.9397      0.4752
         5         0.0713     -1.4544      0.0060      2.1203      0.2801
         6        -0.0275      0.2689      0.0453      0.0751      0.0109
 Ground to excited state transition velocity dipole moments (Au):
       state          X           Y           Z        Dip. S.      Osc.
         1        -0.1913     -0.0204     -0.0071      0.0371      0.2132
         2        -0.0129      0.0038     -0.0030      0.0002      0.0008
         3         0.0046      0.0229     -0.0016      0.0005      0.0024
         4        -0.0403      0.3423     -0.0150      0.1190      0.4386
         5        -0.0141      0.2833     -0.0024      0.0805      0.2708
         6         0.0069     -0.0550     -0.0298      0.0040      0.0121
 Ground to excited state transition magnetic dipole moments (Au):
       state          X           Y           Z
         1        -0.0490     -0.0302      1.4515
         2         0.8024      0.1269      0.2493
         3        -0.1737     -0.9863     -0.2071
         4         0.0616      0.1132     -0.1150
         5         0.1592      0.1045     -0.2653
         6         0.1026      0.0261     -0.0441
 Ground to excited state transition velocity quadrupole moments (Au):
       state          XX          YY          ZZ          XY          XZ          YZ
         1        -0.1887      0.1057      0.0031      0.5294     -0.0489      0.0160
         2         0.0122     -0.0088     -0.0019      0.0386     -0.0114      0.0866
         3        -0.0062      0.0057     -0.0255     -0.0639      0.0663     -0.0098
         4        -1.3999      0.3074      0.0071     -0.1222     -0.0937     -0.0400
         5        -0.3702      0.2568      0.0404     -0.2192     -0.0610      0.0273
         6        -0.2754     -0.2224      0.1863     -0.0238     -0.0407      0.1511
 <0|del|b> * <b|rxdel|0> + <0|del|b> * <b|delr+rdel|0>
 Rotatory Strengths (R) in cgs (10**-40 erg-esu-cm/Gauss)
       state          XX          YY          ZZ    R(velocity)    E-M Angle
         1       -44.3336     -0.8540     42.8082     -0.7931       90.08
         2        -0.8071    -28.7363    -20.8938    -16.8124      155.13
         3       -54.2907     -1.4046    -50.0257    -35.2403      164.38
         4       145.3391     -1.9106      5.0514     49.4933       50.39
         5        85.7658     -4.4987     18.6659     33.3110       72.41
         6        -2.6907      3.8505      0.7594      0.6397       85.31
 1/2[<0|r|b>*<b|rxdel|0> + (<0|rxdel|b>*<b|r|0>)*]
 Rotatory Strengths (R) in cgs (10**-40 erg-esu-cm/Gauss)
       state          XX          YY          ZZ     R(length)
         1        59.4370      4.5691    -58.4270      1.8597
         2       -51.2518      2.0832     -7.2497    -18.8061
         3        -3.8639   -112.5113      4.7785    -37.1989
         4        -8.9052    157.8028      8.4910     52.4629
         5        -8.0314    107.4929      1.1163     33.5259
         6         1.9983     -4.9588      1.4128     -0.5159
  1/2[<0|del|b>*<b|r|0> + (<0|r|b>*<b|del|0>)*] (Au)
       state          X           Y           Z        Dip. S.   Osc.(frdel)
         1        -0.3285     -0.0044     -0.0004      0.3333      0.2222
         2        -0.0012     -0.0001     -0.0001      0.0014      0.0009
         3        -0.0001     -0.0037     -0.0001      0.0039      0.0026
         4        -0.0082     -0.6749     -0.0016      0.6847      0.4565
         5        -0.0010     -0.4121     -0.0000      0.4131      0.2754
         6        -0.0002     -0.0148     -0.0014      0.0163      0.0109

 Excitation energies and oscillator strengths:
 
 Excited State   1:      Singlet-A      3.1553 eV  392.94 nm  f=0.2317  <S**2>=0.000
      52 -> 53         0.70028
 This state for optimization and/or second-order correction.
 Total Energy, E(TD-HF/TD-DFT) =  -633.214003931    
 Copying the excited state density for this state as the 1-particle RhoCI density.
 
 Excited State   2:      Singlet-A      4.0396 eV  306.92 nm  f=0.0010  <S**2>=0.000
      50 -> 54        -0.18725
      51 -> 53         0.57408
      51 -> 54         0.31256
 
 Excited State   3:      Singlet-A      4.2018 eV  295.08 nm  f=0.0029  <S**2>=0.000
      49 -> 53        -0.29687
      49 -> 54         0.18287
      50 -> 53         0.49924
      50 -> 54        -0.22706
      50 -> 58         0.10523
      51 -> 54        -0.20873
 
 Excited State   4:      Singlet-A      4.9231 eV  251.84 nm  f=0.4752  <S**2>=0.000
      49 -> 53         0.12706
      52 -> 54         0.68550
 
 Excited State   5:      Singlet-A      5.3915 eV  229.96 nm  f=0.2801  <S**2>=0.000
      49 -> 53         0.57382
      50 -> 53         0.34359
      51 -> 53         0.13127
      52 -> 54        -0.13702
 
 Excited State   6:      Singlet-A      5.9161 eV  209.57 nm  f=0.0109  <S**2>=0.000
      52 -> 55         0.65922
      52 -> 56        -0.16089
 SavETr:  write IOETrn=   770 NScale= 10 NData=  16 NLR=1 NState=    6 LETran=     118.
 The selected state is a singlet.
 CISGrd: IGrad=1 NXY=2 DFT=T
 CISAX will form     1 AO SS matrices at one time.
 NMat=     1 NSing=     1 JSym2X= 0.
 Leave Link  914 at Sat Jan 24 20:18:53 2026, MaxMem=  2147483648 cpu:            7714.1 elap:             483.5
 (Enter /data/home/wyx/g16/l1002.exe)
 Minotr:  Closed shell wavefunction.
          Computing CIS/TDA/TD derivatives.
          Using Z-Vector for PSCF gradient.
          Skipping F1 and S1 gradient terms here.
 NEqPCM:  Using equilibrium solvation (IEInf=0, Eps=  78.3553, EpsInf=   1.7778)
          Frozen-core window.
          Direct CPHF calculation.
          Differentiating once with respect to electric field.
                with respect to dipole field.
          Electric field/nuclear overlap derivatives assumed to be zero.
          Requested convergence is 1.0D-10 RMS, and 1.0D-09 maximum.
          NewPWx=F KeepS1=T KeepF1=T KeepIn=T MapXYZ=F SortEE=F KeepMc=T.
 Two-electron integral symmetry used by symmetrizing perturbed Fock matrices.
          MDV=    2147483648 using IRadAn=       5.
          Solving linear equations separately, MaxMat=     384.
          There are     1 degrees of freedom in the 1st order CPHF.  IDoFFX=0 NUNeed=     1.
 FoFJK:  IHMeth= 1 ICntrl=       0 DoSepK=T KAlg= 0 I1Cent=           0 FoldK=F
 IRaf=         1 NMat=       1 IRICut=       1 DoRegI=T DoRafI=F ISym2E=-1 IDoP0=0 IntGTp=1.
 FoFCou: FMM=F IPFlag=           0 FMFlag=      100000 FMFlg1=           0
         NFxFlg=           0 DoJE=T BraDBF=F KetDBF=F FulRan=T
         wScrn=  0.000000 ICntrl=       500 IOpCl=  0 I1Cent=           0 NGrid=           0
         NMat0=    1 NMatS0=      1 NMatT0=    0 NMatD0=    1 NMtDS0=    0 NMtDT0=    0
 Petite list used in FoFCou.
 LinEq1:  Iter=  0 NonCon=     1 RMS=3.48D-03 Max=1.42D-01 NDo=     1
 AX will form     1 AO Fock derivatives at one time.
 LinEq1:  Iter=  1 NonCon=     1 RMS=1.36D-03 Max=6.45D-02 NDo=     1
 LinEq1:  Iter=  2 NonCon=     1 RMS=6.42D-04 Max=2.48D-02 NDo=     1
 LinEq1:  Iter=  3 NonCon=     1 RMS=3.71D-04 Max=1.62D-02 NDo=     1
 LinEq1:  Iter=  4 NonCon=     1 RMS=1.64D-04 Max=7.03D-03 NDo=     1
 LinEq1:  Iter=  5 NonCon=     1 RMS=7.23D-05 Max=3.14D-03 NDo=     1
 LinEq1:  Iter=  6 NonCon=     1 RMS=3.83D-05 Max=1.94D-03 NDo=     1
 LinEq1:  Iter=  7 NonCon=     1 RMS=2.13D-05 Max=1.12D-03 NDo=     1
 LinEq1:  Iter=  8 NonCon=     1 RMS=1.07D-05 Max=3.69D-04 NDo=     1
 LinEq1:  Iter=  9 NonCon=     1 RMS=5.37D-06 Max=1.80D-04 NDo=     1
 LinEq1:  Iter= 10 NonCon=     1 RMS=2.76D-06 Max=7.48D-05 NDo=     1
 LinEq1:  Iter= 11 NonCon=     1 RMS=1.69D-06 Max=4.35D-05 NDo=     1
 LinEq1:  Iter= 12 NonCon=     1 RMS=7.82D-07 Max=1.64D-05 NDo=     1
 LinEq1:  Iter= 13 NonCon=     1 RMS=2.95D-07 Max=8.29D-06 NDo=     1
 LinEq1:  Iter= 14 NonCon=     1 RMS=1.30D-07 Max=5.10D-06 NDo=     1
 LinEq1:  Iter= 15 NonCon=     1 RMS=7.92D-08 Max=2.67D-06 NDo=     1
 LinEq1:  Iter= 16 NonCon=     1 RMS=2.72D-08 Max=1.07D-06 NDo=     1
 LinEq1:  Iter= 17 NonCon=     1 RMS=8.35D-09 Max=2.39D-07 NDo=     1
 LinEq1:  Iter= 18 NonCon=     1 RMS=3.99D-09 Max=7.27D-08 NDo=     1
 LinEq1:  Iter= 19 NonCon=     1 RMS=1.34D-09 Max=2.80D-08 NDo=     1
 LinEq1:  Iter= 20 NonCon=     1 RMS=4.15D-10 Max=6.86D-09 NDo=     1
 LinEq1:  Iter= 21 NonCon=     1 RMS=1.83D-10 Max=3.65D-09 NDo=     1
 LinEq1:  Iter= 22 NonCon=     1 RMS=5.54D-11 Max=1.77D-09 NDo=     1
 LinEq1:  Iter= 23 NonCon=     0 RMS=1.52D-11 Max=6.07D-10 NDo=     1
 Linear equations converged to 1.000D-10 1.000D-09 after    23 iterations.
 PCM Corrected Linear-Response - Equilibrium solvation:
 Corrected transition energy               =    3.2791          eV
 Total energy after correction             = -633.209456104     a.u.
 NEqPCM:  Using non-equilibrium solvation (IEInf=1, Eps=  78.3553, EpsInf=   1.7778)
 Inv3:  Mode=1 IEnd=    13356300.
 Iteration    1 A*A^-1 deviation from unit magnitude is 3.77D-15 for    503.
 Iteration    1 A*A^-1 deviation from orthogonality  is 2.06D-15 for   1834    208.
 Iteration    1 A^-1*A deviation from unit magnitude is 3.55D-15 for    503.
 Iteration    1 A^-1*A deviation from orthogonality  is 1.79D-15 for   1547   1152.
 NEqSol: Computing the dynamic-inertial partition of the PCM polarization charges.
 End of Minotr F.D. properties file   721 does not exist.
 End of Minotr F.D. properties file   722 does not exist.
 End of Minotr F.D. properties file   788 does not exist.
 Leave Link 1002 at Sat Jan 24 20:20:53 2026, MaxMem=  2147483648 cpu:            1892.4 elap:             119.1
 (Enter /data/home/wyx/g16/l601.exe)
 Copying SCF densities to generalized density rwf, IOpCl= 0 IROHF=0.

 **********************************************************************

            Population analysis using the CI density.

 **********************************************************************

 Orbital symmetries:
       Occupied  (A) (A) (A) (A) (A) (A) (A) (A) (A) (A) (A) (A)
                 (A) (A) (A) (A) (A) (A) (A) (A) (A) (A) (A) (A)
                 (A) (A) (A) (A) (A) (A) (A) (A) (A) (A) (A) (A)
                 (A) (A) (A) (A) (A) (A) (A) (A) (A) (A) (A) (A)
                 (A) (A) (A) (A)
       Virtual   (A) (A) (A) (A) (A) (A) (A) (A) (A) (A) (A) (A)
                 (A) (A) (A) (A) (A) (A) (A) (A) (A) (A) (A) (A)
                 (A) (A) (A) (A) (A) (A) (A) (A) (A) (A) (A) (A)
                 (A) (A) (A) (A) (A) (A) (A) (A) (A) (A) (A) (A)
                 (A) (A) (A) (A) (A) (A) (A) (A) (A) (A) (A) (A)
                 (A) (A) (A) (A) (A) (A) (A) (A) (A) (A) (A) (A)
                 (A) (A) (A) (A) (A) (A) (A) (A) (A) (A) (A) (A)
                 (A) (A) (A) (A) (A) (A) (A) (A) (A) (A) (A) (A)
                 (A) (A) (A) (A) (A) (A) (A) (A) (A) (A) (A) (A)
                 (A) (A) (A) (A) (A) (A) (A) (A) (A) (A) (A) (A)
                 (A) (A) (A) (A) (A) (A) (A) (A) (A) (A) (A) (A)
                 (A) (A) (A) (A) (A) (A) (A) (A) (A) (A) (A) (A)
                 (A) (A) (A) (A) (A) (A) (A) (A) (A) (A) (A) (A)
                 (A) (A) (A) (A) (A) (A) (A) (A) (A) (A) (A) (A)
                 (A) (A) (A) (A) (A) (A) (A) (A) (A) (A) (A) (A)
                 (A) (A) (A) (A) (A) (A) (A) (A) (A) (A) (A) (A)
                 (A) (A) (A) (A) (A) (A) (A) (A) (A) (A) (A) (A)
                 (A) (A) (A) (A) (A) (A) (A) (A) (A) (A) (A) (A)
                 (A) (A) (A) (A) (A) (A) (A) (A) (A) (A) (A) (A)
                 (A) (A) (A) (A) (A) (A) (A) (A) (A) (A) (A) (A)
                 (A) (A) (A) (A) (A) (A) (A) (A) (A) (A) (A) (A)
                 (A) (A) (A) (A) (A) (A) (A) (A) (A) (A) (A) (A)
                 (A) (A) (A) (A) (A) (A) (A) (A) (A) (A) (A) (A)
                 (A) (A) (A) (A) (A) (A) (A) (A) (A) (A) (A) (A)
                 (A) (A) (A) (A) (A) (A) (A) (A) (A) (A) (A) (A)
                 (A) (A) (A) (A)
 The electronic state is 1-A.
 Alpha  occ. eigenvalues --  -19.17935 -19.17313 -14.44362 -10.33458 -10.33052
 Alpha  occ. eigenvalues --  -10.32387 -10.31882 -10.25686 -10.25156 -10.24784
 Alpha  occ. eigenvalues --  -10.24686 -10.24622 -10.24149 -10.23710  -1.11760
 Alpha  occ. eigenvalues --   -1.11389  -1.08012  -0.91326  -0.90454  -0.83964
 Alpha  occ. eigenvalues --   -0.82594  -0.81607  -0.78579  -0.73913  -0.71673
 Alpha  occ. eigenvalues --   -0.68715  -0.61672  -0.58267  -0.56940  -0.55183
 Alpha  occ. eigenvalues --   -0.54553  -0.54052  -0.52597  -0.51865  -0.50813
 Alpha  occ. eigenvalues --   -0.49968  -0.49564  -0.49222  -0.48488  -0.48141
 Alpha  occ. eigenvalues --   -0.46972  -0.45405  -0.45100  -0.43635  -0.43136
 Alpha  occ. eigenvalues --   -0.42391  -0.42199  -0.41882  -0.32758  -0.32322
 Alpha  occ. eigenvalues --   -0.31401  -0.25669
 Alpha virt. eigenvalues --   -0.02856   0.02481   0.06511   0.08226   0.08749
 Alpha virt. eigenvalues --    0.10000   0.10757   0.11846   0.12681   0.13612
 Alpha virt. eigenvalues --    0.14014   0.15106   0.15732   0.16279   0.16992
 Alpha virt. eigenvalues --    0.17508   0.17969   0.18026   0.18290   0.19212
 Alpha virt. eigenvalues --    0.20078   0.22116   0.22999   0.23457   0.23757
 Alpha virt. eigenvalues --    0.24213   0.24798   0.25745   0.26082   0.26691
 Alpha virt. eigenvalues --    0.27014   0.27758   0.28912   0.29019   0.30213
 Alpha virt. eigenvalues --    0.31755   0.32010   0.32510   0.33601   0.34535
 Alpha virt. eigenvalues --    0.35131   0.36001   0.36646   0.38152   0.38546
 Alpha virt. eigenvalues --    0.39716   0.41013   0.41597   0.42096   0.42615
 Alpha virt. eigenvalues --    0.44151   0.44545   0.45460   0.46207   0.46257
 Alpha virt. eigenvalues --    0.47366   0.47893   0.48040   0.48322   0.49181
 Alpha virt. eigenvalues --    0.49614   0.50458   0.50905   0.51459   0.51636
 Alpha virt. eigenvalues --    0.52720   0.53098   0.53518   0.53907   0.54347
 Alpha virt. eigenvalues --    0.54630   0.55755   0.56091   0.56596   0.58477
 Alpha virt. eigenvalues --    0.58705   0.59378   0.60845   0.61142   0.62897
 Alpha virt. eigenvalues --    0.63590   0.65681   0.66275   0.66405   0.67835
 Alpha virt. eigenvalues --    0.68618   0.69961   0.71375   0.71941   0.72663
 Alpha virt. eigenvalues --    0.73252   0.74123   0.74769   0.75962   0.77765
 Alpha virt. eigenvalues --    0.78576   0.79832   0.82469   0.85431   0.86350
 Alpha virt. eigenvalues --    0.89803   0.93963   1.00602   1.01705   1.23535
 Alpha virt. eigenvalues --    1.25237   1.27228   1.27992   1.29533   1.31172
 Alpha virt. eigenvalues --    1.32611   1.32859   1.34097   1.34932   1.36228
 Alpha virt. eigenvalues --    1.36520   1.37431   1.38512   1.39171   1.39874
 Alpha virt. eigenvalues --    1.40078   1.40736   1.40809   1.41460   1.41831
 Alpha virt. eigenvalues --    1.43496   1.44046   1.44288   1.45155   1.47306
 Alpha virt. eigenvalues --    1.48079   1.49614   1.49736   1.50358   1.51150
 Alpha virt. eigenvalues --    1.51431   1.52485   1.52933   1.54656   1.57899
 Alpha virt. eigenvalues --    1.58460   1.60525   1.60751   1.61354   1.62498
 Alpha virt. eigenvalues --    1.62788   1.63285   1.64322   1.65040   1.65792
 Alpha virt. eigenvalues --    1.66954   1.67287   1.67852   1.68362   1.68499
 Alpha virt. eigenvalues --    1.68988   1.69998   1.70291   1.71625   1.72363
 Alpha virt. eigenvalues --    1.73873   1.75092   1.76180   1.76583   1.78654
 Alpha virt. eigenvalues --    1.80780   1.83211   1.84431   1.86276   1.86686
 Alpha virt. eigenvalues --    1.86916   1.87712   1.88507   1.89274   1.90632
 Alpha virt. eigenvalues --    1.91409   1.94691   1.95386   1.98841   1.99761
 Alpha virt. eigenvalues --    2.01358   2.03914   2.05176   2.06937   2.09678
 Alpha virt. eigenvalues --    2.11043   2.12533   2.15260   2.17386   2.19837
 Alpha virt. eigenvalues --    2.20360   2.21495   2.22040   2.23156   2.26093
 Alpha virt. eigenvalues --    2.27265   2.27838   2.29409   2.31260   2.32196
 Alpha virt. eigenvalues --    2.33701   2.34455   2.36756   2.37836   2.38379
 Alpha virt. eigenvalues --    2.39635   2.40311   2.41596   2.43397   2.45059
 Alpha virt. eigenvalues --    2.46151   2.47796   2.50109   2.50628   2.51594
 Alpha virt. eigenvalues --    2.52427   2.53895   2.54988   2.56920   2.58163
 Alpha virt. eigenvalues --    2.59091   2.60591   2.61567   2.62582   2.63240
 Alpha virt. eigenvalues --    2.64624   2.65918   2.66910   2.67588   2.68816
 Alpha virt. eigenvalues --    2.71844   2.72216   2.73178   2.74076   2.75441
 Alpha virt. eigenvalues --    2.75889   2.76923   2.77409   2.77984   2.79268
 Alpha virt. eigenvalues --    2.80645   2.81846   2.83176   2.83937   2.84337
 Alpha virt. eigenvalues --    2.85515   2.86552   2.88440   2.89724   2.91810
 Alpha virt. eigenvalues --    2.97453   2.99367   3.00803   3.05732   3.10779
 Alpha virt. eigenvalues --    3.12585   3.15447   3.17474   3.18184   3.20873
 Alpha virt. eigenvalues --    3.21591   3.22900   3.24360   3.25839   3.26845
 Alpha virt. eigenvalues --    3.27524   3.29801   3.33302   3.34378   3.36801
 Alpha virt. eigenvalues --    3.37471   3.39060   3.39831   3.40496   3.41940
 Alpha virt. eigenvalues --    3.42578   3.44917   3.45562   3.47198   3.48168
 Alpha virt. eigenvalues --    3.49444   3.50039   3.55390   3.58453   3.59817
 Alpha virt. eigenvalues --    3.60634   3.90646   4.00439   4.33457   4.35964
 Alpha virt. eigenvalues --   21.65655  21.80156  22.08315  22.10975  22.11914
 Alpha virt. eigenvalues --   22.15112  22.15447  22.18727  22.20306  22.24617
 Alpha virt. eigenvalues --   22.29007  31.92375  43.63346  43.65955
          Condensed to atoms (all electrons):
               1          2          3          4          5          6
     1  O    8.012955  -0.000000  -0.000276   0.000019   0.023651   0.019668
     2  O   -0.000000   8.021353   0.000141   0.000022  -0.214029   0.001048
     3  N   -0.000276   0.000141   6.178220   0.365179  -0.084337   0.357518
     4  H    0.000019   0.000022   0.365179   0.393124   0.016448  -0.041955
     5  C    0.023651  -0.214029  -0.084337   0.016448   7.274340  -0.011728
     6  C    0.019668   0.001048   0.357518  -0.041955  -0.011728   5.966181
     7  C   -0.000497  -0.030727   0.422965  -0.036183   0.185734  -0.212610
     8  C   -0.000404   0.696763   0.003822  -0.000583  -0.347731   0.034430
     9  C   -0.021830   0.022180   0.001284  -0.001041  -0.594241  -0.136816
    10  H    0.004381   0.000013   0.001097   0.000052  -0.015724  -0.010804
    11  H    0.014066  -0.000179  -0.001420   0.000019  -0.088762   0.018873
    12  C   -0.252639  -0.002155  -0.048556   0.014852   0.053986  -0.312943
    13  C    0.698500  -0.000020  -0.000111   0.000637   0.091883   0.115225
    14  C   -0.000007  -0.014295  -0.038642  -0.010453  -0.078885   0.013564
    15  H   -0.000000   0.004338   0.005360   0.001709   0.019764   0.006219
    16  H    0.000000   0.001164  -0.002852   0.000912  -0.008270  -0.001079
    17  H   -0.000000  -0.000003   0.000239   0.000797   0.002097  -0.000820
    18  C    0.000190  -0.106688  -0.000580   0.000019  -0.286353  -0.000483
    19  H    0.000001   0.009880   0.000006  -0.000001   0.028911   0.000016
    20  H   -0.000132   0.002289   0.000008  -0.000001   0.002723   0.000210
    21  H    0.000133   0.004045   0.000106   0.000001   0.045841  -0.001154
    22  C   -0.110719   0.000000   0.000362   0.000118   0.004752  -0.016317
    23  H    0.005220  -0.000000  -0.000054  -0.000059  -0.000828  -0.029590
    24  H    0.002170   0.000000   0.000033  -0.000012  -0.000087   0.015244
    25  H    0.009200  -0.000000   0.000014  -0.000003  -0.000141  -0.001781
    26  C    0.000720   0.000005  -0.035184  -0.007632  -0.001504   0.177851
    27  H   -0.000389  -0.000000   0.001970   0.000763  -0.000168  -0.063704
    28  H   -0.000067   0.000000  -0.002890   0.000567   0.000527  -0.046170
    29  H    0.000018   0.000000   0.002757   0.001565  -0.000491  -0.054651
               7          8          9         10         11         12
     1  O   -0.000497  -0.000404  -0.021830   0.004381   0.014066  -0.252639
     2  O   -0.030727   0.696763   0.022180   0.000013  -0.000179  -0.002155
     3  N    0.422965   0.003822   0.001284   0.001097  -0.001420  -0.048556
     4  H   -0.036183  -0.000583  -0.001041   0.000052   0.000019   0.014852
     5  C    0.185734  -0.347731  -0.594241  -0.015724  -0.088762   0.053986
     6  C   -0.212610   0.034430  -0.136816  -0.010804   0.018873  -0.312943
     7  C    5.824321  -0.263114  -0.210283  -0.006117   0.014353   0.039303
     8  C   -0.263114   5.515538   0.173675  -0.000883  -0.005575  -0.044167
     9  C   -0.210283   0.173675   6.609237   0.344140   0.503393  -0.091894
    10  H   -0.006117  -0.000883   0.344140   0.486480  -0.025921   0.012397
    11  H    0.014353  -0.005575   0.503393  -0.025921   0.467162  -0.106845
    12  C    0.039303  -0.044167  -0.091894   0.012397  -0.106845   7.539445
    13  C    0.015449  -0.008733  -0.281037  -0.000087   0.007123  -0.438868
    14  C    0.273155  -0.037693   0.007979  -0.000629   0.000297  -0.001708
    15  H   -0.079643   0.006581   0.000157   0.000035   0.000002  -0.001493
    16  H   -0.034703   0.000664   0.001278  -0.000056   0.000065  -0.000055
    17  H   -0.038806  -0.007030  -0.000684   0.000157  -0.000058   0.000267
    18  C    0.006099   0.316020  -0.007331  -0.008663   0.004992  -0.005906
    19  H    0.001684  -0.053836  -0.002809  -0.000095   0.000656  -0.000587
    20  H   -0.000719  -0.035594  -0.009303   0.001090  -0.002108  -0.000468
    21  H    0.002943  -0.069735  -0.006537  -0.000484  -0.004775   0.007096
    22  C   -0.000037  -0.000055   0.002189   0.001733   0.000711  -0.279054
    23  H    0.000058  -0.000004   0.003627  -0.000147  -0.000106   0.070530
    24  H   -0.000025   0.000004  -0.003791   0.000070  -0.000103  -0.014370
    25  H    0.000019   0.000005   0.001774  -0.000054  -0.000112   0.026393
    26  C    0.006005   0.000519   0.025657  -0.000555  -0.000028  -0.074969
    27  H   -0.000467   0.000002   0.001678  -0.000006   0.000006   0.001116
    28  H   -0.000200  -0.000027  -0.001951  -0.000011   0.000023  -0.015540
    29  H    0.003715   0.000006  -0.000681   0.000038   0.000001   0.022499
              13         14         15         16         17         18
     1  O    0.698500  -0.000007  -0.000000   0.000000  -0.000000   0.000190
     2  O   -0.000020  -0.014295   0.004338   0.001164  -0.000003  -0.106688
     3  N   -0.000111  -0.038642   0.005360  -0.002852   0.000239  -0.000580
     4  H    0.000637  -0.010453   0.001709   0.000912   0.000797   0.000019
     5  C    0.091883  -0.078885   0.019764  -0.008270   0.002097  -0.286353
     6  C    0.115225   0.013564   0.006219  -0.001079  -0.000820  -0.000483
     7  C    0.015449   0.273155  -0.079643  -0.034703  -0.038806   0.006099
     8  C   -0.008733  -0.037693   0.006581   0.000664  -0.007030   0.316020
     9  C   -0.281037   0.007979   0.000157   0.001278  -0.000684  -0.007331
    10  H   -0.000087  -0.000629   0.000035  -0.000056   0.000157  -0.008663
    11  H    0.007123   0.000297   0.000002   0.000065  -0.000058   0.004992
    12  C   -0.438868  -0.001708  -0.001493  -0.000055   0.000267  -0.005906
    13  C    5.585378  -0.000050  -0.000029  -0.000041   0.000007   0.000791
    14  C   -0.000050   5.047640   0.386654   0.415548   0.422873   0.001322
    15  H   -0.000029   0.386654   0.574034  -0.025106  -0.026986   0.000302
    16  H   -0.000041   0.415548  -0.025106   0.528195  -0.032525  -0.000084
    17  H    0.000007   0.422873  -0.026986  -0.032525   0.523305   0.000015
    18  C    0.000791   0.001322   0.000302  -0.000084   0.000015   5.389129
    19  H   -0.000029   0.000060  -0.000007   0.000002  -0.000012   0.383041
    20  H    0.000137  -0.000336  -0.000006  -0.000051   0.000044   0.400031
    21  H    0.000623   0.000137  -0.000020   0.000007  -0.000063   0.375608
    22  C    0.303878  -0.000009   0.000002   0.000000  -0.000000   0.000017
    23  H   -0.098328   0.000000   0.000000   0.000000   0.000000   0.000002
    24  H   -0.028038  -0.000001   0.000000  -0.000000   0.000000  -0.000003
    25  H   -0.040552   0.000001   0.000000   0.000000  -0.000000   0.000002
    26  C   -0.052789   0.000565   0.000299  -0.000095   0.000020   0.000027
    27  H   -0.002894   0.000075  -0.000009   0.000005  -0.000004   0.000001
    28  H    0.006533  -0.000250   0.000003  -0.000034   0.000009  -0.000001
    29  H   -0.000233   0.000042   0.000063   0.000008  -0.000008   0.000000
              19         20         21         22         23         24
     1  O    0.000001  -0.000132   0.000133  -0.110719   0.005220   0.002170
     2  O    0.009880   0.002289   0.004045   0.000000  -0.000000   0.000000
     3  N    0.000006   0.000008   0.000106   0.000362  -0.000054   0.000033
     4  H   -0.000001  -0.000001   0.000001   0.000118  -0.000059  -0.000012
     5  C    0.028911   0.002723   0.045841   0.004752  -0.000828  -0.000087
     6  C    0.000016   0.000210  -0.001154  -0.016317  -0.029590   0.015244
     7  C    0.001684  -0.000719   0.002943  -0.000037   0.000058  -0.000025
     8  C   -0.053836  -0.035594  -0.069735  -0.000055  -0.000004   0.000004
     9  C   -0.002809  -0.009303  -0.006537   0.002189   0.003627  -0.003791
    10  H   -0.000095   0.001090  -0.000484   0.001733  -0.000147   0.000070
    11  H    0.000656  -0.002108  -0.004775   0.000711  -0.000106  -0.000103
    12  C   -0.000587  -0.000468   0.007096  -0.279054   0.070530  -0.014370
    13  C   -0.000029   0.000137   0.000623   0.303878  -0.098328  -0.028038
    14  C    0.000060  -0.000336   0.000137  -0.000009   0.000000  -0.000001
    15  H   -0.000007  -0.000006  -0.000020   0.000002   0.000000   0.000000
    16  H    0.000002  -0.000051   0.000007   0.000000   0.000000  -0.000000
    17  H   -0.000012   0.000044  -0.000063  -0.000000   0.000000   0.000000
    18  C    0.383041   0.400031   0.375608   0.000017   0.000002  -0.000003
    19  H    0.518550  -0.013792  -0.020376  -0.000001   0.000000  -0.000000
    20  H   -0.013792   0.512287  -0.027204  -0.000002   0.000000   0.000001
    21  H   -0.020376  -0.027204   0.544276   0.000018  -0.000000  -0.000000
    22  C   -0.000001  -0.000002   0.000018   5.449749   0.393805   0.403807
    23  H    0.000000   0.000000  -0.000000   0.393805   0.546018  -0.026205
    24  H   -0.000000   0.000001  -0.000000   0.403807  -0.026205   0.504673
    25  H    0.000000  -0.000002   0.000000   0.369265  -0.021406  -0.013280
    26  C    0.000001   0.000002  -0.000016  -0.032950   0.015260  -0.012375
    27  H    0.000000  -0.000000   0.000000   0.006351  -0.008753  -0.003617
    28  H   -0.000000   0.000001  -0.000000  -0.011632  -0.002160   0.002372
    29  H    0.000000  -0.000000  -0.000000   0.001846   0.000752  -0.000003
              25         26         27         28         29
     1  O    0.009200   0.000720  -0.000389  -0.000067   0.000018
     2  O   -0.000000   0.000005  -0.000000   0.000000   0.000000
     3  N    0.000014  -0.035184   0.001970  -0.002890   0.002757
     4  H   -0.000003  -0.007632   0.000763   0.000567   0.001565
     5  C   -0.000141  -0.001504  -0.000168   0.000527  -0.000491
     6  C   -0.001781   0.177851  -0.063704  -0.046170  -0.054651
     7  C    0.000019   0.006005  -0.000467  -0.000200   0.003715
     8  C    0.000005   0.000519   0.000002  -0.000027   0.000006
     9  C    0.001774   0.025657   0.001678  -0.001951  -0.000681
    10  H   -0.000054  -0.000555  -0.000006  -0.000011   0.000038
    11  H   -0.000112  -0.000028   0.000006   0.000023   0.000001
    12  C    0.026393  -0.074969   0.001116  -0.015540   0.022499
    13  C   -0.040552  -0.052789  -0.002894   0.006533  -0.000233
    14  C    0.000001   0.000565   0.000075  -0.000250   0.000042
    15  H    0.000000   0.000299  -0.000009   0.000003   0.000063
    16  H    0.000000  -0.000095   0.000005  -0.000034   0.000008
    17  H   -0.000000   0.000020  -0.000004   0.000009  -0.000008
    18  C    0.000002   0.000027   0.000001  -0.000001   0.000000
    19  H    0.000000   0.000001   0.000000  -0.000000   0.000000
    20  H   -0.000002   0.000002  -0.000000   0.000001  -0.000000
    21  H    0.000000  -0.000016   0.000000  -0.000000  -0.000000
    22  C    0.369265  -0.032950   0.006351  -0.011632   0.001846
    23  H   -0.021406   0.015260  -0.008753  -0.002160   0.000752
    24  H   -0.013280  -0.012375  -0.003617   0.002372  -0.000003
    25  H    0.516729   0.001930   0.001348  -0.000373  -0.000028
    26  C    0.001930   5.237153   0.432462   0.431105   0.393841
    27  H    0.001348   0.432462   0.524097  -0.035840  -0.022357
    28  H   -0.000373   0.431105  -0.035840   0.508326  -0.019961
    29  H   -0.000028   0.393841  -0.022357  -0.019961   0.519076
 Mulliken charges:
               1
     1  O   -0.403931
     2  O   -0.395147
     3  N   -0.126178
     4  H    0.301120
     5  C   -0.017379
     6  C    0.216557
     7  C    0.118328
     8  C    0.127134
     9  C   -0.328021
    10  H    0.218553
    11  H    0.204252
    12  C   -0.095665
    13  C    0.125674
    14  C   -0.386956
    15  H    0.127777
    16  H    0.157102
    17  H    0.157168
    18  C   -0.461514
    19  H    0.148737
    20  H    0.170894
    21  H    0.149529
    22  C   -0.487826
    23  H    0.152367
    24  H    0.173536
    25  H    0.151052
    26  C   -0.505325
    27  H    0.168332
    28  H    0.187643
    29  H    0.152186
 Sum of Mulliken charges =  -0.00000
 Mulliken charges with hydrogens summed into heavy atoms:
               1
     1  O   -0.403931
     2  O   -0.395147
     3  N    0.174942
     5  C   -0.017379
     6  C    0.216557
     7  C    0.118328
     8  C    0.127134
     9  C    0.094783
    12  C   -0.095665
    13  C    0.125674
    14  C    0.055091
    18  C    0.007646
    22  C   -0.010871
    26  C    0.002836
 Electronic spatial extent (au):  <R**2>=           3198.1080
 Charge=              0.0000 electrons
 Dipole moment (field-independent basis, Debye):
    X=             -3.6309    Y=              8.1245    Z=             -0.5810  Tot=              8.9179
 Quadrupole moment (field-independent basis, Debye-Ang):
   XX=           -105.6537   YY=            -78.7362   ZZ=            -84.7193
   XY=            -13.3622   XZ=             -5.2200   YZ=             -1.6639
 Traceless Quadrupole moment (field-independent basis, Debye-Ang):
   XX=            -15.9506   YY=             10.9669   ZZ=              4.9837
   XY=            -13.3622   XZ=             -5.2200   YZ=             -1.6639
 Octapole moment (field-independent basis, Debye-Ang**2):
  XXX=           -108.0090  YYY=             71.7104  ZZZ=              0.1876  XYY=             37.6554
  XXY=             34.6841  XXZ=             -9.2149  XZZ=             -1.3403  YZZ=             -1.4311
  YYZ=              2.4206  XYZ=              5.5937
 Hexadecapole moment (field-independent basis, Debye-Ang**3):
 XXXX=          -3140.0428 YYYY=          -1285.1051 ZZZZ=           -149.1057 XXXY=            -43.0074
 XXXZ=            -58.9354 YYYX=            -93.0208 YYYZ=            -22.1183 ZZZX=              2.9871
 ZZZY=              5.5164 XXYY=           -717.1456 XXZZ=           -491.5384 YYZZ=           -243.9050
 XXYZ=             -8.3366 YYXZ=             -8.8850 ZZXY=              0.3804
 N-N= 9.004698297043D+02 E-N=-3.276539214017D+03  KE= 6.307911808672D+02
 No NMR shielding tensors so no spin-rotation constants.
 Leave Link  601 at Sat Jan 24 20:20:54 2026, MaxMem=  2147483648 cpu:               1.8 elap:               0.1
 (Enter /data/home/wyx/g16/l9999.exe)
 Electronic transition elements 
                 1             2             3             4             5 
      1  -0.633214D+03 -0.633182D+03 -0.633176D+03 -0.633149D+03 -0.633132D+03
      2  -0.164449D+01 -0.676422D-01  0.887466D-01  0.483248D+00  0.415883D+00
      3  -0.380921D+00 -0.528040D-01 -0.141412D+00 -0.192513D+01 -0.139257D+01
      4  -0.383665D+00 -0.549987D-01 -0.142169D-01  0.781365D-02  0.899106D-01
      5   0.181996D+00  0.100424D-01 -0.121168D-01 -0.788418D-01 -0.810652D-01
      6   0.456631D-01  0.793241D-02  0.200389D-01  0.335867D+00  0.271377D+00
      7   0.432931D-01  0.498543D-02 -0.991022D-03 -0.354619D-02 -0.162750D-01
      8   0.340011D+00 -0.733804D+00  0.445621D+00 -0.116829D+00 -0.233565D+00
      9  -0.249015D-01 -0.154617D+00 -0.867290D+00  0.866603D-01  0.468039D-01
     10  -0.141209D+01 -0.399650D+00  0.308363D+00  0.930680D-01  0.223409D+00
     11   0.189480D+00  0.257546D-01 -0.673695D-01 -0.119473D+01 -0.401086D+00
     12  -0.265955D+00 -0.324934D-01  0.455815D-01  0.189552D+00  0.323773D+00
     13  -0.335171D-02  0.819204D-02 -0.418907D-02 -0.801861D-01  0.439407D-02
     14  -0.486597D+00 -0.573428D-02  0.390026D-01 -0.442902D+00 -0.210959D-01
     15   0.110222D-02  0.240760D-01  0.504033D-01 -0.338143D+00 -0.136443D+00
     16  -0.127129D+00 -0.878578D-01  0.395161D-01 -0.842364D-01 -0.540452D-01
                 6 
      1  -0.633113D+03
      2  -0.545312D-01
      3   0.261935D+00
      4  -0.595622D-01
      5   0.592121D-02
      6  -0.538480D-01
      7   0.320444D-01
      8  -0.111968D+00
      9  -0.981266D-02
     10   0.226129D-01
     11  -0.271209D+00
     12  -0.216153D+00
     13   0.175824D+00
     14   0.314100D-01
     15  -0.792360D-01
     16  -0.149112D+00
 1\1\GINC-CN012\SP\RCAM-B3LYP TD-FC\TZVP\C11H15N1O2\WYX\24-Jan-2026\0\\
 #p CAM-B3LYP TZVP em=gd3bj td(nstates=6,root=1) scrf=(Solvent=Water,Co
 rrectedLR,NonEquilibrium=Save) Geom=Check Guess=Read\\Title Card Requi
 red\\0,1\O,0,2.731446,-1.559025,0.805109\O,0,-3.266936,-1.651616,-1.00
 4444\N,0,-0.696354,1.51519,0.032481\H,0,-1.00471,2.474313,-0.030318\C,
 0,-1.250647,-0.760918,-0.163145\C,0,0.642372,1.317886,0.242356\C,0,-1.
 623792,0.560097,-0.258912\C,0,-2.158305,-1.842646,-0.505858\C,0,0.1088
 73,-1.092933,0.355795\H,0,0.033753,-1.473973,1.386387\H,0,0.531527,-1.
 938118,-0.190234\C,0,1.099331,0.025917,0.336047\C,0,2.485909,-0.393094
 ,0.485694\C,0,-2.959338,1.093494,-0.642863\H,0,-3.025359,2.161913,-0.4
 51497\H,0,-3.157484,0.926836,-1.697558\H,0,-3.753387,0.593636,-0.10129
 8\C,0,-1.712386,-3.25696,-0.251985\H,0,-2.563792,-3.924326,-0.318211\H
 ,0,-0.984234,-3.566158,-0.999507\H,0,-1.24039,-3.37978,0.717833\C,0,3.
 64832,0.531317,0.220912\H,0,3.458863,1.239628,-0.581003\H,0,3.899446,1
 .094936,1.121511\H,0,4.508248,-0.083327,-0.036219\C,0,1.415987,2.59013
 ,0.359633\H,0,2.199924,2.520853,1.103926\H,0,1.874287,2.869886,-0.5884
 94\H,0,0.758828,3.406843,0.653862\\Version=ES64L-G16RevA.03\State=1-A\
 HF=-633.3299601\RMSD=2.640e-09\Dipole=0.2177188,3.4932468,0.2447275\Qu
 adrupole=-13.5692003,12.1862492,1.3829511,1.2618483,-7.5395544,0.02147
 02\PG=C01 [X(C11H15N1O2)]\\@


 YOU CANNOT THROW TO THE GROUND THE LETTERS OF
 THE GREEK ALPHABET AND PICK UP THE ILIAD.
        - RUFUS CHOATE, 1799-1859
 Job cpu time:       0 days  2 hours 41 minutes 44.2 seconds.
 Elapsed time:       0 days  0 hours 10 minutes  9.3 seconds.
 File lengths (MBytes):  RWF=    735 Int=      0 D2E=      0 Chk=     67 Scr=      1
 Normal termination of Gaussian 16 at Sat Jan 24 20:20:56 2026.
