 Entering Gaussian System, Link 0=g16
 Input=DDL-S1-cLR-gs-11.gjf
 Output=DDL-S1-cLR-gs-11.log
 Initial command:
 /data/home/wyx/g16/l1.exe "/scr/tmp/wyx/13117/Gau-2034720.inp" -scrdir="/scr/tmp/wyx/13117/"
 Entering Link 1 = /data/home/wyx/g16/l1.exe PID=   2034721.
  
 Copyright (c) 1988,1990,1992,1993,1995,1998,2003,2009,2016,
            Gaussian, Inc.  All Rights Reserved.
  
 This is part of the Gaussian(R) 16 program.  It is based on
 the Gaussian(R) 09 system (copyright 2009, Gaussian, Inc.),
 the Gaussian(R) 03 system (copyright 2003, Gaussian, Inc.),
 the Gaussian(R) 98 system (copyright 1998, Gaussian, Inc.),
 the Gaussian(R) 94 system (copyright 1995, Gaussian, Inc.),
 the Gaussian 92(TM) system (copyright 1992, Gaussian, Inc.),
 the Gaussian 90(TM) system (copyright 1990, Gaussian, Inc.),
 the Gaussian 88(TM) system (copyright 1988, Gaussian, Inc.),
 the Gaussian 86(TM) system (copyright 1986, Carnegie Mellon
 University), and the Gaussian 82(TM) system (copyright 1983,
 Carnegie Mellon University). Gaussian is a federally registered
 trademark of Gaussian, Inc.
  
 This software contains proprietary and confidential information,
 including trade secrets, belonging to Gaussian, Inc.
  
 This software is provided under written license and may be
 used, copied, transmitted, or stored only in accord with that
 written license.
  
 The following legend is applicable only to US Government
 contracts under FAR:
  
                    RESTRICTED RIGHTS LEGEND
  
 Use, reproduction and disclosure by the US Government is
 subject to restrictions as set forth in subparagraphs (a)
 and (c) of the Commercial Computer Software - Restricted
 Rights clause in FAR 52.227-19.
  
 Gaussian, Inc.
 340 Quinnipiac St., Bldg. 40, Wallingford CT 06492
  
  
 ---------------------------------------------------------------
 Warning -- This program may not be used in any manner that
 competes with the business of Gaussian, Inc. or will provide
 assistance to any competitor of Gaussian, Inc.  The licensee
 of this program is prohibited from giving any competitor of
 Gaussian, Inc. access to this program.  By using this program,
 the user acknowledges that Gaussian, Inc. is engaged in the
 business of creating and licensing software in the field of
 computational chemistry and represents and warrants to the
 licensee that it is not a competitor of Gaussian, Inc. and that
 it will not use this program in any manner prohibited above.
 ---------------------------------------------------------------
  

 Cite this work as:
 Gaussian 16, Revision A.03,
 M. J. Frisch, G. W. Trucks, H. B. Schlegel, G. E. Scuseria, 
 M. A. Robb, J. R. Cheeseman, G. Scalmani, V. Barone, 
 G. A. Petersson, H. Nakatsuji, X. Li, M. Caricato, A. V. Marenich, 
 J. Bloino, B. G. Janesko, R. Gomperts, B. Mennucci, H. P. Hratchian, 
 J. V. Ortiz, A. F. Izmaylov, J. L. Sonnenberg, D. Williams-Young, 
 F. Ding, F. Lipparini, F. Egidi, J. Goings, B. Peng, A. Petrone, 
 T. Henderson, D. Ranasinghe, V. G. Zakrzewski, J. Gao, N. Rega, 
 G. Zheng, W. Liang, M. Hada, M. Ehara, K. Toyota, R. Fukuda, 
 J. Hasegawa, M. Ishida, T. Nakajima, Y. Honda, O. Kitao, H. Nakai, 
 T. Vreven, K. Throssell, J. A. Montgomery, Jr., J. E. Peralta, 
 F. Ogliaro, M. J. Bearpark, J. J. Heyd, E. N. Brothers, K. N. Kudin, 
 V. N. Staroverov, T. A. Keith, R. Kobayashi, J. Normand, 
 K. Raghavachari, A. P. Rendell, J. C. Burant, S. S. Iyengar, 
 J. Tomasi, M. Cossi, J. M. Millam, M. Klene, C. Adamo, R. Cammi, 
 J. W. Ochterski, R. L. Martin, K. Morokuma, O. Farkas, 
 J. B. Foresman, and D. J. Fox, Gaussian, Inc., Wallingford CT, 2016.
 
 ******************************************
 Gaussian 16:  ES64L-G16RevA.03 25-Dec-2016
                24-Jan-2026 
 ******************************************
 %nprocshared=16
 Will use up to   16 processors via shared memory.
 %mem=16GB
 %oldchk=DDL-S1-cLR-11.chk
 %chk=DDL-S1-cLR-gs-11.chk
 Copying data from "DDL-S1-cLR-11.chk" to current chk file "DDL-S1-cLR-gs-11.chk"
 IOpt=  2 FromEx=T IUOpen= 4 IOptOp= 5 NList=   0 IFRang= 0 IUIn= 4 IUOut= 2.
 ----------------------------------------------------------------------
 #p CAM-B3LYP TZVP em=gd3bj scrf=(Solvent=Water,NonEquilibrium=Read) Ge
 om=Check Guess=Read
 ----------------------------------------------------------------------
 1/29=2,38=1,172=1/1;
 2/12=2,40=1/2;
 3/5=19,7=101,11=2,14=-4,25=1,30=1,70=6002201,72=1,74=-40,116=-2,124=41/1,2,3;
 4/5=1/1;
 5/5=2,38=6,53=1/2;
 6/7=2,8=2,9=2,10=2,28=1/1;
 99/5=1,9=1/99;
 Leave Link    1 at Sat Jan 24 23:05:59 2026, MaxMem=  2147483648 cpu:               0.8 elap:               0.1
 (Enter /data/home/wyx/g16/l101.exe)
 -------------------
 Title Card Required
 -------------------
 Structure from the checkpoint file:  "DDL-S1-cLR-gs-11.chk"
 Charge =  0 Multiplicity = 1
 Z-Matrix found in chk file.
 O,0,2.736562,-1.558765,0.782724
 O,0,-3.25261,-1.647715,-1.041378
 N,0,-0.701254,1.514567,0.064713
 H,0,-1.009553,2.473113,0.003872
 C,0,-1.249814,-0.759996,-0.159153
 C,0,0.641843,1.311891,0.256708
 C,0,-1.622369,0.55464,-0.247371
 C,0,-2.155765,-1.839887,-0.520997
 C,0,0.104613,-1.09751,0.383577
 H,0,0.017221,-1.457881,1.419476
 H,0,0.529152,-1.948457,-0.149567
 C,0,1.097202,0.025506,0.344498
 C,0,2.488014,-0.392151,0.475172
 C,0,-2.953268,1.090107,-0.648155
 H,0,-3.030675,2.151849,-0.425167
 H,0,-3.120866,0.955123,-1.713222
 H,0,-3.756516,0.566584,-0.143732
 C,0,-1.716646,-3.2539,-0.25212
 H,0,-2.562582,-3.923713,-0.357175
 H,0,-0.953131,-3.556904,-0.966656
 H,0,-1.286909,-3.373223,0.738368
 C,0,3.647841,0.534095,0.20527
 H,0,3.455008,1.238579,-0.599248
 H,0,3.897516,1.102135,1.103333
 H,0,4.509131,-0.07932,-0.049751
 C,0,1.416781,2.586009,0.355855
 H,0,2.220966,2.519656,1.077988
 H,0,1.845994,2.865882,-0.605873
 H,0,0.764112,3.399688,0.66801
 Recover connectivity data from disk.
 ITRead=  0  0  0  0  0  0  0  0  0  0  0  0  0  0  0  0  0  0  0  0
 ITRead=  0  0  0  0  0  0  0  0  0
 MicOpt= -1 -1 -1 -1 -1 -1 -1 -1 -1 -1 -1 -1 -1 -1 -1 -1 -1 -1 -1 -1
 MicOpt= -1 -1 -1 -1 -1 -1 -1 -1 -1
 NAtoms=     29 NQM=       29 NQMF=       0 NMMI=      0 NMMIF=      0
                NMic=       0 NMicF=      0.
                    Isotopes and Nuclear Properties:
 (Nuclear quadrupole moments (NQMom) in fm**2, nuclear magnetic moments (NMagM)
  in nuclear magnetons)

  Atom         1           2           3           4           5           6           7           8           9          10
 IAtWgt=          16          16          14           1          12          12          12          12          12           1
 AtmWgt=  15.9949146  15.9949146  14.0030740   1.0078250  12.0000000  12.0000000  12.0000000  12.0000000  12.0000000   1.0078250
 NucSpn=           0           0           2           1           0           0           0           0           0           1
 AtZEff=   5.6000000   5.6000000   4.5500000   1.0000000   3.6000000   3.6000000   3.6000000   3.6000000   3.6000000   1.0000000
 NQMom=    0.0000000   0.0000000   2.0440000   0.0000000   0.0000000   0.0000000   0.0000000   0.0000000   0.0000000   0.0000000
 NMagM=    0.0000000   0.0000000   0.4037610   2.7928460   0.0000000   0.0000000   0.0000000   0.0000000   0.0000000   2.7928460
 AtZNuc=   8.0000000   8.0000000   7.0000000   1.0000000   6.0000000   6.0000000   6.0000000   6.0000000   6.0000000   1.0000000

  Atom        11          12          13          14          15          16          17          18          19          20
 IAtWgt=           1          12          12          12           1           1           1          12           1           1
 AtmWgt=   1.0078250  12.0000000  12.0000000  12.0000000   1.0078250   1.0078250   1.0078250  12.0000000   1.0078250   1.0078250
 NucSpn=           1           0           0           0           1           1           1           0           1           1
 AtZEff=   1.0000000   3.6000000   3.6000000   3.6000000   1.0000000   1.0000000   1.0000000   3.6000000   1.0000000   1.0000000
 NQMom=    0.0000000   0.0000000   0.0000000   0.0000000   0.0000000   0.0000000   0.0000000   0.0000000   0.0000000   0.0000000
 NMagM=    2.7928460   0.0000000   0.0000000   0.0000000   2.7928460   2.7928460   2.7928460   0.0000000   2.7928460   2.7928460
 AtZNuc=   1.0000000   6.0000000   6.0000000   6.0000000   1.0000000   1.0000000   1.0000000   6.0000000   1.0000000   1.0000000

  Atom        21          22          23          24          25          26          27          28          29
 IAtWgt=           1          12           1           1           1          12           1           1           1
 AtmWgt=   1.0078250  12.0000000   1.0078250   1.0078250   1.0078250  12.0000000   1.0078250   1.0078250   1.0078250
 NucSpn=           1           0           1           1           1           0           1           1           1
 AtZEff=   1.0000000   3.6000000   1.0000000   1.0000000   1.0000000   3.6000000   1.0000000   1.0000000   1.0000000
 NQMom=    0.0000000   0.0000000   0.0000000   0.0000000   0.0000000   0.0000000   0.0000000   0.0000000   0.0000000
 NMagM=    2.7928460   0.0000000   2.7928460   2.7928460   2.7928460   0.0000000   2.7928460   2.7928460   2.7928460
 AtZNuc=   1.0000000   6.0000000   1.0000000   1.0000000   1.0000000   6.0000000   1.0000000   1.0000000   1.0000000
 Leave Link  101 at Sat Jan 24 23:06:03 2026, MaxMem=  2147483648 cpu:               0.9 elap:               0.1
 (Enter /data/home/wyx/g16/l202.exe)
                          Input orientation:                          
 ---------------------------------------------------------------------
 Center     Atomic      Atomic             Coordinates (Angstroms)
 Number     Number       Type             X           Y           Z
 ---------------------------------------------------------------------
      1          8           0        2.736562   -1.558765    0.782724
      2          8           0       -3.252610   -1.647715   -1.041378
      3          7           0       -0.701254    1.514567    0.064713
      4          1           0       -1.009553    2.473113    0.003872
      5          6           0       -1.249814   -0.759996   -0.159153
      6          6           0        0.641843    1.311891    0.256708
      7          6           0       -1.622369    0.554640   -0.247371
      8          6           0       -2.155765   -1.839887   -0.520997
      9          6           0        0.104613   -1.097510    0.383577
     10          1           0        0.017221   -1.457881    1.419476
     11          1           0        0.529152   -1.948457   -0.149567
     12          6           0        1.097202    0.025506    0.344498
     13          6           0        2.488014   -0.392151    0.475172
     14          6           0       -2.953268    1.090107   -0.648155
     15          1           0       -3.030675    2.151849   -0.425167
     16          1           0       -3.120866    0.955123   -1.713222
     17          1           0       -3.756516    0.566584   -0.143732
     18          6           0       -1.716646   -3.253900   -0.252120
     19          1           0       -2.562582   -3.923713   -0.357175
     20          1           0       -0.953131   -3.556904   -0.966656
     21          1           0       -1.286909   -3.373223    0.738368
     22          6           0        3.647841    0.534095    0.205270
     23          1           0        3.455008    1.238579   -0.599248
     24          1           0        3.897516    1.102135    1.103333
     25          1           0        4.509131   -0.079320   -0.049751
     26          6           0        1.416781    2.586009    0.355855
     27          1           0        2.220966    2.519656    1.077988
     28          1           0        1.845994    2.865882   -0.605873
     29          1           0        0.764112    3.399688    0.668010
 ---------------------------------------------------------------------
                    Distance matrix (angstroms):
                    1          2          3          4          5
     1  O    0.000000
     2  O    6.261425   0.000000
     3  N    4.666850   4.211043   0.000000
     4  H    5.558420   4.806774   1.008742   0.000000
     5  C    4.173291   2.361685   2.350462   3.246120   0.000000
     6  C    3.592382   5.060737   1.371805   2.034569   2.836199
     7  C    4.952561   2.852806   1.366495   2.029583   1.369251
     8  C    5.070856   1.229144   3.702839   4.493468   1.455281
     9  C    2.701709   3.688383   2.752098   3.759640   1.497646
    10  H    2.794718   4.096783   3.344703   4.302431   2.141142
    11  H    2.427691   3.897114   3.681352   4.684169   2.139451
    12  C    2.321521   4.862220   2.351601   3.247341   2.525700
    13  C    1.231809   6.068866   3.738379   4.545859   3.809073
    14  C    6.437243   2.782067   2.399982   2.473029   2.561984
    15  H    6.963381   3.855601   2.464206   2.090985   3.423605
    16  H    6.845352   2.691374   3.054268   3.116143   2.976172
    17  H    6.894599   2.441886   3.205737   3.347005   2.836125
    18  C    4.876007   2.358377   4.885661   5.776174   2.538923
    19  H    5.913821   2.474760   5.763456   6.592544   3.430988
    20  H    4.546067   2.989681   5.181407   6.107881   2.926222
    21  H    4.413904   3.163677   4.968631   5.898818   2.763309
    22  C    2.354558   7.343749   4.460461   5.048928   5.078829
    23  H    3.201741   7.315621   4.218000   4.671203   5.130627
    24  H    2.920786   7.955235   4.732602   5.212266   5.617509
    25  H    2.454338   7.980464   5.449926   6.080597   5.800063
    26  C    4.370720   6.455997   2.391406   2.454330   4.309491
    27  H    4.121473   7.198523   3.252122   3.404724   4.932844
    28  H    4.722162   6.823341   2.960441   2.946219   4.788588
    29  H    5.337600   6.673256   2.462711   2.108437   4.695005
                    6          7          8          9         10
     6  C    0.000000
     7  C    2.440119   0.000000
     8  C    4.285457   2.468429   0.000000
     9  C    2.471826   2.471874   2.545326   0.000000
    10  H    3.068195   3.084943   2.938236   1.100269   0.000000
    11  H    3.287496   3.302136   2.712660   1.090223   1.721811
    12  C    1.367423   2.833083   3.848450   1.499308   2.126587
    13  C    2.521871   4.279454   4.965176   2.487272   2.851720
    14  C    3.713864   1.489512   3.039251   3.898817   4.426189
    15  H    3.828560   2.136823   4.087616   4.587203   5.071738
    16  H    4.262146   2.134151   3.188244   4.360457   5.048166
    17  H    4.478995   2.136695   2.914762   4.237403   4.558856
    18  C    5.164090   3.809710   1.504843   2.893288   3.004366
    19  H    6.169015   4.577303   2.129476   3.956016   3.986502
    20  H    5.267421   4.227298   2.143149   2.998428   3.322816
    21  H    5.089437   4.063536   2.166109   2.690925   2.415201
    22  C    3.105420   5.289652   6.312297   3.904919   4.315515
    23  H    2.941417   5.135304   6.400301   4.201000   4.812954
    24  H    3.370486   5.709053   6.923594   4.443265   4.659433
    25  H    4.121323   6.167354   6.909595   4.541394   4.923039
    26  C    1.494569   3.704966   5.755042   3.910354   4.409434
    27  H    2.151006   4.515428   6.381077   4.247946   4.560034
    28  H    2.146838   4.183289   6.177827   4.440709   5.112864
    29  H    2.131435   3.824593   6.114946   4.554188   4.971773
                   11         12         13         14         15
    11  H    0.000000
    12  C    2.112655   0.000000
    13  C    2.578668   1.458037   0.000000
    14  C    4.648517   4.304073   5.750348   0.000000
    15  H    5.436987   4.706707   6.143165   1.087663   0.000000
    16  H    4.919189   4.784401   6.169583   1.086590   1.760504
    17  H    4.969146   4.908127   6.347942   1.083386   1.766102
    18  C    2.599674   4.362132   5.137872   4.533925   5.565855
    19  H    3.674719   5.429797   6.218782   5.037429   6.093947
    20  H    2.334930   4.330895   4.892444   5.069191   6.099120
    21  H    2.473149   4.170189   4.817272   4.961906   5.909395
    22  C    4.001899   2.604574   1.508634   6.679231   6.900518
    23  H    4.349718   2.814507   2.179159   6.410182   6.551981
    24  H    4.713995   3.094627   2.148063   7.071145   7.172032
    25  H    4.398167   3.436231   2.111474   7.577140   7.871958
    26  C    4.648088   2.580394   3.167209   4.726847   4.536337
    27  H    4.932865   2.832250   2.985519   5.638783   5.474896
    28  H    5.012000   3.087334   3.492224   5.117429   4.931977
    29  H    5.415376   3.405982   4.169780   4.570051   4.141563
                   16         17         18         19         20
    16  H    0.000000
    17  H    1.737329   0.000000
    18  C    4.671459   4.332311   0.000000
    19  H    5.094466   4.651215   1.084110   0.000000
    20  H    5.061109   5.053645   1.088728   1.759644   0.000000
    21  H    5.301723   4.732773   1.086268   1.769349   1.747070
    22  C    7.047927   7.412649   6.582996   7.665360   6.267266
    23  H    6.675583   7.257076   6.859218   7.932165   6.524058
    24  H    7.563880   7.773429   7.234024   8.314150   7.037064
    25  H    7.877440   8.291378   6.991367   8.054998   6.539924
    26  C    5.247010   5.575900   6.655264   7.662912   6.715720
    27  H    6.226860   6.406043   7.113925   8.152241   7.154023
    28  H    5.435708   6.073587   7.090083   8.099135   7.015515
    29  H    5.170998   5.396432   7.160379   8.108644   7.349505
                   21         22         23         24         25
    21  H    0.000000
    22  C    6.316889   0.000000
    23  H    6.748608   1.086615   0.000000
    24  H    6.858593   1.091570   1.764430   0.000000
    25  H    6.713048   1.087720   1.774818   1.760543   0.000000
    26  C    6.555052   3.034906   2.623387   2.985741   4.102575
    27  H    6.866335   2.596163   2.444819   2.195638   3.641726
    28  H    7.109747   3.056442   2.288468   3.200145   4.009462
    29  H    7.077002   4.091655   3.676582   3.909792   5.161768
                   26         27         28         29
    26  C    0.000000
    27  H    1.082863   0.000000
    28  H    1.089713   1.759507   0.000000
    29  H    1.088803   1.750703   1.754479   0.000000
 Stoichiometry    C11H15NO2
 Framework group  C1[X(C11H15NO2)]
 Deg. of freedom    81
 Full point group                 C1      NOp   1
 RotChk:  IX=0 Diff= 1.29D-15
 Largest Abelian subgroup         C1      NOp   1
 Largest concise Abelian subgroup C1      NOp   1
                         Standard orientation:                         
 ---------------------------------------------------------------------
 Center     Atomic      Atomic             Coordinates (Angstroms)
 Number     Number       Type             X           Y           Z
 ---------------------------------------------------------------------
      1          8           0       -2.287429   -2.282339   -0.210980
      2          8           0        3.603005   -0.250865    0.406544
      3          7           0       -0.025233    1.799544   -0.197270
      4          1           0       -0.054489    2.807842   -0.203474
      5          6           0        1.292829   -0.142534   -0.071898
      6          6           0       -1.231191    1.150091   -0.121596
      7          6           0        1.207172    1.224022   -0.065887
      8          6           0        2.560963   -0.832375    0.111944
      9          6           0        0.058230   -0.947728   -0.337176
     10          1           0        0.072350   -1.332036   -1.368049
     11          1           0        0.051920   -1.850749    0.273643
     12          6           0       -1.231460   -0.217292   -0.111149
     13          6           0       -2.397421   -1.080412    0.035241
     14          6           0        2.327102    2.197480    0.063648
     15          1           0        1.998055    3.206022   -0.176317
     16          1           0        2.721551    2.202343    1.076103
     17          1           0        3.154069    1.934957   -0.585146
     18          6           0        2.585957   -2.327424   -0.057632
     19          1           0        3.612927   -2.669756   -0.116243
     20          1           0        2.114088   -2.814265    0.794221
     21          1           0        2.049335   -2.653048   -0.944189
     22          6           0       -3.732732   -0.573966    0.521486
     23          1           0       -3.646988    0.210347    1.268635
     24          1           0       -4.319303   -0.186643   -0.313643
     25          1           0       -4.273336   -1.418163    0.943639
     26          6           0       -2.396382    2.084893   -0.074579
     27          1           0       -3.247694    1.704264   -0.625017
     28          1           0       -2.712230    2.274896    0.950902
     29          1           0       -2.126622    3.044277   -0.513103
 ---------------------------------------------------------------------
 Rotational constants (GHZ):           1.0785292           0.4907459           0.3458300
 Leave Link  202 at Sat Jan 24 23:06:05 2026, MaxMem=  2147483648 cpu:               0.0 elap:               0.0
 (Enter /data/home/wyx/g16/l301.exe)
 Standard basis: TZVP (5D, 7F)
 Ernie: Thresh=  0.10000D-02 Tol=  0.10000D-05 Strict=F.
 There are   370 symmetry adapted cartesian basis functions of A   symmetry.
 There are   356 symmetry adapted basis functions of A   symmetry.
   356 basis functions,   610 primitive gaussians,   370 cartesian basis functions
    52 alpha electrons       52 beta electrons
       nuclear repulsion energy       900.7179841103 Hartrees.
 IExCor=20419 DFT=T Ex+Corr=CAM-B3LYP ExCW=0 ScaHFX=  1.000000
 ScaDFX=  1.000000  1.000000  1.000000  0.810000 ScalE2=  1.000000  1.000000
 IRadAn=      5 IRanWt=     -1 IRanGd=            0 ICorTp=0 IEmpDi=141
 HFx  wShort=  0.000000 wLong=  0.330000 cFull=  0.190000 cShort=  0.000000 cLong=  0.460000
 DFx  wShort=  0.000000 wLong=  0.330000 cFull=  0.190000 cShort=  0.000000 cLong=  0.460000
 NAtoms=   29 NActive=   29 NUniq=   29 SFac= 1.00D+00 NAtFMM=   60 NAOKFM=F Big=F
 Integral buffers will be    131072 words long.
 Raffenetti 2 integral format.
 Two-electron integral symmetry is turned on.
 R6Disp:  Grimme-D3(BJ) Dispersion energy=       -0.0261959394 Hartrees.
 Nuclear repulsion after empirical dispersion term =      900.6917881709 Hartrees.
 ------------------------------------------------------------------------------
 Polarizable Continuum Model (PCM)
 =================================
 Model                : PCM.
 Atomic radii         : UFF (Universal Force Field).
 Polarization charges : Total charges.
 Charge compensation  : None.
 Solution method      : On-the-fly selection.
 Cavity type          : Scaled VdW (van der Waals Surface) (Alpha=1.100).
 Cavity algorithm     : GePol (No added spheres)
                        Default sphere list used, NSphG=   29.
                        Lebedev-Laikov grids with approx.  5.0 points / Ang**2.
                        Smoothing algorithm: York/Karplus (Gamma=1.0000).
                        Polarization charges: spherical gaussians, with
                                              point-specific exponents (IZeta= 3).
                        Self-potential: point-specific (ISelfS= 7).
                        Self-field    : sphere-specific E.n sum rule (ISelfD= 2).
 Solvent              : Water, Eps=  78.355300 Eps(inf)=   1.777849
 ------------------------------------------------------------------------------
 GePol: Number of generator spheres                  =      29
 GePol: Total number of spheres                      =      29
 GePol: Number of exposed spheres                    =      29 (100.00%)
 GePol: Number of points                             =    2111
 GePol: Average weight of points                     =       0.13
 GePol: Minimum weight of points                     =   0.10D-10
 GePol: Maximum weight of points                     =    0.20577
 GePol: Number of points with low weight             =     145
 GePol: Fraction of low-weight points (<1% of avg)   =       6.87%
 GePol: Cavity surface area                          =    268.547 Ang**2
 GePol: Cavity volume                                =    286.634 Ang**3
 Leave Link  301 at Sat Jan 24 23:06:05 2026, MaxMem=  2147483648 cpu:               0.6 elap:               0.0
 (Enter /data/home/wyx/g16/l302.exe)
 NPDir=0 NMtPBC=     1 NCelOv=     1 NCel=       1 NClECP=     1 NCelD=      1
         NCelK=      1 NCelE2=     1 NClLst=     1 CellRange=     0.0.
 One-electron integrals computed using PRISM.
 One-electron integral symmetry used in STVInt
 NBasis=   356 RedAO= T EigKep=  4.68D-05  NBF=   356
 NBsUse=   356 1.00D-06 EigRej= -1.00D+00 NBFU=   356
 Precomputing XC quadrature grid using
 IXCGrd= 4 IRadAn=           5 IRanWt=          -1 IRanGd=           0 AccXCQ= 0.00D+00.
 Generated NRdTot=       0 NPtTot=           0 NUsed=           0 NTot=          32
 NSgBfM=   366   366   366   366   366 MxSgAt=    29 MxSgA2=    29.
 Leave Link  302 at Sat Jan 24 23:06:05 2026, MaxMem=  2147483648 cpu:               3.1 elap:               0.2
 (Enter /data/home/wyx/g16/l303.exe)
 DipDrv:  MaxL=1.
 Leave Link  303 at Sat Jan 24 23:06:05 2026, MaxMem=  2147483648 cpu:               0.6 elap:               0.0
 (Enter /data/home/wyx/g16/l401.exe)
 Initial guess from the checkpoint file:  "DDL-S1-cLR-gs-11.chk"
 B after Tr=    -0.000000   -0.000000   -0.000000
         Rot=    1.000000   -0.000000   -0.000000   -0.000000 Ang=   0.00 deg.
 Guess basis will be translated and rotated to current coordinates.
 JPrj=2 DoOrth=T DoCkMO=T.
 Leave Link  401 at Sat Jan 24 23:06:05 2026, MaxMem=  2147483648 cpu:               2.2 elap:               0.2
 (Enter /data/home/wyx/g16/l502.exe)
 Integral symmetry usage will be decided dynamically.
 Closed shell SCF:
 Using DIIS extrapolation, IDIIS=  1040.
 NGot=  2147483648 LenX=  2147200095 LenY=  2147062754
 Requested convergence on RMS density matrix=1.00D-08 within 128 cycles.
 Requested convergence on MAX density matrix=1.00D-06.
 Requested convergence on             energy=1.00D-06.
 No special actions if energy rises.
 Fock matrices will be formed incrementally for  20 cycles.

 Cycle   1  Pass 1  IDiag  1:
 FoFJK:  IHMeth= 1 ICntrl=       0 DoSepK=T KAlg= 0 I1Cent=           0 FoldK=F
 IRaf=         1 NMat=       1 IRICut=       1 DoRegI=T DoRafI=F ISym2E= 0 IDoP0=0 IntGTp=1.
 FoFCou: FMM=F IPFlag=           0 FMFlag=      100000 FMFlg1=           0
         NFxFlg=           0 DoJE=T BraDBF=F KetDBF=F FulRan=T
         wScrn=  0.000000 ICntrl=       500 IOpCl=  0 I1Cent=           0 NGrid=           0
         NMat0=    1 NMatS0=      1 NMatT0=    0 NMatD0=    1 NMtDS0=    0 NMtDT0=    0
 Symmetry not used in FoFCou.
 Inv3:  Mode=1 IEnd=    13368963.
 Iteration    1 A*A^-1 deviation from unit magnitude is 3.33D-15 for    690.
 Iteration    1 A*A^-1 deviation from orthogonality  is 1.78D-15 for   1955    345.
 Iteration    1 A^-1*A deviation from unit magnitude is 3.33D-15 for    690.
 Iteration    1 A^-1*A deviation from orthogonality  is 2.47D-15 for   1715    508.
 NEqPCM:  Using non-equilibrium solvation (IEInf=1, Eps=  78.3553, EpsInf=   1.7778)
 Inv3:  Mode=1 IEnd=    13368963.
 Iteration    1 A*A^-1 deviation from unit magnitude is 3.22D-15 for   1664.
 Iteration    1 A*A^-1 deviation from orthogonality  is 1.89D-15 for   1947    312.
 Iteration    1 A^-1*A deviation from unit magnitude is 3.33D-15 for    500.
 Iteration    1 A^-1*A deviation from orthogonality  is 2.48D-15 for   1542   1132.
 E= -633.330514577329    
 DIIS: error= 3.83D-04 at cycle   1 NSaved=   1.
 NSaved= 1 IEnMin= 1 EnMin= -633.330514577329     IErMin= 1 ErrMin= 3.83D-04
 ErrMax= 3.83D-04  0.00D+00 EMaxC= 1.00D-01 BMatC= 3.01D-05 BMatP= 3.01D-05
 IDIUse=3 WtCom= 9.96D-01 WtEn= 3.83D-03
 Coeff-Com:  0.100D+01
 Coeff-En:   0.100D+01
 Coeff:      0.100D+01
 Gap=     0.230 Goal=   None    Shift=    0.000
 RMSDP=2.30D-04 MaxDP=1.32D-02              OVMax= 5.29D-03

 Cycle   2  Pass 1  IDiag  1:
 RMSU=  2.29D-04    CP:  9.98D-01
 E= -633.330566147686     Delta-E=       -0.000051570357 Rises=F Damp=F
 DIIS: error= 2.20D-04 at cycle   2 NSaved=   2.
 NSaved= 2 IEnMin= 2 EnMin= -633.330566147686     IErMin= 2 ErrMin= 2.20D-04
 ErrMax= 2.20D-04  0.00D+00 EMaxC= 1.00D-01 BMatC= 2.13D-05 BMatP= 3.01D-05
 IDIUse=3 WtCom= 9.98D-01 WtEn= 2.20D-03
 Coeff-Com:  0.442D+00 0.558D+00
 Coeff-En:   0.000D+00 0.100D+01
 Coeff:      0.441D+00 0.559D+00
 Gap=     0.230 Goal=   None    Shift=    0.000
 RMSDP=4.58D-05 MaxDP=3.34D-03 DE=-5.16D-05 OVMax= 1.63D-03

 Cycle   3  Pass 1  IDiag  1:
 RMSU=  3.68D-05    CP:  1.00D+00  9.08D-01
 E= -633.330584173963     Delta-E=       -0.000018026277 Rises=F Damp=F
 DIIS: error= 1.37D-04 at cycle   3 NSaved=   3.
 NSaved= 3 IEnMin= 3 EnMin= -633.330584173963     IErMin= 3 ErrMin= 1.37D-04
 ErrMax= 1.37D-04  0.00D+00 EMaxC= 1.00D-01 BMatC= 3.96D-06 BMatP= 2.13D-05
 IDIUse=3 WtCom= 9.99D-01 WtEn= 1.37D-03
 Coeff-Com:  0.842D-01 0.286D+00 0.630D+00
 Coeff-En:   0.000D+00 0.519D-01 0.948D+00
 Coeff:      0.841D-01 0.286D+00 0.630D+00
 Gap=     0.230 Goal=   None    Shift=    0.000
 RMSDP=1.62D-05 MaxDP=7.00D-04 DE=-1.80D-05 OVMax= 8.00D-04

 Cycle   4  Pass 1  IDiag  1:
 RMSU=  1.50D-05    CP:  9.99D-01  9.02D-01  8.92D-01
 E= -633.330587294899     Delta-E=       -0.000003120937 Rises=F Damp=F
 DIIS: error= 2.81D-05 at cycle   4 NSaved=   4.
 NSaved= 4 IEnMin= 4 EnMin= -633.330587294899     IErMin= 4 ErrMin= 2.81D-05
 ErrMax= 2.81D-05  0.00D+00 EMaxC= 1.00D-01 BMatC= 3.33D-07 BMatP= 3.96D-06
 IDIUse=1 WtCom= 1.00D+00 WtEn= 0.00D+00
 Coeff-Com: -0.666D-02 0.501D-01 0.246D+00 0.711D+00
 Coeff:     -0.666D-02 0.501D-01 0.246D+00 0.711D+00
 Gap=     0.230 Goal=   None    Shift=    0.000
 RMSDP=8.20D-06 MaxDP=5.08D-04 DE=-3.12D-06 OVMax= 2.43D-04

 Cycle   5  Pass 1  IDiag  1:
 RMSU=  4.74D-06    CP:  9.99D-01  9.08D-01  1.04D+00  1.15D+00
 E= -633.330587578664     Delta-E=       -0.000000283765 Rises=F Damp=F
 DIIS: error= 9.45D-06 at cycle   5 NSaved=   5.
 NSaved= 5 IEnMin= 5 EnMin= -633.330587578664     IErMin= 5 ErrMin= 9.45D-06
 ErrMax= 9.45D-06  0.00D+00 EMaxC= 1.00D-01 BMatC= 5.85D-08 BMatP= 3.33D-07
 IDIUse=1 WtCom= 1.00D+00 WtEn= 0.00D+00
 Coeff-Com: -0.118D-01-0.176D-01 0.255D-01 0.320D+00 0.684D+00
 Coeff:     -0.118D-01-0.176D-01 0.255D-01 0.320D+00 0.684D+00
 Gap=     0.230 Goal=   None    Shift=    0.000
 RMSDP=2.17D-06 MaxDP=1.14D-04 DE=-2.84D-07 OVMax= 1.08D-04

 Cycle   6  Pass 1  IDiag  1:
 RMSU=  1.41D-06    CP:  9.99D-01  9.07D-01  1.07D+00  1.24D+00  1.07D+00
 E= -633.330587642095     Delta-E=       -0.000000063431 Rises=F Damp=F
 DIIS: error= 4.82D-06 at cycle   6 NSaved=   6.
 NSaved= 6 IEnMin= 6 EnMin= -633.330587642095     IErMin= 6 ErrMin= 4.82D-06
 ErrMax= 4.82D-06  0.00D+00 EMaxC= 1.00D-01 BMatC= 5.55D-09 BMatP= 5.85D-08
 IDIUse=1 WtCom= 1.00D+00 WtEn= 0.00D+00
 Coeff-Com: -0.268D-02-0.118D-01-0.112D-01 0.255D-01 0.231D+00 0.769D+00
 Coeff:     -0.268D-02-0.118D-01-0.112D-01 0.255D-01 0.231D+00 0.769D+00
 Gap=     0.230 Goal=   None    Shift=    0.000
 RMSDP=1.36D-06 MaxDP=9.49D-05 DE=-6.34D-08 OVMax= 6.95D-05

 Cycle   7  Pass 1  IDiag  1:
 RMSU=  5.45D-07    CP:  1.00D+00  9.06D-01  1.08D+00  1.28D+00  1.22D+00
                    CP:  1.19D+00
 E= -633.330587649499     Delta-E=       -0.000000007404 Rises=F Damp=F
 DIIS: error= 2.12D-06 at cycle   7 NSaved=   7.
 NSaved= 7 IEnMin= 7 EnMin= -633.330587649499     IErMin= 7 ErrMin= 2.12D-06
 ErrMax= 2.12D-06  0.00D+00 EMaxC= 1.00D-01 BMatC= 1.96D-09 BMatP= 5.55D-09
 IDIUse=1 WtCom= 1.00D+00 WtEn= 0.00D+00
 Coeff-Com:  0.607D-03-0.401D-02-0.728D-02-0.414D-01-0.407D-03 0.411D+00
 Coeff-Com:  0.641D+00
 Coeff:      0.607D-03-0.401D-02-0.728D-02-0.414D-01-0.407D-03 0.411D+00
 Coeff:      0.641D+00
 Gap=     0.230 Goal=   None    Shift=    0.000
 RMSDP=4.52D-07 MaxDP=2.92D-05 DE=-7.40D-09 OVMax= 2.97D-05

 Cycle   8  Pass 1  IDiag  1:
 RMSU=  2.10D-07    CP:  1.00D+00  9.05D-01  1.09D+00  1.29D+00  1.27D+00
                    CP:  1.32D+00  9.98D-01
 E= -633.330587651980     Delta-E=       -0.000000002481 Rises=F Damp=F
 DIIS: error= 7.23D-07 at cycle   8 NSaved=   8.
 NSaved= 8 IEnMin= 8 EnMin= -633.330587651980     IErMin= 8 ErrMin= 7.23D-07
 ErrMax= 7.23D-07  0.00D+00 EMaxC= 1.00D-01 BMatC= 1.55D-10 BMatP= 1.96D-09
 IDIUse=1 WtCom= 1.00D+00 WtEn= 0.00D+00
 Coeff-Com:  0.630D-03-0.198D-03 0.611D-03-0.172D-01-0.396D-01 0.732D-02
 Coeff-Com:  0.182D+00 0.867D+00
 Coeff:      0.630D-03-0.198D-03 0.611D-03-0.172D-01-0.396D-01 0.732D-02
 Coeff:      0.182D+00 0.867D+00
 Gap=     0.230 Goal=   None    Shift=    0.000
 RMSDP=2.40D-07 MaxDP=1.38D-05 DE=-2.48D-09 OVMax= 1.58D-05

 Cycle   9  Pass 1  IDiag  1:
 RMSU=  9.38D-08    CP:  1.00D+00  9.05D-01  1.09D+00  1.30D+00  1.29D+00
                    CP:  1.39D+00  1.16D+00  1.09D+00
 E= -633.330587652314     Delta-E=       -0.000000000334 Rises=F Damp=F
 DIIS: error= 3.37D-07 at cycle   9 NSaved=   9.
 NSaved= 9 IEnMin= 9 EnMin= -633.330587652314     IErMin= 9 ErrMin= 3.37D-07
 ErrMax= 3.37D-07  0.00D+00 EMaxC= 1.00D-01 BMatC= 1.88D-11 BMatP= 1.55D-10
 IDIUse=1 WtCom= 1.00D+00 WtEn= 0.00D+00
 Coeff-Com:  0.138D-03 0.260D-03 0.135D-02 0.170D-03-0.132D-01-0.535D-01
 Coeff-Com: -0.277D-01 0.282D+00 0.811D+00
 Coeff:      0.138D-03 0.260D-03 0.135D-02 0.170D-03-0.132D-01-0.535D-01
 Coeff:     -0.277D-01 0.282D+00 0.811D+00
 Gap=     0.230 Goal=   None    Shift=    0.000
 RMSDP=6.38D-08 MaxDP=2.34D-06 DE=-3.34D-10 OVMax= 6.06D-06

 Cycle  10  Pass 1  IDiag  1:
 RMSU=  2.90D-08    CP:  1.00D+00  9.05D-01  1.09D+00  1.30D+00  1.29D+00
                    CP:  1.42D+00  1.21D+00  1.19D+00  1.18D+00
 E= -633.330587652353     Delta-E=       -0.000000000040 Rises=F Damp=F
 DIIS: error= 1.34D-07 at cycle  10 NSaved=  10.
 NSaved=10 IEnMin=10 EnMin= -633.330587652353     IErMin=10 ErrMin= 1.34D-07
 ErrMax= 1.34D-07  0.00D+00 EMaxC= 1.00D-01 BMatC= 3.39D-12 BMatP= 1.88D-11
 IDIUse=1 WtCom= 1.00D+00 WtEn= 0.00D+00
 Coeff-Com: -0.153D-04 0.140D-03 0.450D-03 0.228D-02-0.843D-03-0.243D-01
 Coeff-Com: -0.335D-01 0.137D-01 0.330D+00 0.712D+00
 Coeff:     -0.153D-04 0.140D-03 0.450D-03 0.228D-02-0.843D-03-0.243D-01
 Coeff:     -0.335D-01 0.137D-01 0.330D+00 0.712D+00
 Gap=     0.230 Goal=   None    Shift=    0.000
 RMSDP=2.99D-08 MaxDP=1.61D-06 DE=-3.96D-11 OVMax= 2.23D-06

 Cycle  11  Pass 1  IDiag  1:
 RMSU=  1.50D-08    CP:  1.00D+00  9.05D-01  1.09D+00  1.29D+00  1.29D+00
                    CP:  1.42D+00  1.24D+00  1.21D+00  1.34D+00  1.21D+00
 E= -633.330587652363     Delta-E=       -0.000000000010 Rises=F Damp=F
 DIIS: error= 7.26D-08 at cycle  11 NSaved=  11.
 NSaved=11 IEnMin=11 EnMin= -633.330587652363     IErMin=11 ErrMin= 7.26D-08
 ErrMax= 7.26D-08  0.00D+00 EMaxC= 1.00D-01 BMatC= 1.06D-12 BMatP= 3.39D-12
 IDIUse=1 WtCom= 1.00D+00 WtEn= 0.00D+00
 Coeff-Com: -0.352D-04 0.325D-04-0.988D-04 0.113D-02 0.256D-02 0.398D-03
 Coeff-Com: -0.906D-02-0.541D-01-0.216D-01 0.376D+00 0.705D+00
 Coeff:     -0.352D-04 0.325D-04-0.988D-04 0.113D-02 0.256D-02 0.398D-03
 Coeff:     -0.906D-02-0.541D-01-0.216D-01 0.376D+00 0.705D+00
 Gap=     0.230 Goal=   None    Shift=    0.000
 RMSDP=1.30D-08 MaxDP=5.52D-07 DE=-9.78D-12 OVMax= 1.18D-06

 Cycle  12  Pass 1  IDiag  1:
 RMSU=  5.73D-09    CP:  1.00D+00  9.05D-01  1.09D+00  1.29D+00  1.29D+00
                    CP:  1.42D+00  1.24D+00  1.22D+00  1.40D+00  1.42D+00
                    CP:  9.80D-01
 E= -633.330587652358     Delta-E=        0.000000000005 Rises=F Damp=F
 DIIS: error= 2.46D-08 at cycle  12 NSaved=  12.
 NSaved=12 IEnMin=11 EnMin= -633.330587652363     IErMin=12 ErrMin= 2.46D-08
 ErrMax= 2.46D-08  0.00D+00 EMaxC= 1.00D-01 BMatC= 1.37D-13 BMatP= 1.06D-12
 IDIUse=1 WtCom= 1.00D+00 WtEn= 0.00D+00
 Coeff-Com: -0.145D-04 0.912D-07-0.142D-03 0.761D-04 0.121D-02 0.412D-02
 Coeff-Com:  0.226D-02-0.256D-01-0.739D-01 0.650D-02 0.268D+00 0.818D+00
 Coeff:     -0.145D-04 0.912D-07-0.142D-03 0.761D-04 0.121D-02 0.412D-02
 Coeff:      0.226D-02-0.256D-01-0.739D-01 0.650D-02 0.268D+00 0.818D+00
 Gap=     0.230 Goal=   None    Shift=    0.000
 RMSDP=8.37D-09 MaxDP=3.60D-07 DE= 5.12D-12 OVMax= 5.97D-07

 Error on total polarization charges =  0.00846
 SCF Done:  E(RCAM-B3LYP) =  -633.330587652     A.U. after   12 cycles
            NFock= 12  Conv=0.84D-08     -V/T= 2.0041
 KE= 6.307289831908D+02 PE=-3.277378038729D+03 EE= 1.112626679714D+03
 Leave Link  502 at Sat Jan 24 23:06:53 2026, MaxMem=  2147483648 cpu:             751.5 elap:              47.7
 (Enter /data/home/wyx/g16/l601.exe)
 Copying SCF densities to generalized density rwf, IOpCl= 0 IROHF=0.

 **********************************************************************

            Population analysis using the SCF density.

 **********************************************************************

 Orbital symmetries:
       Occupied  (A) (A) (A) (A) (A) (A) (A) (A) (A) (A) (A) (A)
                 (A) (A) (A) (A) (A) (A) (A) (A) (A) (A) (A) (A)
                 (A) (A) (A) (A) (A) (A) (A) (A) (A) (A) (A) (A)
                 (A) (A) (A) (A) (A) (A) (A) (A) (A) (A) (A) (A)
                 (A) (A) (A) (A)
       Virtual   (A) (A) (A) (A) (A) (A) (A) (A) (A) (A) (A) (A)
                 (A) (A) (A) (A) (A) (A) (A) (A) (A) (A) (A) (A)
                 (A) (A) (A) (A) (A) (A) (A) (A) (A) (A) (A) (A)
                 (A) (A) (A) (A) (A) (A) (A) (A) (A) (A) (A) (A)
                 (A) (A) (A) (A) (A) (A) (A) (A) (A) (A) (A) (A)
                 (A) (A) (A) (A) (A) (A) (A) (A) (A) (A) (A) (A)
                 (A) (A) (A) (A) (A) (A) (A) (A) (A) (A) (A) (A)
                 (A) (A) (A) (A) (A) (A) (A) (A) (A) (A) (A) (A)
                 (A) (A) (A) (A) (A) (A) (A) (A) (A) (A) (A) (A)
                 (A) (A) (A) (A) (A) (A) (A) (A) (A) (A) (A) (A)
                 (A) (A) (A) (A) (A) (A) (A) (A) (A) (A) (A) (A)
                 (A) (A) (A) (A) (A) (A) (A) (A) (A) (A) (A) (A)
                 (A) (A) (A) (A) (A) (A) (A) (A) (A) (A) (A) (A)
                 (A) (A) (A) (A) (A) (A) (A) (A) (A) (A) (A) (A)
                 (A) (A) (A) (A) (A) (A) (A) (A) (A) (A) (A) (A)
                 (A) (A) (A) (A) (A) (A) (A) (A) (A) (A) (A) (A)
                 (A) (A) (A) (A) (A) (A) (A) (A) (A) (A) (A) (A)
                 (A) (A) (A) (A) (A) (A) (A) (A) (A) (A) (A) (A)
                 (A) (A) (A) (A) (A) (A) (A) (A) (A) (A) (A) (A)
                 (A) (A) (A) (A) (A) (A) (A) (A) (A) (A) (A) (A)
                 (A) (A) (A) (A) (A) (A) (A) (A) (A) (A) (A) (A)
                 (A) (A) (A) (A) (A) (A) (A) (A) (A) (A) (A) (A)
                 (A) (A) (A) (A) (A) (A) (A) (A) (A) (A) (A) (A)
                 (A) (A) (A) (A) (A) (A) (A) (A) (A) (A) (A) (A)
                 (A) (A) (A) (A) (A) (A) (A) (A) (A) (A) (A) (A)
                 (A) (A) (A) (A)
 The electronic state is 1-A.
 Alpha  occ. eigenvalues --  -19.17925 -19.17291 -14.44002 -10.33451 -10.32977
 Alpha  occ. eigenvalues --  -10.32100 -10.31535 -10.25601 -10.24934 -10.24605
 Alpha  occ. eigenvalues --  -10.24422 -10.24367 -10.24290 -10.23638  -1.11860
 Alpha  occ. eigenvalues --   -1.11421  -1.07586  -0.91122  -0.90159  -0.83866
 Alpha  occ. eigenvalues --   -0.82474  -0.81558  -0.78438  -0.73691  -0.71343
 Alpha  occ. eigenvalues --   -0.68543  -0.61522  -0.58109  -0.56812  -0.55011
 Alpha  occ. eigenvalues --   -0.54312  -0.53956  -0.52520  -0.51846  -0.50698
 Alpha  occ. eigenvalues --   -0.50000  -0.49491  -0.49108  -0.48424  -0.47985
 Alpha  occ. eigenvalues --   -0.46841  -0.45332  -0.45015  -0.43323  -0.42945
 Alpha  occ. eigenvalues --   -0.42387  -0.42016  -0.41915  -0.32671  -0.32260
 Alpha  occ. eigenvalues --   -0.31325  -0.25587
 Alpha virt. eigenvalues --   -0.02564   0.02579   0.06671   0.08410   0.08888
 Alpha virt. eigenvalues --    0.10088   0.10890   0.12030   0.12789   0.13654
 Alpha virt. eigenvalues --    0.14240   0.15129   0.15847   0.16316   0.17058
 Alpha virt. eigenvalues --    0.17604   0.17987   0.18036   0.18272   0.19295
 Alpha virt. eigenvalues --    0.20152   0.22251   0.23175   0.23585   0.23772
 Alpha virt. eigenvalues --    0.24170   0.24851   0.25823   0.26072   0.26836
 Alpha virt. eigenvalues --    0.27035   0.27782   0.28932   0.29061   0.30347
 Alpha virt. eigenvalues --    0.31808   0.32183   0.32685   0.33761   0.34687
 Alpha virt. eigenvalues --    0.35374   0.36147   0.36829   0.38275   0.38829
 Alpha virt. eigenvalues --    0.39906   0.41213   0.41829   0.42375   0.42769
 Alpha virt. eigenvalues --    0.44245   0.44561   0.45491   0.46140   0.46303
 Alpha virt. eigenvalues --    0.47383   0.48015   0.48237   0.48398   0.49113
 Alpha virt. eigenvalues --    0.49671   0.50430   0.50964   0.51537   0.51738
 Alpha virt. eigenvalues --    0.52867   0.53194   0.53607   0.54191   0.54425
 Alpha virt. eigenvalues --    0.54776   0.55937   0.56263   0.56638   0.58574
 Alpha virt. eigenvalues --    0.58839   0.59175   0.60900   0.61221   0.63014
 Alpha virt. eigenvalues --    0.63554   0.65884   0.66271   0.66534   0.67997
 Alpha virt. eigenvalues --    0.68822   0.70212   0.71567   0.72348   0.73123
 Alpha virt. eigenvalues --    0.73408   0.74086   0.74852   0.76208   0.77966
 Alpha virt. eigenvalues --    0.78519   0.79871   0.82427   0.85200   0.85943
 Alpha virt. eigenvalues --    0.89596   0.93649   1.00102   1.00921   1.24191
 Alpha virt. eigenvalues --    1.25506   1.27248   1.27963   1.29584   1.31371
 Alpha virt. eigenvalues --    1.32696   1.33105   1.34181   1.35096   1.36204
 Alpha virt. eigenvalues --    1.36627   1.37404   1.38463   1.39303   1.39995
 Alpha virt. eigenvalues --    1.40131   1.40728   1.41113   1.41575   1.41896
 Alpha virt. eigenvalues --    1.43573   1.44371   1.44484   1.45319   1.47346
 Alpha virt. eigenvalues --    1.48300   1.49518   1.49925   1.50559   1.51203
 Alpha virt. eigenvalues --    1.51892   1.52552   1.53445   1.54645   1.57973
 Alpha virt. eigenvalues --    1.58434   1.60631   1.60828   1.61406   1.62472
 Alpha virt. eigenvalues --    1.62789   1.63465   1.64373   1.65443   1.65831
 Alpha virt. eigenvalues --    1.67125   1.67454   1.67898   1.68461   1.68744
 Alpha virt. eigenvalues --    1.68998   1.70121   1.70504   1.71878   1.72420
 Alpha virt. eigenvalues --    1.73823   1.75375   1.76424   1.76725   1.78953
 Alpha virt. eigenvalues --    1.80744   1.83457   1.84570   1.86259   1.86781
 Alpha virt. eigenvalues --    1.87086   1.87683   1.88672   1.89275   1.90914
 Alpha virt. eigenvalues --    1.91506   1.94809   1.95597   1.98752   1.99841
 Alpha virt. eigenvalues --    2.01363   2.03958   2.05127   2.06975   2.09869
 Alpha virt. eigenvalues --    2.11381   2.12899   2.15159   2.17338   2.19929
 Alpha virt. eigenvalues --    2.20582   2.21489   2.22102   2.23183   2.26140
 Alpha virt. eigenvalues --    2.27318   2.27894   2.29370   2.31215   2.32068
 Alpha virt. eigenvalues --    2.33591   2.34729   2.36760   2.37588   2.38311
 Alpha virt. eigenvalues --    2.39715   2.40425   2.41799   2.43746   2.45171
 Alpha virt. eigenvalues --    2.46276   2.47738   2.50290   2.50808   2.51854
 Alpha virt. eigenvalues --    2.52660   2.53864   2.55118   2.57030   2.58518
 Alpha virt. eigenvalues --    2.59231   2.60487   2.61505   2.62623   2.63090
 Alpha virt. eigenvalues --    2.64708   2.65945   2.67174   2.67589   2.69045
 Alpha virt. eigenvalues --    2.71680   2.72304   2.73130   2.74021   2.75348
 Alpha virt. eigenvalues --    2.76185   2.76900   2.77464   2.78007   2.79426
 Alpha virt. eigenvalues --    2.80723   2.81778   2.83317   2.83730   2.84482
 Alpha virt. eigenvalues --    2.85633   2.86458   2.88361   2.90049   2.91850
 Alpha virt. eigenvalues --    2.97556   2.99674   3.01041   3.05361   3.10862
 Alpha virt. eigenvalues --    3.12547   3.15762   3.17265   3.17872   3.20576
 Alpha virt. eigenvalues --    3.21517   3.22480   3.24607   3.25998   3.27076
 Alpha virt. eigenvalues --    3.27428   3.29774   3.33576   3.34566   3.36795
 Alpha virt. eigenvalues --    3.37328   3.39021   3.40003   3.40670   3.41995
 Alpha virt. eigenvalues --    3.42753   3.45066   3.45676   3.47054   3.48220
 Alpha virt. eigenvalues --    3.49434   3.49943   3.55489   3.58575   3.59840
 Alpha virt. eigenvalues --    3.60651   3.90607   4.00420   4.33679   4.36002
 Alpha virt. eigenvalues --   21.65032  21.80032  22.08428  22.11047  22.12019
 Alpha virt. eigenvalues --   22.15072  22.15479  22.18679  22.20834  22.24819
 Alpha virt. eigenvalues --   22.29685  31.92926  43.63170  43.65723
          Condensed to atoms (all electrons):
               1          2          3          4          5          6
     1  O    7.958526   0.000000  -0.000233   0.000018   0.016971   0.013126
     2  O    0.000000   7.990125   0.000349   0.000019  -0.204747   0.001068
     3  N   -0.000233   0.000349   6.367280   0.371306  -0.110761   0.334373
     4  H    0.000018   0.000019   0.371306   0.401022   0.016743  -0.044877
     5  C    0.016971  -0.204747  -0.110761   0.016743   7.009097  -0.075329
     6  C    0.013126   0.001068   0.334373  -0.044877  -0.075329   5.565840
     7  C   -0.000292  -0.036242   0.385884  -0.037302   0.409543  -0.096165
     8  C   -0.000361   0.716359   0.004381  -0.000745  -0.291648   0.029669
     9  C   -0.024935   0.020393   0.012887  -0.000074  -0.517012  -0.094198
    10  H    0.004949   0.000097   0.003822   0.000024  -0.029232  -0.017927
    11  H    0.014836   0.000006  -0.001483   0.000016  -0.115429   0.026672
    12  C   -0.226793  -0.002443  -0.087742   0.015113   0.165946  -0.110601
    13  C    0.717836  -0.000029   0.000607   0.000413   0.076725   0.155158
    14  C   -0.000006  -0.013073  -0.034729  -0.009675  -0.075104   0.010396
    15  H   -0.000000   0.004165   0.005043   0.001358   0.016042   0.006208
    16  H   -0.000000   0.002447  -0.003128   0.000915  -0.004009  -0.001802
    17  H    0.000000   0.002636   0.001007   0.000784  -0.006513  -0.000926
    18  C    0.000009  -0.106271  -0.000587   0.000017  -0.269666   0.000513
    19  H   -0.000004   0.008961   0.000004  -0.000001   0.026544   0.000022
    20  H    0.000009   0.001011   0.000013  -0.000000   0.002476   0.000234
    21  H    0.000082   0.003813   0.000125   0.000001   0.043901  -0.001150
    22  C   -0.107292   0.000000   0.000021   0.000110   0.003843  -0.014152
    23  H    0.004901  -0.000000  -0.000013  -0.000053  -0.000622  -0.030582
    24  H    0.001349   0.000000  -0.000022  -0.000014  -0.000057   0.010302
    25  H    0.007381   0.000000   0.000031  -0.000002  -0.000147  -0.001282
    26  C    0.000839   0.000005  -0.028253  -0.006584  -0.000092   0.180729
    27  H   -0.000234  -0.000000   0.002352   0.000847   0.000049  -0.047703
    28  H   -0.000050  -0.000000  -0.002433   0.000453   0.000415  -0.034828
    29  H    0.000025  -0.000000   0.001341   0.001142  -0.000442  -0.047247
               7          8          9         10         11         12
     1  O   -0.000292  -0.000361  -0.024935   0.004949   0.014836  -0.226793
     2  O   -0.036242   0.716359   0.020393   0.000097   0.000006  -0.002443
     3  N    0.385884   0.004381   0.012887   0.003822  -0.001483  -0.087742
     4  H   -0.037302  -0.000745  -0.000074   0.000024   0.000016   0.015113
     5  C    0.409543  -0.291648  -0.517012  -0.029232  -0.115429   0.165946
     6  C   -0.096165   0.029669  -0.094198  -0.017927   0.026672  -0.110601
     7  C    5.392807  -0.200209  -0.179310  -0.005281   0.018666  -0.001815
     8  C   -0.200209   5.388546   0.115326  -0.005105  -0.008432  -0.036065
     9  C   -0.179310   0.115326   6.279981   0.397066   0.530894  -0.014478
    10  H   -0.005281  -0.005105   0.397066   0.549878  -0.038990  -0.018196
    11  H    0.018666  -0.008432   0.530894  -0.038990   0.517823  -0.108883
    12  C   -0.001815  -0.036065  -0.014478  -0.018196  -0.108883   7.252269
    13  C    0.014769  -0.007424  -0.269880   0.000481  -0.000805  -0.420689
    14  C    0.264305  -0.040353   0.009111  -0.001266   0.000575  -0.003277
    15  H   -0.073675   0.005477   0.000093   0.000064  -0.000003  -0.001184
    16  H   -0.024010  -0.000983   0.000667  -0.000067   0.000056   0.000702
    17  H   -0.031334  -0.007891  -0.000416   0.000201  -0.000061  -0.000001
    18  C    0.001402   0.324991   0.001296  -0.009724   0.008684  -0.002927
    19  H    0.000460  -0.055018  -0.000571  -0.000014   0.000544  -0.000197
    20  H    0.000656  -0.023952  -0.009031   0.000895  -0.002100  -0.003234
    21  H    0.001461  -0.065733  -0.009683   0.002439  -0.005802   0.006468
    22  C    0.000119  -0.000078   0.005066   0.001909   0.000585  -0.256769
    23  H    0.000008  -0.000005   0.003439  -0.000142  -0.000045   0.064045
    24  H    0.000013   0.000003  -0.002045   0.000147  -0.000119  -0.011768
    25  H    0.000004   0.000004   0.000299  -0.000055  -0.000123   0.024399
    26  C    0.003157   0.000583   0.021128  -0.000755   0.000030  -0.078512
    27  H   -0.000772   0.000004  -0.000677  -0.000081   0.000003  -0.006176
    28  H   -0.000848  -0.000011  -0.000293  -0.000021   0.000047  -0.018438
    29  H    0.003443  -0.000008  -0.000513   0.000089  -0.000010   0.021816
              13         14         15         16         17         18
     1  O    0.717836  -0.000006  -0.000000  -0.000000   0.000000   0.000009
     2  O   -0.000029  -0.013073   0.004165   0.002447   0.002636  -0.106271
     3  N    0.000607  -0.034729   0.005043  -0.003128   0.001007  -0.000587
     4  H    0.000413  -0.009675   0.001358   0.000915   0.000784   0.000017
     5  C    0.076725  -0.075104   0.016042  -0.004009  -0.006513  -0.269666
     6  C    0.155158   0.010396   0.006208  -0.001802  -0.000926   0.000513
     7  C    0.014769   0.264305  -0.073675  -0.024010  -0.031334   0.001402
     8  C   -0.007424  -0.040353   0.005477  -0.000983  -0.007891   0.324991
     9  C   -0.269880   0.009111   0.000093   0.000667  -0.000416   0.001296
    10  H    0.000481  -0.001266   0.000064  -0.000067   0.000201  -0.009724
    11  H   -0.000805   0.000575  -0.000003   0.000056  -0.000061   0.008684
    12  C   -0.420689  -0.003277  -0.001184   0.000702  -0.000001  -0.002927
    13  C    5.498402  -0.000003  -0.000025  -0.000017  -0.000001   0.000606
    14  C   -0.000003   5.072558   0.389207   0.406545   0.422622   0.001301
    15  H   -0.000025   0.389207   0.564742  -0.024603  -0.027097   0.000262
    16  H   -0.000017   0.406545  -0.024603   0.514011  -0.028763   0.000025
    17  H   -0.000001   0.422622  -0.027097  -0.028763   0.515197  -0.000177
    18  C    0.000606   0.001301   0.000262   0.000025  -0.000177   5.342971
    19  H   -0.000011   0.000083  -0.000005  -0.000026   0.000033   0.391233
    20  H   -0.000090  -0.000259  -0.000006  -0.000007   0.000022   0.397454
    21  H    0.000582   0.000076  -0.000016   0.000002  -0.000040   0.381995
    22  C    0.291684  -0.000022   0.000002   0.000000  -0.000000   0.000026
    23  H   -0.092214   0.000000   0.000000   0.000000   0.000000   0.000003
    24  H   -0.023075  -0.000001   0.000000   0.000000   0.000000  -0.000002
    25  H   -0.041638   0.000000  -0.000000  -0.000000   0.000000  -0.000001
    26  C   -0.057774   0.001253   0.000080  -0.000154   0.000050   0.000019
    27  H   -0.004924   0.000090  -0.000012   0.000001  -0.000002  -0.000000
    28  H    0.006498  -0.000113   0.000001  -0.000010   0.000004  -0.000001
    29  H   -0.000494  -0.000237   0.000130   0.000001  -0.000003   0.000000
              19         20         21         22         23         24
     1  O   -0.000004   0.000009   0.000082  -0.107292   0.004901   0.001349
     2  O    0.008961   0.001011   0.003813   0.000000  -0.000000   0.000000
     3  N    0.000004   0.000013   0.000125   0.000021  -0.000013  -0.000022
     4  H   -0.000001  -0.000000   0.000001   0.000110  -0.000053  -0.000014
     5  C    0.026544   0.002476   0.043901   0.003843  -0.000622  -0.000057
     6  C    0.000022   0.000234  -0.001150  -0.014152  -0.030582   0.010302
     7  C    0.000460   0.000656   0.001461   0.000119   0.000008   0.000013
     8  C   -0.055018  -0.023952  -0.065733  -0.000078  -0.000005   0.000003
     9  C   -0.000571  -0.009031  -0.009683   0.005066   0.003439  -0.002045
    10  H   -0.000014   0.000895   0.002439   0.001909  -0.000142   0.000147
    11  H    0.000544  -0.002100  -0.005802   0.000585  -0.000045  -0.000119
    12  C   -0.000197  -0.003234   0.006468  -0.256769   0.064045  -0.011768
    13  C   -0.000011  -0.000090   0.000582   0.291684  -0.092214  -0.023075
    14  C    0.000083  -0.000259   0.000076  -0.000022   0.000000  -0.000001
    15  H   -0.000005  -0.000006  -0.000016   0.000002   0.000000   0.000000
    16  H   -0.000026  -0.000007   0.000002   0.000000   0.000000   0.000000
    17  H    0.000033   0.000022  -0.000040  -0.000000   0.000000   0.000000
    18  C    0.391233   0.397454   0.381995   0.000026   0.000003  -0.000002
    19  H    0.510852  -0.010481  -0.022255  -0.000000   0.000000   0.000000
    20  H   -0.010481   0.497020  -0.024655  -0.000012  -0.000000   0.000000
    21  H   -0.022255  -0.024655   0.531126   0.000019  -0.000000  -0.000000
    22  C   -0.000000  -0.000012   0.000019   5.418568   0.398074   0.402175
    23  H    0.000000  -0.000000  -0.000000   0.398074   0.536973  -0.025934
    24  H    0.000000   0.000000  -0.000000   0.402175  -0.025934   0.491131
    25  H   -0.000000   0.000000  -0.000000   0.382929  -0.022159  -0.008696
    26  C    0.000000   0.000005  -0.000015  -0.030383   0.015835  -0.013189
    27  H   -0.000000   0.000000  -0.000000   0.007849  -0.009334  -0.000795
    28  H    0.000000  -0.000000  -0.000000  -0.011237  -0.001408   0.001044
    29  H    0.000000  -0.000000   0.000000   0.001865   0.000679   0.000187
              25         26         27         28         29
     1  O    0.007381   0.000839  -0.000234  -0.000050   0.000025
     2  O    0.000000   0.000005  -0.000000  -0.000000  -0.000000
     3  N    0.000031  -0.028253   0.002352  -0.002433   0.001341
     4  H   -0.000002  -0.006584   0.000847   0.000453   0.001142
     5  C   -0.000147  -0.000092   0.000049   0.000415  -0.000442
     6  C   -0.001282   0.180729  -0.047703  -0.034828  -0.047247
     7  C    0.000004   0.003157  -0.000772  -0.000848   0.003443
     8  C    0.000004   0.000583   0.000004  -0.000011  -0.000008
     9  C    0.000299   0.021128  -0.000677  -0.000293  -0.000513
    10  H   -0.000055  -0.000755  -0.000081  -0.000021   0.000089
    11  H   -0.000123   0.000030   0.000003   0.000047  -0.000010
    12  C    0.024399  -0.078512  -0.006176  -0.018438   0.021816
    13  C   -0.041638  -0.057774  -0.004924   0.006498  -0.000494
    14  C    0.000000   0.001253   0.000090  -0.000113  -0.000237
    15  H   -0.000000   0.000080  -0.000012   0.000001   0.000130
    16  H   -0.000000  -0.000154   0.000001  -0.000010   0.000001
    17  H    0.000000   0.000050  -0.000002   0.000004  -0.000003
    18  C   -0.000001   0.000019  -0.000000  -0.000001   0.000000
    19  H   -0.000000   0.000000  -0.000000   0.000000   0.000000
    20  H    0.000000   0.000005   0.000000  -0.000000  -0.000000
    21  H   -0.000000  -0.000015  -0.000000  -0.000000   0.000000
    22  C    0.382929  -0.030383   0.007849  -0.011237   0.001865
    23  H   -0.022159   0.015835  -0.009334  -0.001408   0.000679
    24  H   -0.008696  -0.013189  -0.000795   0.001044   0.000187
    25  H    0.499726   0.002045   0.000783   0.000117  -0.000042
    26  C    0.002045   5.256992   0.428377   0.428578   0.390275
    27  H    0.000783   0.428377   0.511888  -0.026980  -0.025805
    28  H    0.000117   0.428578  -0.026980   0.480066  -0.017046
    29  H   -0.000042   0.390275  -0.025805  -0.017046   0.510458
 Mulliken charges:
               1
     1  O   -0.380656
     2  O   -0.388649
     3  N   -0.221442
     4  H    0.289027
     5  C   -0.087485
     6  C    0.284460
     7  C    0.190558
     8  C    0.158678
     9  C   -0.274529
    10  H    0.164795
    11  H    0.162849
    12  C   -0.140572
    13  C    0.155330
    14  C   -0.400004
    15  H    0.133750
    16  H    0.162208
    17  H    0.160669
    18  C   -0.463451
    19  H    0.149847
    20  H    0.174034
    21  H    0.157260
    22  C   -0.494899
    23  H    0.158555
    24  H    0.179369
    25  H    0.156426
    26  C   -0.514267
    27  H    0.171251
    28  H    0.196495
    29  H    0.160393
 Sum of Mulliken charges =  -0.00000
 Mulliken charges with hydrogens summed into heavy atoms:
               1
     1  O   -0.380656
     2  O   -0.388649
     3  N    0.067585
     5  C   -0.087485
     6  C    0.284460
     7  C    0.190558
     8  C    0.158678
     9  C    0.053115
    12  C   -0.140572
    13  C    0.155330
    14  C    0.056624
    18  C    0.017691
    22  C   -0.000549
    26  C    0.013871
 Electronic spatial extent (au):  <R**2>=           3189.6971
 Charge=             -0.0000 electrons
 Dipole moment (field-independent basis, Debye):
    X=             -4.0519    Y=              7.8107    Z=             -0.3348  Tot=              8.8055
 Quadrupole moment (field-independent basis, Debye-Ang):
   XX=            -99.5293   YY=            -78.2150   ZZ=            -84.8772
   XY=            -12.9617   XZ=             -5.4299   YZ=             -1.7739
 Traceless Quadrupole moment (field-independent basis, Debye-Ang):
   XX=            -11.9888   YY=              9.3255   ZZ=              2.6633
   XY=            -12.9617   XZ=             -5.4299   YZ=             -1.7739
 Octapole moment (field-independent basis, Debye-Ang**2):
  XXX=           -110.9573  YYY=             67.4364  ZZZ=              1.5335  XYY=             35.3886
  XXY=             33.0154  XXZ=             -9.8156  XZZ=             -2.1067  YZZ=             -0.9987
  YYZ=              3.2159  XYZ=              5.3144
 Hexadecapole moment (field-independent basis, Debye-Ang**3):
 XXXX=          -3061.6628 YYYY=          -1274.6594 ZZZZ=           -152.7224 XXXY=            -39.8496
 XXXZ=            -62.4987 YYYX=            -90.6280 YYYZ=            -21.9624 ZZZX=              2.6233
 ZZZY=              4.8354 XXYY=           -694.8656 XXZZ=           -485.2640 YYZZ=           -242.7498
 XXYZ=             -6.9925 YYXZ=             -7.8400 ZZXY=              0.5815
 N-N= 9.006917881709D+02 E-N=-3.277378038277D+03  KE= 6.307289831908D+02
 No NMR shielding tensors so no spin-rotation constants.
 Leave Link  601 at Sat Jan 24 23:06:54 2026, MaxMem=  2147483648 cpu:               1.8 elap:               0.1
 (Enter /data/home/wyx/g16/l9999.exe)
 1\1\GINC-CN012\SP\RCAM-B3LYP\TZVP\C11H15N1O2\WYX\24-Jan-2026\0\\#p CAM
 -B3LYP TZVP em=gd3bj scrf=(Solvent=Water,NonEquilibrium=Read) Geom=Che
 ck Guess=Read\\Title Card Required\\0,1\O,0,2.736562,-1.558765,0.78272
 4\O,0,-3.25261,-1.647715,-1.041378\N,0,-0.701254,1.514567,0.064713\H,0
 ,-1.009553,2.473113,0.003872\C,0,-1.249814,-0.759996,-0.159153\C,0,0.6
 41843,1.311891,0.256708\C,0,-1.622369,0.55464,-0.247371\C,0,-2.155765,
 -1.839887,-0.520997\C,0,0.104613,-1.09751,0.383577\H,0,0.017221,-1.457
 881,1.419476\H,0,0.529152,-1.948457,-0.149567\C,0,1.097202,0.025506,0.
 344498\C,0,2.488014,-0.392151,0.475172\C,0,-2.953268,1.090107,-0.64815
 5\H,0,-3.030675,2.151849,-0.425167\H,0,-3.120866,0.955123,-1.713222\H,
 0,-3.756516,0.566584,-0.143732\C,0,-1.716646,-3.2539,-0.25212\H,0,-2.5
 62582,-3.923713,-0.357175\H,0,-0.953131,-3.556904,-0.966656\H,0,-1.286
 909,-3.373223,0.738368\C,0,3.647841,0.534095,0.20527\H,0,3.455008,1.23
 8579,-0.599248\H,0,3.897516,1.102135,1.103333\H,0,4.509131,-0.07932,-0
 .049751\C,0,1.416781,2.586009,0.355855\H,0,2.220966,2.519656,1.077988\
 H,0,1.845994,2.865882,-0.605873\H,0,0.764112,3.399688,0.66801\\Version
 =ES64L-G16RevA.03\State=1-A\HF=-633.3305877\RMSD=8.367e-09\Dipole=0.42
 74464,3.432109,0.199347\Quadrupole=-11.0218752,11.2569518,-0.2350766,2
 .3345853,-6.8531108,0.2809231\PG=C01 [X(C11H15N1O2)]\\@


 I HAVE NOT FAILED, I HAVE ONLY DISCOVERED 10,000
 WAYS THAT DIDN'T WORK.  -- THOMAS A. EDISON
 Job cpu time:       0 days  0 hours 12 minutes 41.8 seconds.
 Elapsed time:       0 days  0 hours  0 minutes 48.5 seconds.
 File lengths (MBytes):  RWF=    342 Int=      0 D2E=      0 Chk=     67 Scr=      1
 Normal termination of Gaussian 16 at Sat Jan 24 23:06:54 2026.
