 Entering Gaussian System, Link 0=g16
 Input=DDL-S1-cLR-15.gjf
 Output=DDL-S1-cLR-15.log
 Initial command:
 /data/home/wyx/g16/l1.exe "/scr/tmp/wyx/13117/Gau-2029757.inp" -scrdir="/scr/tmp/wyx/13117/"
 Entering Link 1 = /data/home/wyx/g16/l1.exe PID=   2029758.
  
 Copyright (c) 1988,1990,1992,1993,1995,1998,2003,2009,2016,
            Gaussian, Inc.  All Rights Reserved.
  
 This is part of the Gaussian(R) 16 program.  It is based on
 the Gaussian(R) 09 system (copyright 2009, Gaussian, Inc.),
 the Gaussian(R) 03 system (copyright 2003, Gaussian, Inc.),
 the Gaussian(R) 98 system (copyright 1998, Gaussian, Inc.),
 the Gaussian(R) 94 system (copyright 1995, Gaussian, Inc.),
 the Gaussian 92(TM) system (copyright 1992, Gaussian, Inc.),
 the Gaussian 90(TM) system (copyright 1990, Gaussian, Inc.),
 the Gaussian 88(TM) system (copyright 1988, Gaussian, Inc.),
 the Gaussian 86(TM) system (copyright 1986, Carnegie Mellon
 University), and the Gaussian 82(TM) system (copyright 1983,
 Carnegie Mellon University). Gaussian is a federally registered
 trademark of Gaussian, Inc.
  
 This software contains proprietary and confidential information,
 including trade secrets, belonging to Gaussian, Inc.
  
 This software is provided under written license and may be
 used, copied, transmitted, or stored only in accord with that
 written license.
  
 The following legend is applicable only to US Government
 contracts under FAR:
  
                    RESTRICTED RIGHTS LEGEND
  
 Use, reproduction and disclosure by the US Government is
 subject to restrictions as set forth in subparagraphs (a)
 and (c) of the Commercial Computer Software - Restricted
 Rights clause in FAR 52.227-19.
  
 Gaussian, Inc.
 340 Quinnipiac St., Bldg. 40, Wallingford CT 06492
  
  
 ---------------------------------------------------------------
 Warning -- This program may not be used in any manner that
 competes with the business of Gaussian, Inc. or will provide
 assistance to any competitor of Gaussian, Inc.  The licensee
 of this program is prohibited from giving any competitor of
 Gaussian, Inc. access to this program.  By using this program,
 the user acknowledges that Gaussian, Inc. is engaged in the
 business of creating and licensing software in the field of
 computational chemistry and represents and warrants to the
 licensee that it is not a competitor of Gaussian, Inc. and that
 it will not use this program in any manner prohibited above.
 ---------------------------------------------------------------
  

 Cite this work as:
 Gaussian 16, Revision A.03,
 M. J. Frisch, G. W. Trucks, H. B. Schlegel, G. E. Scuseria, 
 M. A. Robb, J. R. Cheeseman, G. Scalmani, V. Barone, 
 G. A. Petersson, H. Nakatsuji, X. Li, M. Caricato, A. V. Marenich, 
 J. Bloino, B. G. Janesko, R. Gomperts, B. Mennucci, H. P. Hratchian, 
 J. V. Ortiz, A. F. Izmaylov, J. L. Sonnenberg, D. Williams-Young, 
 F. Ding, F. Lipparini, F. Egidi, J. Goings, B. Peng, A. Petrone, 
 T. Henderson, D. Ranasinghe, V. G. Zakrzewski, J. Gao, N. Rega, 
 G. Zheng, W. Liang, M. Hada, M. Ehara, K. Toyota, R. Fukuda, 
 J. Hasegawa, M. Ishida, T. Nakajima, Y. Honda, O. Kitao, H. Nakai, 
 T. Vreven, K. Throssell, J. A. Montgomery, Jr., J. E. Peralta, 
 F. Ogliaro, M. J. Bearpark, J. J. Heyd, E. N. Brothers, K. N. Kudin, 
 V. N. Staroverov, T. A. Keith, R. Kobayashi, J. Normand, 
 K. Raghavachari, A. P. Rendell, J. C. Burant, S. S. Iyengar, 
 J. Tomasi, M. Cossi, J. M. Millam, M. Klene, C. Adamo, R. Cammi, 
 J. W. Ochterski, R. L. Martin, K. Morokuma, O. Farkas, 
 J. B. Foresman, and D. J. Fox, Gaussian, Inc., Wallingford CT, 2016.
 
 ******************************************
 Gaussian 16:  ES64L-G16RevA.03 25-Dec-2016
                24-Jan-2026 
 ******************************************
 %nprocshared=16
 Will use up to   16 processors via shared memory.
 %mem=16GB
 %oldchk=DDL-LR-15.chk
 %chk=DDL-S1-cLR-15.chk
 Copying data from "DDL-LR-15.chk" to current chk file "DDL-S1-cLR-15.chk"
 IOpt=  2 FromEx=T IUOpen= 4 IOptOp= 5 NList=   0 IFRang= 0 IUIn= 4 IUOut= 2.
 ----------------------------------------------------------------------
 #p CAM-B3LYP TZVP em=gd3bj td(nstates=6,root=1) scrf=(Solvent=Water,Co
 rrectedLR,NonEquilibrium=Save) Geom=Check Guess=Read
 ----------------------------------------------------------------------
 1/29=2,30=1,38=1,172=1/1;
 2/12=2,40=1/2;
 3/5=19,7=101,11=9,14=-4,25=1,30=1,70=9002201,71=1,72=1,74=-40,116=-2,124=41/1,2,3,8;
 4/5=1/1;
 5/5=2,38=6,53=1/2;
 8/6=1,10=1,107=1,108=6/1;
 9/8=1,15=1,41=6,42=1,70=2,73=22/14;
 10/5=4,13=10,28=1,74=20/2;
 6/7=2,8=2,9=2,10=2,22=-1/1;
 99/5=1,9=1/99;
 Leave Link    1 at Sat Jan 24 22:14:35 2026, MaxMem=  2147483648 cpu:               1.9 elap:               0.2
 (Enter /data/home/wyx/g16/l101.exe)
 -------------------
 Title Card Required
 -------------------
 Structure from the checkpoint file:  "DDL-S1-cLR-15.chk"
 Charge =  0 Multiplicity = 1
 Z-Matrix found in chk file.
 O,0,2.746546,-1.558123,0.737766
 O,0,-3.22321,-1.639939,-1.11514
 N,0,-0.71107,1.513087,0.129253
 H,0,-1.019221,2.470539,0.07242
 C,0,-1.248072,-0.7583,-0.151096
 C,0,0.640803,1.300052,0.285491
 C,0,-1.619756,0.543854,-0.224344
 C,0,-2.15063,-1.834552,-0.551376
 C,0,0.095979,-1.106861,0.439648
 H,0,-0.01587,-1.425438,1.485019
 H,0,0.524215,-1.968853,-0.06775
 C,0,1.092932,0.024536,0.361494
 C,0,2.492023,-0.390317,0.454092
 C,0,-2.942585,1.083269,-0.659628
 H,0,-3.041375,2.129495,-0.373288
 H,0,-3.047448,1.011949,-1.741346
 H,0,-3.760301,0.514246,-0.230149
 C,0,-1.724005,-3.249324,-0.251994
 H,0,-2.557668,-3.920988,-0.434587
 H,0,-0.893828,-3.537601,-0.898591
 H,0,-1.380908,-3.359864,0.775895
 C,0,3.646811,0.539681,0.173938
 H,0,3.447227,1.236456,-0.635747
 H,0,3.89356,1.116566,1.066869
 H,0,4.510855,-0.071257,-0.07684
 C,0,1.419002,2.578069,0.348051
 H,0,2.261965,2.517322,1.02505
 H,0,1.788791,2.857489,-0.639194
 H,0,0.775236,3.384809,0.696084
 Recover connectivity data from disk.
 ITRead=  0  0  0  0  0  0  0  0  0  0  0  0  0  0  0  0  0  0  0  0
 ITRead=  0  0  0  0  0  0  0  0  0
 MicOpt= -1 -1 -1 -1 -1 -1 -1 -1 -1 -1 -1 -1 -1 -1 -1 -1 -1 -1 -1 -1
 MicOpt= -1 -1 -1 -1 -1 -1 -1 -1 -1
 NAtoms=     29 NQM=       29 NQMF=       0 NMMI=      0 NMMIF=      0
                NMic=       0 NMicF=      0.
                    Isotopes and Nuclear Properties:
 (Nuclear quadrupole moments (NQMom) in fm**2, nuclear magnetic moments (NMagM)
  in nuclear magnetons)

  Atom         1           2           3           4           5           6           7           8           9          10
 IAtWgt=          16          16          14           1          12          12          12          12          12           1
 AtmWgt=  15.9949146  15.9949146  14.0030740   1.0078250  12.0000000  12.0000000  12.0000000  12.0000000  12.0000000   1.0078250
 NucSpn=           0           0           2           1           0           0           0           0           0           1
 AtZEff=   5.6000000   5.6000000   4.5500000   1.0000000   3.6000000   3.6000000   3.6000000   3.6000000   3.6000000   1.0000000
 NQMom=    0.0000000   0.0000000   2.0440000   0.0000000   0.0000000   0.0000000   0.0000000   0.0000000   0.0000000   0.0000000
 NMagM=    0.0000000   0.0000000   0.4037610   2.7928460   0.0000000   0.0000000   0.0000000   0.0000000   0.0000000   2.7928460
 AtZNuc=   8.0000000   8.0000000   7.0000000   1.0000000   6.0000000   6.0000000   6.0000000   6.0000000   6.0000000   1.0000000

  Atom        11          12          13          14          15          16          17          18          19          20
 IAtWgt=           1          12          12          12           1           1           1          12           1           1
 AtmWgt=   1.0078250  12.0000000  12.0000000  12.0000000   1.0078250   1.0078250   1.0078250  12.0000000   1.0078250   1.0078250
 NucSpn=           1           0           0           0           1           1           1           0           1           1
 AtZEff=   1.0000000   3.6000000   3.6000000   3.6000000   1.0000000   1.0000000   1.0000000   3.6000000   1.0000000   1.0000000
 NQMom=    0.0000000   0.0000000   0.0000000   0.0000000   0.0000000   0.0000000   0.0000000   0.0000000   0.0000000   0.0000000
 NMagM=    2.7928460   0.0000000   0.0000000   0.0000000   2.7928460   2.7928460   2.7928460   0.0000000   2.7928460   2.7928460
 AtZNuc=   1.0000000   6.0000000   6.0000000   6.0000000   1.0000000   1.0000000   1.0000000   6.0000000   1.0000000   1.0000000

  Atom        21          22          23          24          25          26          27          28          29
 IAtWgt=           1          12           1           1           1          12           1           1           1
 AtmWgt=   1.0078250  12.0000000   1.0078250   1.0078250   1.0078250  12.0000000   1.0078250   1.0078250   1.0078250
 NucSpn=           1           0           1           1           1           0           1           1           1
 AtZEff=   1.0000000   3.6000000   1.0000000   1.0000000   1.0000000   3.6000000   1.0000000   1.0000000   1.0000000
 NQMom=    0.0000000   0.0000000   0.0000000   0.0000000   0.0000000   0.0000000   0.0000000   0.0000000   0.0000000
 NMagM=    2.7928460   0.0000000   2.7928460   2.7928460   2.7928460   0.0000000   2.7928460   2.7928460   2.7928460
 AtZNuc=   1.0000000   6.0000000   1.0000000   1.0000000   1.0000000   6.0000000   1.0000000   1.0000000   1.0000000
 Leave Link  101 at Sat Jan 24 22:14:37 2026, MaxMem=  2147483648 cpu:               0.8 elap:               0.1
 (Enter /data/home/wyx/g16/l202.exe)
                          Input orientation:                          
 ---------------------------------------------------------------------
 Center     Atomic      Atomic             Coordinates (Angstroms)
 Number     Number       Type             X           Y           Z
 ---------------------------------------------------------------------
      1          8           0        2.746546   -1.558123    0.737766
      2          8           0       -3.223210   -1.639939   -1.115140
      3          7           0       -0.711070    1.513087    0.129253
      4          1           0       -1.019221    2.470539    0.072420
      5          6           0       -1.248072   -0.758300   -0.151096
      6          6           0        0.640803    1.300052    0.285491
      7          6           0       -1.619756    0.543854   -0.224344
      8          6           0       -2.150630   -1.834552   -0.551376
      9          6           0        0.095979   -1.106861    0.439648
     10          1           0       -0.015870   -1.425438    1.485019
     11          1           0        0.524215   -1.968853   -0.067750
     12          6           0        1.092932    0.024536    0.361494
     13          6           0        2.492023   -0.390317    0.454092
     14          6           0       -2.942585    1.083269   -0.659628
     15          1           0       -3.041375    2.129495   -0.373288
     16          1           0       -3.047448    1.011949   -1.741346
     17          1           0       -3.760301    0.514246   -0.230149
     18          6           0       -1.724005   -3.249324   -0.251994
     19          1           0       -2.557668   -3.920988   -0.434587
     20          1           0       -0.893828   -3.537601   -0.898591
     21          1           0       -1.380908   -3.359864    0.775895
     22          6           0        3.646811    0.539681    0.173938
     23          1           0        3.447227    1.236456   -0.635747
     24          1           0        3.893560    1.116566    1.066869
     25          1           0        4.510855   -0.071257   -0.076840
     26          6           0        1.419002    2.578069    0.348051
     27          1           0        2.261965    2.517322    1.025050
     28          1           0        1.788791    2.857489   -0.639194
     29          1           0        0.775236    3.384809    0.696084
 ---------------------------------------------------------------------
                    Distance matrix (angstroms):
                    1          2          3          4          5
     1  O    0.000000
     2  O    6.251235   0.000000
     3  N    4.664518   4.219115   0.000000
     4  H    5.554620   4.812888   1.007423   0.000000
     5  C    4.169744   2.368087   2.350780   3.244647   0.000000
     6  C    3.578809   5.053307   1.377445   2.042332   2.827591
     7  C    4.940502   2.851935   1.374829   2.039810   1.356141
     8  C    5.071551   1.227246   3.707058   4.494777   1.460532
     9  C    2.705183   3.703857   2.758949   3.765145   1.508955
    10  H    2.864775   4.134473   3.310035   4.263893   2.154128
    11  H    2.399231   3.904921   3.699817   4.702132   2.147879
    12  C    2.319661   4.855925   2.350350   3.244639   2.521087
    13  C    1.228423   6.057056   3.740090   4.545218   3.806570
    14  C    6.426187   2.775266   2.405564   2.481883   2.553694
    15  H    6.952194   3.846042   2.462281   2.098588   3.406562
    16  H    6.806000   2.730483   3.034624   3.087222   2.983359
    17  H    6.897147   2.390019   3.228725   3.381146   2.817253
    18  C    4.881149   2.362786   4.883845   5.772244   2.538088
    19  H    5.923869   2.471696   5.766889   6.593595   3.434822
    20  H    4.455145   3.012314   5.157452   6.087391   2.899785
    21  H    4.503732   3.150910   4.961097   5.883816   2.764976
    22  C    2.351417   7.321861   4.465495   5.050779   5.074474
    23  H    3.191734   7.279986   4.237120   4.687603   5.124429
    24  H    2.928807   7.937751   4.715821   5.192070   5.606687
    25  H    2.446863   7.959560   5.460872   6.088082   5.800240
    26  C    4.361460   6.440703   2.391499   2.456108   4.300441
    27  H    4.114195   7.207661   3.263415   3.416998   4.943013
    28  H    4.723446   6.750818   2.940618   2.922509   4.747073
    29  H    5.321689   6.672046   2.456368   2.108298   4.687946
                    6          7          8          9         10
     6  C    0.000000
     7  C    2.437600   0.000000
     8  C    4.279975   2.458779   0.000000
     9  C    2.472616   2.471739   2.561038   0.000000
    10  H    3.049325   3.061451   2.978503   1.098545   0.000000
    11  H    3.290002   3.306785   2.721530   1.088057   1.731497
    12  C    1.355411   2.823398   3.848407   1.509994   2.143403
    13  C    2.512526   4.270794   4.964978   2.500934   2.902381
    14  C    3.712265   1.493425   3.025325   3.903581   4.411211
    15  H    3.831501   2.134817   4.066794   4.580159   5.024394
    16  H    4.218325   2.135114   3.212924   4.373468   5.053786
    17  H    4.500344   2.140758   2.865498   4.236450   4.552465
    18  C    5.155388   3.794711   1.507720   2.894971   3.043271
    19  H    6.165062   4.567132   2.128975   3.965531   4.046405
    20  H    5.211528   4.199983   2.144874   2.946031   3.303580
    21  H    5.103198   4.036897   2.163492   2.714826   2.471475
    22  C    3.102691   5.281607   6.306614   3.923023   4.358424
    23  H    2.954444   5.130620   6.385469   4.228294   4.855550
    24  H    3.350320   5.691387   6.918096   4.445071   4.681910
    25  H    4.121781   6.163157   6.907226   4.564030   4.976389
    26  C    1.497610   3.701313   5.746518   3.916311   4.402229
    27  H    2.157976   4.530267   6.394914   4.262498   4.576621
    28  H    2.144418   4.140435   6.127153   4.443600   5.110044
    29  H    2.129054   3.828080   6.112166   4.549972   4.938294
                   11         12         13         14         15
    11  H    0.000000
    12  C    2.116906   0.000000
    13  C    2.576114   1.462236   0.000000
    14  C    4.656659   4.295230   5.739930   0.000000
    15  H    5.440886   4.697154   6.136164   1.089192   0.000000
    16  H    4.943974   4.747596   6.121441   1.089127   1.766502
    17  H    4.954718   4.913627   6.354367   1.084850   1.773802
    18  C    2.593848   4.362300   5.142701   4.519122   5.539122
    19  H    3.666525   5.433947   6.225333   5.024081   6.070097
    20  H    2.272028   4.268940   4.816548   5.060331   6.083081
    21  H    2.505223   4.212574   4.890947   4.923514   5.849003
    22  C    4.012700   2.612058   1.508946   6.664117   6.896289
    23  H    4.375000   2.829478   2.178659   6.391693   6.555025
    24  H    4.707404   3.087653   2.147207   7.050871   7.154956
    25  H    4.415230   3.447247   2.111722   7.564809   7.871936
    26  C    4.652745   2.574302   3.158154   4.719458   4.540541
    27  H    4.933534   2.832124   2.972084   5.655262   5.498288
    28  H    5.021880   3.084026   3.498293   5.053137   4.891951
    29  H    5.413700   3.391801   4.154214   4.577907   4.157630
                   16         17         18         19         20
    16  H    0.000000
    17  H    1.743440   0.000000
    18  C    4.704053   4.279187   0.000000
    19  H    5.126536   4.599937   1.086033   0.000000
    20  H    5.103599   5.008088   1.091048   1.769364   0.000000
    21  H    5.312872   4.656433   1.089261   1.779014   1.752923
    22  C    6.978858   7.418170   6.586626   7.665731   6.196124
    23  H    6.591931   7.254968   6.856466   7.918236   6.457977
    24  H    7.488298   7.786311   7.235844   8.321638   6.960128
    25  H    7.814849   8.293271   7.000305   8.056825   6.473130
    26  C    5.173730   5.605253   6.648087   7.659254   6.656179
    27  H    6.173246   6.469585   7.125518   8.173814   7.093766
    28  H    5.292444   6.037427   7.055694   8.054894   6.939806
    29  H    5.117074   5.446938   7.152397   8.109336   7.297159
                   21         22         23         24         25
    21  H    0.000000
    22  C    6.391147   0.000000
    23  H    6.813940   1.086701   0.000000
    24  H    6.924096   1.091333   1.764224   0.000000
    25  H    6.801100   1.087523   1.775893   1.760695   0.000000
    26  C    6.578875   3.024644   2.623258   2.962453   4.093778
    27  H    6.919098   2.559932   2.409089   2.150806   3.601723
    28  H    7.120741   3.079879   2.319088   3.220484   4.037750
    29  H    7.081380   4.075946   3.678142   3.873803   5.147490
                   26         27         28         29
    26  C    0.000000
    27  H    1.082869   0.000000
    28  H    1.090629   1.763325   0.000000
    29  H    1.089216   1.752460   1.757364   0.000000
 Stoichiometry    C11H15NO2
 Framework group  C1[X(C11H15NO2)]
 Deg. of freedom    81
 Full point group                 C1      NOp   1
 RotChk:  IX=0 Diff= 4.65D-16
 Largest Abelian subgroup         C1      NOp   1
 Largest concise Abelian subgroup C1      NOp   1
                         Standard orientation:                         
 ---------------------------------------------------------------------
 Center     Atomic      Atomic             Coordinates (Angstroms)
 Number     Number       Type             X           Y           Z
 ---------------------------------------------------------------------
      1          8           0       -2.286050   -2.280817   -0.180355
      2          8           0        3.588627   -0.247297    0.476077
      3          7           0       -0.027596    1.799830   -0.254082
      4          1           0       -0.058022    2.806787   -0.257691
      5          6           0        1.290478   -0.139299   -0.084889
      6          6           0       -1.231076    1.138776   -0.144542
      7          6           0        1.204620    1.214122   -0.084547
      8          6           0        2.561931   -0.824651    0.131565
      9          6           0        0.060664   -0.953675   -0.403161
     10          1           0        0.080595   -1.284514   -1.450515
     11          1           0        0.051214   -1.873905    0.177318
     12          6           0       -1.228986   -0.216574   -0.131925
     13          6           0       -2.395841   -1.079018    0.049102
     14          6           0        2.321576    2.190758    0.085475
     15          1           0        2.005007    3.188981   -0.213983
     16          1           0        2.640635    2.229458    1.126100
     17          1           0        3.190559    1.899885   -0.495180
     18          6           0        2.593931   -2.317114   -0.079976
     19          1           0        3.624570   -2.659132   -0.063410
     20          1           0        2.044331   -2.822531    0.715560
     21          1           0        2.126695   -2.602722   -1.021575
     22          6           0       -3.725724   -0.570711    0.549056
     23          1           0       -3.629921    0.204188    1.304882
     24          1           0       -4.312788   -0.168800   -0.278488
     25          1           0       -4.269488   -1.416823    0.962725
     26          6           0       -2.394466    2.077458   -0.053790
     27          1           0       -3.275517    1.695109   -0.553952
     28          1           0       -2.649715    2.281715    0.986690
     29          1           0       -2.138226    3.027972   -0.519898
 ---------------------------------------------------------------------
 Rotational constants (GHZ):           1.0783990           0.4908234           0.3471640
 Leave Link  202 at Sat Jan 24 22:14:37 2026, MaxMem=  2147483648 cpu:               0.0 elap:               0.0
 (Enter /data/home/wyx/g16/l301.exe)
 Standard basis: TZVP (5D, 7F)
 Ernie: Thresh=  0.10000D-02 Tol=  0.10000D-05 Strict=F.
 There are   370 symmetry adapted cartesian basis functions of A   symmetry.
 There are   356 symmetry adapted basis functions of A   symmetry.
   356 basis functions,   610 primitive gaussians,   370 cartesian basis functions
    52 alpha electrons       52 beta electrons
       nuclear repulsion energy       900.8140258419 Hartrees.
 IExCor=20419 DFT=T Ex+Corr=CAM-B3LYP ExCW=0 ScaHFX=  1.000000
 ScaDFX=  1.000000  1.000000  1.000000  0.810000 ScalE2=  1.000000  1.000000
 IRadAn=      5 IRanWt=     -1 IRanGd=            0 ICorTp=0 IEmpDi=141
 HFx  wShort=  0.000000 wLong=  0.330000 cFull=  0.190000 cShort=  0.000000 cLong=  0.460000
 DFx  wShort=  0.000000 wLong=  0.330000 cFull=  0.190000 cShort=  0.000000 cLong=  0.460000
 NAtoms=   29 NActive=   29 NUniq=   29 SFac= 1.00D+00 NAtFMM=   60 NAOKFM=F Big=F
 Integral buffers will be    131072 words long.
 Raffenetti 1 integral format.
 Two-electron integral symmetry is turned on.
 R6Disp:  Grimme-D3(BJ) Dispersion energy=       -0.0262164682 Hartrees.
 Nuclear repulsion after empirical dispersion term =      900.7878093737 Hartrees.
 ------------------------------------------------------------------------------
 Polarizable Continuum Model (PCM)
 =================================
 Model                : PCM.
 Atomic radii         : UFF (Universal Force Field).
 Polarization charges : Total charges.
 Charge compensation  : None.
 Solution method      : On-the-fly selection.
 Cavity type          : Scaled VdW (van der Waals Surface) (Alpha=1.100).
 Cavity algorithm     : GePol (No added spheres)
                        Default sphere list used, NSphG=   29.
                        Lebedev-Laikov grids with approx.  5.0 points / Ang**2.
                        Smoothing algorithm: York/Karplus (Gamma=1.0000).
                        Polarization charges: spherical gaussians, with
                                              point-specific exponents (IZeta= 3).
                        Self-potential: point-specific (ISelfS= 7).
                        Self-field    : sphere-specific E.n sum rule (ISelfD= 2).
 1st derivatives      : Analytical E(r).r(x)/FMM algorithm (CHGder, D1EAlg=3).
                        Cavity 1st derivative terms included.
 Solvent              : Water, Eps=  78.355300 Eps(inf)=   1.777849
 ------------------------------------------------------------------------------
 GePol: Number of generator spheres                  =      29
 GePol: Total number of spheres                      =      29
 GePol: Number of exposed spheres                    =      29 (100.00%)
 GePol: Number of points                             =    2088
 GePol: Average weight of points                     =       0.13
 GePol: Minimum weight of points                     =   0.43D-10
 GePol: Maximum weight of points                     =    0.20577
 GePol: Number of points with low weight             =     135
 GePol: Fraction of low-weight points (<1% of avg)   =       6.47%
 GePol: Cavity surface area                          =    268.615 Ang**2
 GePol: Cavity volume                                =    286.701 Ang**3
 Leave Link  301 at Sat Jan 24 22:14:38 2026, MaxMem=  2147483648 cpu:               0.6 elap:               0.0
 (Enter /data/home/wyx/g16/l302.exe)
 NPDir=0 NMtPBC=     1 NCelOv=     1 NCel=       1 NClECP=     1 NCelD=      1
         NCelK=      1 NCelE2=     1 NClLst=     1 CellRange=     0.0.
 One-electron integrals computed using PRISM.
 One-electron integral symmetry used in STVInt
 NBasis=   356 RedAO= T EigKep=  4.71D-05  NBF=   356
 NBsUse=   356 1.00D-06 EigRej= -1.00D+00 NBFU=   356
 Precomputing XC quadrature grid using
 IXCGrd= 4 IRadAn=           5 IRanWt=          -1 IRanGd=           0 AccXCQ= 0.00D+00.
 Generated NRdTot=       0 NPtTot=           0 NUsed=           0 NTot=          32
 NSgBfM=   366   366   366   366   366 MxSgAt=    29 MxSgA2=    29.
 Leave Link  302 at Sat Jan 24 22:14:38 2026, MaxMem=  2147483648 cpu:               3.1 elap:               0.2
 (Enter /data/home/wyx/g16/l303.exe)
 DipDrv:  MaxL=1.
 Leave Link  303 at Sat Jan 24 22:14:38 2026, MaxMem=  2147483648 cpu:               0.5 elap:               0.0
 (Enter /data/home/wyx/g16/l308.exe)
 Leave Link  308 at Sat Jan 24 22:14:38 2026, MaxMem=  2147483648 cpu:               0.7 elap:               0.1
 (Enter /data/home/wyx/g16/l401.exe)
 Initial guess from the checkpoint file:  "DDL-S1-cLR-15.chk"
 B after Tr=    -0.000000    0.000000    0.000000
         Rot=    1.000000    0.000000   -0.000000    0.000000 Ang=   0.00 deg.
 Guess basis will be translated and rotated to current coordinates.
 JPrj=2 DoOrth=T DoCkMO=T.
 Leave Link  401 at Sat Jan 24 22:14:38 2026, MaxMem=  2147483648 cpu:               2.2 elap:               0.2
 (Enter /data/home/wyx/g16/l502.exe)
 Integral symmetry usage will be decided dynamically.
 Closed shell SCF:
 Using DIIS extrapolation, IDIIS=  1040.
 NGot=  2147483648 LenX=  2147200095 LenY=  2147062754
 Requested convergence on RMS density matrix=1.00D-08 within 128 cycles.
 Requested convergence on MAX density matrix=1.00D-06.
 Requested convergence on             energy=1.00D-06.
 No special actions if energy rises.
 Fock matrices will be formed incrementally for  20 cycles.

 Cycle   1  Pass 1  IDiag  1:
 FoFJK:  IHMeth= 1 ICntrl=       0 DoSepK=T KAlg= 0 I1Cent=           0 FoldK=F
 IRaf=         1 NMat=       1 IRICut=       1 DoRegI=T DoRafI=F ISym2E= 0 IDoP0=0 IntGTp=1.
 FoFCou: FMM=F IPFlag=           0 FMFlag=      100000 FMFlg1=           0
         NFxFlg=           0 DoJE=T BraDBF=F KetDBF=F FulRan=T
         wScrn=  0.000000 ICntrl=       500 IOpCl=  0 I1Cent=           0 NGrid=           0
         NMat0=    1 NMatS0=      1 NMatT0=    0 NMatD0=    1 NMtDS0=    0 NMtDT0=    0
 Symmetry not used in FoFCou.
 Inv3:  Mode=1 IEnd=    13079232.
 Iteration    1 A*A^-1 deviation from unit magnitude is 3.11D-15 for    756.
 Iteration    1 A*A^-1 deviation from orthogonality  is 2.13D-15 for   1281    450.
 Iteration    1 A^-1*A deviation from unit magnitude is 3.11D-15 for    766.
 Iteration    1 A^-1*A deviation from orthogonality  is 2.60D-15 for   1798    224.
 E= -633.332415154067    
 DIIS: error= 1.39D-08 at cycle   1 NSaved=   1.
 NSaved= 1 IEnMin= 1 EnMin= -633.332415154067     IErMin= 1 ErrMin= 1.39D-08
 ErrMax= 1.39D-08  0.00D+00 EMaxC= 1.00D-01 BMatC= 5.41D-14 BMatP= 5.41D-14
 IDIUse=1 WtCom= 1.00D+00 WtEn= 0.00D+00
 Coeff-Com:  0.100D+01
 Coeff:      0.100D+01
 Gap=     0.239 Goal=   None    Shift=    0.000
 RMSDP=2.53D-09 MaxDP=7.10D-08              OVMax= 3.07D-07

 Error on total polarization charges =  0.01548
 SCF Done:  E(RCAM-B3LYP) =  -633.332415154     A.U. after    1 cycles
            NFock=  1  Conv=0.25D-08     -V/T= 2.0042
 KE= 6.307107745787D+02 PE=-3.277658289253D+03 EE= 1.112827290147D+03
 Leave Link  502 at Sat Jan 24 22:14:44 2026, MaxMem=  2147483648 cpu:              85.5 elap:               5.6
 (Enter /data/home/wyx/g16/l801.exe)
 DoSCS=F DFT=T ScalE2(SS,OS)=  1.000000  1.000000
 ExpMin= 9.52D-02 ExpMax= 2.70D+04 ExpMxC= 9.22D+02 IAcc=3 IRadAn=         5 AccDes= 0.00D+00
 HarFok:  IExCor=  205 AccDes= 0.00D+00 IRadAn=         5 IDoV=-2 UseB2=F ITyADJ=14
 ICtDFT= 12500011 ScaDFX=  1.000000  1.000000  1.000000  1.000000
 Largest valence mixing into a core orbital is  5.64D-05
 Largest core mixing into a valence orbital is  1.21D-05
 Range of M.O.s used for correlation:    15   356
 NBasis=   356 NAE=    52 NBE=    52 NFC=    14 NFV=     0
 NROrb=    342 NOA=    38 NOB=    38 NVA=   304 NVB=   304

 **** Warning!!: The largest alpha MO coefficient is  0.52426841D+02

 Leave Link  801 at Sat Jan 24 22:14:45 2026, MaxMem=  2147483648 cpu:               1.0 elap:               0.1
 (Enter /data/home/wyx/g16/l914.exe)
 RHF ground state
 Two-electron integrals replicated using symmetry.
 MDV=  2147483648 DFT=T DoStab=F Mixed=T DoRPA=T DoScal=F NonHer=T
 NEqPCM:  Using equilibrium solvation (IEInf=0, Eps=  78.3553, EpsInf=   1.7778)
 Making orbital integer symmetry assigments:
 Orbital symmetries:
       Occupied  (A) (A) (A) (A) (A) (A) (A) (A) (A) (A) (A) (A)
                 (A) (A) (A) (A) (A) (A) (A) (A) (A) (A) (A) (A)
                 (A) (A) (A) (A) (A) (A) (A) (A) (A) (A) (A) (A)
                 (A) (A) (A) (A) (A) (A) (A) (A) (A) (A) (A) (A)
                 (A) (A) (A) (A)
       Virtual   (A) (A) (A) (A) (A) (A) (A) (A) (A) (A) (A) (A)
                 (A) (A) (A) (A) (A) (A) (A) (A) (A) (A) (A) (A)
                 (A) (A) (A) (A) (A) (A) (A) (A) (A) (A) (A) (A)
                 (A) (A) (A) (A) (A) (A) (A) (A) (A) (A) (A) (A)
                 (A) (A) (A) (A) (A) (A) (A) (A) (A) (A) (A) (A)
                 (A) (A) (A) (A) (A) (A) (A) (A) (A) (A) (A) (A)
                 (A) (A) (A) (A) (A) (A) (A) (A) (A) (A) (A) (A)
                 (A) (A) (A) (A) (A) (A) (A) (A) (A) (A) (A) (A)
                 (A) (A) (A) (A) (A) (A) (A) (A) (A) (A) (A) (A)
                 (A) (A) (A) (A) (A) (A) (A) (A) (A) (A) (A) (A)
                 (A) (A) (A) (A) (A) (A) (A) (A) (A) (A) (A) (A)
                 (A) (A) (A) (A) (A) (A) (A) (A) (A) (A) (A) (A)
                 (A) (A) (A) (A) (A) (A) (A) (A) (A) (A) (A) (A)
                 (A) (A) (A) (A) (A) (A) (A) (A) (A) (A) (A) (A)
                 (A) (A) (A) (A) (A) (A) (A) (A) (A) (A) (A) (A)
                 (A) (A) (A) (A) (A) (A) (A) (A) (A) (A) (A) (A)
                 (A) (A) (A) (A) (A) (A) (A) (A) (A) (A) (A) (A)
                 (A) (A) (A) (A) (A) (A) (A) (A) (A) (A) (A) (A)
                 (A) (A) (A) (A) (A) (A) (A) (A) (A) (A) (A) (A)
                 (A) (A) (A) (A) (A) (A) (A) (A) (A) (A) (A) (A)
                 (A) (A) (A) (A) (A) (A) (A) (A) (A) (A) (A) (A)
                 (A) (A) (A) (A) (A) (A) (A) (A) (A) (A) (A) (A)
                 (A) (A) (A) (A) (A) (A) (A) (A) (A) (A) (A) (A)
                 (A) (A) (A) (A) (A) (A) (A) (A) (A) (A) (A) (A)
                 (A) (A) (A) (A) (A) (A) (A) (A) (A) (A) (A) (A)
                 (A) (A) (A) (A)
 PCM Corrected Linear-Response:
 Compute the excitation energies in the ground state reaction field.
    24 initial guesses have been made.
 Convergence on wavefunction:    0.000001000000000
 Davidson Disk Diagonalization:  ConvIn= 1.00D-06 SkipCon=T Conv= 1.00D-06.
 Max sub-space:  2000 roots to seek:    24 dimension of matrix:        23104
 Iteration     1 Dimension    24 NMult     0 NNew     24
 CISAX will form    24 AO SS matrices at one time.
 NMat=    24 NSing=    24 JSym2X= 0.
 FoFJK:  IHMeth= 1 ICntrl=       0 DoSepK=T KAlg= 0 I1Cent=           0 FoldK=F
 IRaf=         1 NMat=      48 IRICut=       1 DoRegI=T DoRafI=F ISym2E= 0 IDoP0=3 IntGTp=3.
 FoFCou: FMM=F IPFlag=           0 FMFlag=      100000 FMFlg1=           0
         NFxFlg=           0 DoJE=F BraDBF=F KetDBF=F FulRan=T
         wScrn=  0.000000 ICntrl=       500 IOpCl=  0 I1Cent=           0 NGrid=           0
         NMat0=   24 NMatS0=     24 NMatT0=    0 NMatD0=   24 NMtDS0=    0 NMtDT0=    0
 Symmetry not used in FoFCou.
 New state      2 was old state      3
 New state      3 was old state      4
 New state      4 was old state      2
 New state      5 was old state      6
 New state      6 was old state      5
 Excitation Energies [eV] at current iteration:
 Root      1 :     4.039593274516559
 Root      2 :     4.376042962204600
 Root      3 :     4.559134886468918
 Root      4 :     5.569947729375024
 Root      5 :     6.269607217612936
 Root      6 :     6.592648232679520
 Root      7 :     6.832824111523184
 Root      8 :     6.893188775654417
 Root      9 :     7.041852324117968
 Root     10 :     7.153851948519951
 Root     11 :     7.285556246521838
 Root     12 :     7.461602365193552
 Root     13 :     7.624942178776043
 Root     14 :     7.676153179178685
 Root     15 :     7.837114324177044
 Root     16 :     8.067631184449736
 Root     17 :     8.179992351696072
 Root     18 :     8.304507982308168
 Root     19 :     8.361485876692813
 Root     20 :     8.681674079925445
 Root     21 :     8.836450905074059
 Root     22 :     9.006415226274815
 Root     23 :     9.142056550240385
 Root     24 :     9.244572263305489
 Iteration     2 Dimension    36 NMult    24 NNew     12
 CISAX will form    12 AO SS matrices at one time.
 NMat=    12 NSing=    12 JSym2X= 0.
 Root      1 not converged, maximum delta is    0.060006110876098
 Root      2 not converged, maximum delta is    0.072666509940348
 Root      3 not converged, maximum delta is    0.086654173551323
 Root      4 not converged, maximum delta is    0.213978228403294
 New state      5 was old state      6
 Root      5 not converged, maximum delta is    0.268845020816935
 New state      6 was old state      5
 Root      6 not converged, maximum delta is    0.150835347205769
 Excitation Energies [eV] at current iteration:
 Root      1 :     3.585206825346392   Change is   -0.454386449170166
 Root      2 :     4.134137151063892   Change is   -0.241905811140709
 Root      3 :     4.287182429792601   Change is   -0.271952456676317
 Root      4 :     5.248500517119777   Change is   -0.321447212255247
 Root      5 :     5.718651936908489   Change is   -0.873996295771031
 Root      6 :     6.142543887505665   Change is   -0.127063330107271
 Iteration     3 Dimension    48 NMult    36 NNew     12
 CISAX will form    12 AO SS matrices at one time.
 NMat=    12 NSing=    12 JSym2X= 0.
 Root      1 not converged, maximum delta is    0.009747668046289
 Root      2 not converged, maximum delta is    0.011074841090798
 Root      3 not converged, maximum delta is    0.012742399293894
 Root      4 not converged, maximum delta is    0.022122441982528
 Root      5 not converged, maximum delta is    0.024036101632185
 Root      6 not converged, maximum delta is    0.018125371760412
 Excitation Energies [eV] at current iteration:
 Root      1 :     3.564948810107249   Change is   -0.020258015239143
 Root      2 :     4.120511860188559   Change is   -0.013625290875333
 Root      3 :     4.273015065806516   Change is   -0.014167363986086
 Root      4 :     5.226810304168312   Change is   -0.021690212951465
 Root      5 :     5.683780645862544   Change is   -0.034871291045945
 Root      6 :     6.131236811262685   Change is   -0.011307076242980
 Iteration     4 Dimension    60 NMult    48 NNew     12
 CISAX will form    12 AO SS matrices at one time.
 NMat=    12 NSing=    12 JSym2X= 0.
 Root      1 not converged, maximum delta is    0.002386125889385
 Root      2 not converged, maximum delta is    0.002040327973430
 Root      3 not converged, maximum delta is    0.001996233907456
 Root      4 not converged, maximum delta is    0.002243087976302
 Root      5 not converged, maximum delta is    0.003369361528628
 Root      6 not converged, maximum delta is    0.003499793074162
 Excitation Energies [eV] at current iteration:
 Root      1 :     3.563284599354479   Change is   -0.001664210752770
 Root      2 :     4.119668443293071   Change is   -0.000843416895488
 Root      3 :     4.272192751564662   Change is   -0.000822314241854
 Root      4 :     5.225071332952344   Change is   -0.001738971215969
 Root      5 :     5.680823132804271   Change is   -0.002957513058273
 Root      6 :     6.130367568808584   Change is   -0.000869242454102
 Iteration     5 Dimension    72 NMult    60 NNew     12
 CISAX will form    12 AO SS matrices at one time.
 NMat=    12 NSing=    12 JSym2X= 0.
 Root      1 not converged, maximum delta is    0.000751410038023
 Root      2 not converged, maximum delta is    0.000271013007773
 Root      3 not converged, maximum delta is    0.000552891784280
 Root      4 not converged, maximum delta is    0.001060927341345
 Root      5 not converged, maximum delta is    0.001086931424727
 Root      6 not converged, maximum delta is    0.001101935511984
 Excitation Energies [eV] at current iteration:
 Root      1 :     3.563178778262300   Change is   -0.000105821092179
 Root      2 :     4.119616634117276   Change is   -0.000051809175795
 Root      3 :     4.272142895486647   Change is   -0.000049856078015
 Root      4 :     5.224926313634766   Change is   -0.000145019317577
 Root      5 :     5.680538614934050   Change is   -0.000284517870221
 Root      6 :     6.130295036102658   Change is   -0.000072532705925
 Iteration     6 Dimension    84 NMult    72 NNew     12
 CISAX will form    12 AO SS matrices at one time.
 NMat=    12 NSing=    12 JSym2X= 0.
 Root      1 not converged, maximum delta is    0.000221435325164
 Root      2 not converged, maximum delta is    0.000090962040969
 Root      3 not converged, maximum delta is    0.000152716264656
 Root      4 not converged, maximum delta is    0.000616252213595
 Root      5 not converged, maximum delta is    0.000272261033788
 Root      6 not converged, maximum delta is    0.000220615395733
 Excitation Energies [eV] at current iteration:
 Root      1 :     3.563172757180655   Change is   -0.000006021081645
 Root      2 :     4.119612734046486   Change is   -0.000003900070790
 Root      3 :     4.272139744761625   Change is   -0.000003150725022
 Root      4 :     5.224911229841193   Change is   -0.000015083793574
 Root      5 :     5.680515825241299   Change is   -0.000022789692751
 Root      6 :     6.130289035511574   Change is   -0.000006000591085
 Iteration     7 Dimension    96 NMult    84 NNew     12
 CISAX will form    12 AO SS matrices at one time.
 NMat=    12 NSing=    12 JSym2X= 0.
 Root      1 not converged, maximum delta is    0.000018197441460
 Root      2 not converged, maximum delta is    0.000015123959330
 Root      3 not converged, maximum delta is    0.000038531786260
 Root      4 not converged, maximum delta is    0.000190638002000
 Root      5 not converged, maximum delta is    0.000112536044796
 Root      6 not converged, maximum delta is    0.000121817814232
 Excitation Energies [eV] at current iteration:
 Root      1 :     3.563172430903801   Change is   -0.000000326276854
 Root      2 :     4.119612535683488   Change is   -0.000000198362998
 Root      3 :     4.272139552143454   Change is   -0.000000192618171
 Root      4 :     5.224909763531544   Change is   -0.000001466309648
 Root      5 :     5.680514015515167   Change is   -0.000001809726131
 Root      6 :     6.130288372161287   Change is   -0.000000663350287
 Iteration     8 Dimension   108 NMult    96 NNew     12
 CISAX will form    12 AO SS matrices at one time.
 NMat=    12 NSing=    12 JSym2X= 0.
 Root      1 not converged, maximum delta is    0.000003619869639
 Root      2 not converged, maximum delta is    0.000003889575237
 Root      3 not converged, maximum delta is    0.000004627839510
 Root      4 not converged, maximum delta is    0.000029600809277
 Root      5 not converged, maximum delta is    0.000019276787063
 Root      6 not converged, maximum delta is    0.000029395879388
 Excitation Energies [eV] at current iteration:
 Root      1 :     3.563172418756204   Change is   -0.000000012147597
 Root      2 :     4.119612524784320   Change is   -0.000000010899168
 Root      3 :     4.272139542441455   Change is   -0.000000009701998
 Root      4 :     5.224909654476757   Change is   -0.000000109054788
 Root      5 :     5.680513885448797   Change is   -0.000000130066370
 Root      6 :     6.130288309789824   Change is   -0.000000062371463
 Iteration     9 Dimension   120 NMult   108 NNew     12
 CISAX will form    12 AO SS matrices at one time.
 NMat=    12 NSing=    12 JSym2X= 0.
 Root      1 has converged.
 Root      2 has converged.
 Root      3 not converged, maximum delta is    0.000001150612307
 Root      4 not converged, maximum delta is    0.000002853897377
 Root      5 not converged, maximum delta is    0.000004348643029
 Root      6 not converged, maximum delta is    0.000006402288054
 Excitation Energies [eV] at current iteration:
 Root      1 :     3.563172418258276   Change is   -0.000000000497928
 Root      2 :     4.119612524403675   Change is   -0.000000000380644
 Root      3 :     4.272139542101822   Change is   -0.000000000339633
 Root      4 :     5.224909649665229   Change is   -0.000000004811528
 Root      5 :     5.680513878878870   Change is   -0.000000006569928
 Root      6 :     6.130288305748302   Change is   -0.000000004041523
 Iteration    10 Dimension   128 NMult   120 NNew      8
 CISAX will form     8 AO SS matrices at one time.
 NMat=     8 NSing=     8 JSym2X= 0.
 Root      1 has converged.
 Root      2 has converged.
 Root      3 has converged.
 Root      4 has converged.
 Root      5 not converged, maximum delta is    0.000001244971432
 Root      6 not converged, maximum delta is    0.000001733370970
 Excitation Energies [eV] at current iteration:
 Root      1 :     3.563172418255415   Change is   -0.000000000002861
 Root      2 :     4.119612524399565   Change is   -0.000000000004111
 Root      3 :     4.272139542087852   Change is   -0.000000000013970
 Root      4 :     5.224909649449581   Change is   -0.000000000215647
 Root      5 :     5.680513878523441   Change is   -0.000000000355429
 Root      6 :     6.130288305459502   Change is   -0.000000000288799
 Iteration    11 Dimension   132 NMult   128 NNew      4
 CISAX will form     4 AO SS matrices at one time.
 NMat=     4 NSing=     4 JSym2X= 0.
 Root      1 has converged.
 Root      2 has converged.
 Root      3 has converged.
 Root      4 has converged.
 Root      5 has converged.
 Root      6 has converged.
 Excitation Energies [eV] at current iteration:
 Root      1 :     3.563172418254862   Change is   -0.000000000000554
 Root      2 :     4.119612524399384   Change is   -0.000000000000180
 Root      3 :     4.272139542087641   Change is   -0.000000000000211
 Root      4 :     5.224909649446088   Change is   -0.000000000003493
 Root      5 :     5.680513878504830   Change is   -0.000000000018611
 Root      6 :     6.130288305438930   Change is   -0.000000000020571
 Convergence achieved on expansion vectors.
 PCM Corrected Linear-Response:
 The state of interest is root number   1
 Excitation energy =    3.5632 eV, Total energy =  -633.201470977    
 Recompute the excitation energies using the linear response reaction field.
 Convergence on wavefunction:    0.000001000000000
 Davidson Disk Diagonalization:  ConvIn= 1.00D-06 SkipCon=T Conv= 1.00D-06.
 Max sub-space:  2000 roots to seek:     6 dimension of matrix:        23104
 Iteration     1 Dimension     6 NMult     0 NNew      6
 CISAX will form     6 AO SS matrices at one time.
 NMat=     6 NSing=     6 JSym2X= 0.
 Excitation Energies [eV] at current iteration:
 Root      1 :     3.631710992377612
 Root      2 :     4.146600485231238
 Root      3 :     4.298103155853818
 Root      4 :     5.286287305890201
 Root      5 :     5.810644459079559
 Root      6 :     6.092012502263420
 Iteration     2 Dimension    18 NMult     6 NNew     12
 CISAX will form    12 AO SS matrices at one time.
 NMat=    12 NSing=    12 JSym2X= 0.
 Root      1 not converged, maximum delta is    0.019422929040732
 Root      2 not converged, maximum delta is    0.026622161769302
 Root      3 not converged, maximum delta is    0.010695766545309
 Root      4 not converged, maximum delta is    0.224450201109915
 Root      5 not converged, maximum delta is    0.272842386948391
 Root      6 not converged, maximum delta is    0.058812718649294
 Excitation Energies [eV] at current iteration:
 Root      1 :     3.420936967194531   Change is   -0.210774025183081
 Root      2 :     4.112713436008630   Change is   -0.033887049222608
 Root      3 :     4.265200880363494   Change is   -0.032902275490324
 Root      4 :     5.052209233951125   Change is   -0.234078071939076
 Root      5 :     5.538724034958784   Change is   -0.271920424120775
 Root      6 :     6.067161105491593   Change is   -0.024851396771827
 Iteration     3 Dimension    30 NMult    18 NNew     12
 CISAX will form    12 AO SS matrices at one time.
 NMat=    12 NSing=    12 JSym2X= 0.
 Root      1 not converged, maximum delta is    0.003196987711525
 Root      2 not converged, maximum delta is    0.001076898588202
 Root      3 not converged, maximum delta is    0.001451946318600
 Root      4 not converged, maximum delta is    0.012689669383342
 Root      5 not converged, maximum delta is    0.010806255251863
 Root      6 not converged, maximum delta is    0.008946168812711
 Excitation Energies [eV] at current iteration:
 Root      1 :     3.417445406337683   Change is   -0.003491560856848
 Root      2 :     4.112343820103340   Change is   -0.000369615905290
 Root      3 :     4.264805038910306   Change is   -0.000395841453188
 Root      4 :     5.041680446965534   Change is   -0.010528786985590
 Root      5 :     5.530692357925268   Change is   -0.008031677033516
 Root      6 :     6.064919096310718   Change is   -0.002242009180875
 Iteration     4 Dimension    42 NMult    30 NNew     12
 CISAX will form    12 AO SS matrices at one time.
 NMat=    12 NSing=    12 JSym2X= 0.
 Root      1 not converged, maximum delta is    0.001863869031060
 Root      2 not converged, maximum delta is    0.000215688186552
 Root      3 not converged, maximum delta is    0.000209415814044
 Root      4 not converged, maximum delta is    0.002689445136018
 Root      5 not converged, maximum delta is    0.002683407179441
 Root      6 not converged, maximum delta is    0.008930078850808
 Excitation Energies [eV] at current iteration:
 Root      1 :     3.416979461893468   Change is   -0.000465944444215
 Root      2 :     4.112324379427609   Change is   -0.000019440675732
 Root      3 :     4.264781345725665   Change is   -0.000023693184641
 Root      4 :     5.039945207674035   Change is   -0.001735239291500
 Root      5 :     5.529472109775780   Change is   -0.001220248149489
 Root      6 :     6.064217867922483   Change is   -0.000701228388236
 Iteration     5 Dimension    54 NMult    42 NNew     12
 CISAX will form    12 AO SS matrices at one time.
 NMat=    12 NSing=    12 JSym2X= 0.
 Root      1 not converged, maximum delta is    0.000570657445797
 Root      2 not converged, maximum delta is    0.000081397020683
 Root      3 not converged, maximum delta is    0.000068686597209
 Root      4 not converged, maximum delta is    0.000941504366062
 Root      5 not converged, maximum delta is    0.000785307098753
 Root      6 not converged, maximum delta is    0.003985742447884
 Excitation Energies [eV] at current iteration:
 Root      1 :     3.416947435944480   Change is   -0.000032025948989
 Root      2 :     4.112323070660282   Change is   -0.000001308767327
 Root      3 :     4.264779523378940   Change is   -0.000001822346725
 Root      4 :     5.039789473764062   Change is   -0.000155733909972
 Root      5 :     5.529345534384031   Change is   -0.000126575391748
 Root      6 :     6.064066376076119   Change is   -0.000151491846364
 Iteration     6 Dimension    66 NMult    54 NNew     12
 CISAX will form    12 AO SS matrices at one time.
 NMat=    12 NSing=    12 JSym2X= 0.
 Root      1 not converged, maximum delta is    0.000082015332888
 Root      2 not converged, maximum delta is    0.000026468604440
 Root      3 not converged, maximum delta is    0.000028305985650
 Root      4 not converged, maximum delta is    0.000420521123459
 Root      5 not converged, maximum delta is    0.000510898602076
 Root      6 not converged, maximum delta is    0.001148131340266
 Excitation Energies [eV] at current iteration:
 Root      1 :     3.416945359521930   Change is   -0.000002076422549
 Root      2 :     4.112322932107238   Change is   -0.000000138553043
 Root      3 :     4.264779339869572   Change is   -0.000000183509368
 Root      4 :     5.039774599031062   Change is   -0.000014874733001
 Root      5 :     5.529329314287786   Change is   -0.000016220096246
 Root      6 :     6.064042196410899   Change is   -0.000024179665220
 Iteration     7 Dimension    78 NMult    66 NNew     12
 CISAX will form    12 AO SS matrices at one time.
 NMat=    12 NSing=    12 JSym2X= 0.
 Root      1 not converged, maximum delta is    0.000011850794214
 Root      2 not converged, maximum delta is    0.000006069788860
 Root      3 not converged, maximum delta is    0.000008080206423
 Root      4 not converged, maximum delta is    0.000134086854514
 Root      5 not converged, maximum delta is    0.000161944649456
 Root      6 not converged, maximum delta is    0.000149916120095
 Excitation Energies [eV] at current iteration:
 Root      1 :     3.416945277452808   Change is   -0.000000082069122
 Root      2 :     4.112322925950435   Change is   -0.000000006156803
 Root      3 :     4.264779329444658   Change is   -0.000000010424915
 Root      4 :     5.039773364996428   Change is   -0.000001234034633
 Root      5 :     5.529327820493891   Change is   -0.000001493793894
 Root      6 :     6.064039951057224   Change is   -0.000002245353674
 Iteration     8 Dimension    90 NMult    78 NNew     12
 CISAX will form    12 AO SS matrices at one time.
 NMat=    12 NSing=    12 JSym2X= 0.
 Root      1 not converged, maximum delta is    0.000002770789271
 Root      2 not converged, maximum delta is    0.000001674626583
 Root      3 not converged, maximum delta is    0.000001295690452
 Root      4 not converged, maximum delta is    0.000033065196688
 Root      5 not converged, maximum delta is    0.000047723542518
 Root      6 not converged, maximum delta is    0.000037946364545
 Excitation Energies [eV] at current iteration:
 Root      1 :     3.416945273524852   Change is   -0.000000003927956
 Root      2 :     4.112322925698415   Change is   -0.000000000252021
 Root      3 :     4.264779328962451   Change is   -0.000000000482207
 Root      4 :     5.039773279088859   Change is   -0.000000085907570
 Root      5 :     5.529327693413912   Change is   -0.000000127079978
 Root      6 :     6.064039726304722   Change is   -0.000000224752503
 Iteration     9 Dimension   102 NMult    90 NNew     12
 CISAX will form    12 AO SS matrices at one time.
 NMat=    12 NSing=    12 JSym2X= 0.
 Root      1 has converged.
 Root      2 has converged.
 Root      3 has converged.
 Root      4 not converged, maximum delta is    0.000007032842265
 Root      5 not converged, maximum delta is    0.000011374451298
 Root      6 not converged, maximum delta is    0.000025362117029
 Excitation Energies [eV] at current iteration:
 Root      1 :     3.416945273318620   Change is   -0.000000000206232
 Root      2 :     4.112322925686341   Change is   -0.000000000012074
 Root      3 :     4.264779328930549   Change is   -0.000000000031902
 Root      4 :     5.039773272729642   Change is   -0.000000006359217
 Root      5 :     5.529327681371768   Change is   -0.000000012042145
 Root      6 :     6.064039702748315   Change is   -0.000000023556407
 Iteration    10 Dimension   108 NMult   102 NNew      6
 CISAX will form     6 AO SS matrices at one time.
 NMat=     6 NSing=     6 JSym2X= 0.
 Root      1 has converged.
 Root      2 has converged.
 Root      3 has converged.
 Root      4 not converged, maximum delta is    0.000001543357502
 Root      5 not converged, maximum delta is    0.000002879737891
 Root      6 not converged, maximum delta is    0.000010549482863
 Excitation Energies [eV] at current iteration:
 Root      1 :     3.416945273317417   Change is   -0.000000000001203
 Root      2 :     4.112322925686180   Change is   -0.000000000000160
 Root      3 :     4.264779328929856   Change is   -0.000000000000694
 Root      4 :     5.039773272389738   Change is   -0.000000000339904
 Root      5 :     5.529327680511338   Change is   -0.000000000860430
 Root      6 :     6.064039699707973   Change is   -0.000000003040343
 Iteration    11 Dimension   114 NMult   108 NNew      6
 CISAX will form     6 AO SS matrices at one time.
 NMat=     6 NSing=     6 JSym2X= 0.
 Root      1 has converged.
 Root      2 has converged.
 Root      3 has converged.
 Root      4 has converged.
 Root      5 has converged.
 Root      6 not converged, maximum delta is    0.000002047471344
 Excitation Energies [eV] at current iteration:
 Root      1 :     3.416945273317297   Change is   -0.000000000000120
 Root      2 :     4.112322925686140   Change is   -0.000000000000040
 Root      3 :     4.264779328929721   Change is   -0.000000000000134
 Root      4 :     5.039773272370082   Change is   -0.000000000019656
 Root      5 :     5.529327680453073   Change is   -0.000000000058266
 Root      6 :     6.064039699403803   Change is   -0.000000000304169
 Iteration    12 Dimension   116 NMult   114 NNew      2
 CISAX will form     2 AO SS matrices at one time.
 NMat=     2 NSing=     2 JSym2X= 0.
 Root      1 has converged.
 Root      2 has converged.
 Root      3 has converged.
 Root      4 has converged.
 Root      5 has converged.
 Root      6 has converged.
 Excitation Energies [eV] at current iteration:
 Root      1 :     3.416945273317057   Change is   -0.000000000000240
 Root      2 :     4.112322925686200   Change is    0.000000000000060
 Root      3 :     4.264779328929663   Change is   -0.000000000000058
 Root      4 :     5.039773272370065   Change is   -0.000000000000017
 Root      5 :     5.529327680452983   Change is   -0.000000000000089
 Root      6 :     6.064039699380961   Change is   -0.000000000022842
 Convergence achieved on expansion vectors.
 ***********************************************************************
 Excited states from <AA,BB:AA,BB> singles matrix:
 ***********************************************************************
 
 1PDM for each excited state written to RWF  633
 Ground to excited state transition densities written to RWF  633
 Ground to excited state transition electric dipole moments (Au):
       state          X           Y           Z        Dip. S.      Osc.
         1         1.6969      0.2180      0.0582      2.9304      0.2453
         2         0.1714     -0.0013      0.0472      0.0316      0.0032
         3        -0.0001      0.1768     -0.0410      0.0329      0.0034
         4         0.2008     -1.9859      0.1544      4.0079      0.4949
         5         0.0712     -1.4149      0.0195      2.0073      0.2719
         6        -0.0271      0.2785      0.0591      0.0818      0.0121
 Ground to excited state transition velocity dipole moments (Au):
       state          X           Y           Z        Dip. S.      Osc.
         1        -0.2048     -0.0228     -0.0080      0.0425      0.2259
         2        -0.0250      0.0004     -0.0042      0.0006      0.0028
         3        -0.0001     -0.0262      0.0029      0.0007      0.0030
         4        -0.0392      0.3534     -0.0237      0.1270      0.4570
         5        -0.0144      0.2829     -0.0051      0.0803      0.2634
         6         0.0067     -0.0578     -0.0326      0.0044      0.0133
 Ground to excited state transition magnetic dipole moments (Au):
       state          X           Y           Z
         1        -0.0827     -0.0013      1.4250
         2         0.8102      0.1510      0.3935
         3         0.1489      1.0021      0.1827
         4         0.0904      0.1325     -0.1291
         5         0.2034      0.1058     -0.2668
         6         0.0390      0.0221     -0.0327
 Ground to excited state transition velocity quadrupole moments (Au):
       state          XX          YY          ZZ          XY          XZ          YZ
         1        -0.1955      0.1141     -0.0015      0.5642     -0.0676      0.0112
         2        -0.0006     -0.0079      0.0050      0.0674     -0.0209      0.0901
         3         0.0220     -0.0129      0.0313      0.0542     -0.0685      0.0083
         4        -1.3708      0.3251     -0.0014     -0.1309     -0.1034     -0.0557
         5        -0.4221      0.2437      0.0519     -0.2101     -0.0678      0.0476
         6        -0.3440     -0.2634      0.2183     -0.0215     -0.0437      0.0981
 <0|del|b> * <b|rxdel|0> + <0|del|b> * <b|delr+rdel|0>
 Rotatory Strengths (R) in cgs (10**-40 erg-esu-cm/Gauss)
       state          XX          YY          ZZ    R(velocity)    E-M Angle
         1       -49.2988     21.7366     58.5513     10.3297       88.93
         2        -4.3741    -55.8991    -42.0211    -34.0981      160.66
         3       -61.7740      0.8064    -55.2818    -38.7498      161.50
         4       170.9707     -2.6755      8.7171     59.0041       50.81
         5        89.6790     -5.7779     14.8185     32.9066       73.46
         6        -3.2288      2.0423      1.3554      0.0563       90.00
 1/2[<0|r|b>*<b|rxdel|0> + (<0|rxdel|b>*<b|r|0>)*]
 Rotatory Strengths (R) in cgs (10**-40 erg-esu-cm/Gauss)
       state          XX          YY          ZZ     R(length)
         1        99.1832      0.1972    -58.5984     13.5940
         2       -98.1919      0.1403    -13.1241    -37.0586
         3         0.0091   -125.2990      5.2922    -39.9992
         4       -12.8310    186.1455     14.0955     62.4700
         5       -10.2456    105.8674      3.6698     33.0972
         6         0.7463     -4.3448      1.3673     -0.7437
  1/2[<0|del|b>*<b|r|0> + (<0|r|b>*<b|del|0>)*] (Au)
       state          X           Y           Z        Dip. S.   Osc.(frdel)
         1        -0.3476     -0.0050     -0.0005      0.3530      0.2354
         2        -0.0043     -0.0000     -0.0002      0.0045      0.0030
         3         0.0000     -0.0046     -0.0001      0.0048      0.0032
         4        -0.0079     -0.7017     -0.0037      0.7133      0.4755
         5        -0.0010     -0.4003     -0.0001      0.4014      0.2676
         6        -0.0002     -0.0161     -0.0019      0.0182      0.0121

 Excitation energies and oscillator strengths:
 
 Excited State   1:      Singlet-A      3.4169 eV  362.85 nm  f=0.2453  <S**2>=0.000
      52 -> 53         0.69833
 This state for optimization and/or second-order correction.
 Total Energy, E(TD-HF/TD-DFT) =  -633.206844726    
 Copying the excited state density for this state as the 1-particle RhoCI density.
 
 Excited State   2:      Singlet-A      4.1123 eV  301.49 nm  f=0.0032  <S**2>=0.000
      50 -> 53         0.12221
      50 -> 54         0.20212
      51 -> 53         0.55661
      51 -> 54         0.32067
 
 Excited State   3:      Singlet-A      4.2648 eV  290.72 nm  f=0.0034  <S**2>=0.000
      49 -> 53         0.26147
      49 -> 54        -0.17834
      50 -> 53         0.50200
      50 -> 54        -0.24367
      50 -> 58         0.10666
      51 -> 53        -0.11180
      51 -> 54         0.21508
 
 Excited State   4:      Singlet-A      5.0398 eV  246.01 nm  f=0.4949  <S**2>=0.000
      49 -> 53         0.13435
      52 -> 54         0.68336
 
 Excited State   5:      Singlet-A      5.5293 eV  224.23 nm  f=0.2719  <S**2>=0.000
      49 -> 53         0.58763
      50 -> 53        -0.30124
      51 -> 53         0.15784
      52 -> 54        -0.13772
 
 Excited State   6:      Singlet-A      6.0640 eV  204.46 nm  f=0.0121  <S**2>=0.000
      52 -> 55         0.66417
      52 -> 56        -0.13801
 SavETr:  write IOETrn=   770 NScale= 10 NData=  16 NLR=1 NState=    6 LETran=     118.
 The selected state is a singlet.
 CISGrd: IGrad=1 NXY=2 DFT=T
 CISAX will form     1 AO SS matrices at one time.
 NMat=     1 NSing=     1 JSym2X= 0.
 Leave Link  914 at Sat Jan 24 22:22:51 2026, MaxMem=  2147483648 cpu:            7760.3 elap:             486.7
 (Enter /data/home/wyx/g16/l1002.exe)
 Minotr:  Closed shell wavefunction.
          Computing CIS/TDA/TD derivatives.
          Using Z-Vector for PSCF gradient.
          Skipping F1 and S1 gradient terms here.
 NEqPCM:  Using equilibrium solvation (IEInf=0, Eps=  78.3553, EpsInf=   1.7778)
          Frozen-core window.
          Direct CPHF calculation.
          Differentiating once with respect to electric field.
                with respect to dipole field.
          Electric field/nuclear overlap derivatives assumed to be zero.
          Requested convergence is 1.0D-10 RMS, and 1.0D-09 maximum.
          NewPWx=F KeepS1=T KeepF1=T KeepIn=T MapXYZ=F SortEE=F KeepMc=T.
 Two-electron integral symmetry used by symmetrizing perturbed Fock matrices.
          MDV=    2147483648 using IRadAn=       5.
          Solving linear equations separately, MaxMat=     384.
          There are     1 degrees of freedom in the 1st order CPHF.  IDoFFX=0 NUNeed=     1.
 FoFJK:  IHMeth= 1 ICntrl=       0 DoSepK=T KAlg= 0 I1Cent=           0 FoldK=F
 IRaf=         1 NMat=       1 IRICut=       1 DoRegI=T DoRafI=F ISym2E=-1 IDoP0=0 IntGTp=1.
 FoFCou: FMM=F IPFlag=           0 FMFlag=      100000 FMFlg1=           0
         NFxFlg=           0 DoJE=T BraDBF=F KetDBF=F FulRan=T
         wScrn=  0.000000 ICntrl=       500 IOpCl=  0 I1Cent=           0 NGrid=           0
         NMat0=    1 NMatS0=      1 NMatT0=    0 NMatD0=    1 NMtDS0=    0 NMtDT0=    0
 Petite list used in FoFCou.
 LinEq1:  Iter=  0 NonCon=     1 RMS=3.51D-03 Max=1.60D-01 NDo=     1
 AX will form     1 AO Fock derivatives at one time.
 LinEq1:  Iter=  1 NonCon=     1 RMS=1.36D-03 Max=7.26D-02 NDo=     1
 LinEq1:  Iter=  2 NonCon=     1 RMS=6.62D-04 Max=3.09D-02 NDo=     1
 LinEq1:  Iter=  3 NonCon=     1 RMS=3.53D-04 Max=1.68D-02 NDo=     1
 LinEq1:  Iter=  4 NonCon=     1 RMS=1.63D-04 Max=5.04D-03 NDo=     1
 LinEq1:  Iter=  5 NonCon=     1 RMS=8.13D-05 Max=2.80D-03 NDo=     1
 LinEq1:  Iter=  6 NonCon=     1 RMS=5.40D-05 Max=2.01D-03 NDo=     1
 LinEq1:  Iter=  7 NonCon=     1 RMS=2.17D-05 Max=1.23D-03 NDo=     1
 LinEq1:  Iter=  8 NonCon=     1 RMS=9.66D-06 Max=3.41D-04 NDo=     1
 LinEq1:  Iter=  9 NonCon=     1 RMS=4.64D-06 Max=2.01D-04 NDo=     1
 LinEq1:  Iter= 10 NonCon=     1 RMS=1.90D-06 Max=4.14D-05 NDo=     1
 LinEq1:  Iter= 11 NonCon=     1 RMS=1.15D-06 Max=3.85D-05 NDo=     1
 LinEq1:  Iter= 12 NonCon=     1 RMS=6.57D-07 Max=1.35D-05 NDo=     1
 LinEq1:  Iter= 13 NonCon=     1 RMS=2.60D-07 Max=4.81D-06 NDo=     1
 LinEq1:  Iter= 14 NonCon=     1 RMS=1.02D-07 Max=2.78D-06 NDo=     1
 LinEq1:  Iter= 15 NonCon=     1 RMS=5.91D-08 Max=1.65D-06 NDo=     1
 LinEq1:  Iter= 16 NonCon=     1 RMS=1.79D-08 Max=6.37D-07 NDo=     1
 LinEq1:  Iter= 17 NonCon=     1 RMS=6.08D-09 Max=2.28D-07 NDo=     1
 LinEq1:  Iter= 18 NonCon=     1 RMS=3.25D-09 Max=8.36D-08 NDo=     1
 LinEq1:  Iter= 19 NonCon=     1 RMS=1.15D-09 Max=3.83D-08 NDo=     1
 LinEq1:  Iter= 20 NonCon=     1 RMS=3.65D-10 Max=9.73D-09 NDo=     1
 LinEq1:  Iter= 21 NonCon=     1 RMS=1.65D-10 Max=4.90D-09 NDo=     1
 LinEq1:  Iter= 22 NonCon=     1 RMS=4.97D-11 Max=1.93D-09 NDo=     1
 LinEq1:  Iter= 23 NonCon=     0 RMS=1.34D-11 Max=4.27D-10 NDo=     1
 Linear equations converged to 1.000D-10 1.000D-09 after    23 iterations.
 PCM Corrected Linear-Response - Equilibrium solvation:
 Corrected transition energy               =    3.5354          eV
 Total energy after correction             = -633.202491600     a.u.
 NEqPCM:  Using non-equilibrium solvation (IEInf=1, Eps=  78.3553, EpsInf=   1.7778)
 Inv3:  Mode=1 IEnd=    13079232.
 Iteration    1 A*A^-1 deviation from unit magnitude is 3.89D-15 for    637.
 Iteration    1 A*A^-1 deviation from orthogonality  is 1.55D-15 for   1923    329.
 Iteration    1 A^-1*A deviation from unit magnitude is 3.89D-15 for    637.
 Iteration    1 A^-1*A deviation from orthogonality  is 2.12D-15 for   1522   1116.
 NEqSol: Computing the dynamic-inertial partition of the PCM polarization charges.
 End of Minotr F.D. properties file   721 does not exist.
 End of Minotr F.D. properties file   722 does not exist.
 End of Minotr F.D. properties file   788 does not exist.
 Leave Link 1002 at Sat Jan 24 22:24:52 2026, MaxMem=  2147483648 cpu:            1896.8 elap:             119.4
 (Enter /data/home/wyx/g16/l601.exe)
 Copying SCF densities to generalized density rwf, IOpCl= 0 IROHF=0.

 **********************************************************************

            Population analysis using the CI density.

 **********************************************************************

 Orbital symmetries:
       Occupied  (A) (A) (A) (A) (A) (A) (A) (A) (A) (A) (A) (A)
                 (A) (A) (A) (A) (A) (A) (A) (A) (A) (A) (A) (A)
                 (A) (A) (A) (A) (A) (A) (A) (A) (A) (A) (A) (A)
                 (A) (A) (A) (A) (A) (A) (A) (A) (A) (A) (A) (A)
                 (A) (A) (A) (A)
       Virtual   (A) (A) (A) (A) (A) (A) (A) (A) (A) (A) (A) (A)
                 (A) (A) (A) (A) (A) (A) (A) (A) (A) (A) (A) (A)
                 (A) (A) (A) (A) (A) (A) (A) (A) (A) (A) (A) (A)
                 (A) (A) (A) (A) (A) (A) (A) (A) (A) (A) (A) (A)
                 (A) (A) (A) (A) (A) (A) (A) (A) (A) (A) (A) (A)
                 (A) (A) (A) (A) (A) (A) (A) (A) (A) (A) (A) (A)
                 (A) (A) (A) (A) (A) (A) (A) (A) (A) (A) (A) (A)
                 (A) (A) (A) (A) (A) (A) (A) (A) (A) (A) (A) (A)
                 (A) (A) (A) (A) (A) (A) (A) (A) (A) (A) (A) (A)
                 (A) (A) (A) (A) (A) (A) (A) (A) (A) (A) (A) (A)
                 (A) (A) (A) (A) (A) (A) (A) (A) (A) (A) (A) (A)
                 (A) (A) (A) (A) (A) (A) (A) (A) (A) (A) (A) (A)
                 (A) (A) (A) (A) (A) (A) (A) (A) (A) (A) (A) (A)
                 (A) (A) (A) (A) (A) (A) (A) (A) (A) (A) (A) (A)
                 (A) (A) (A) (A) (A) (A) (A) (A) (A) (A) (A) (A)
                 (A) (A) (A) (A) (A) (A) (A) (A) (A) (A) (A) (A)
                 (A) (A) (A) (A) (A) (A) (A) (A) (A) (A) (A) (A)
                 (A) (A) (A) (A) (A) (A) (A) (A) (A) (A) (A) (A)
                 (A) (A) (A) (A) (A) (A) (A) (A) (A) (A) (A) (A)
                 (A) (A) (A) (A) (A) (A) (A) (A) (A) (A) (A) (A)
                 (A) (A) (A) (A) (A) (A) (A) (A) (A) (A) (A) (A)
                 (A) (A) (A) (A) (A) (A) (A) (A) (A) (A) (A) (A)
                 (A) (A) (A) (A) (A) (A) (A) (A) (A) (A) (A) (A)
                 (A) (A) (A) (A) (A) (A) (A) (A) (A) (A) (A) (A)
                 (A) (A) (A) (A) (A) (A) (A) (A) (A) (A) (A) (A)
                 (A) (A) (A) (A)
 The electronic state is 1-A.
 Alpha  occ. eigenvalues --  -19.17990 -19.17575 -14.44029 -10.33535 -10.33230
 Alpha  occ. eigenvalues --  -10.31994 -10.31510 -10.25590 -10.25029 -10.24876
 Alpha  occ. eigenvalues --  -10.24734 -10.24557 -10.24187 -10.23848  -1.12090
 Alpha  occ. eigenvalues --   -1.11719  -1.07451  -0.91177  -0.90269  -0.83850
 Alpha  occ. eigenvalues --   -0.82499  -0.81493  -0.78495  -0.73967  -0.71098
 Alpha  occ. eigenvalues --   -0.68619  -0.61589  -0.58178  -0.56801  -0.55175
 Alpha  occ. eigenvalues --   -0.54468  -0.54012  -0.52588  -0.51912  -0.50699
 Alpha  occ. eigenvalues --   -0.50112  -0.49524  -0.49084  -0.48488  -0.48146
 Alpha  occ. eigenvalues --   -0.46823  -0.45478  -0.44988  -0.43345  -0.43061
 Alpha  occ. eigenvalues --   -0.42468  -0.42141  -0.42055  -0.32832  -0.32364
 Alpha  occ. eigenvalues --   -0.31445  -0.26190
 Alpha virt. eigenvalues --   -0.02338   0.02416   0.06531   0.08252   0.08823
 Alpha virt. eigenvalues --    0.10127   0.10750   0.12015   0.12738   0.13610
 Alpha virt. eigenvalues --    0.14249   0.15081   0.15738   0.16203   0.16981
 Alpha virt. eigenvalues --    0.17493   0.17763   0.18034   0.18229   0.19201
 Alpha virt. eigenvalues --    0.20020   0.22136   0.22803   0.23423   0.23568
 Alpha virt. eigenvalues --    0.24201   0.24864   0.25648   0.25785   0.26502
 Alpha virt. eigenvalues --    0.26841   0.27274   0.28695   0.29223   0.30228
 Alpha virt. eigenvalues --    0.31592   0.32017   0.32748   0.33619   0.34391
 Alpha virt. eigenvalues --    0.35390   0.35878   0.36797   0.38109   0.38906
 Alpha virt. eigenvalues --    0.40003   0.40918   0.41835   0.42290   0.42714
 Alpha virt. eigenvalues --    0.44038   0.44184   0.45357   0.46004   0.46121
 Alpha virt. eigenvalues --    0.47307   0.47790   0.48021   0.48302   0.48946
 Alpha virt. eigenvalues --    0.49539   0.50103   0.50724   0.51326   0.51575
 Alpha virt. eigenvalues --    0.52781   0.53177   0.53417   0.54198   0.54417
 Alpha virt. eigenvalues --    0.54670   0.55908   0.56199   0.56603   0.58182
 Alpha virt. eigenvalues --    0.58536   0.59212   0.60626   0.60978   0.62475
 Alpha virt. eigenvalues --    0.63125   0.65504   0.65959   0.66450   0.67865
 Alpha virt. eigenvalues --    0.68740   0.70194   0.71326   0.72357   0.73123
 Alpha virt. eigenvalues --    0.73567   0.73766   0.74875   0.76250   0.77526
 Alpha virt. eigenvalues --    0.78152   0.79607   0.81856   0.83871   0.84524
 Alpha virt. eigenvalues --    0.89055   0.92878   0.98418   0.99459   1.24910
 Alpha virt. eigenvalues --    1.25750   1.27304   1.27616   1.29358   1.31580
 Alpha virt. eigenvalues --    1.32424   1.32954   1.34114   1.35221   1.35984
 Alpha virt. eigenvalues --    1.36495   1.37051   1.38214   1.39282   1.39855
 Alpha virt. eigenvalues --    1.40090   1.40355   1.41165   1.41626   1.41780
 Alpha virt. eigenvalues --    1.43290   1.44133   1.44673   1.45201   1.46950
 Alpha virt. eigenvalues --    1.48054   1.48949   1.49608   1.50549   1.51105
 Alpha virt. eigenvalues --    1.52157   1.52475   1.53991   1.54310   1.57559
 Alpha virt. eigenvalues --    1.58145   1.60358   1.60692   1.61196   1.62168
 Alpha virt. eigenvalues --    1.62648   1.63304   1.64251   1.65310   1.65764
 Alpha virt. eigenvalues --    1.67171   1.67551   1.67980   1.68068   1.68804
 Alpha virt. eigenvalues --    1.68917   1.69980   1.70695   1.72299   1.72331
 Alpha virt. eigenvalues --    1.73258   1.75128   1.76080   1.76750   1.78718
 Alpha virt. eigenvalues --    1.79831   1.83455   1.84609   1.86189   1.86603
 Alpha virt. eigenvalues --    1.87033   1.87219   1.88471   1.89362   1.90981
 Alpha virt. eigenvalues --    1.91484   1.94472   1.95412   1.98067   1.99564
 Alpha virt. eigenvalues --    2.00865   2.03772   2.04429   2.06438   2.09450
 Alpha virt. eigenvalues --    2.11334   2.12902   2.14540   2.16571   2.19524
 Alpha virt. eigenvalues --    2.20582   2.21263   2.21780   2.22771   2.25882
 Alpha virt. eigenvalues --    2.26881   2.27570   2.28938   2.30448   2.31432
 Alpha virt. eigenvalues --    2.32817   2.34603   2.35938   2.36537   2.37777
 Alpha virt. eigenvalues --    2.39475   2.40108   2.41581   2.44040   2.44831
 Alpha virt. eigenvalues --    2.45807   2.47549   2.49876   2.50529   2.51899
 Alpha virt. eigenvalues --    2.53108   2.53275   2.54853   2.56836   2.58737
 Alpha virt. eigenvalues --    2.58997   2.59985   2.60935   2.61529   2.62521
 Alpha virt. eigenvalues --    2.64406   2.65479   2.67117   2.67630   2.69188
 Alpha virt. eigenvalues --    2.70461   2.71999   2.73013   2.73542   2.74721
 Alpha virt. eigenvalues --    2.76303   2.76570   2.77353   2.78017   2.79230
 Alpha virt. eigenvalues --    2.80651   2.81273   2.82756   2.83433   2.84453
 Alpha virt. eigenvalues --    2.85549   2.85973   2.87689   2.90391   2.91708
 Alpha virt. eigenvalues --    2.97552   2.99678   3.01098   3.03956   3.10119
 Alpha virt. eigenvalues --    3.12174   3.15043   3.16913   3.17089   3.19495
 Alpha virt. eigenvalues --    3.20505   3.22109   3.24993   3.26229   3.26983
 Alpha virt. eigenvalues --    3.27315   3.29342   3.33327   3.34519   3.36480
 Alpha virt. eigenvalues --    3.37098   3.38821   3.39754   3.40277   3.41449
 Alpha virt. eigenvalues --    3.42744   3.44847   3.45352   3.46267   3.47906
 Alpha virt. eigenvalues --    3.48410   3.49725   3.55241   3.58142   3.59433
 Alpha virt. eigenvalues --    3.60118   3.89736   3.99456   4.34053   4.35603
 Alpha virt. eigenvalues --   21.63232  21.79026  22.08172  22.10999  22.11664
 Alpha virt. eigenvalues --   22.14335  22.15422  22.17863  22.21098  22.24844
 Alpha virt. eigenvalues --   22.30429  31.93300  43.62681  43.64953
          Condensed to atoms (all electrons):
               1          2          3          4          5          6
     1  O    8.018215  -0.000000  -0.000303   0.000018   0.020745   0.024864
     2  O   -0.000000   8.021710   0.000139   0.000031  -0.215601   0.000779
     3  N   -0.000303   0.000139   6.197869   0.367437  -0.083005   0.357261
     4  H    0.000018   0.000031   0.367437   0.391645   0.016506  -0.041966
     5  C    0.020745  -0.215601  -0.083005   0.016506   7.215891   0.010869
     6  C    0.024864   0.000779   0.357261  -0.041966   0.010869   6.010661
     7  C   -0.000633  -0.019580   0.406442  -0.037762   0.048300  -0.193519
     8  C   -0.000013   0.692788   0.004243  -0.000428  -0.271261   0.028801
     9  C   -0.037258   0.017565   0.005574  -0.001094  -0.445812  -0.191755
    10  H    0.001678   0.000048   0.000948   0.000046  -0.016305  -0.007986
    11  H    0.020698  -0.000186  -0.001363   0.000021  -0.082490   0.018020
    12  C   -0.241402  -0.001594  -0.051622   0.014641   0.035655  -0.390959
    13  C    0.689667  -0.000019  -0.000264   0.000559   0.083034   0.155940
    14  C   -0.000004  -0.018013  -0.040912  -0.009337  -0.073957   0.013005
    15  H   -0.000000   0.004383   0.004038   0.001320   0.019034   0.006114
    16  H    0.000000   0.000075  -0.002670   0.000887  -0.010963  -0.001009
    17  H   -0.000000   0.000107   0.001295   0.000758  -0.000536  -0.000691
    18  C   -0.000124  -0.106969  -0.000672   0.000018  -0.295886  -0.000206
    19  H   -0.000002   0.010394   0.000006  -0.000001   0.028120   0.000024
    20  H   -0.000137   0.002354   0.000010  -0.000001   0.006741   0.000257
    21  H    0.000101   0.003645   0.000106   0.000001   0.041499  -0.001056
    22  C   -0.111668   0.000000   0.000410   0.000118   0.004669  -0.004732
    23  H    0.004996  -0.000000  -0.000181  -0.000056  -0.000708  -0.034106
    24  H    0.002160   0.000000   0.000046  -0.000015  -0.000128   0.015675
    25  H    0.010069  -0.000000   0.000010  -0.000003  -0.000133  -0.002058
    26  C    0.000788   0.000000  -0.037935  -0.007284  -0.001834   0.178904
    27  H   -0.000351  -0.000000   0.002268   0.000807  -0.000172  -0.057368
    28  H   -0.000070   0.000000  -0.002413   0.000536   0.000763  -0.053198
    29  H    0.000018   0.000000   0.001806   0.001141  -0.000651  -0.053716
               7          8          9         10         11         12
     1  O   -0.000633  -0.000013  -0.037258   0.001678   0.020698  -0.241402
     2  O   -0.019580   0.692788   0.017565   0.000048  -0.000186  -0.001594
     3  N    0.406442   0.004243   0.005574   0.000948  -0.001363  -0.051622
     4  H   -0.037762  -0.000428  -0.001094   0.000046   0.000021   0.014641
     5  C    0.048300  -0.271261  -0.445812  -0.016305  -0.082490   0.035655
     6  C   -0.193519   0.028801  -0.191755  -0.007986   0.018020  -0.390959
     7  C    5.907695  -0.213493  -0.173666  -0.002776   0.016670   0.013421
     8  C   -0.213493   5.472138   0.101916  -0.001360  -0.004767  -0.036305
     9  C   -0.173666   0.101916   6.439348   0.346357   0.491746   0.045065
    10  H   -0.002776  -0.001360   0.346357   0.477605  -0.021298   0.007973
    11  H    0.016670  -0.004767   0.491746  -0.021298   0.461652  -0.108786
    12  C    0.013421  -0.036305   0.045065   0.007973  -0.108786   7.455073
    13  C    0.010009  -0.006597  -0.281347  -0.000021   0.008326  -0.388053
    14  C    0.257454  -0.040947   0.010052  -0.000664   0.000324  -0.003298
    15  H   -0.073568   0.006713  -0.000302   0.000041   0.000003  -0.001365
    16  H   -0.039720   0.000859   0.001264  -0.000047   0.000071   0.000119
    17  H   -0.038167  -0.008104  -0.000812   0.000156  -0.000058   0.000064
    18  C    0.005557   0.299282  -0.008877  -0.006663   0.005311  -0.003790
    19  H    0.001541  -0.051078  -0.000887  -0.000070   0.000513  -0.000470
    20  H   -0.000142  -0.039145  -0.009592   0.000973  -0.003047  -0.001370
    21  H    0.001423  -0.063832  -0.007579  -0.000258  -0.003465   0.006186
    22  C   -0.000350  -0.000034  -0.001851   0.000961   0.001888  -0.282758
    23  H    0.000079  -0.000013   0.003808  -0.000103  -0.000189   0.070406
    24  H   -0.000011   0.000002  -0.003244   0.000051  -0.000130  -0.013576
    25  H    0.000030   0.000007   0.001501  -0.000009  -0.000142   0.028538
    26  C    0.006175   0.000231   0.019306  -0.000477  -0.000083  -0.073677
    27  H   -0.000525   0.000008   0.000935   0.000034   0.000015   0.000871
    28  H    0.000066  -0.000044  -0.001614  -0.000027   0.000013  -0.017476
    29  H    0.003913   0.000013  -0.000689   0.000041   0.000002   0.023566
              13         14         15         16         17         18
     1  O    0.689667  -0.000004  -0.000000   0.000000  -0.000000  -0.000124
     2  O   -0.000019  -0.018013   0.004383   0.000075   0.000107  -0.106969
     3  N   -0.000264  -0.040912   0.004038  -0.002670   0.001295  -0.000672
     4  H    0.000559  -0.009337   0.001320   0.000887   0.000758   0.000018
     5  C    0.083034  -0.073957   0.019034  -0.010963  -0.000536  -0.295886
     6  C    0.155940   0.013005   0.006114  -0.001009  -0.000691  -0.000206
     7  C    0.010009   0.257454  -0.073568  -0.039720  -0.038167   0.005557
     8  C   -0.006597  -0.040947   0.006713   0.000859  -0.008104   0.299282
     9  C   -0.281347   0.010052  -0.000302   0.001264  -0.000812  -0.008877
    10  H   -0.000021  -0.000664   0.000041  -0.000047   0.000156  -0.006663
    11  H    0.008326   0.000324   0.000003   0.000071  -0.000058   0.005311
    12  C   -0.388053  -0.003298  -0.001365   0.000119   0.000064  -0.003790
    13  C    5.519915  -0.000124  -0.000016  -0.000061   0.000008   0.000570
    14  C   -0.000124   5.066774   0.383046   0.419458   0.427114   0.001472
    15  H   -0.000016   0.383046   0.575818  -0.025862  -0.027073   0.000349
    16  H   -0.000061   0.419458  -0.025862   0.531701  -0.031206  -0.000270
    17  H    0.000008   0.427114  -0.027073  -0.031206   0.517975  -0.000052
    18  C    0.000570   0.001472   0.000349  -0.000270  -0.000052   5.415117
    19  H   -0.000027   0.000044  -0.000008   0.000004   0.000015   0.378660
    20  H    0.000242  -0.000366  -0.000007  -0.000045   0.000046   0.399991
    21  H    0.000356   0.000142  -0.000023   0.000014  -0.000073   0.377122
    22  C    0.294742  -0.000015   0.000002   0.000000  -0.000000   0.000018
    23  H   -0.092662  -0.000002   0.000000   0.000000   0.000000   0.000003
    24  H   -0.029329  -0.000001   0.000000  -0.000000   0.000000  -0.000002
    25  H   -0.042561   0.000001   0.000000   0.000000  -0.000000  -0.000000
    26  C   -0.049603   0.000808   0.000232  -0.000195   0.000058   0.000025
    27  H   -0.004394   0.000096  -0.000009   0.000007  -0.000003  -0.000000
    28  H    0.006769  -0.000353   0.000009  -0.000060   0.000008  -0.000000
    29  H   -0.000083   0.000088   0.000064   0.000013  -0.000008   0.000000
              19         20         21         22         23         24
     1  O   -0.000002  -0.000137   0.000101  -0.111668   0.004996   0.002160
     2  O    0.010394   0.002354   0.003645   0.000000  -0.000000   0.000000
     3  N    0.000006   0.000010   0.000106   0.000410  -0.000181   0.000046
     4  H   -0.000001  -0.000001   0.000001   0.000118  -0.000056  -0.000015
     5  C    0.028120   0.006741   0.041499   0.004669  -0.000708  -0.000128
     6  C    0.000024   0.000257  -0.001056  -0.004732  -0.034106   0.015675
     7  C    0.001541  -0.000142   0.001423  -0.000350   0.000079  -0.000011
     8  C   -0.051078  -0.039145  -0.063832  -0.000034  -0.000013   0.000002
     9  C   -0.000887  -0.009592  -0.007579  -0.001851   0.003808  -0.003244
    10  H   -0.000070   0.000973  -0.000258   0.000961  -0.000103   0.000051
    11  H    0.000513  -0.003047  -0.003465   0.001888  -0.000189  -0.000130
    12  C   -0.000470  -0.001370   0.006186  -0.282758   0.070406  -0.013576
    13  C   -0.000027   0.000242   0.000356   0.294742  -0.092662  -0.029329
    14  C    0.000044  -0.000366   0.000142  -0.000015  -0.000002  -0.000001
    15  H   -0.000008  -0.000007  -0.000023   0.000002   0.000000   0.000000
    16  H    0.000004  -0.000045   0.000014   0.000000   0.000000  -0.000000
    17  H    0.000015   0.000046  -0.000073  -0.000000   0.000000   0.000000
    18  C    0.378660   0.399991   0.377122   0.000018   0.000003  -0.000002
    19  H    0.515246  -0.011984  -0.017806  -0.000001   0.000000  -0.000000
    20  H   -0.011984   0.517942  -0.029168  -0.000002  -0.000000   0.000001
    21  H   -0.017806  -0.029168   0.542308   0.000010  -0.000000  -0.000000
    22  C   -0.000001  -0.000002   0.000010   5.457751   0.393808   0.403969
    23  H    0.000000  -0.000000  -0.000000   0.393808   0.543298  -0.026687
    24  H   -0.000000   0.000001  -0.000000   0.403969  -0.026687   0.506710
    25  H    0.000000  -0.000002   0.000000   0.368259  -0.020439  -0.013101
    26  C    0.000001   0.000005  -0.000013  -0.031007   0.014665  -0.014761
    27  H    0.000000  -0.000000   0.000000   0.008808  -0.010165  -0.004024
    28  H   -0.000000   0.000001  -0.000000  -0.011970  -0.002115   0.002538
    29  H    0.000000  -0.000000   0.000000   0.001859   0.000818   0.000008
              25         26         27         28         29
     1  O    0.010069   0.000788  -0.000351  -0.000070   0.000018
     2  O   -0.000000   0.000000  -0.000000   0.000000   0.000000
     3  N    0.000010  -0.037935   0.002268  -0.002413   0.001806
     4  H   -0.000003  -0.007284   0.000807   0.000536   0.001141
     5  C   -0.000133  -0.001834  -0.000172   0.000763  -0.000651
     6  C   -0.002058   0.178904  -0.057368  -0.053198  -0.053716
     7  C    0.000030   0.006175  -0.000525   0.000066   0.003913
     8  C    0.000007   0.000231   0.000008  -0.000044   0.000013
     9  C    0.001501   0.019306   0.000935  -0.001614  -0.000689
    10  H   -0.000009  -0.000477   0.000034  -0.000027   0.000041
    11  H   -0.000142  -0.000083   0.000015   0.000013   0.000002
    12  C    0.028538  -0.073677   0.000871  -0.017476   0.023566
    13  C   -0.042561  -0.049603  -0.004394   0.006769  -0.000083
    14  C    0.000001   0.000808   0.000096  -0.000353   0.000088
    15  H    0.000000   0.000232  -0.000009   0.000009   0.000064
    16  H    0.000000  -0.000195   0.000007  -0.000060   0.000013
    17  H   -0.000000   0.000058  -0.000003   0.000008  -0.000008
    18  C   -0.000000   0.000025  -0.000000  -0.000000   0.000000
    19  H    0.000000   0.000001   0.000000  -0.000000   0.000000
    20  H   -0.000002   0.000005  -0.000000   0.000001  -0.000000
    21  H    0.000000  -0.000013   0.000000  -0.000000   0.000000
    22  C    0.368259  -0.031007   0.008808  -0.011970   0.001859
    23  H   -0.020439   0.014665  -0.010165  -0.002115   0.000818
    24  H   -0.013101  -0.014761  -0.004024   0.002538   0.000008
    25  H    0.516878   0.001731   0.001518  -0.000379  -0.000031
    26  C    0.001731   5.238210   0.426711   0.437489   0.392593
    27  H    0.001518   0.426711   0.523460  -0.034181  -0.022671
    28  H   -0.000379   0.437489  -0.034181   0.507878  -0.020974
    29  H   -0.000031   0.392593  -0.022671  -0.020974   0.521231
 Mulliken charges:
               1
     1  O   -0.402053
     2  O   -0.392056
     3  N   -0.128566
     4  H    0.301457
     5  C   -0.032381
     6  C    0.213150
     7  C    0.115137
     8  C    0.130419
     9  C   -0.318057
    10  H    0.221152
    11  H    0.200731
    12  C   -0.085079
    13  C    0.125024
    14  C   -0.391885
    15  H    0.127068
    16  H    0.157636
    17  H    0.159181
    18  C   -0.459986
    19  H    0.147767
    20  H    0.166447
    21  H    0.150360
    22  C   -0.492882
    23  H    0.155545
    24  H    0.173848
    25  H    0.150313
    26  C   -0.501065
    27  H    0.168324
    28  H    0.188803
    29  H    0.151650
 Sum of Mulliken charges =  -0.00000
 Mulliken charges with hydrogens summed into heavy atoms:
               1
     1  O   -0.402053
     2  O   -0.392056
     3  N    0.172890
     5  C   -0.032381
     6  C    0.213150
     7  C    0.115137
     8  C    0.130419
     9  C    0.103826
    12  C   -0.085079
    13  C    0.125024
    14  C    0.052000
    18  C    0.004587
    22  C   -0.013176
    26  C    0.007712
 Electronic spatial extent (au):  <R**2>=           3188.4041
 Charge=              0.0000 electrons
 Dipole moment (field-independent basis, Debye):
    X=             -3.6325    Y=              8.0879    Z=             -0.9983  Tot=              8.9223
 Quadrupole moment (field-independent basis, Debye-Ang):
   XX=           -105.1803   YY=            -79.1900   ZZ=            -84.7172
   XY=            -13.3008   XZ=             -6.0584   YZ=             -1.2780
 Traceless Quadrupole moment (field-independent basis, Debye-Ang):
   XX=            -15.4844   YY=             10.5058   ZZ=              4.9786
   XY=            -13.3008   XZ=             -6.0584   YZ=             -1.2780
 Octapole moment (field-independent basis, Debye-Ang**2):
  XXX=           -105.0632  YYY=             71.3514  ZZZ=             -0.0047  XYY=             36.3085
  XXY=             33.6198  XXZ=            -12.6310  XZZ=             -2.6095  YZZ=             -1.2976
  YYZ=              0.9710  XYZ=              5.3394
 Hexadecapole moment (field-independent basis, Debye-Ang**3):
 XXXX=          -3111.1089 YYYY=          -1279.1635 ZZZZ=           -158.2407 XXXY=            -43.9767
 XXXZ=            -69.8682 YYYX=            -90.5386 YYYZ=            -23.7011 ZZZX=              1.9613
 ZZZY=              7.3720 XXYY=           -716.9690 XXZZ=           -496.3876 YYZZ=           -242.9721
 XXYZ=             -6.3393 YYXZ=             -6.9229 ZZXY=              1.0412
 N-N= 9.007878093737D+02 E-N=-3.277194907053D+03  KE= 6.307908065605D+02
 No NMR shielding tensors so no spin-rotation constants.
 Leave Link  601 at Sat Jan 24 22:24:52 2026, MaxMem=  2147483648 cpu:               1.8 elap:               0.1
 (Enter /data/home/wyx/g16/l9999.exe)
 Electronic transition elements 
                 1             2             3             4             5 
      1  -0.633207D+03 -0.633181D+03 -0.633176D+03 -0.633147D+03 -0.633129D+03
      2  -0.162686D+01 -0.148510D+00 -0.667988D-01  0.506454D+00  0.409492D+00
      3  -0.371138D+00 -0.594066D-01  0.166309D+00 -0.193599D+01 -0.135498D+01
      4  -0.382075D+00 -0.775622D-01  0.286109D-01 -0.581440D-01  0.605327D-01
      5   0.195026D+00  0.221288D-01  0.942667D-02 -0.862171D-01 -0.819906D-01
      6   0.480760D-01  0.886469D-02 -0.246231D-01  0.345644D+00  0.270991D+00
      7   0.468948D-01  0.867880D-02 -0.113970D-02  0.729057D-02 -0.109130D-01
      8   0.353818D+00 -0.721229D+00 -0.435742D+00 -0.152633D+00 -0.274763D+00
      9   0.277190D-01 -0.132821D+00  0.892118D+00  0.939140D-01  0.303044D-01
     10  -0.138253D+01 -0.544250D+00 -0.272130D+00  0.101428D+00  0.217525D+00
     11   0.215866D+00  0.361036D-01  0.753489D-01 -0.116690D+01 -0.441285D+00
     12  -0.281938D+00 -0.499604D-01 -0.434387D-01  0.213183D+00  0.301187D+00
     13  -0.168079D-01  0.104780D-01  0.858605D-02 -0.933623D-01  0.135453D-01
     14  -0.516226D+00 -0.307104D-01 -0.239043D-01 -0.435839D+00 -0.368603D-01
     15  -0.170029D-01  0.170888D-01 -0.528725D-01 -0.347559D+00 -0.145414D+00
     16  -0.136648D+00 -0.997837D-01 -0.364209D-01 -0.687198D-01 -0.762253D-01
                 6 
      1  -0.633110D+03
      2  -0.562958D-01
      3   0.271150D+00
      4  -0.712871D-01
      5   0.670097D-02
      6  -0.566576D-01
      7   0.345266D-01
      8  -0.496612D-01
      9   0.750054D-02
     10   0.234877D-01
     11  -0.324052D+00
     12  -0.258796D+00
     13   0.193751D+00
     14   0.118475D-01
     15  -0.115353D+00
     16  -0.107105D+00
 1\1\GINC-CN012\SP\RCAM-B3LYP TD-FC\TZVP\C11H15N1O2\WYX\24-Jan-2026\0\\
 #p CAM-B3LYP TZVP em=gd3bj td(nstates=6,root=1) scrf=(Solvent=Water,Co
 rrectedLR,NonEquilibrium=Save) Geom=Check Guess=Read\\Title Card Requi
 red\\0,1\O,0,2.746546,-1.558123,0.737766\O,0,-3.22321,-1.639939,-1.115
 14\N,0,-0.71107,1.513087,0.129253\H,0,-1.019221,2.470539,0.07242\C,0,-
 1.248072,-0.7583,-0.151096\C,0,0.640803,1.300052,0.285491\C,0,-1.61975
 6,0.543854,-0.224344\C,0,-2.15063,-1.834552,-0.551376\C,0,0.095979,-1.
 106861,0.439648\H,0,-0.01587,-1.425438,1.485019\H,0,0.524215,-1.968853
 ,-0.06775\C,0,1.092932,0.024536,0.361494\C,0,2.492023,-0.390317,0.4540
 92\C,0,-2.942585,1.083269,-0.659628\H,0,-3.041375,2.129495,-0.373288\H
 ,0,-3.047448,1.011949,-1.741346\H,0,-3.760301,0.514246,-0.230149\C,0,-
 1.724005,-3.249324,-0.251994\H,0,-2.557668,-3.920988,-0.434587\H,0,-0.
 893828,-3.537601,-0.898591\H,0,-1.380908,-3.359864,0.775895\C,0,3.6468
 11,0.539681,0.173938\H,0,3.447227,1.236456,-0.635747\H,0,3.89356,1.116
 566,1.066869\H,0,4.510855,-0.071257,-0.07684\C,0,1.419002,2.578069,0.3
 48051\H,0,2.261965,2.517322,1.02505\H,0,1.788791,2.857489,-0.639194\H,
 0,0.775236,3.384809,0.696084\\Version=ES64L-G16RevA.03\State=1-A\HF=-6
 33.3324152\RMSD=2.530e-09\Dipole=0.1818601,3.4780246,0.438598\Quadrupo
 le=-13.1316816,11.9003356,1.231346,1.5344332,-7.8958597,-0.3389873\PG=
 C01 [X(C11H15N1O2)]\\@


 ERWIN WITH HIS PSI CAN DO
 CALCULATIONS QUITE A FEW.
 BUT ONE THING HAS NOT BEEN SEEN
 JUST WHAT DOES PSI REALLY MEAN.
 -- WALTER HUCKEL, TRANS. BY FELIX BLOCH
 Job cpu time:       0 days  2 hours 42 minutes 35.9 seconds.
 Elapsed time:       0 days  0 hours 10 minutes 12.7 seconds.
 File lengths (MBytes):  RWF=    733 Int=      0 D2E=      0 Chk=     67 Scr=      1
 Normal termination of Gaussian 16 at Sat Jan 24 22:24:54 2026.
