 Entering Gaussian System, Link 0=g16
 Input=DDL-S1-cLR-gs-5.gjf
 Output=DDL-S1-cLR-gs-5.log
 Initial command:
 /data/home/wyx/g16/l1.exe "/scr/tmp/wyx/13117/Gau-2032339.inp" -scrdir="/scr/tmp/wyx/13117/"
 Entering Link 1 = /data/home/wyx/g16/l1.exe PID=   2032340.
  
 Copyright (c) 1988,1990,1992,1993,1995,1998,2003,2009,2016,
            Gaussian, Inc.  All Rights Reserved.
  
 This is part of the Gaussian(R) 16 program.  It is based on
 the Gaussian(R) 09 system (copyright 2009, Gaussian, Inc.),
 the Gaussian(R) 03 system (copyright 2003, Gaussian, Inc.),
 the Gaussian(R) 98 system (copyright 1998, Gaussian, Inc.),
 the Gaussian(R) 94 system (copyright 1995, Gaussian, Inc.),
 the Gaussian 92(TM) system (copyright 1992, Gaussian, Inc.),
 the Gaussian 90(TM) system (copyright 1990, Gaussian, Inc.),
 the Gaussian 88(TM) system (copyright 1988, Gaussian, Inc.),
 the Gaussian 86(TM) system (copyright 1986, Carnegie Mellon
 University), and the Gaussian 82(TM) system (copyright 1983,
 Carnegie Mellon University). Gaussian is a federally registered
 trademark of Gaussian, Inc.
  
 This software contains proprietary and confidential information,
 including trade secrets, belonging to Gaussian, Inc.
  
 This software is provided under written license and may be
 used, copied, transmitted, or stored only in accord with that
 written license.
  
 The following legend is applicable only to US Government
 contracts under FAR:
  
                    RESTRICTED RIGHTS LEGEND
  
 Use, reproduction and disclosure by the US Government is
 subject to restrictions as set forth in subparagraphs (a)
 and (c) of the Commercial Computer Software - Restricted
 Rights clause in FAR 52.227-19.
  
 Gaussian, Inc.
 340 Quinnipiac St., Bldg. 40, Wallingford CT 06492
  
  
 ---------------------------------------------------------------
 Warning -- This program may not be used in any manner that
 competes with the business of Gaussian, Inc. or will provide
 assistance to any competitor of Gaussian, Inc.  The licensee
 of this program is prohibited from giving any competitor of
 Gaussian, Inc. access to this program.  By using this program,
 the user acknowledges that Gaussian, Inc. is engaged in the
 business of creating and licensing software in the field of
 computational chemistry and represents and warrants to the
 licensee that it is not a competitor of Gaussian, Inc. and that
 it will not use this program in any manner prohibited above.
 ---------------------------------------------------------------
  

 Cite this work as:
 Gaussian 16, Revision A.03,
 M. J. Frisch, G. W. Trucks, H. B. Schlegel, G. E. Scuseria, 
 M. A. Robb, J. R. Cheeseman, G. Scalmani, V. Barone, 
 G. A. Petersson, H. Nakatsuji, X. Li, M. Caricato, A. V. Marenich, 
 J. Bloino, B. G. Janesko, R. Gomperts, B. Mennucci, H. P. Hratchian, 
 J. V. Ortiz, A. F. Izmaylov, J. L. Sonnenberg, D. Williams-Young, 
 F. Ding, F. Lipparini, F. Egidi, J. Goings, B. Peng, A. Petrone, 
 T. Henderson, D. Ranasinghe, V. G. Zakrzewski, J. Gao, N. Rega, 
 G. Zheng, W. Liang, M. Hada, M. Ehara, K. Toyota, R. Fukuda, 
 J. Hasegawa, M. Ishida, T. Nakajima, Y. Honda, O. Kitao, H. Nakai, 
 T. Vreven, K. Throssell, J. A. Montgomery, Jr., J. E. Peralta, 
 F. Ogliaro, M. J. Bearpark, J. J. Heyd, E. N. Brothers, K. N. Kudin, 
 V. N. Staroverov, T. A. Keith, R. Kobayashi, J. Normand, 
 K. Raghavachari, A. P. Rendell, J. C. Burant, S. S. Iyengar, 
 J. Tomasi, M. Cossi, J. M. Millam, M. Klene, C. Adamo, R. Cammi, 
 J. W. Ochterski, R. L. Martin, K. Morokuma, O. Farkas, 
 J. B. Foresman, and D. J. Fox, Gaussian, Inc., Wallingford CT, 2016.
 
 ******************************************
 Gaussian 16:  ES64L-G16RevA.03 25-Dec-2016
                24-Jan-2026 
 ******************************************
 %nprocshared=16
 Will use up to   16 processors via shared memory.
 %mem=16GB
 %oldchk=DDL-S1-cLR-5.chk
 %chk=DDL-S1-cLR-gs-5.chk
 Copying data from "DDL-S1-cLR-5.chk" to current chk file "DDL-S1-cLR-gs-5.chk"
 IOpt=  2 FromEx=T IUOpen= 4 IOptOp= 5 NList=   0 IFRang= 0 IUIn= 4 IUOut= 2.
 ----------------------------------------------------------------------
 #p CAM-B3LYP TZVP em=gd3bj scrf=(Solvent=Water,NonEquilibrium=Read) Ge
 om=Check Guess=Read
 ----------------------------------------------------------------------
 1/29=2,38=1,172=1/1;
 2/12=2,40=1/2;
 3/5=19,7=101,11=2,14=-4,25=1,30=1,70=6002201,72=1,74=-40,116=-2,124=41/1,2,3;
 4/5=1/1;
 5/5=2,38=6,53=1/2;
 6/7=2,8=2,9=2,10=2,28=1/1;
 99/5=1,9=1/99;
 Leave Link    1 at Sat Jan 24 22:54:53 2026, MaxMem=  2147483648 cpu:               0.8 elap:               0.1
 (Enter /data/home/wyx/g16/l101.exe)
 -------------------
 Title Card Required
 -------------------
 Structure from the checkpoint file:  "DDL-S1-cLR-gs-5.chk"
 Charge =  0 Multiplicity = 1
 Z-Matrix found in chk file.
 O,0,2.720956,-1.559423,0.849765
 O,0,-3.294889,-1.659465,-0.930321
 N,0,-0.686565,1.5162,-0.032006
 H,0,-0.994989,2.476539,-0.098671
 C,0,-1.252221,-0.762919,-0.171068
 C,0,0.643454,1.330057,0.213659
 C,0,-1.626893,0.571178,-0.282063
 C,0,-2.163329,-1.848374,-0.475593
 C,0,0.117312,-1.083983,0.300604
 H,0,0.06685,-1.505911,1.319428
 H,0,0.536084,-1.917138,-0.271218
 C,0,1.103584,0.026584,0.319178
 C,0,2.481485,-0.39504,0.506718
 C,0,-2.973124,1.10017,-0.632911
 H,0,-3.01493,2.179714,-0.504687
 H,0,-3.230283,0.870878,-1.662921
 H,0,-3.744737,0.649353,-0.018359
 C,0,-1.702628,-3.264746,-0.251527
 H,0,-2.563536,-3.924056,-0.240095
 H,0,-1.049015,-3.58383,-1.062288
 H,0,-1.148874,-3.392622,0.673304
 C,0,3.649213,0.525774,0.252183
 H,0,3.466512,1.241698,-0.544475
 H,0,3.903236,1.080532,1.157805
 H,0,4.506434,-0.091317,-0.009159
 C,0,1.415077,2.598683,0.36703
 H,0,2.156797,2.523341,1.154674
 H,0,1.930187,2.877522,-0.552311
 H,0,0.748835,3.420602,0.625326
 Recover connectivity data from disk.
 ITRead=  0  0  0  0  0  0  0  0  0  0  0  0  0  0  0  0  0  0  0  0
 ITRead=  0  0  0  0  0  0  0  0  0
 MicOpt= -1 -1 -1 -1 -1 -1 -1 -1 -1 -1 -1 -1 -1 -1 -1 -1 -1 -1 -1 -1
 MicOpt= -1 -1 -1 -1 -1 -1 -1 -1 -1
 NAtoms=     29 NQM=       29 NQMF=       0 NMMI=      0 NMMIF=      0
                NMic=       0 NMicF=      0.
                    Isotopes and Nuclear Properties:
 (Nuclear quadrupole moments (NQMom) in fm**2, nuclear magnetic moments (NMagM)
  in nuclear magnetons)

  Atom         1           2           3           4           5           6           7           8           9          10
 IAtWgt=          16          16          14           1          12          12          12          12          12           1
 AtmWgt=  15.9949146  15.9949146  14.0030740   1.0078250  12.0000000  12.0000000  12.0000000  12.0000000  12.0000000   1.0078250
 NucSpn=           0           0           2           1           0           0           0           0           0           1
 AtZEff=   5.6000000   5.6000000   4.5500000   1.0000000   3.6000000   3.6000000   3.6000000   3.6000000   3.6000000   1.0000000
 NQMom=    0.0000000   0.0000000   2.0440000   0.0000000   0.0000000   0.0000000   0.0000000   0.0000000   0.0000000   0.0000000
 NMagM=    0.0000000   0.0000000   0.4037610   2.7928460   0.0000000   0.0000000   0.0000000   0.0000000   0.0000000   2.7928460
 AtZNuc=   8.0000000   8.0000000   7.0000000   1.0000000   6.0000000   6.0000000   6.0000000   6.0000000   6.0000000   1.0000000

  Atom        11          12          13          14          15          16          17          18          19          20
 IAtWgt=           1          12          12          12           1           1           1          12           1           1
 AtmWgt=   1.0078250  12.0000000  12.0000000  12.0000000   1.0078250   1.0078250   1.0078250  12.0000000   1.0078250   1.0078250
 NucSpn=           1           0           0           0           1           1           1           0           1           1
 AtZEff=   1.0000000   3.6000000   3.6000000   3.6000000   1.0000000   1.0000000   1.0000000   3.6000000   1.0000000   1.0000000
 NQMom=    0.0000000   0.0000000   0.0000000   0.0000000   0.0000000   0.0000000   0.0000000   0.0000000   0.0000000   0.0000000
 NMagM=    2.7928460   0.0000000   0.0000000   0.0000000   2.7928460   2.7928460   2.7928460   0.0000000   2.7928460   2.7928460
 AtZNuc=   1.0000000   6.0000000   6.0000000   6.0000000   1.0000000   1.0000000   1.0000000   6.0000000   1.0000000   1.0000000

  Atom        21          22          23          24          25          26          27          28          29
 IAtWgt=           1          12           1           1           1          12           1           1           1
 AtmWgt=   1.0078250  12.0000000   1.0078250   1.0078250   1.0078250  12.0000000   1.0078250   1.0078250   1.0078250
 NucSpn=           1           0           1           1           1           0           1           1           1
 AtZEff=   1.0000000   3.6000000   1.0000000   1.0000000   1.0000000   3.6000000   1.0000000   1.0000000   1.0000000
 NQMom=    0.0000000   0.0000000   0.0000000   0.0000000   0.0000000   0.0000000   0.0000000   0.0000000   0.0000000
 NMagM=    2.7928460   0.0000000   2.7928460   2.7928460   2.7928460   0.0000000   2.7928460   2.7928460   2.7928460
 AtZNuc=   1.0000000   6.0000000   1.0000000   1.0000000   1.0000000   6.0000000   1.0000000   1.0000000   1.0000000
 Leave Link  101 at Sat Jan 24 22:54:57 2026, MaxMem=  2147483648 cpu:               0.9 elap:               0.1
 (Enter /data/home/wyx/g16/l202.exe)
                          Input orientation:                          
 ---------------------------------------------------------------------
 Center     Atomic      Atomic             Coordinates (Angstroms)
 Number     Number       Type             X           Y           Z
 ---------------------------------------------------------------------
      1          8           0        2.720956   -1.559423    0.849765
      2          8           0       -3.294889   -1.659465   -0.930321
      3          7           0       -0.686565    1.516200   -0.032006
      4          1           0       -0.994989    2.476539   -0.098671
      5          6           0       -1.252221   -0.762919   -0.171068
      6          6           0        0.643454    1.330057    0.213659
      7          6           0       -1.626893    0.571178   -0.282063
      8          6           0       -2.163329   -1.848374   -0.475593
      9          6           0        0.117312   -1.083983    0.300604
     10          1           0        0.066850   -1.505911    1.319428
     11          1           0        0.536084   -1.917138   -0.271218
     12          6           0        1.103584    0.026584    0.319178
     13          6           0        2.481485   -0.395040    0.506718
     14          6           0       -2.973124    1.100170   -0.632911
     15          1           0       -3.014930    2.179714   -0.504687
     16          1           0       -3.230283    0.870878   -1.662921
     17          1           0       -3.744737    0.649353   -0.018359
     18          6           0       -1.702628   -3.264746   -0.251527
     19          1           0       -2.563536   -3.924056   -0.240095
     20          1           0       -1.049015   -3.583830   -1.062288
     21          1           0       -1.148874   -3.392622    0.673304
     22          6           0        3.649213    0.525774    0.252183
     23          1           0        3.466512    1.241698   -0.544475
     24          1           0        3.903236    1.080532    1.157805
     25          1           0        4.506434   -0.091317   -0.009159
     26          6           0        1.415077    2.598683    0.367030
     27          1           0        2.156797    2.523341    1.154674
     28          1           0        1.930187    2.877522   -0.552311
     29          1           0        0.748835    3.420602    0.625326
 ---------------------------------------------------------------------
                    Distance matrix (angstroms):
                    1          2          3          4          5
     1  O    0.000000
     2  O    6.274481   0.000000
     3  N    4.674203   4.206563   0.000000
     4  H    5.567474   4.804967   1.010851   0.000000
     5  C    4.178834   2.356428   2.352379   3.250461   0.000000
     6  C    3.615210   5.075084   1.365266   2.023973   2.849938
     7  C    4.972352   2.859758   1.356397   2.015772   1.390149
     8  C    5.069152   1.234055   3.701075   4.495771   1.449505
     9  C    2.703069   3.672802   2.741861   3.751526   1.483636
    10  H    2.695872   4.047992   3.395168   4.358717   2.124515
    11  H    2.481578   3.895788   3.652383   4.656002   2.130795
    12  C    2.326550   4.873456   2.355190   3.252827   2.532484
    13  C    1.237261   6.085257   3.738931   4.549542   3.812517
    14  C    6.457113   2.794203   2.400525   2.468364   2.577966
    15  H    6.979690   3.872833   2.466772   2.081614   3.446380
    16  H    6.901971   2.635055   3.089794   3.165685   2.967768
    17  H    6.887490   2.522831   3.178683   3.302450   2.868879
    18  C    4.867141   2.360717   4.892649   5.786750   2.543320
    19  H    5.891107   2.477834   5.758707   6.591506   3.423025
    20  H    4.686881   2.960498   5.215665   6.136738   2.965317
    21  H    4.285714   3.190741   4.980735   5.921712   2.763871
    22  C    2.359409   7.375238   4.456532   5.049475   5.085659
    23  H    3.216526   7.367643   4.193569   4.650652   5.140463
    24  H    2.908958   7.980029   4.761484   5.245968   5.634088
    25  H    2.465972   8.010510   5.436163   6.071866   5.799946
    26  C    4.384997   6.480642   2.397477   2.457685   4.324858
    27  H    4.132821   7.180804   3.241489   3.392170   4.917164
    28  H    4.719917   6.930264   2.995214   2.987178   4.850348
    29  H    5.360996   6.676737   2.473703   2.111007   4.705350
                    6          7          8          9         10
     6  C    0.000000
     7  C    2.444609   0.000000
     8  C    4.295989   2.485850   0.000000
     9  C    2.472241   2.474128   2.527469   0.000000
    10  H    3.098050   3.122153   2.883241   1.103889   0.000000
    11  H    3.284952   3.297014   2.708012   1.093845   1.708638
    12  C    1.386325   2.848434   3.849656   1.485408   2.103297
    13  C    2.537755   4.293544   4.965019   2.471121   2.779387
    14  C    3.721447   1.488377   3.061769   3.897790   4.454742
    15  H    3.823835   2.136258   4.117228   4.594687   5.138929
    16  H    4.328768   2.137159   3.153168   4.345492   5.041291
    17  H    4.446730   2.135630   2.991413   4.245187   4.578540
    18  C    5.180030   3.836793   1.506174   2.893572   2.948297
    19  H    6.172227   4.591970   2.126989   3.942755   3.898521
    20  H    5.351521   4.266941   2.144228   3.076854   3.351936
    21  H    5.072219   4.105233   2.175726   2.659313   2.335624
    22  C    3.111743   5.303280   6.320750   3.881750   4.254419
    23  H    2.924420   5.144048   6.422492   4.164144   4.751967
    24  H    3.402918   5.737159   6.931788   4.444450   4.629651
    25  H    4.122204   6.175037   6.913071   4.510624   4.845217
    26  C    1.492761   3.712907   5.769863   3.905206   4.424078
    27  H    2.144678   4.493491   6.358707   4.231043   4.542014
    28  H    2.153379   4.247949   6.252748   4.439313   5.117608
    29  H    2.133296   3.819248   6.120035   4.560214   5.021694
                   11         12         13         14         15
    11  H    0.000000
    12  C    2.109189   0.000000
    13  C    2.589701   1.453117   0.000000
    14  C    4.642145   4.321876   5.769503   0.000000
    15  H    5.426638   4.719839   6.153282   1.087936   0.000000
    16  H    4.888291   4.839830   6.239726   1.086106   1.760947
    17  H    4.997624   4.899795   6.335006   1.084572   1.763842
    18  C    2.613095   4.362727   5.130005   4.562029   5.606101
    19  H    3.692741   5.419235   6.201929   5.056176   6.126155
    20  H    2.432323   4.424615   5.009450   5.081970   6.115078
    21  H    2.430691   4.109737   4.710919   5.021879   5.993393
    22  C    3.991659   2.594977   1.508733   6.705868   6.907906
    23  H    4.317444   2.793891   2.180412   6.441798   6.549088
    24  H    4.729254   3.106791   2.150024   7.105728   7.199521
    25  H    4.377896   3.420686   2.111586   7.599506   7.872360
    26  C    4.644634   2.591334   3.181056   4.743599   4.534356
    27  H    4.937381   2.835685   3.007028   5.615778   5.442271
    28  H    5.001130   3.093641   3.483552   5.216123   4.994335
    29  H    5.416689   3.426212   4.192287   4.562953   4.121002
                   16         17         18         19         20
    16  H    0.000000
    17  H    1.737331   0.000000
    18  C    4.629163   4.420944   0.000000
    19  H    5.045828   4.728686   1.084427   0.000000
    20  H    4.996310   5.126065   1.089201   1.756567   0.000000
    21  H    5.288444   4.853294   1.085499   1.765783   1.748946
    22  C    7.149419   7.399930   6.577535   7.657779   6.378873
    23  H    6.799669   7.254639   6.863954   7.946014   6.629015
    24  H    7.673822   7.749888   7.231415   8.295732   7.156108
    25  H    7.969789   8.284353   6.977238   8.045352   6.646032
    26  C    5.355873   5.529204   6.669520   7.664469   6.807214
    27  H    6.300008   6.302058   7.097501   8.111464   7.244977
    28  H    5.647170   6.120017   7.142498   8.157971   7.133358
    29  H    5.250766   5.318490   7.174428   8.103379   7.425791
                   21         22         23         24         25
    21  H    0.000000
    22  C    6.209091   0.000000
    23  H    6.652946   1.086550   0.000000
    24  H    6.765180   1.091987   1.764783   0.000000
    25  H    6.583835   1.088085   1.773395   1.760364   0.000000
    26  C    6.524062   3.049837   2.623096   3.020106   4.115107
    27  H    6.793953   2.651805   2.499014   2.265338   3.702936
    28  H    7.092070   3.022082   2.244165   3.169636   3.968132
    29  H    7.072738   4.114785   3.674483   3.963547   5.182248
                   26         27         28         29
    26  C    0.000000
    27  H    1.084531   0.000000
    28  H    1.090081   1.758009   0.000000
    29  H    1.089103   1.751469   1.754240   0.000000
 Stoichiometry    C11H15NO2
 Framework group  C1[X(C11H15NO2)]
 Deg. of freedom    81
 Full point group                 C1      NOp   1
 RotChk:  IX=0 Diff= 7.29D-16
 Largest Abelian subgroup         C1      NOp   1
 Largest concise Abelian subgroup C1      NOp   1
                         Standard orientation:                         
 ---------------------------------------------------------------------
 Center     Atomic      Atomic             Coordinates (Angstroms)
 Number     Number       Type             X           Y           Z
 ---------------------------------------------------------------------
      1          8           0       -2.288426   -2.285132   -0.256834
      2          8           0        3.623122   -0.257841    0.302457
      3          7           0       -0.022057    1.800307   -0.112120
      4          1           0       -0.049909    2.810722   -0.122374
      5          6           0        1.296209   -0.147077   -0.052453
      6          6           0       -1.231878    1.168100   -0.087613
      7          6           0        1.211160    1.240393   -0.038063
      8          6           0        2.559767   -0.844331    0.082916
      9          6           0        0.054694   -0.937512   -0.239614
     10          1           0        0.059943   -1.400371   -1.241765
     11          1           0        0.052955   -1.812868    0.416318
     12          6           0       -1.235123   -0.218201   -0.080242
     13          6           0       -2.399037   -1.083023    0.014302
     14          6           0        2.339015    2.209047    0.032072
     15          1           0        1.989403    3.228225   -0.118432
     16          1           0        2.840120    2.161152    0.994479
     17          1           0        3.093106    1.988754   -0.715667
     18          6           0        2.572758   -2.346644   -0.024069
     19          1           0        3.588772   -2.684974   -0.195041
     20          1           0        2.223443   -2.796139    0.904528
     21          1           0        1.937501   -2.723813   -0.819369
     22          6           0       -3.742944   -0.579811    0.480099
     23          1           0       -3.672396    0.218354    1.213956
     24          1           0       -4.328744   -0.214571   -0.365994
     25          1           0       -4.278778   -1.421095    0.914898
     26          6           0       -2.401246    2.095789   -0.105155
     27          1           0       -3.203090    1.717367   -0.729695
     28          1           0       -2.805222    2.263228    0.893367
     29          1           0       -2.110512    3.067280   -0.502425
 ---------------------------------------------------------------------
 Rotational constants (GHZ):           1.0753577           0.4901393           0.3437541
 Leave Link  202 at Sat Jan 24 22:54:57 2026, MaxMem=  2147483648 cpu:               0.0 elap:               0.0
 (Enter /data/home/wyx/g16/l301.exe)
 Standard basis: TZVP (5D, 7F)
 Ernie: Thresh=  0.10000D-02 Tol=  0.10000D-05 Strict=F.
 There are   370 symmetry adapted cartesian basis functions of A   symmetry.
 There are   356 symmetry adapted basis functions of A   symmetry.
   356 basis functions,   610 primitive gaussians,   370 cartesian basis functions
    52 alpha electrons       52 beta electrons
       nuclear repulsion energy       899.7021803292 Hartrees.
 IExCor=20419 DFT=T Ex+Corr=CAM-B3LYP ExCW=0 ScaHFX=  1.000000
 ScaDFX=  1.000000  1.000000  1.000000  0.810000 ScalE2=  1.000000  1.000000
 IRadAn=      5 IRanWt=     -1 IRanGd=            0 ICorTp=0 IEmpDi=141
 HFx  wShort=  0.000000 wLong=  0.330000 cFull=  0.190000 cShort=  0.000000 cLong=  0.460000
 DFx  wShort=  0.000000 wLong=  0.330000 cFull=  0.190000 cShort=  0.000000 cLong=  0.460000
 NAtoms=   29 NActive=   29 NUniq=   29 SFac= 1.00D+00 NAtFMM=   60 NAOKFM=F Big=F
 Integral buffers will be    131072 words long.
 Raffenetti 2 integral format.
 Two-electron integral symmetry is turned on.
 R6Disp:  Grimme-D3(BJ) Dispersion energy=       -0.0261494983 Hartrees.
 Nuclear repulsion after empirical dispersion term =      899.6760308309 Hartrees.
 ------------------------------------------------------------------------------
 Polarizable Continuum Model (PCM)
 =================================
 Model                : PCM.
 Atomic radii         : UFF (Universal Force Field).
 Polarization charges : Total charges.
 Charge compensation  : None.
 Solution method      : On-the-fly selection.
 Cavity type          : Scaled VdW (van der Waals Surface) (Alpha=1.100).
 Cavity algorithm     : GePol (No added spheres)
                        Default sphere list used, NSphG=   29.
                        Lebedev-Laikov grids with approx.  5.0 points / Ang**2.
                        Smoothing algorithm: York/Karplus (Gamma=1.0000).
                        Polarization charges: spherical gaussians, with
                                              point-specific exponents (IZeta= 3).
                        Self-potential: point-specific (ISelfS= 7).
                        Self-field    : sphere-specific E.n sum rule (ISelfD= 2).
 Solvent              : Water, Eps=  78.355300 Eps(inf)=   1.777849
 ------------------------------------------------------------------------------
 GePol: Number of generator spheres                  =      29
 GePol: Total number of spheres                      =      29
 GePol: Number of exposed spheres                    =      29 (100.00%)
 GePol: Number of points                             =    2118
 GePol: Average weight of points                     =       0.13
 GePol: Minimum weight of points                     =   0.39D-11
 GePol: Maximum weight of points                     =    0.20577
 GePol: Number of points with low weight             =     135
 GePol: Fraction of low-weight points (<1% of avg)   =       6.37%
 GePol: Cavity surface area                          =    269.079 Ang**2
 GePol: Cavity volume                                =    287.080 Ang**3
 Leave Link  301 at Sat Jan 24 22:54:57 2026, MaxMem=  2147483648 cpu:               0.5 elap:               0.0
 (Enter /data/home/wyx/g16/l302.exe)
 NPDir=0 NMtPBC=     1 NCelOv=     1 NCel=       1 NClECP=     1 NCelD=      1
         NCelK=      1 NCelE2=     1 NClLst=     1 CellRange=     0.0.
 One-electron integrals computed using PRISM.
 One-electron integral symmetry used in STVInt
 NBasis=   356 RedAO= T EigKep=  4.36D-05  NBF=   356
 NBsUse=   356 1.00D-06 EigRej= -1.00D+00 NBFU=   356
 Precomputing XC quadrature grid using
 IXCGrd= 4 IRadAn=           5 IRanWt=          -1 IRanGd=           0 AccXCQ= 0.00D+00.
 Generated NRdTot=       0 NPtTot=           0 NUsed=           0 NTot=          32
 NSgBfM=   366   366   366   366   366 MxSgAt=    29 MxSgA2=    29.
 Leave Link  302 at Sat Jan 24 22:54:58 2026, MaxMem=  2147483648 cpu:               3.1 elap:               0.2
 (Enter /data/home/wyx/g16/l303.exe)
 DipDrv:  MaxL=1.
 Leave Link  303 at Sat Jan 24 22:54:58 2026, MaxMem=  2147483648 cpu:               0.5 elap:               0.0
 (Enter /data/home/wyx/g16/l401.exe)
 Initial guess from the checkpoint file:  "DDL-S1-cLR-gs-5.chk"
 B after Tr=    -0.000000   -0.000000   -0.000000
         Rot=    1.000000    0.000000   -0.000000   -0.000000 Ang=   0.00 deg.
 Guess basis will be translated and rotated to current coordinates.
 JPrj=2 DoOrth=T DoCkMO=T.
 Leave Link  401 at Sat Jan 24 22:54:58 2026, MaxMem=  2147483648 cpu:               2.2 elap:               0.1
 (Enter /data/home/wyx/g16/l502.exe)
 Integral symmetry usage will be decided dynamically.
 Closed shell SCF:
 Using DIIS extrapolation, IDIIS=  1040.
 NGot=  2147483648 LenX=  2147200095 LenY=  2147062754
 Requested convergence on RMS density matrix=1.00D-08 within 128 cycles.
 Requested convergence on MAX density matrix=1.00D-06.
 Requested convergence on             energy=1.00D-06.
 No special actions if energy rises.
 Fock matrices will be formed incrementally for  20 cycles.

 Cycle   1  Pass 1  IDiag  1:
 FoFJK:  IHMeth= 1 ICntrl=       0 DoSepK=T KAlg= 0 I1Cent=           0 FoldK=F
 IRaf=         1 NMat=       1 IRICut=       1 DoRegI=T DoRafI=F ISym2E= 0 IDoP0=0 IntGTp=1.
 FoFCou: FMM=F IPFlag=           0 FMFlag=      100000 FMFlg1=           0
         NFxFlg=           0 DoJE=T BraDBF=F KetDBF=F FulRan=T
         wScrn=  0.000000 ICntrl=       500 IOpCl=  0 I1Cent=           0 NGrid=           0
         NMat0=    1 NMatS0=      1 NMatT0=    0 NMatD0=    1 NMtDS0=    0 NMtDT0=    0
 Symmetry not used in FoFCou.
 Inv3:  Mode=1 IEnd=    13457772.
 Iteration    1 A*A^-1 deviation from unit magnitude is 2.89D-15 for     33.
 Iteration    1 A*A^-1 deviation from orthogonality  is 2.00D-15 for   2023    560.
 Iteration    1 A^-1*A deviation from unit magnitude is 2.66D-15 for     33.
 Iteration    1 A^-1*A deviation from orthogonality  is 2.22D-15 for   1953    349.
 NEqPCM:  Using non-equilibrium solvation (IEInf=1, Eps=  78.3553, EpsInf=   1.7778)
 Inv3:  Mode=1 IEnd=    13457772.
 Iteration    1 A*A^-1 deviation from unit magnitude is 3.33D-15 for    717.
 Iteration    1 A*A^-1 deviation from orthogonality  is 1.62D-15 for   1353      3.
 Iteration    1 A^-1*A deviation from unit magnitude is 3.33D-15 for    717.
 Iteration    1 A^-1*A deviation from orthogonality  is 1.78D-15 for   1953    349.
 E= -633.326136786600    
 DIIS: error= 3.28D-04 at cycle   1 NSaved=   1.
 NSaved= 1 IEnMin= 1 EnMin= -633.326136786600     IErMin= 1 ErrMin= 3.28D-04
 ErrMax= 3.28D-04  0.00D+00 EMaxC= 1.00D-01 BMatC= 2.62D-05 BMatP= 2.62D-05
 IDIUse=3 WtCom= 9.97D-01 WtEn= 3.28D-03
 Coeff-Com:  0.100D+01
 Coeff-En:   0.100D+01
 Coeff:      0.100D+01
 Gap=     0.220 Goal=   None    Shift=    0.000
 RMSDP=2.26D-04 MaxDP=1.33D-02              OVMax= 4.59D-03

 Cycle   2  Pass 1  IDiag  1:
 RMSU=  2.25D-04    CP:  9.98D-01
 E= -633.326184083664     Delta-E=       -0.000047297064 Rises=F Damp=F
 DIIS: error= 1.71D-04 at cycle   2 NSaved=   2.
 NSaved= 2 IEnMin= 2 EnMin= -633.326184083664     IErMin= 2 ErrMin= 1.71D-04
 ErrMax= 1.71D-04  0.00D+00 EMaxC= 1.00D-01 BMatC= 1.58D-05 BMatP= 2.62D-05
 IDIUse=3 WtCom= 9.98D-01 WtEn= 1.71D-03
 Coeff-Com:  0.415D+00 0.585D+00
 Coeff-En:   0.000D+00 0.100D+01
 Coeff:      0.414D+00 0.586D+00
 Gap=     0.220 Goal=   None    Shift=    0.000
 RMSDP=4.35D-05 MaxDP=3.58D-03 DE=-4.73D-05 OVMax= 1.34D-03

 Cycle   3  Pass 1  IDiag  1:
 RMSU=  3.35D-05    CP:  1.00D+00  9.01D-01
 E= -633.326196874161     Delta-E=       -0.000012790498 Rises=F Damp=F
 DIIS: error= 1.27D-04 at cycle   3 NSaved=   3.
 NSaved= 3 IEnMin= 3 EnMin= -633.326196874161     IErMin= 3 ErrMin= 1.27D-04
 ErrMax= 1.27D-04  0.00D+00 EMaxC= 1.00D-01 BMatC= 3.81D-06 BMatP= 1.58D-05
 IDIUse=3 WtCom= 9.99D-01 WtEn= 1.27D-03
 Coeff-Com:  0.826D-01 0.314D+00 0.603D+00
 Coeff-En:   0.000D+00 0.933D-01 0.907D+00
 Coeff:      0.825D-01 0.314D+00 0.603D+00
 Gap=     0.220 Goal=   None    Shift=    0.000
 RMSDP=1.62D-05 MaxDP=8.52D-04 DE=-1.28D-05 OVMax= 6.99D-04

 Cycle   4  Pass 1  IDiag  1:
 RMSU=  1.48D-05    CP:  9.99D-01  8.97D-01  8.82D-01
 E= -633.326199787964     Delta-E=       -0.000002913802 Rises=F Damp=F
 DIIS: error= 2.66D-05 at cycle   4 NSaved=   4.
 NSaved= 4 IEnMin= 4 EnMin= -633.326199787964     IErMin= 4 ErrMin= 2.66D-05
 ErrMax= 2.66D-05  0.00D+00 EMaxC= 1.00D-01 BMatC= 2.88D-07 BMatP= 3.81D-06
 IDIUse=1 WtCom= 1.00D+00 WtEn= 0.00D+00
 Coeff-Com: -0.766D-02 0.590D-01 0.237D+00 0.712D+00
 Coeff:     -0.766D-02 0.590D-01 0.237D+00 0.712D+00
 Gap=     0.220 Goal=   None    Shift=    0.000
 RMSDP=7.66D-06 MaxDP=4.18D-04 DE=-2.91D-06 OVMax= 2.49D-04

 Cycle   5  Pass 1  IDiag  1:
 RMSU=  4.51D-06    CP:  9.99D-01  9.01D-01  1.04D+00  1.09D+00
 E= -633.326200036135     Delta-E=       -0.000000248171 Rises=F Damp=F
 DIIS: error= 8.17D-06 at cycle   5 NSaved=   5.
 NSaved= 5 IEnMin= 5 EnMin= -633.326200036135     IErMin= 5 ErrMin= 8.17D-06
 ErrMax= 8.17D-06  0.00D+00 EMaxC= 1.00D-01 BMatC= 4.97D-08 BMatP= 2.88D-07
 IDIUse=1 WtCom= 1.00D+00 WtEn= 0.00D+00
 Coeff-Com: -0.119D-01-0.165D-01 0.235D-01 0.318D+00 0.687D+00
 Coeff:     -0.119D-01-0.165D-01 0.235D-01 0.318D+00 0.687D+00
 Gap=     0.220 Goal=   None    Shift=    0.000
 RMSDP=2.02D-06 MaxDP=1.16D-04 DE=-2.48D-07 OVMax= 1.07D-04

 Cycle   6  Pass 1  IDiag  1:
 RMSU=  1.42D-06    CP:  9.99D-01  8.99D-01  1.06D+00  1.17D+00  1.08D+00
 E= -633.326200092227     Delta-E=       -0.000000056093 Rises=F Damp=F
 DIIS: error= 4.78D-06 at cycle   6 NSaved=   6.
 NSaved= 6 IEnMin= 6 EnMin= -633.326200092227     IErMin= 6 ErrMin= 4.78D-06
 ErrMax= 4.78D-06  0.00D+00 EMaxC= 1.00D-01 BMatC= 3.42D-09 BMatP= 4.97D-08
 IDIUse=1 WtCom= 1.00D+00 WtEn= 0.00D+00
 Coeff-Com: -0.196D-02-0.106D-01-0.123D-01 0.823D-02 0.183D+00 0.834D+00
 Coeff:     -0.196D-02-0.106D-01-0.123D-01 0.823D-02 0.183D+00 0.834D+00
 Gap=     0.220 Goal=   None    Shift=    0.000
 RMSDP=1.27D-06 MaxDP=8.57D-05 DE=-5.61D-08 OVMax= 7.25D-05

 Cycle   7  Pass 1  IDiag  1:
 RMSU=  5.11D-07    CP:  9.99D-01  8.97D-01  1.08D+00  1.20D+00  1.23D+00
                    CP:  1.27D+00
 E= -633.326200098594     Delta-E=       -0.000000006367 Rises=F Damp=F
 DIIS: error= 2.51D-06 at cycle   7 NSaved=   7.
 NSaved= 7 IEnMin= 7 EnMin= -633.326200098594     IErMin= 7 ErrMin= 2.51D-06
 ErrMax= 2.51D-06  0.00D+00 EMaxC= 1.00D-01 BMatC= 1.42D-09 BMatP= 3.42D-09
 IDIUse=1 WtCom= 1.00D+00 WtEn= 0.00D+00
 Coeff-Com:  0.693D-03-0.361D-02-0.734D-02-0.403D-01-0.106D-01 0.436D+00
 Coeff-Com:  0.625D+00
 Coeff:      0.693D-03-0.361D-02-0.734D-02-0.403D-01-0.106D-01 0.436D+00
 Coeff:      0.625D+00
 Gap=     0.220 Goal=   None    Shift=    0.000
 RMSDP=3.71D-07 MaxDP=2.10D-05 DE=-6.37D-09 OVMax= 2.99D-05

 Cycle   8  Pass 1  IDiag  1:
 RMSU=  1.91D-07    CP:  9.99D-01  8.97D-01  1.08D+00  1.21D+00  1.27D+00
                    CP:  1.38D+00  1.02D+00
 E= -633.326200100540     Delta-E=       -0.000000001946 Rises=F Damp=F
 DIIS: error= 1.06D-06 at cycle   8 NSaved=   8.
 NSaved= 8 IEnMin= 8 EnMin= -633.326200100540     IErMin= 8 ErrMin= 1.06D-06
 ErrMax= 1.06D-06  0.00D+00 EMaxC= 1.00D-01 BMatC= 1.62D-10 BMatP= 1.42D-09
 IDIUse=1 WtCom= 1.00D+00 WtEn= 0.00D+00
 Coeff-Com:  0.677D-03 0.112D-03 0.495D-03-0.168D-01-0.462D-01-0.841D-02
 Coeff-Com:  0.222D+00 0.848D+00
 Coeff:      0.677D-03 0.112D-03 0.495D-03-0.168D-01-0.462D-01-0.841D-02
 Coeff:      0.222D+00 0.848D+00
 Gap=     0.220 Goal=   None    Shift=    0.000
 RMSDP=2.63D-07 MaxDP=1.60D-05 DE=-1.95D-09 OVMax= 1.98D-05

 Cycle   9  Pass 1  IDiag  1:
 RMSU=  1.03D-07    CP:  9.99D-01  8.97D-01  1.08D+00  1.21D+00  1.30D+00
                    CP:  1.49D+00  1.24D+00  1.15D+00
 E= -633.326200100947     Delta-E=       -0.000000000407 Rises=F Damp=F
 DIIS: error= 5.08D-07 at cycle   9 NSaved=   9.
 NSaved= 9 IEnMin= 9 EnMin= -633.326200100947     IErMin= 9 ErrMin= 5.08D-07
 ErrMax= 5.08D-07  0.00D+00 EMaxC= 1.00D-01 BMatC= 2.32D-11 BMatP= 1.62D-10
 IDIUse=1 WtCom= 1.00D+00 WtEn= 0.00D+00
 Coeff-Com:  0.152D-03 0.466D-03 0.152D-02 0.922D-03-0.157D-01-0.745D-01
 Coeff-Com: -0.189D-01 0.307D+00 0.799D+00
 Coeff:      0.152D-03 0.466D-03 0.152D-02 0.922D-03-0.157D-01-0.745D-01
 Coeff:     -0.189D-01 0.307D+00 0.799D+00
 Gap=     0.220 Goal=   None    Shift=    0.000
 RMSDP=7.97D-08 MaxDP=3.26D-06 DE=-4.07D-10 OVMax= 8.14D-06

 Cycle  10  Pass 1  IDiag  1:
 RMSU=  3.53D-08    CP:  9.99D-01  8.97D-01  1.08D+00  1.21D+00  1.30D+00
                    CP:  1.52D+00  1.31D+00  1.28D+00  1.20D+00
 E= -633.326200101013     Delta-E=       -0.000000000066 Rises=F Damp=F
 DIIS: error= 2.00D-07 at cycle  10 NSaved=  10.
 NSaved=10 IEnMin=10 EnMin= -633.326200101013     IErMin=10 ErrMin= 2.00D-07
 ErrMax= 2.00D-07  0.00D+00 EMaxC= 1.00D-01 BMatC= 4.28D-12 BMatP= 2.32D-11
 IDIUse=1 WtCom= 1.00D+00 WtEn= 0.00D+00
 Coeff-Com: -0.372D-04 0.199D-03 0.452D-03 0.301D-02 0.277D-03-0.302D-01
 Coeff-Com: -0.386D-01-0.357D-02 0.306D+00 0.763D+00
 Coeff:     -0.372D-04 0.199D-03 0.452D-03 0.301D-02 0.277D-03-0.302D-01
 Coeff:     -0.386D-01-0.357D-02 0.306D+00 0.763D+00
 Gap=     0.220 Goal=   None    Shift=    0.000
 RMSDP=4.07D-08 MaxDP=2.14D-06 DE=-6.56D-11 OVMax= 3.28D-06

 Cycle  11  Pass 1  IDiag  1:
 RMSU=  1.48D-08    CP:  9.99D-01  8.97D-01  1.08D+00  1.21D+00  1.30D+00
                    CP:  1.53D+00  1.35D+00  1.30D+00  1.42D+00  1.20D+00
 E= -633.326200101026     Delta-E=       -0.000000000013 Rises=F Damp=F
 DIIS: error= 8.80D-08 at cycle  11 NSaved=  11.
 NSaved=11 IEnMin=11 EnMin= -633.326200101026     IErMin=11 ErrMin= 8.80D-08
 ErrMax= 8.80D-08  0.00D+00 EMaxC= 1.00D-01 BMatC= 1.49D-12 BMatP= 4.28D-12
 IDIUse=1 WtCom= 1.00D+00 WtEn= 0.00D+00
 Coeff-Com: -0.475D-04 0.380D-04-0.121D-03 0.139D-02 0.345D-02 0.825D-03
 Coeff-Com: -0.133D-01-0.637D-01-0.170D-01 0.411D+00 0.677D+00
 Coeff:     -0.475D-04 0.380D-04-0.121D-03 0.139D-02 0.345D-02 0.825D-03
 Coeff:     -0.133D-01-0.637D-01-0.170D-01 0.411D+00 0.677D+00
 Gap=     0.220 Goal=   None    Shift=    0.000
 RMSDP=1.52D-08 MaxDP=5.77D-07 DE=-1.30D-11 OVMax= 1.34D-06

 Cycle  12  Pass 1  IDiag  1:
 RMSU=  6.40D-09    CP:  9.99D-01  8.97D-01  1.08D+00  1.21D+00  1.30D+00
                    CP:  1.53D+00  1.35D+00  1.32D+00  1.48D+00  1.39D+00
                    CP:  9.79D-01
 E= -633.326200101022     Delta-E=        0.000000000003 Rises=F Damp=F
 DIIS: error= 2.90D-08 at cycle  12 NSaved=  12.
 NSaved=12 IEnMin=11 EnMin= -633.326200101026     IErMin=12 ErrMin= 2.90D-08
 ErrMax= 2.90D-08  0.00D+00 EMaxC= 1.00D-01 BMatC= 1.72D-13 BMatP= 1.49D-12
 IDIUse=1 WtCom= 1.00D+00 WtEn= 0.00D+00
 Coeff-Com: -0.166D-04-0.427D-05-0.157D-03 0.778D-04 0.140D-02 0.508D-02
 Coeff-Com:  0.142D-02-0.274D-01-0.671D-01 0.202D-01 0.256D+00 0.811D+00
 Coeff:     -0.166D-04-0.427D-05-0.157D-03 0.778D-04 0.140D-02 0.508D-02
 Coeff:      0.142D-02-0.274D-01-0.671D-01 0.202D-01 0.256D+00 0.811D+00
 Gap=     0.220 Goal=   None    Shift=    0.000
 RMSDP=9.52D-09 MaxDP=4.33D-07 DE= 3.07D-12 OVMax= 6.97D-07

 Error on total polarization charges =  0.00850
 SCF Done:  E(RCAM-B3LYP) =  -633.326200101     A.U. after   12 cycles
            NFock= 12  Conv=0.95D-08     -V/T= 2.0042
 KE= 6.306725146354D+02 PE=-3.275259216081D+03 EE= 1.111584470514D+03
 Leave Link  502 at Sat Jan 24 22:55:46 2026, MaxMem=  2147483648 cpu:             748.2 elap:              47.5
 (Enter /data/home/wyx/g16/l601.exe)
 Copying SCF densities to generalized density rwf, IOpCl= 0 IROHF=0.

 **********************************************************************

            Population analysis using the SCF density.

 **********************************************************************

 Orbital symmetries:
       Occupied  (A) (A) (A) (A) (A) (A) (A) (A) (A) (A) (A) (A)
                 (A) (A) (A) (A) (A) (A) (A) (A) (A) (A) (A) (A)
                 (A) (A) (A) (A) (A) (A) (A) (A) (A) (A) (A) (A)
                 (A) (A) (A) (A) (A) (A) (A) (A) (A) (A) (A) (A)
                 (A) (A) (A) (A)
       Virtual   (A) (A) (A) (A) (A) (A) (A) (A) (A) (A) (A) (A)
                 (A) (A) (A) (A) (A) (A) (A) (A) (A) (A) (A) (A)
                 (A) (A) (A) (A) (A) (A) (A) (A) (A) (A) (A) (A)
                 (A) (A) (A) (A) (A) (A) (A) (A) (A) (A) (A) (A)
                 (A) (A) (A) (A) (A) (A) (A) (A) (A) (A) (A) (A)
                 (A) (A) (A) (A) (A) (A) (A) (A) (A) (A) (A) (A)
                 (A) (A) (A) (A) (A) (A) (A) (A) (A) (A) (A) (A)
                 (A) (A) (A) (A) (A) (A) (A) (A) (A) (A) (A) (A)
                 (A) (A) (A) (A) (A) (A) (A) (A) (A) (A) (A) (A)
                 (A) (A) (A) (A) (A) (A) (A) (A) (A) (A) (A) (A)
                 (A) (A) (A) (A) (A) (A) (A) (A) (A) (A) (A) (A)
                 (A) (A) (A) (A) (A) (A) (A) (A) (A) (A) (A) (A)
                 (A) (A) (A) (A) (A) (A) (A) (A) (A) (A) (A) (A)
                 (A) (A) (A) (A) (A) (A) (A) (A) (A) (A) (A) (A)
                 (A) (A) (A) (A) (A) (A) (A) (A) (A) (A) (A) (A)
                 (A) (A) (A) (A) (A) (A) (A) (A) (A) (A) (A) (A)
                 (A) (A) (A) (A) (A) (A) (A) (A) (A) (A) (A) (A)
                 (A) (A) (A) (A) (A) (A) (A) (A) (A) (A) (A) (A)
                 (A) (A) (A) (A) (A) (A) (A) (A) (A) (A) (A) (A)
                 (A) (A) (A) (A) (A) (A) (A) (A) (A) (A) (A) (A)
                 (A) (A) (A) (A) (A) (A) (A) (A) (A) (A) (A) (A)
                 (A) (A) (A) (A) (A) (A) (A) (A) (A) (A) (A) (A)
                 (A) (A) (A) (A) (A) (A) (A) (A) (A) (A) (A) (A)
                 (A) (A) (A) (A) (A) (A) (A) (A) (A) (A) (A) (A)
                 (A) (A) (A) (A) (A) (A) (A) (A) (A) (A) (A) (A)
                 (A) (A) (A) (A)
 The electronic state is 1-A.
 Alpha  occ. eigenvalues --  -19.17885 -19.17069 -14.44385 -10.33409 -10.32861
 Alpha  occ. eigenvalues --  -10.32536 -10.31954 -10.25796 -10.25124 -10.24787
 Alpha  occ. eigenvalues --  -10.24501 -10.24274 -10.24265 -10.23596  -1.11518
 Alpha  occ. eigenvalues --   -1.11005  -1.08105  -0.91236  -0.90306  -0.83921
 Alpha  occ. eigenvalues --   -0.82521  -0.81632  -0.78457  -0.73624  -0.71865
 Alpha  occ. eigenvalues --   -0.68621  -0.61528  -0.58162  -0.56933  -0.55003
 Alpha  occ. eigenvalues --   -0.54363  -0.53974  -0.52477  -0.51763  -0.50775
 Alpha  occ. eigenvalues --   -0.49844  -0.49467  -0.49216  -0.48463  -0.47937
 Alpha  occ. eigenvalues --   -0.47021  -0.45207  -0.45125  -0.43646  -0.43097
 Alpha  occ. eigenvalues --   -0.42241  -0.42005  -0.41662  -0.32606  -0.32205
 Alpha  occ. eigenvalues --   -0.31274  -0.25119
 Alpha virt. eigenvalues --   -0.03089   0.02576   0.06623   0.08398   0.08764
 Alpha virt. eigenvalues --    0.09934   0.10877   0.11792   0.12692   0.13567
 Alpha virt. eigenvalues --    0.14079   0.15117   0.15804   0.16385   0.17005
 Alpha virt. eigenvalues --    0.17576   0.17924   0.18178   0.18390   0.19294
 Alpha virt. eigenvalues --    0.20107   0.22146   0.23111   0.23647   0.23866
 Alpha virt. eigenvalues --    0.24129   0.24771   0.25819   0.26348   0.26795
 Alpha virt. eigenvalues --    0.27413   0.28168   0.28702   0.29341   0.30315
 Alpha virt. eigenvalues --    0.31811   0.32122   0.32506   0.33664   0.34554
 Alpha virt. eigenvalues --    0.35094   0.36002   0.36768   0.37989   0.38636
 Alpha virt. eigenvalues --    0.39743   0.41202   0.41616   0.42183   0.42644
 Alpha virt. eigenvalues --    0.44195   0.44850   0.45520   0.46247   0.46436
 Alpha virt. eigenvalues --    0.47357   0.47969   0.48132   0.48485   0.49219
 Alpha virt. eigenvalues --    0.49725   0.50655   0.51099   0.51562   0.51695
 Alpha virt. eigenvalues --    0.52775   0.52891   0.53544   0.53792   0.54370
 Alpha virt. eigenvalues --    0.54617   0.55538   0.56092   0.56769   0.58475
 Alpha virt. eigenvalues --    0.58605   0.59883   0.61029   0.61569   0.63111
 Alpha virt. eigenvalues --    0.64130   0.65476   0.66573   0.66683   0.67757
 Alpha virt. eigenvalues --    0.68584   0.69670   0.71245   0.71740   0.72443
 Alpha virt. eigenvalues --    0.73358   0.74428   0.75085   0.76035   0.77684
 Alpha virt. eigenvalues --    0.79056   0.80297   0.82956   0.86297   0.87392
 Alpha virt. eigenvalues --    0.90583   0.95023   1.01599   1.03256   1.22769
 Alpha virt. eigenvalues --    1.24922   1.27319   1.28380   1.29483   1.30807
 Alpha virt. eigenvalues --    1.32245   1.33113   1.34394   1.35156   1.36387
 Alpha virt. eigenvalues --    1.36723   1.37744   1.38618   1.39137   1.39911
 Alpha virt. eigenvalues --    1.40026   1.40551   1.41043   1.41414   1.42034
 Alpha virt. eigenvalues --    1.43626   1.43907   1.44414   1.45439   1.47493
 Alpha virt. eigenvalues --    1.48274   1.49759   1.50309   1.50509   1.50666
 Alpha virt. eigenvalues --    1.51345   1.52557   1.52835   1.55183   1.58326
 Alpha virt. eigenvalues --    1.59106   1.60437   1.60903   1.61537   1.62677
 Alpha virt. eigenvalues --    1.62822   1.63183   1.64292   1.64725   1.65979
 Alpha virt. eigenvalues --    1.66722   1.67216   1.67736   1.68183   1.68691
 Alpha virt. eigenvalues --    1.69228   1.70095   1.70225   1.71367   1.72489
 Alpha virt. eigenvalues --    1.74308   1.75077   1.76063   1.76790   1.78687
 Alpha virt. eigenvalues --    1.81484   1.83288   1.84284   1.86096   1.86764
 Alpha virt. eigenvalues --    1.86839   1.88107   1.88710   1.89156   1.90502
 Alpha virt. eigenvalues --    1.91473   1.94801   1.95501   1.99211   1.99818
 Alpha virt. eigenvalues --    2.01725   2.03973   2.05682   2.07117   2.09811
 Alpha virt. eigenvalues --    2.10833   2.12195   2.15807   2.17697   2.20016
 Alpha virt. eigenvalues --    2.20579   2.21463   2.22228   2.23198   2.26396
 Alpha virt. eigenvalues --    2.27375   2.27745   2.29463   2.31487   2.32410
 Alpha virt. eigenvalues --    2.34022   2.34523   2.37010   2.38124   2.39005
 Alpha virt. eigenvalues --    2.39793   2.40376   2.41555   2.43103   2.45314
 Alpha virt. eigenvalues --    2.46171   2.47889   2.49697   2.50173   2.51382
 Alpha virt. eigenvalues --    2.52526   2.54247   2.55004   2.56713   2.57843
 Alpha virt. eigenvalues --    2.58978   2.60925   2.61871   2.62768   2.63587
 Alpha virt. eigenvalues --    2.64867   2.65981   2.66752   2.67675   2.68543
 Alpha virt. eigenvalues --    2.72135   2.72180   2.73786   2.74856   2.75245
 Alpha virt. eigenvalues --    2.76403   2.77146   2.77442   2.78121   2.79053
 Alpha virt. eigenvalues --    2.80674   2.82057   2.83069   2.83962   2.84777
 Alpha virt. eigenvalues --    2.85539   2.86667   2.88972   2.89237   2.91868
 Alpha virt. eigenvalues --    2.97324   2.98909   3.01118   3.06901   3.11063
 Alpha virt. eigenvalues --    3.12505   3.14873   3.17867   3.19005   3.21664
 Alpha virt. eigenvalues --    3.21798   3.23686   3.24612   3.25571   3.26503
 Alpha virt. eigenvalues --    3.28260   3.30081   3.32975   3.34477   3.36735
 Alpha virt. eigenvalues --    3.37924   3.39062   3.39641   3.40213   3.42145
 Alpha virt. eigenvalues --    3.42297   3.44570   3.45424   3.47646   3.48615
 Alpha virt. eigenvalues --    3.49727   3.50117   3.55745   3.58532   3.59938
 Alpha virt. eigenvalues --    3.61182   3.91180   4.01023   4.32969   4.35948
 Alpha virt. eigenvalues --   21.67331  21.80676  22.08239  22.10744  22.11833
 Alpha virt. eigenvalues --   22.15200  22.15214  22.18662  22.19643  22.24980
 Alpha virt. eigenvalues --   22.28145  31.92021  43.63761  43.66527
          Condensed to atoms (all electrons):
               1          2          3          4          5          6
     1  O    7.956253   0.000000  -0.000203   0.000018   0.018566   0.008866
     2  O    0.000000   7.997227   0.000310   0.000007  -0.201520   0.001298
     3  N   -0.000203   0.000310   6.348950   0.368526  -0.114503   0.334686
     4  H    0.000018   0.000007   0.368526   0.401668   0.016207  -0.044299
     5  C    0.018566  -0.201520  -0.114503   0.016207   7.111241  -0.084577
     6  C    0.008866   0.001298   0.334686  -0.044299  -0.084577   5.532435
     7  C   -0.000088  -0.045504   0.396358  -0.035085   0.463986  -0.119036
     8  C   -0.000663   0.710474   0.003916  -0.000887  -0.359157   0.034193
     9  C   -0.012609   0.024907   0.012547   0.000112  -0.641259  -0.047730
    10  H    0.007464   0.000118   0.003583   0.000035  -0.046896  -0.020089
    11  H    0.010663   0.000017  -0.001407   0.000018  -0.115909   0.028334
    12  C   -0.233284  -0.002948  -0.086255   0.014786   0.192978  -0.058441
    13  C    0.719168  -0.000022   0.001252   0.000506   0.081055   0.124510
    14  C   -0.000008  -0.010564  -0.032884  -0.010543  -0.082839   0.011051
    15  H   -0.000000   0.004105   0.005890   0.001796   0.018120   0.006189
    16  H   -0.000000   0.003539  -0.002602   0.000916  -0.006718  -0.001437
    17  H    0.000000   0.002990  -0.000061   0.000797  -0.004287  -0.001216
    18  C    0.000196  -0.103087  -0.000539   0.000017  -0.256730   0.000177
    19  H   -0.000002   0.007990   0.000006  -0.000001   0.026377   0.000015
    20  H   -0.000002   0.000812   0.000012  -0.000001   0.001325   0.000201
    21  H    0.000124   0.004226   0.000120   0.000001   0.045699  -0.001235
    22  C   -0.106145   0.000000  -0.000089   0.000110   0.003734  -0.023074
    23  H    0.005154  -0.000000   0.000127  -0.000056  -0.000719  -0.025799
    24  H    0.001457   0.000000   0.000004  -0.000011  -0.000017   0.008778
    25  H    0.006556   0.000000   0.000026  -0.000002  -0.000147  -0.001015
    26  C    0.000754   0.000009  -0.025905  -0.006807   0.000579   0.190240
    27  H   -0.000235  -0.000000   0.001380   0.000769   0.000077  -0.049982
    28  H   -0.000056  -0.000000  -0.002388   0.000487   0.000379  -0.032703
    29  H    0.000024   0.000000   0.002205   0.001623  -0.000329  -0.046617
               7          8          9         10         11         12
     1  O   -0.000088  -0.000663  -0.012609   0.007464   0.010663  -0.233284
     2  O   -0.045504   0.710474   0.024907   0.000118   0.000017  -0.002948
     3  N    0.396358   0.003916   0.012547   0.003583  -0.001407  -0.086255
     4  H   -0.035085  -0.000887   0.000112   0.000035   0.000018   0.014786
     5  C    0.463986  -0.359157  -0.641259  -0.046896  -0.115909   0.192978
     6  C   -0.119036   0.034193  -0.047730  -0.020089   0.028334  -0.058441
     7  C    5.386119  -0.234276  -0.209303  -0.005760   0.016867   0.017318
     8  C   -0.234276   5.439583   0.184060  -0.003337  -0.008905  -0.048284
     9  C   -0.209303   0.184060   6.375611   0.414098   0.533437  -0.106319
    10  H   -0.005760  -0.003337   0.414098   0.565838  -0.047011  -0.015489
    11  H    0.016867  -0.008905   0.533437  -0.047011   0.532695  -0.110499
    12  C    0.017318  -0.048284  -0.106319  -0.015489  -0.110499   7.323303
    13  C    0.019715  -0.009712  -0.259552  -0.004159   0.000412  -0.486727
    14  C    0.283517  -0.036578   0.005592  -0.000974   0.000524  -0.000512
    15  H   -0.080122   0.005410   0.000566   0.000050  -0.000004  -0.001440
    16  H   -0.021010  -0.000789   0.000870  -0.000065   0.000061   0.000382
    17  H   -0.028860  -0.007259  -0.000263   0.000194  -0.000061   0.000160
    18  C   -0.000818   0.331712   0.000228  -0.012320   0.007936  -0.000992
    19  H    0.000421  -0.055561  -0.001719   0.000080   0.000580  -0.000170
    20  H   -0.000116  -0.023464  -0.009189   0.000749  -0.001105  -0.002644
    21  H    0.003377  -0.070409  -0.008573   0.002847  -0.007098   0.006718
    22  C    0.000281  -0.000091   0.008794   0.002888  -0.000736  -0.251269
    23  H   -0.000005   0.000005   0.003109  -0.000199   0.000045   0.063832
    24  H   -0.000008   0.000002  -0.002117   0.000167  -0.000126  -0.011719
    25  H    0.000005   0.000003   0.000319  -0.000093  -0.000059   0.022359
    26  C    0.002909   0.000812   0.022535  -0.000756   0.000089  -0.083239
    27  H   -0.000776   0.000003  -0.000254  -0.000087   0.000008  -0.006191
    28  H   -0.000839  -0.000014  -0.000479  -0.000014   0.000045  -0.017342
    29  H    0.003089  -0.000006  -0.000500   0.000082  -0.000012   0.021382
              13         14         15         16         17         18
     1  O    0.719168  -0.000008  -0.000000  -0.000000   0.000000   0.000196
     2  O   -0.000022  -0.010564   0.004105   0.003539   0.002990  -0.103087
     3  N    0.001252  -0.032884   0.005890  -0.002602  -0.000061  -0.000539
     4  H    0.000506  -0.010543   0.001796   0.000916   0.000797   0.000017
     5  C    0.081055  -0.082839   0.018120  -0.006718  -0.004287  -0.256730
     6  C    0.124510   0.011051   0.006189  -0.001437  -0.001216   0.000177
     7  C    0.019715   0.283517  -0.080122  -0.021010  -0.028860  -0.000818
     8  C   -0.009712  -0.036578   0.005410  -0.000789  -0.007259   0.331712
     9  C   -0.259552   0.005592   0.000566   0.000870  -0.000263   0.000228
    10  H   -0.004159  -0.000974   0.000050  -0.000065   0.000194  -0.012320
    11  H    0.000412   0.000524  -0.000004   0.000061  -0.000061   0.007936
    12  C   -0.486727  -0.000512  -0.001440   0.000382   0.000160  -0.000992
    13  C    5.584470   0.000115  -0.000038  -0.000009  -0.000004   0.001123
    14  C    0.000115   5.049860   0.392024   0.405372   0.417275   0.001005
    15  H   -0.000038   0.392024   0.564499  -0.024341  -0.026555   0.000230
    16  H   -0.000009   0.405372  -0.024341   0.512431  -0.028601   0.000120
    17  H   -0.000004   0.417275  -0.026555  -0.028601   0.515095  -0.000148
    18  C    0.001123   0.001005   0.000230   0.000120  -0.000148   5.316272
    19  H   -0.000010   0.000065  -0.000005  -0.000036   0.000038   0.394369
    20  H   -0.000137  -0.000214  -0.000005  -0.000008   0.000013   0.399936
    21  H    0.000813   0.000100  -0.000015  -0.000001  -0.000035   0.380844
    22  C    0.288333  -0.000014   0.000002   0.000000  -0.000000   0.000031
    23  H   -0.097212   0.000003   0.000000   0.000000  -0.000000   0.000001
    24  H   -0.023053  -0.000001   0.000000   0.000000   0.000000  -0.000002
    25  H   -0.037971   0.000000  -0.000000  -0.000000  -0.000000  -0.000001
    26  C   -0.058311   0.000758   0.000226  -0.000095   0.000024   0.000009
    27  H   -0.003206   0.000066  -0.000009   0.000001  -0.000002   0.000000
    28  H    0.006854  -0.000104  -0.000003  -0.000006   0.000004  -0.000000
    29  H   -0.000945  -0.000170   0.000118  -0.000000  -0.000001  -0.000000
              19         20         21         22         23         24
     1  O   -0.000002  -0.000002   0.000124  -0.106145   0.005154   0.001457
     2  O    0.007990   0.000812   0.004226   0.000000  -0.000000   0.000000
     3  N    0.000006   0.000012   0.000120  -0.000089   0.000127   0.000004
     4  H   -0.000001  -0.000001   0.000001   0.000110  -0.000056  -0.000011
     5  C    0.026377   0.001325   0.045699   0.003734  -0.000719  -0.000017
     6  C    0.000015   0.000201  -0.001235  -0.023074  -0.025799   0.008778
     7  C    0.000421  -0.000116   0.003377   0.000281  -0.000005  -0.000008
     8  C   -0.055561  -0.023464  -0.070409  -0.000091   0.000005   0.000002
     9  C   -0.001719  -0.009189  -0.008573   0.008794   0.003109  -0.002117
    10  H    0.000080   0.000749   0.002847   0.002888  -0.000199   0.000167
    11  H    0.000580  -0.001105  -0.007098  -0.000736   0.000045  -0.000126
    12  C   -0.000170  -0.002644   0.006718  -0.251269   0.063832  -0.011719
    13  C   -0.000010  -0.000137   0.000813   0.288333  -0.097212  -0.023053
    14  C    0.000065  -0.000214   0.000100  -0.000014   0.000003  -0.000001
    15  H   -0.000005  -0.000005  -0.000015   0.000002   0.000000   0.000000
    16  H   -0.000036  -0.000008  -0.000001   0.000000   0.000000   0.000000
    17  H    0.000038   0.000013  -0.000035  -0.000000  -0.000000   0.000000
    18  C    0.394369   0.399936   0.380844   0.000031   0.000001  -0.000002
    19  H    0.512811  -0.010704  -0.024114  -0.000000   0.000000   0.000000
    20  H   -0.010704   0.491146  -0.022975  -0.000012   0.000000   0.000000
    21  H   -0.024114  -0.022975   0.533177   0.000028  -0.000000  -0.000000
    22  C   -0.000000  -0.000012   0.000028   5.422387   0.397234   0.402184
    23  H    0.000000   0.000000  -0.000000   0.397234   0.540875  -0.026034
    24  H    0.000000   0.000000  -0.000000   0.402184  -0.026034   0.491513
    25  H   -0.000000   0.000000  -0.000000   0.381669  -0.022452  -0.009039
    26  C    0.000000   0.000003  -0.000017  -0.033108   0.016044  -0.010485
    27  H   -0.000000   0.000000  -0.000000   0.005068  -0.007788  -0.000338
    28  H    0.000000  -0.000000   0.000000  -0.011058  -0.001642   0.000861
    29  H    0.000000  -0.000000   0.000000   0.001944   0.000613   0.000157
              25         26         27         28         29
     1  O    0.006556   0.000754  -0.000235  -0.000056   0.000024
     2  O    0.000000   0.000009  -0.000000  -0.000000   0.000000
     3  N    0.000026  -0.025905   0.001380  -0.002388   0.002205
     4  H   -0.000002  -0.006807   0.000769   0.000487   0.001623
     5  C   -0.000147   0.000579   0.000077   0.000379  -0.000329
     6  C   -0.001015   0.190240  -0.049982  -0.032703  -0.046617
     7  C    0.000005   0.002909  -0.000776  -0.000839   0.003089
     8  C    0.000003   0.000812   0.000003  -0.000014  -0.000006
     9  C    0.000319   0.022535  -0.000254  -0.000479  -0.000500
    10  H   -0.000093  -0.000756  -0.000087  -0.000014   0.000082
    11  H   -0.000059   0.000089   0.000008   0.000045  -0.000012
    12  C    0.022359  -0.083239  -0.006191  -0.017342   0.021382
    13  C   -0.037971  -0.058311  -0.003206   0.006854  -0.000945
    14  C    0.000000   0.000758   0.000066  -0.000104  -0.000170
    15  H   -0.000000   0.000226  -0.000009  -0.000003   0.000118
    16  H   -0.000000  -0.000095   0.000001  -0.000006  -0.000000
    17  H   -0.000000   0.000024  -0.000002   0.000004  -0.000001
    18  C   -0.000001   0.000009   0.000000  -0.000000  -0.000000
    19  H   -0.000000   0.000000  -0.000000   0.000000   0.000000
    20  H    0.000000   0.000003   0.000000  -0.000000  -0.000000
    21  H   -0.000000  -0.000017  -0.000000   0.000000   0.000000
    22  C    0.381669  -0.033108   0.005068  -0.011058   0.001944
    23  H   -0.022452   0.016044  -0.007788  -0.001642   0.000613
    24  H   -0.009039  -0.010485  -0.000338   0.000861   0.000157
    25  H    0.499921   0.002110   0.000631   0.000132  -0.000038
    26  C    0.002110   5.247198   0.432168   0.425826   0.389077
    27  H    0.000631   0.432168   0.508160  -0.028190  -0.024842
    28  H    0.000132   0.425826  -0.028190   0.480555  -0.016066
    29  H   -0.000038   0.389077  -0.024842  -0.016066   0.508482
 Mulliken charges:
               1
     1  O   -0.381967
     2  O   -0.394382
     3  N   -0.213062
     4  H    0.289292
     5  C   -0.064714
     6  C    0.276277
     7  C    0.187645
     8  C    0.149218
     9  C   -0.286915
    10  H    0.159057
    11  H    0.161201
    12  C   -0.139454
    13  C    0.152744
    14  C   -0.391919
    15  H    0.133314
    16  H    0.162025
    17  H    0.160762
    18  C   -0.459570
    19  H    0.149569
    20  H    0.176378
    21  H    0.156398
    22  C   -0.489090
    23  H    0.154866
    24  H    0.177828
    25  H    0.157085
    26  C   -0.512647
    27  H    0.173571
    28  H    0.195763
    29  H    0.160730
 Sum of Mulliken charges =  -0.00000
 Mulliken charges with hydrogens summed into heavy atoms:
               1
     1  O   -0.381967
     2  O   -0.394382
     3  N    0.076230
     5  C   -0.064714
     6  C    0.276277
     7  C    0.187645
     8  C    0.149218
     9  C    0.033342
    12  C   -0.139454
    13  C    0.152744
    14  C    0.064181
    18  C    0.022775
    22  C    0.000689
    26  C    0.017417
 Electronic spatial extent (au):  <R**2>=           3201.7771
 Charge=             -0.0000 electrons
 Dipole moment (field-independent basis, Debye):
    X=             -4.1594    Y=              8.0833    Z=             -0.0242  Tot=              9.0907
 Quadrupole moment (field-independent basis, Debye-Ang):
   XX=           -100.2057   YY=            -77.8590   ZZ=            -84.8443
   XY=            -12.9668   XZ=             -4.5893   YZ=             -2.2212
 Traceless Quadrupole moment (field-independent basis, Debye-Ang):
   XX=            -12.5694   YY=              9.7774   ZZ=              2.7920
   XY=            -12.9668   XZ=             -4.5893   YZ=             -2.2212
 Octapole moment (field-independent basis, Debye-Ang**2):
  XXX=           -114.6140  YYY=             69.0578  ZZZ=              1.2045  XYY=             35.9638
  XXY=             34.7495  XXZ=             -6.3990  XZZ=             -1.0576  YZZ=             -0.8893
  YYZ=              4.2543  XYZ=              5.4803
 Hexadecapole moment (field-independent basis, Debye-Ang**3):
 XXXX=          -3092.6828 YYYY=          -1283.9405 ZZZZ=           -145.1665 XXXY=            -38.2861
 XXXZ=            -51.1219 YYYX=            -92.1492 YYYZ=            -21.0255 ZZZX=              3.2771
 ZZZY=              2.8237 XXYY=           -695.9948 XXZZ=           -481.7254 YYZZ=           -244.1401
 XXYZ=             -9.3591 YYXZ=             -9.6757 ZZXY=             -0.1681
 N-N= 8.996760308309D+02 E-N=-3.275259215031D+03  KE= 6.306725146354D+02
 No NMR shielding tensors so no spin-rotation constants.
 Leave Link  601 at Sat Jan 24 22:55:46 2026, MaxMem=  2147483648 cpu:               1.8 elap:               0.1
 (Enter /data/home/wyx/g16/l9999.exe)
 1\1\GINC-CN012\SP\RCAM-B3LYP\TZVP\C11H15N1O2\WYX\24-Jan-2026\0\\#p CAM
 -B3LYP TZVP em=gd3bj scrf=(Solvent=Water,NonEquilibrium=Read) Geom=Che
 ck Guess=Read\\Title Card Required\\0,1\O,0,2.720956,-1.559423,0.84976
 5\O,0,-3.294889,-1.659465,-0.930321\N,0,-0.686565,1.5162,-0.032006\H,0
 ,-0.994989,2.476539,-0.098671\C,0,-1.252221,-0.762919,-0.171068\C,0,0.
 643454,1.330057,0.213659\C,0,-1.626893,0.571178,-0.282063\C,0,-2.16332
 9,-1.848374,-0.475593\C,0,0.117312,-1.083983,0.300604\H,0,0.06685,-1.5
 05911,1.319428\H,0,0.536084,-1.917138,-0.271218\C,0,1.103584,0.026584,
 0.319178\C,0,2.481485,-0.39504,0.506718\C,0,-2.973124,1.10017,-0.63291
 1\H,0,-3.01493,2.179714,-0.504687\H,0,-3.230283,0.870878,-1.662921\H,0
 ,-3.744737,0.649353,-0.018359\C,0,-1.702628,-3.264746,-0.251527\H,0,-2
 .563536,-3.924056,-0.240095\H,0,-1.049015,-3.58383,-1.062288\H,0,-1.14
 8874,-3.392622,0.673304\C,0,3.649213,0.525774,0.252183\H,0,3.466512,1.
 241698,-0.544475\H,0,3.903236,1.080532,1.157805\H,0,4.506434,-0.091317
 ,-0.009159\C,0,1.415077,2.598683,0.36703\H,0,2.156797,2.523341,1.15467
 4\H,0,1.930187,2.877522,-0.552311\H,0,0.748835,3.420602,0.625326\\Vers
 ion=ES64L-G16RevA.03\State=1-A\HF=-633.3262001\RMSD=9.523e-09\Dipole=0
 .4641871,3.5459941,0.047661\Quadrupole=-11.5006795,11.5155471,-0.01486
 76,1.9976679,-6.5331168,0.6625279\PG=C01 [X(C11H15N1O2)]\\@


 Age does not diminish the extreme disappointment of
 having a scoop of ice cream fall from the cone.
 -- Jim Fiebig
 Job cpu time:       0 days  0 hours 12 minutes 38.4 seconds.
 Elapsed time:       0 days  0 hours  0 minutes 48.2 seconds.
 File lengths (MBytes):  RWF=    344 Int=      0 D2E=      0 Chk=     67 Scr=      1
 Normal termination of Gaussian 16 at Sat Jan 24 22:55:47 2026.
