 Entering Gaussian System, Link 0=g16
 Input=DDL-S2-cLR-14.gjf
 Output=DDL-S2-cLR-14.log
 Initial command:
 /data/home/wyx/g16/l1.exe "/scr/tmp/wyx/13117/Gau-2028337.inp" -scrdir="/scr/tmp/wyx/13117/"
 Entering Link 1 = /data/home/wyx/g16/l1.exe PID=   2028338.
  
 Copyright (c) 1988,1990,1992,1993,1995,1998,2003,2009,2016,
            Gaussian, Inc.  All Rights Reserved.
  
 This is part of the Gaussian(R) 16 program.  It is based on
 the Gaussian(R) 09 system (copyright 2009, Gaussian, Inc.),
 the Gaussian(R) 03 system (copyright 2003, Gaussian, Inc.),
 the Gaussian(R) 98 system (copyright 1998, Gaussian, Inc.),
 the Gaussian(R) 94 system (copyright 1995, Gaussian, Inc.),
 the Gaussian 92(TM) system (copyright 1992, Gaussian, Inc.),
 the Gaussian 90(TM) system (copyright 1990, Gaussian, Inc.),
 the Gaussian 88(TM) system (copyright 1988, Gaussian, Inc.),
 the Gaussian 86(TM) system (copyright 1986, Carnegie Mellon
 University), and the Gaussian 82(TM) system (copyright 1983,
 Carnegie Mellon University). Gaussian is a federally registered
 trademark of Gaussian, Inc.
  
 This software contains proprietary and confidential information,
 including trade secrets, belonging to Gaussian, Inc.
  
 This software is provided under written license and may be
 used, copied, transmitted, or stored only in accord with that
 written license.
  
 The following legend is applicable only to US Government
 contracts under FAR:
  
                    RESTRICTED RIGHTS LEGEND
  
 Use, reproduction and disclosure by the US Government is
 subject to restrictions as set forth in subparagraphs (a)
 and (c) of the Commercial Computer Software - Restricted
 Rights clause in FAR 52.227-19.
  
 Gaussian, Inc.
 340 Quinnipiac St., Bldg. 40, Wallingford CT 06492
  
  
 ---------------------------------------------------------------
 Warning -- This program may not be used in any manner that
 competes with the business of Gaussian, Inc. or will provide
 assistance to any competitor of Gaussian, Inc.  The licensee
 of this program is prohibited from giving any competitor of
 Gaussian, Inc. access to this program.  By using this program,
 the user acknowledges that Gaussian, Inc. is engaged in the
 business of creating and licensing software in the field of
 computational chemistry and represents and warrants to the
 licensee that it is not a competitor of Gaussian, Inc. and that
 it will not use this program in any manner prohibited above.
 ---------------------------------------------------------------
  

 Cite this work as:
 Gaussian 16, Revision A.03,
 M. J. Frisch, G. W. Trucks, H. B. Schlegel, G. E. Scuseria, 
 M. A. Robb, J. R. Cheeseman, G. Scalmani, V. Barone, 
 G. A. Petersson, H. Nakatsuji, X. Li, M. Caricato, A. V. Marenich, 
 J. Bloino, B. G. Janesko, R. Gomperts, B. Mennucci, H. P. Hratchian, 
 J. V. Ortiz, A. F. Izmaylov, J. L. Sonnenberg, D. Williams-Young, 
 F. Ding, F. Lipparini, F. Egidi, J. Goings, B. Peng, A. Petrone, 
 T. Henderson, D. Ranasinghe, V. G. Zakrzewski, J. Gao, N. Rega, 
 G. Zheng, W. Liang, M. Hada, M. Ehara, K. Toyota, R. Fukuda, 
 J. Hasegawa, M. Ishida, T. Nakajima, Y. Honda, O. Kitao, H. Nakai, 
 T. Vreven, K. Throssell, J. A. Montgomery, Jr., J. E. Peralta, 
 F. Ogliaro, M. J. Bearpark, J. J. Heyd, E. N. Brothers, K. N. Kudin, 
 V. N. Staroverov, T. A. Keith, R. Kobayashi, J. Normand, 
 K. Raghavachari, A. P. Rendell, J. C. Burant, S. S. Iyengar, 
 J. Tomasi, M. Cossi, J. M. Millam, M. Klene, C. Adamo, R. Cammi, 
 J. W. Ochterski, R. L. Martin, K. Morokuma, O. Farkas, 
 J. B. Foresman, and D. J. Fox, Gaussian, Inc., Wallingford CT, 2016.
 
 ******************************************
 Gaussian 16:  ES64L-G16RevA.03 25-Dec-2016
                24-Jan-2026 
 ******************************************
 %nprocshared=16
 Will use up to   16 processors via shared memory.
 %mem=16GB
 %oldchk=DDL-LR-14.chk
 %chk=DDL-S2-cLR-14.chk
 Copying data from "DDL-LR-14.chk" to current chk file "DDL-S2-cLR-14.chk"
 IOpt=  2 FromEx=T IUOpen= 4 IOptOp= 5 NList=   0 IFRang= 0 IUIn= 4 IUOut= 2.
 ----------------------------------------------------------------------
 #p CAM-B3LYP TZVP em=gd3bj td(nstates=6,root=2) scrf=(Solvent=Water,Co
 rrectedLR,NonEquilibrium=Save) Geom=Check Guess=Read
 ----------------------------------------------------------------------
 1/29=2,30=1,38=1,172=1/1;
 2/12=2,40=1/2;
 3/5=19,7=101,11=9,14=-4,25=1,30=1,70=9002201,71=1,72=1,74=-40,116=-2,124=41/1,2,3,8;
 4/5=1/1;
 5/5=2,38=6,53=1/2;
 8/6=1,10=1,107=2,108=6/1;
 9/8=2,15=1,41=6,42=1,70=2,73=22/14;
 10/5=4,13=10,28=2,74=20/2;
 6/7=2,8=2,9=2,10=2,22=-1/1;
 99/5=1,9=1/99;
 Leave Link    1 at Sat Jan 24 21:43:39 2026, MaxMem=  2147483648 cpu:               0.9 elap:               0.1
 (Enter /data/home/wyx/g16/l101.exe)
 -------------------
 Title Card Required
 -------------------
 Structure from the checkpoint file:  "DDL-S2-cLR-14.chk"
 Charge =  0 Multiplicity = 1
 Z-Matrix found in chk file.
 O,0,2.74408,-1.558299,0.749034
 O,0,-3.230656,-1.641882,-1.096703
 N,0,-0.708613,1.513486,0.113102
 H,0,-1.016805,2.471204,0.055253
 C,0,-1.248516,-0.758707,-0.15312
 C,0,0.641061,1.302995,0.278281
 C,0,-1.620382,0.546537,-0.230096
 C,0,-2.151921,-1.835866,-0.543762
 C,0,0.098154,-1.104499,0.425558
 H,0,-0.00759,-1.433582,1.468704
 H,0,0.525473,-1.963788,-0.088273
 C,0,1.094001,0.024796,0.35723
 C,0,2.491045,-0.390769,0.459368
 C,0,-2.945089,1.084984,-0.656635
 H,0,-3.0387,2.13535,-0.386148
 H,0,-3.065811,0.997733,-1.734698
 H,0,-3.759662,0.527107,-0.20838
 C,0,-1.7223,-3.250288,-0.252087
 H,0,-2.559188,-3.921853,-0.415316
 H,0,-0.908283,-3.542521,-0.91586
 H,0,-1.357325,-3.363233,0.766948
 C,0,3.647078,0.538279,0.181779
 H,0,3.449182,1.236989,-0.626618
 H,0,3.894563,1.112951,1.076002
 H,0,4.510429,-0.073281,-0.070063
 C,0,1.418371,2.580018,0.350038
 H,0,2.251852,2.5179,1.038412
 H,0,1.803165,2.859635,-0.631042
 H,0,0.772387,3.388601,0.689092
 Recover connectivity data from disk.
 ITRead=  0  0  0  0  0  0  0  0  0  0  0  0  0  0  0  0  0  0  0  0
 ITRead=  0  0  0  0  0  0  0  0  0
 MicOpt= -1 -1 -1 -1 -1 -1 -1 -1 -1 -1 -1 -1 -1 -1 -1 -1 -1 -1 -1 -1
 MicOpt= -1 -1 -1 -1 -1 -1 -1 -1 -1
 NAtoms=     29 NQM=       29 NQMF=       0 NMMI=      0 NMMIF=      0
                NMic=       0 NMicF=      0.
                    Isotopes and Nuclear Properties:
 (Nuclear quadrupole moments (NQMom) in fm**2, nuclear magnetic moments (NMagM)
  in nuclear magnetons)

  Atom         1           2           3           4           5           6           7           8           9          10
 IAtWgt=          16          16          14           1          12          12          12          12          12           1
 AtmWgt=  15.9949146  15.9949146  14.0030740   1.0078250  12.0000000  12.0000000  12.0000000  12.0000000  12.0000000   1.0078250
 NucSpn=           0           0           2           1           0           0           0           0           0           1
 AtZEff=   5.6000000   5.6000000   4.5500000   1.0000000   3.6000000   3.6000000   3.6000000   3.6000000   3.6000000   1.0000000
 NQMom=    0.0000000   0.0000000   2.0440000   0.0000000   0.0000000   0.0000000   0.0000000   0.0000000   0.0000000   0.0000000
 NMagM=    0.0000000   0.0000000   0.4037610   2.7928460   0.0000000   0.0000000   0.0000000   0.0000000   0.0000000   2.7928460
 AtZNuc=   8.0000000   8.0000000   7.0000000   1.0000000   6.0000000   6.0000000   6.0000000   6.0000000   6.0000000   1.0000000

  Atom        11          12          13          14          15          16          17          18          19          20
 IAtWgt=           1          12          12          12           1           1           1          12           1           1
 AtmWgt=   1.0078250  12.0000000  12.0000000  12.0000000   1.0078250   1.0078250   1.0078250  12.0000000   1.0078250   1.0078250
 NucSpn=           1           0           0           0           1           1           1           0           1           1
 AtZEff=   1.0000000   3.6000000   3.6000000   3.6000000   1.0000000   1.0000000   1.0000000   3.6000000   1.0000000   1.0000000
 NQMom=    0.0000000   0.0000000   0.0000000   0.0000000   0.0000000   0.0000000   0.0000000   0.0000000   0.0000000   0.0000000
 NMagM=    2.7928460   0.0000000   0.0000000   0.0000000   2.7928460   2.7928460   2.7928460   0.0000000   2.7928460   2.7928460
 AtZNuc=   1.0000000   6.0000000   6.0000000   6.0000000   1.0000000   1.0000000   1.0000000   6.0000000   1.0000000   1.0000000

  Atom        21          22          23          24          25          26          27          28          29
 IAtWgt=           1          12           1           1           1          12           1           1           1
 AtmWgt=   1.0078250  12.0000000   1.0078250   1.0078250   1.0078250  12.0000000   1.0078250   1.0078250   1.0078250
 NucSpn=           1           0           1           1           1           0           1           1           1
 AtZEff=   1.0000000   3.6000000   1.0000000   1.0000000   1.0000000   3.6000000   1.0000000   1.0000000   1.0000000
 NQMom=    0.0000000   0.0000000   0.0000000   0.0000000   0.0000000   0.0000000   0.0000000   0.0000000   0.0000000
 NMagM=    2.7928460   0.0000000   2.7928460   2.7928460   2.7928460   0.0000000   2.7928460   2.7928460   2.7928460
 AtZNuc=   1.0000000   6.0000000   1.0000000   1.0000000   1.0000000   6.0000000   1.0000000   1.0000000   1.0000000
 Leave Link  101 at Sat Jan 24 21:43:41 2026, MaxMem=  2147483648 cpu:               0.9 elap:               0.1
 (Enter /data/home/wyx/g16/l202.exe)
                          Input orientation:                          
 ---------------------------------------------------------------------
 Center     Atomic      Atomic             Coordinates (Angstroms)
 Number     Number       Type             X           Y           Z
 ---------------------------------------------------------------------
      1          8           0        2.744080   -1.558299    0.749034
      2          8           0       -3.230656   -1.641882   -1.096703
      3          7           0       -0.708613    1.513486    0.113102
      4          1           0       -1.016805    2.471204    0.055253
      5          6           0       -1.248516   -0.758707   -0.153120
      6          6           0        0.641061    1.302995    0.278281
      7          6           0       -1.620382    0.546537   -0.230096
      8          6           0       -2.151921   -1.835866   -0.543762
      9          6           0        0.098154   -1.104499    0.425558
     10          1           0       -0.007590   -1.433582    1.468704
     11          1           0        0.525473   -1.963788   -0.088273
     12          6           0        1.094001    0.024796    0.357230
     13          6           0        2.491045   -0.390769    0.459368
     14          6           0       -2.945089    1.084984   -0.656635
     15          1           0       -3.038700    2.135350   -0.386148
     16          1           0       -3.065811    0.997733   -1.734698
     17          1           0       -3.759662    0.527107   -0.208380
     18          6           0       -1.722300   -3.250288   -0.252087
     19          1           0       -2.559188   -3.921853   -0.415316
     20          1           0       -0.908283   -3.542521   -0.915860
     21          1           0       -1.357325   -3.363233    0.766948
     22          6           0        3.647078    0.538279    0.181779
     23          1           0        3.449182    1.236989   -0.626618
     24          1           0        3.894563    1.112951    1.076002
     25          1           0        4.510429   -0.073281   -0.070063
     26          6           0        1.418371    2.580018    0.350038
     27          1           0        2.251852    2.517900    1.038412
     28          1           0        1.803165    2.859635   -0.631042
     29          1           0        0.772387    3.388601    0.689092
 ---------------------------------------------------------------------
                    Distance matrix (angstroms):
                    1          2          3          4          5
     1  O    0.000000
     2  O    6.253895   0.000000
     3  N    4.664907   4.216714   0.000000
     4  H    5.555401   4.810989   1.007746   0.000000
     5  C    4.170618   2.366268   2.350581   3.244909   0.000000
     6  C    3.582080   5.055005   1.375940   2.040337   2.829704
     7  C    4.943436   2.851871   1.372624   2.037173   1.359364
     8  C    5.071409   1.227617   3.705775   4.494236   1.459114
     9  C    2.703978   3.699599   2.757235   3.763763   1.505975
    10  H    2.846958   4.124664   3.318780   4.273606   2.150736
    11  H    2.405768   3.902443   3.695261   4.697699   2.145568
    12  C    2.320013   4.857406   2.350577   3.245243   2.522245
    13  C    1.229252   6.060075   3.739505   4.545240   3.807208
    14  C    6.428802   2.776870   2.403733   2.479248   2.555599
    15  H    6.955014   3.848275   2.462777   2.096591   3.410957
    16  H    6.815941   2.720621   3.039202   3.094102   2.981448
    17  H    6.896682   2.402806   3.222607   3.372281   2.821742
    18  C    4.879920   2.361246   4.884104   5.773011   2.538157
    19  H    5.921718   2.472534   5.766001   6.593296   3.433963
    20  H    4.477585   3.006418   5.163510   6.092596   2.906398
    21  H    4.481030   3.153667   4.962936   5.887539   2.764402
    22  C    2.352195   7.327404   4.464055   5.050150   5.075546
    23  H    3.194248   7.288972   4.232127   4.683297   5.125951
    24  H    2.926789   7.942197   4.719834   5.196953   5.609377
    25  H    2.448711   7.964854   5.458001   6.086084   5.800186
    26  C    4.363756   6.444451   2.391169   2.455366   4.302620
    27  H    4.115996   7.205581   3.260276   3.413635   4.940494
    28  H    4.723142   6.769036   2.945318   2.928158   4.757475
    29  H    5.325691   6.672269   2.457882   2.108217   4.689726
                    6          7          8          9         10
     6  C    0.000000
     7  C    2.438196   0.000000
     8  C    4.281232   2.461049   0.000000
     9  C    2.472340   2.471673   2.556818   0.000000
    10  H    3.053966   3.067229   2.968166   1.098923   0.000000
    11  H    3.289315   3.305532   2.718873   1.088578   1.729003
    12  C    1.358374   2.825781   3.848358   1.507212   2.139099
    13  C    2.514770   4.272907   4.965049   2.497295   2.889532
    14  C    3.712421   1.492216   3.028732   3.902090   4.414651
    15  H    3.830786   2.135487   4.072073   4.582067   5.036405
    16  H    4.229204   2.134636   3.206682   4.369984   5.052306
    17  H    4.495020   2.139478   2.877665   4.236362   4.553565
    18  C    5.157437   3.798256   1.506731   2.894420   3.033442
    19  H    6.166174   4.569702   2.129250   3.963082   4.031337
    20  H    5.225463   4.206870   2.144240   2.959099   3.308325
    21  H    5.099610   4.043464   2.163838   2.708661   2.457193
    22  C    3.103263   5.283545   6.308040   3.918292   4.347529
    23  H    2.951058   5.131709   6.389183   4.221259   4.844749
    24  H    3.355257   5.695730   6.919474   4.444422   4.676093
    25  H    4.121588   6.164141   6.907822   4.558204   4.962934
    26  C    1.496712   3.702110   5.748556   3.914632   4.403835
    27  H    2.156024   4.526542   6.391539   4.258612   4.572137
    28  H    2.144873   4.151127   6.139874   4.442727   5.110722
    29  H    2.129733   3.827215   6.112819   4.551043   4.946676
                   11         12         13         14         15
    11  H    0.000000
    12  C    2.115695   0.000000
    13  C    2.576388   1.461115   0.000000
    14  C    4.654336   4.297228   5.742374   0.000000
    15  H    5.440128   4.699603   6.137936   1.088667   0.000000
    16  H    4.937473   4.756764   6.133556   1.088304   1.764510
    17  H    4.957960   4.912258   6.352930   1.084292   1.771393
    18  C    2.595072   4.362223   5.141526   4.522550   5.545807
    19  H    3.668257   5.433107   6.224024   5.027482   6.076223
    20  H    2.287565   4.284349   4.835310   5.062566   6.087486
    21  H    2.496954   4.201858   4.872381   4.932972   5.864390
    22  C    4.009699   2.610105   1.508840   6.667720   6.897304
    23  H    4.368394   2.825641   2.178758   6.396148   6.554196
    24  H    4.708782   3.089314   2.147388   7.055753   7.159142
    25  H    4.410694   3.444442   2.111636   7.567720   7.871932
    26  C    4.651404   2.575738   3.160405   4.721049   4.539293
    27  H    4.933085   2.831995   2.975376   5.651073   5.492327
    28  H    5.019214   3.084786   3.496755   5.069118   4.901859
    29  H    5.414179   3.395402   4.158148   4.575725   4.153452
                   16         17         18         19         20
    16  H    0.000000
    17  H    1.741426   0.000000
    18  C    4.695619   4.292024   0.000000
    19  H    5.118570   4.612722   1.085368   0.000000
    20  H    5.093067   5.019239   1.090238   1.766331   0.000000
    21  H    5.309914   4.675172   1.088299   1.776029   1.750893
    22  C    6.996203   7.417017   6.585719   7.665966   6.213618
    23  H    6.612883   7.255776   6.857124   7.922046   6.474170
    24  H    7.507337   7.783316   7.235387   8.320107   6.979131
    25  H    7.830549   8.293009   6.998101   8.056686   6.489487
    26  C    5.192075   5.598062   6.649725   7.660357   6.670929
    27  H    6.186969   6.454150   7.122588   8.168834   7.108751
    28  H    5.328383   6.046848   7.064253   8.066303   6.958496
    29  H    5.130572   5.434434   7.154308   8.109368   7.310333
                   21         22         23         24         25
    21  H    0.000000
    22  C    6.372462   0.000000
    23  H    6.797542   1.086676   0.000000
    24  H    6.907537   1.091390   1.764275   0.000000
    25  H    6.779005   1.087568   1.775614   1.760654   0.000000
    26  C    6.572711   3.027234   2.623314   2.968305   4.096011
    27  H    6.905619   2.568925   2.417986   2.161896   3.611662
    28  H    7.118087   3.073985   2.311357   3.215408   4.030629
    29  H    7.080183   4.079896   3.677738   3.882817   5.151107
                   26         27         28         29
    26  C    0.000000
    27  H    1.082778   0.000000
    28  H    1.090307   1.762152   0.000000
    29  H    1.089064   1.751845   1.756434   0.000000
 Stoichiometry    C11H15NO2
 Framework group  C1[X(C11H15NO2)]
 Deg. of freedom    81
 Full point group                 C1      NOp   1
 RotChk:  IX=0 Diff= 4.00D-16
 Largest Abelian subgroup         C1      NOp   1
 Largest concise Abelian subgroup C1      NOp   1
                         Standard orientation:                         
 ---------------------------------------------------------------------
 Center     Atomic      Atomic             Coordinates (Angstroms)
 Number     Number       Type             X           Y           Z
 ---------------------------------------------------------------------
      1          8           0       -2.286449   -2.281171   -0.188026
      2          8           0        3.592296   -0.248108    0.458670
      3          7           0       -0.026987    1.799700   -0.239863
      4          1           0       -0.057103    2.806987   -0.244108
      5          6           0        1.291071   -0.140124   -0.081636
      6          6           0       -1.231081    1.141558   -0.138776
      7          6           0        1.205251    1.216528   -0.079870
      8          6           0        2.561675   -0.826567    0.126632
      9          6           0        0.060049   -0.952253   -0.386577
     10          1           0        0.078534   -1.296542   -1.430012
     11          1           0        0.051392   -1.868271    0.201503
     12          6           0       -1.229606   -0.216762   -0.126712
     13          6           0       -2.396273   -1.079340    0.045640
     14          6           0        2.322795    2.192370    0.079933
     15          1           0        2.003193    3.193399   -0.204656
     16          1           0        2.660961    2.222731    1.113919
     17          1           0        3.181761    1.908593   -0.517844
     18          6           0        2.591997   -2.319523   -0.074362
     19          1           0        3.621972   -2.661825   -0.076600
     20          1           0        2.061496   -2.820761    0.735544
     21          1           0        2.107205   -2.615509   -1.002675
     22          6           0       -3.727493   -0.571479    0.542160
     23          1           0       -3.634201    0.205788    1.295829
     24          1           0       -4.314436   -0.173208   -0.287303
     25          1           0       -4.270467   -1.417115    0.957954
     26          6           0       -2.394854    2.079331   -0.059027
     27          1           0       -3.268708    1.697435   -0.571806
     28          1           0       -2.665377    2.280081    0.977934
     29          1           0       -2.135264    3.032124   -0.518219
 ---------------------------------------------------------------------
 Rotational constants (GHZ):           1.0785988           0.4908285           0.3468335
 Leave Link  202 at Sat Jan 24 21:43:42 2026, MaxMem=  2147483648 cpu:               0.1 elap:               0.0
 (Enter /data/home/wyx/g16/l301.exe)
 Standard basis: TZVP (5D, 7F)
 Ernie: Thresh=  0.10000D-02 Tol=  0.10000D-05 Strict=F.
 There are   370 symmetry adapted cartesian basis functions of A   symmetry.
 There are   356 symmetry adapted basis functions of A   symmetry.
   356 basis functions,   610 primitive gaussians,   370 cartesian basis functions
    52 alpha electrons       52 beta electrons
       nuclear repulsion energy       900.8334184365 Hartrees.
 IExCor=20419 DFT=T Ex+Corr=CAM-B3LYP ExCW=0 ScaHFX=  1.000000
 ScaDFX=  1.000000  1.000000  1.000000  0.810000 ScalE2=  1.000000  1.000000
 IRadAn=      5 IRanWt=     -1 IRanGd=            0 ICorTp=0 IEmpDi=141
 HFx  wShort=  0.000000 wLong=  0.330000 cFull=  0.190000 cShort=  0.000000 cLong=  0.460000
 DFx  wShort=  0.000000 wLong=  0.330000 cFull=  0.190000 cShort=  0.000000 cLong=  0.460000
 NAtoms=   29 NActive=   29 NUniq=   29 SFac= 1.00D+00 NAtFMM=   60 NAOKFM=F Big=F
 Integral buffers will be    131072 words long.
 Raffenetti 1 integral format.
 Two-electron integral symmetry is turned on.
 R6Disp:  Grimme-D3(BJ) Dispersion energy=       -0.0262121042 Hartrees.
 Nuclear repulsion after empirical dispersion term =      900.8072063323 Hartrees.
 ------------------------------------------------------------------------------
 Polarizable Continuum Model (PCM)
 =================================
 Model                : PCM.
 Atomic radii         : UFF (Universal Force Field).
 Polarization charges : Total charges.
 Charge compensation  : None.
 Solution method      : On-the-fly selection.
 Cavity type          : Scaled VdW (van der Waals Surface) (Alpha=1.100).
 Cavity algorithm     : GePol (No added spheres)
                        Default sphere list used, NSphG=   29.
                        Lebedev-Laikov grids with approx.  5.0 points / Ang**2.
                        Smoothing algorithm: York/Karplus (Gamma=1.0000).
                        Polarization charges: spherical gaussians, with
                                              point-specific exponents (IZeta= 3).
                        Self-potential: point-specific (ISelfS= 7).
                        Self-field    : sphere-specific E.n sum rule (ISelfD= 2).
 1st derivatives      : Analytical E(r).r(x)/FMM algorithm (CHGder, D1EAlg=3).
                        Cavity 1st derivative terms included.
 Solvent              : Water, Eps=  78.355300 Eps(inf)=   1.777849
 ------------------------------------------------------------------------------
 GePol: Number of generator spheres                  =      29
 GePol: Total number of spheres                      =      29
 GePol: Number of exposed spheres                    =      29 (100.00%)
 GePol: Number of points                             =    2100
 GePol: Average weight of points                     =       0.13
 GePol: Minimum weight of points                     =   0.29D-09
 GePol: Maximum weight of points                     =    0.20577
 GePol: Number of points with low weight             =     150
 GePol: Fraction of low-weight points (<1% of avg)   =       7.14%
 GePol: Cavity surface area                          =    268.569 Ang**2
 GePol: Cavity volume                                =    286.670 Ang**3
 Leave Link  301 at Sat Jan 24 21:43:43 2026, MaxMem=  2147483648 cpu:               0.6 elap:               0.0
 (Enter /data/home/wyx/g16/l302.exe)
 NPDir=0 NMtPBC=     1 NCelOv=     1 NCel=       1 NClECP=     1 NCelD=      1
         NCelK=      1 NCelE2=     1 NClLst=     1 CellRange=     0.0.
 One-electron integrals computed using PRISM.
 One-electron integral symmetry used in STVInt
 NBasis=   356 RedAO= T EigKep=  4.71D-05  NBF=   356
 NBsUse=   356 1.00D-06 EigRej= -1.00D+00 NBFU=   356
 Precomputing XC quadrature grid using
 IXCGrd= 4 IRadAn=           5 IRanWt=          -1 IRanGd=           0 AccXCQ= 0.00D+00.
 Generated NRdTot=       0 NPtTot=           0 NUsed=           0 NTot=          32
 NSgBfM=   366   366   366   366   366 MxSgAt=    29 MxSgA2=    29.
 Leave Link  302 at Sat Jan 24 21:43:43 2026, MaxMem=  2147483648 cpu:               3.1 elap:               0.2
 (Enter /data/home/wyx/g16/l303.exe)
 DipDrv:  MaxL=1.
 Leave Link  303 at Sat Jan 24 21:43:43 2026, MaxMem=  2147483648 cpu:               0.6 elap:               0.0
 (Enter /data/home/wyx/g16/l308.exe)
 Leave Link  308 at Sat Jan 24 21:43:43 2026, MaxMem=  2147483648 cpu:               0.7 elap:               0.1
 (Enter /data/home/wyx/g16/l401.exe)
 Initial guess from the checkpoint file:  "DDL-S2-cLR-14.chk"
 B after Tr=    -0.000000    0.000000   -0.000000
         Rot=    1.000000   -0.000000   -0.000000    0.000000 Ang=   0.00 deg.
 Guess basis will be translated and rotated to current coordinates.
 JPrj=2 DoOrth=T DoCkMO=T.
 Leave Link  401 at Sat Jan 24 21:43:44 2026, MaxMem=  2147483648 cpu:               2.2 elap:               0.2
 (Enter /data/home/wyx/g16/l502.exe)
 Integral symmetry usage will be decided dynamically.
 Closed shell SCF:
 Using DIIS extrapolation, IDIIS=  1040.
 NGot=  2147483648 LenX=  2147200095 LenY=  2147062754
 Requested convergence on RMS density matrix=1.00D-08 within 128 cycles.
 Requested convergence on MAX density matrix=1.00D-06.
 Requested convergence on             energy=1.00D-06.
 No special actions if energy rises.
 Fock matrices will be formed incrementally for  20 cycles.

 Cycle   1  Pass 1  IDiag  1:
 FoFJK:  IHMeth= 1 ICntrl=       0 DoSepK=T KAlg= 0 I1Cent=           0 FoldK=F
 IRaf=         1 NMat=       1 IRICut=       1 DoRegI=T DoRafI=F ISym2E= 0 IDoP0=0 IntGTp=1.
 FoFCou: FMM=F IPFlag=           0 FMFlag=      100000 FMFlg1=           0
         NFxFlg=           0 DoJE=T BraDBF=F KetDBF=F FulRan=T
         wScrn=  0.000000 ICntrl=       500 IOpCl=  0 I1Cent=           0 NGrid=           0
         NMat0=    1 NMatS0=      1 NMatT0=    0 NMatD0=    1 NMtDS0=    0 NMtDT0=    0
 Symmetry not used in FoFCou.
 Inv3:  Mode=1 IEnd=    13230000.
 Iteration    1 A*A^-1 deviation from unit magnitude is 3.11D-15 for   1402.
 Iteration    1 A*A^-1 deviation from orthogonality  is 2.67D-15 for   2023   1557.
 Iteration    1 A^-1*A deviation from unit magnitude is 3.33D-15 for     65.
 Iteration    1 A^-1*A deviation from orthogonality  is 1.55D-15 for   2090   1872.
 E= -633.332243288448    
 DIIS: error= 1.40D-08 at cycle   1 NSaved=   1.
 NSaved= 1 IEnMin= 1 EnMin= -633.332243288448     IErMin= 1 ErrMin= 1.40D-08
 ErrMax= 1.40D-08  0.00D+00 EMaxC= 1.00D-01 BMatC= 5.41D-14 BMatP= 5.41D-14
 IDIUse=1 WtCom= 1.00D+00 WtEn= 0.00D+00
 Coeff-Com:  0.100D+01
 Coeff:      0.100D+01
 Gap=     0.237 Goal=   None    Shift=    0.000
 RMSDP=2.54D-09 MaxDP=7.27D-08              OVMax= 3.06D-07

 Error on total polarization charges =  0.01548
 SCF Done:  E(RCAM-B3LYP) =  -633.332243288     A.U. after    1 cycles
            NFock=  1  Conv=0.25D-08     -V/T= 2.0041
 KE= 6.307205355828D+02 PE=-3.277697893465D+03 EE= 1.112837908261D+03
 Leave Link  502 at Sat Jan 24 21:43:49 2026, MaxMem=  2147483648 cpu:              86.0 elap:               5.7
 (Enter /data/home/wyx/g16/l801.exe)
 DoSCS=F DFT=T ScalE2(SS,OS)=  1.000000  1.000000
 ExpMin= 9.52D-02 ExpMax= 2.70D+04 ExpMxC= 9.22D+02 IAcc=3 IRadAn=         5 AccDes= 0.00D+00
 HarFok:  IExCor=  205 AccDes= 0.00D+00 IRadAn=         5 IDoV=-2 UseB2=F ITyADJ=14
 ICtDFT= 12500011 ScaDFX=  1.000000  1.000000  1.000000  1.000000
 Largest valence mixing into a core orbital is  5.64D-05
 Largest core mixing into a valence orbital is  1.20D-05
 Range of M.O.s used for correlation:    15   356
 NBasis=   356 NAE=    52 NBE=    52 NFC=    14 NFV=     0
 NROrb=    342 NOA=    38 NOB=    38 NVA=   304 NVB=   304

 **** Warning!!: The largest alpha MO coefficient is  0.53859962D+02

 Leave Link  801 at Sat Jan 24 21:43:50 2026, MaxMem=  2147483648 cpu:               1.0 elap:               0.1
 (Enter /data/home/wyx/g16/l914.exe)
 RHF ground state
 Two-electron integrals replicated using symmetry.
 MDV=  2147483648 DFT=T DoStab=F Mixed=T DoRPA=T DoScal=F NonHer=T
 NEqPCM:  Using equilibrium solvation (IEInf=0, Eps=  78.3553, EpsInf=   1.7778)
 Making orbital integer symmetry assigments:
 Orbital symmetries:
       Occupied  (A) (A) (A) (A) (A) (A) (A) (A) (A) (A) (A) (A)
                 (A) (A) (A) (A) (A) (A) (A) (A) (A) (A) (A) (A)
                 (A) (A) (A) (A) (A) (A) (A) (A) (A) (A) (A) (A)
                 (A) (A) (A) (A) (A) (A) (A) (A) (A) (A) (A) (A)
                 (A) (A) (A) (A)
       Virtual   (A) (A) (A) (A) (A) (A) (A) (A) (A) (A) (A) (A)
                 (A) (A) (A) (A) (A) (A) (A) (A) (A) (A) (A) (A)
                 (A) (A) (A) (A) (A) (A) (A) (A) (A) (A) (A) (A)
                 (A) (A) (A) (A) (A) (A) (A) (A) (A) (A) (A) (A)
                 (A) (A) (A) (A) (A) (A) (A) (A) (A) (A) (A) (A)
                 (A) (A) (A) (A) (A) (A) (A) (A) (A) (A) (A) (A)
                 (A) (A) (A) (A) (A) (A) (A) (A) (A) (A) (A) (A)
                 (A) (A) (A) (A) (A) (A) (A) (A) (A) (A) (A) (A)
                 (A) (A) (A) (A) (A) (A) (A) (A) (A) (A) (A) (A)
                 (A) (A) (A) (A) (A) (A) (A) (A) (A) (A) (A) (A)
                 (A) (A) (A) (A) (A) (A) (A) (A) (A) (A) (A) (A)
                 (A) (A) (A) (A) (A) (A) (A) (A) (A) (A) (A) (A)
                 (A) (A) (A) (A) (A) (A) (A) (A) (A) (A) (A) (A)
                 (A) (A) (A) (A) (A) (A) (A) (A) (A) (A) (A) (A)
                 (A) (A) (A) (A) (A) (A) (A) (A) (A) (A) (A) (A)
                 (A) (A) (A) (A) (A) (A) (A) (A) (A) (A) (A) (A)
                 (A) (A) (A) (A) (A) (A) (A) (A) (A) (A) (A) (A)
                 (A) (A) (A) (A) (A) (A) (A) (A) (A) (A) (A) (A)
                 (A) (A) (A) (A) (A) (A) (A) (A) (A) (A) (A) (A)
                 (A) (A) (A) (A) (A) (A) (A) (A) (A) (A) (A) (A)
                 (A) (A) (A) (A) (A) (A) (A) (A) (A) (A) (A) (A)
                 (A) (A) (A) (A) (A) (A) (A) (A) (A) (A) (A) (A)
                 (A) (A) (A) (A) (A) (A) (A) (A) (A) (A) (A) (A)
                 (A) (A) (A) (A) (A) (A) (A) (A) (A) (A) (A) (A)
                 (A) (A) (A) (A) (A) (A) (A) (A) (A) (A) (A) (A)
                 (A) (A) (A) (A)
 PCM Corrected Linear-Response:
 Compute the excitation energies in the ground state reaction field.
    24 initial guesses have been made.
 Convergence on wavefunction:    0.000001000000000
 Davidson Disk Diagonalization:  ConvIn= 1.00D-06 SkipCon=T Conv= 1.00D-06.
 Max sub-space:  2000 roots to seek:    24 dimension of matrix:        23104
 Iteration     1 Dimension    24 NMult     0 NNew     24
 CISAX will form    24 AO SS matrices at one time.
 NMat=    24 NSing=    24 JSym2X= 0.
 FoFJK:  IHMeth= 1 ICntrl=       0 DoSepK=T KAlg= 0 I1Cent=           0 FoldK=F
 IRaf=         1 NMat=      48 IRICut=       1 DoRegI=T DoRafI=F ISym2E= 0 IDoP0=3 IntGTp=3.
 FoFCou: FMM=F IPFlag=           0 FMFlag=      100000 FMFlg1=           0
         NFxFlg=           0 DoJE=F BraDBF=F KetDBF=F FulRan=T
         wScrn=  0.000000 ICntrl=       500 IOpCl=  0 I1Cent=           0 NGrid=           0
         NMat0=   24 NMatS0=     24 NMatT0=    0 NMatD0=   24 NMtDS0=    0 NMtDT0=    0
 Symmetry not used in FoFCou.
 New state      2 was old state      3
 New state      3 was old state      4
 New state      4 was old state      2
 New state      5 was old state      6
 New state      6 was old state      5
 Excitation Energies [eV] at current iteration:
 Root      1 :     3.998854694096195
 Root      2 :     4.360759491036121
 Root      3 :     4.547603984545789
 Root      4 :     5.549616044126062
 Root      5 :     6.244531120938645
 Root      6 :     6.575092908129466
 Root      7 :     6.821987886430247
 Root      8 :     6.870860473737026
 Root      9 :     7.037799394360977
 Root     10 :     7.130562818946854
 Root     11 :     7.285498409549712
 Root     12 :     7.439095195434218
 Root     13 :     7.604522733634661
 Root     14 :     7.655144126780600
 Root     15 :     7.832615929223013
 Root     16 :     8.044255268597505
 Root     17 :     8.174505528486522
 Root     18 :     8.301590469793288
 Root     19 :     8.335681715217547
 Root     20 :     8.667045316085320
 Root     21 :     8.828905665904813
 Root     22 :     8.988868451528658
 Root     23 :     9.129127995133214
 Root     24 :     9.241206242864370
 Iteration     2 Dimension    36 NMult    24 NNew     12
 CISAX will form    12 AO SS matrices at one time.
 NMat=    12 NSing=    12 JSym2X= 0.
 Root      1 not converged, maximum delta is    0.051443163374644
 Root      2 not converged, maximum delta is    0.073025670618752
 Root      3 not converged, maximum delta is    0.086686067626423
 Root      4 not converged, maximum delta is    0.211863801828170
 New state      5 was old state      6
 Root      5 not converged, maximum delta is    0.266244354419858
 New state      6 was old state      5
 Root      6 not converged, maximum delta is    0.147948143911750
 Excitation Energies [eV] at current iteration:
 Root      1 :     3.541449199760610   Change is   -0.457405494335585
 Root      2 :     4.122314793350897   Change is   -0.238444697685223
 Root      3 :     4.277092493193956   Change is   -0.270511491351834
 Root      4 :     5.229142168301940   Change is   -0.320473875824122
 Root      5 :     5.698103451074227   Change is   -0.876989457055240
 Root      6 :     6.117044986152044   Change is   -0.127486134786601
 Iteration     3 Dimension    48 NMult    36 NNew     12
 CISAX will form    12 AO SS matrices at one time.
 NMat=    12 NSing=    12 JSym2X= 0.
 Root      1 not converged, maximum delta is    0.009576885060334
 Root      2 not converged, maximum delta is    0.011355580094575
 Root      3 not converged, maximum delta is    0.012732627127158
 Root      4 not converged, maximum delta is    0.021819164561202
 Root      5 not converged, maximum delta is    0.023845342473206
 Root      6 not converged, maximum delta is    0.018363933725211
 Excitation Energies [eV] at current iteration:
 Root      1 :     3.521224735921597   Change is   -0.020224463839013
 Root      2 :     4.108790407342323   Change is   -0.013524386008574
 Root      3 :     4.262980823480403   Change is   -0.014111669713552
 Root      4 :     5.207748170593613   Change is   -0.021393997708328
 Root      5 :     5.663249863960966   Change is   -0.034853587113260
 Root      6 :     6.105873695119142   Change is   -0.011171291032903
 Iteration     4 Dimension    60 NMult    48 NNew     12
 CISAX will form    12 AO SS matrices at one time.
 NMat=    12 NSing=    12 JSym2X= 0.
 Root      1 not converged, maximum delta is    0.002181776923805
 Root      2 not converged, maximum delta is    0.002040217247338
 Root      3 not converged, maximum delta is    0.002005886544112
 Root      4 not converged, maximum delta is    0.002291278872735
 Root      5 not converged, maximum delta is    0.003169792297407
 Root      6 not converged, maximum delta is    0.003623492371356
 Excitation Energies [eV] at current iteration:
 Root      1 :     3.519572999349802   Change is   -0.001651736571795
 Root      2 :     4.107967864361898   Change is   -0.000822542980426
 Root      3 :     4.262150841697774   Change is   -0.000829981782630
 Root      4 :     5.206024261145230   Change is   -0.001723909448382
 Root      5 :     5.660297996348108   Change is   -0.002951867612858
 Root      6 :     6.105014915929833   Change is   -0.000858779189308
 Iteration     5 Dimension    72 NMult    60 NNew     12
 CISAX will form    12 AO SS matrices at one time.
 NMat=    12 NSing=    12 JSym2X= 0.
 Root      1 not converged, maximum delta is    0.000754889434593
 Root      2 not converged, maximum delta is    0.000280368495114
 Root      3 not converged, maximum delta is    0.000559501268923
 Root      4 not converged, maximum delta is    0.000981903138586
 Root      5 not converged, maximum delta is    0.001070110214910
 Root      6 not converged, maximum delta is    0.001131351023024
 Excitation Energies [eV] at current iteration:
 Root      1 :     3.519468717898594   Change is   -0.000104281451209
 Root      2 :     4.107915469597724   Change is   -0.000052394764173
 Root      3 :     4.262100469657605   Change is   -0.000050372040169
 Root      4 :     5.205884111703620   Change is   -0.000140149441610
 Root      5 :     5.660017104798150   Change is   -0.000280891549958
 Root      6 :     6.104944085807543   Change is   -0.000070830122290
 Iteration     6 Dimension    84 NMult    72 NNew     12
 CISAX will form    12 AO SS matrices at one time.
 NMat=    12 NSing=    12 JSym2X= 0.
 Root      1 not converged, maximum delta is    0.000218276827060
 Root      2 not converged, maximum delta is    0.000090896942104
 Root      3 not converged, maximum delta is    0.000158359575682
 Root      4 not converged, maximum delta is    0.000581421567120
 Root      5 not converged, maximum delta is    0.000221234937160
 Root      6 not converged, maximum delta is    0.000194619950317
 Excitation Energies [eV] at current iteration:
 Root      1 :     3.519462959242324   Change is   -0.000005758656269
 Root      2 :     4.107911646562396   Change is   -0.000003823035328
 Root      3 :     4.262097305818336   Change is   -0.000003163839268
 Root      4 :     5.205869882388683   Change is   -0.000014229314938
 Root      5 :     5.659995234225471   Change is   -0.000021870572679
 Root      6 :     6.104938397181821   Change is   -0.000005688625722
 Iteration     7 Dimension    96 NMult    84 NNew     12
 CISAX will form    12 AO SS matrices at one time.
 NMat=    12 NSing=    12 JSym2X= 0.
 Root      1 not converged, maximum delta is    0.000017777272358
 Root      2 not converged, maximum delta is    0.000016441381391
 Root      3 not converged, maximum delta is    0.000039077059878
 Root      4 not converged, maximum delta is    0.000178965015386
 Root      5 not converged, maximum delta is    0.000085823209494
 Root      6 not converged, maximum delta is    0.000111199781792
 Excitation Energies [eV] at current iteration:
 Root      1 :     3.519462641884931   Change is   -0.000000317357393
 Root      2 :     4.107911449849643   Change is   -0.000000196712753
 Root      3 :     4.262097118710486   Change is   -0.000000187107850
 Root      4 :     5.205868522165468   Change is   -0.000001360223214
 Root      5 :     5.659993583424606   Change is   -0.000001650800866
 Root      6 :     6.104937790811392   Change is   -0.000000606370428
 Iteration     8 Dimension   108 NMult    96 NNew     12
 CISAX will form    12 AO SS matrices at one time.
 NMat=    12 NSing=    12 JSym2X= 0.
 Root      1 not converged, maximum delta is    0.000003522022939
 Root      2 not converged, maximum delta is    0.000003925201121
 Root      3 not converged, maximum delta is    0.000004684161436
 Root      4 not converged, maximum delta is    0.000026621074782
 Root      5 not converged, maximum delta is    0.000016811512918
 Root      6 not converged, maximum delta is    0.000025309279444
 Excitation Energies [eV] at current iteration:
 Root      1 :     3.519462629926653   Change is   -0.000000011958278
 Root      2 :     4.107911439152770   Change is   -0.000000010696873
 Root      3 :     4.262097109090304   Change is   -0.000000009620182
 Root      4 :     5.205868422283939   Change is   -0.000000099881529
 Root      5 :     5.659993469164743   Change is   -0.000000114259863
 Root      6 :     6.104937734664056   Change is   -0.000000056147336
 Iteration     9 Dimension   120 NMult   108 NNew     12
 CISAX will form    12 AO SS matrices at one time.
 NMat=    12 NSing=    12 JSym2X= 0.
 Root      1 has converged.
 Root      2 has converged.
 Root      3 has converged.
 Root      4 not converged, maximum delta is    0.000002636937566
 Root      5 not converged, maximum delta is    0.000003324817739
 Root      6 not converged, maximum delta is    0.000006271744090
 Excitation Energies [eV] at current iteration:
 Root      1 :     3.519462629429736   Change is   -0.000000000496917
 Root      2 :     4.107911438775764   Change is   -0.000000000377006
 Root      3 :     4.262097108758627   Change is   -0.000000000331677
 Root      4 :     5.205868417898690   Change is   -0.000000004385249
 Root      5 :     5.659993463389789   Change is   -0.000000005774954
 Root      6 :     6.104937731060947   Change is   -0.000000003603109
 Iteration    10 Dimension   126 NMult   120 NNew      6
 CISAX will form     6 AO SS matrices at one time.
 NMat=     6 NSing=     6 JSym2X= 0.
 Root      1 has converged.
 Root      2 has converged.
 Root      3 has converged.
 Root      4 has converged.
 Root      5 not converged, maximum delta is    0.000001165626617
 Root      6 not converged, maximum delta is    0.000001689990939
 Excitation Energies [eV] at current iteration:
 Root      1 :     3.519462629427212   Change is   -0.000000000002523
 Root      2 :     4.107911438772001   Change is   -0.000000000003762
 Root      3 :     4.262097108754943   Change is   -0.000000000003684
 Root      4 :     5.205868417705263   Change is   -0.000000000193428
 Root      5 :     5.659993463077196   Change is   -0.000000000312592
 Root      6 :     6.104937730800425   Change is   -0.000000000260522
 Iteration    11 Dimension   130 NMult   126 NNew      4
 CISAX will form     4 AO SS matrices at one time.
 NMat=     4 NSing=     4 JSym2X= 0.
 Root      1 has converged.
 Root      2 has converged.
 Root      3 has converged.
 Root      4 has converged.
 Root      5 has converged.
 Root      6 has converged.
 Excitation Energies [eV] at current iteration:
 Root      1 :     3.519462629426793   Change is   -0.000000000000420
 Root      2 :     4.107911438771782   Change is   -0.000000000000220
 Root      3 :     4.262097108754691   Change is   -0.000000000000251
 Root      4 :     5.205868417702215   Change is   -0.000000000003048
 Root      5 :     5.659993463059710   Change is   -0.000000000017487
 Root      6 :     6.104937730780899   Change is   -0.000000000019525
 Convergence achieved on expansion vectors.
 PCM Corrected Linear-Response:
 The state of interest is root number   2
 Excitation energy =    4.1079 eV, Total energy =  -633.181280321    
 Recompute the excitation energies using the linear response reaction field.
 Convergence on wavefunction:    0.000001000000000
 Davidson Disk Diagonalization:  ConvIn= 1.00D-06 SkipCon=T Conv= 1.00D-06.
 Max sub-space:  2000 roots to seek:     6 dimension of matrix:        23104
 Iteration     1 Dimension     6 NMult     0 NNew      6
 CISAX will form     6 AO SS matrices at one time.
 NMat=     6 NSing=     6 JSym2X= 0.
 Excitation Energies [eV] at current iteration:
 Root      1 :     3.590104079863711
 Root      2 :     4.134628382083908
 Root      3 :     4.287981056099071
 Root      4 :     5.267435677102036
 Root      5 :     5.791831099338229
 Root      6 :     6.066444917787026
 Iteration     2 Dimension    18 NMult     6 NNew     12
 CISAX will form    12 AO SS matrices at one time.
 NMat=    12 NSing=    12 JSym2X= 0.
 Root      1 not converged, maximum delta is    0.017001911973545
 Root      2 not converged, maximum delta is    0.023473407948677
 Root      3 not converged, maximum delta is    0.010625935099282
 Root      4 not converged, maximum delta is    0.225596297682408
 Root      5 not converged, maximum delta is    0.274981781128365
 Root      6 not converged, maximum delta is    0.060634771468816
 Excitation Energies [eV] at current iteration:
 Root      1 :     3.376666618286670   Change is   -0.213437461577042
 Root      2 :     4.101324557205359   Change is   -0.033303824878549
 Root      3 :     4.255203281610527   Change is   -0.032777774488544
 Root      4 :     5.033634364894820   Change is   -0.233801312207215
 Root      5 :     5.516844916315796   Change is   -0.274986183022433
 Root      6 :     6.041613138910657   Change is   -0.024831778876369
 Iteration     3 Dimension    30 NMult    18 NNew     12
 CISAX will form    12 AO SS matrices at one time.
 NMat=    12 NSing=    12 JSym2X= 0.
 Root      1 not converged, maximum delta is    0.003137801797958
 Root      2 not converged, maximum delta is    0.001082986542117
 Root      3 not converged, maximum delta is    0.001457582193695
 Root      4 not converged, maximum delta is    0.012645501841906
 Root      5 not converged, maximum delta is    0.011203428923128
 Root      6 not converged, maximum delta is    0.008980610936693
 Excitation Energies [eV] at current iteration:
 Root      1 :     3.373179959581520   Change is   -0.003486658705150
 Root      2 :     4.100962663161212   Change is   -0.000361894044146
 Root      3 :     4.254808934419976   Change is   -0.000394347190550
 Root      4 :     5.023166291482052   Change is   -0.010468073412769
 Root      5 :     5.508711700035473   Change is   -0.008133216280323
 Root      6 :     6.039406456241180   Change is   -0.002206682669477
 Iteration     4 Dimension    42 NMult    30 NNew     12
 CISAX will form    12 AO SS matrices at one time.
 NMat=    12 NSing=    12 JSym2X= 0.
 Root      1 not converged, maximum delta is    0.001623557157083
 Root      2 not converged, maximum delta is    0.000195430023577
 Root      3 not converged, maximum delta is    0.000227191958792
 Root      4 not converged, maximum delta is    0.002693846406987
 Root      5 not converged, maximum delta is    0.002807104846186
 Root      6 not converged, maximum delta is    0.008967347434037
 Excitation Energies [eV] at current iteration:
 Root      1 :     3.372720615340434   Change is   -0.000459344241085
 Root      2 :     4.100944071426950   Change is   -0.000018591734263
 Root      3 :     4.254785227570437   Change is   -0.000023706849539
 Root      4 :     5.021439131976607   Change is   -0.001727159505445
 Root      5 :     5.507471061385732   Change is   -0.001240638649742
 Root      6 :     6.038719448314043   Change is   -0.000687007927137
 Iteration     5 Dimension    54 NMult    42 NNew     12
 CISAX will form    12 AO SS matrices at one time.
 NMat=    12 NSing=    12 JSym2X= 0.
 Root      1 not converged, maximum delta is    0.000548194697864
 Root      2 not converged, maximum delta is    0.000082071075816
 Root      3 not converged, maximum delta is    0.000072163906436
 Root      4 not converged, maximum delta is    0.000784765963561
 Root      5 not converged, maximum delta is    0.000873380911169
 Root      6 not converged, maximum delta is    0.003911314855549
 Excitation Energies [eV] at current iteration:
 Root      1 :     3.372689127676190   Change is   -0.000031487664244
 Root      2 :     4.100942825469191   Change is   -0.000001245957759
 Root      3 :     4.254783393691635   Change is   -0.000001833878803
 Root      4 :     5.021285408873974   Change is   -0.000153723102634
 Root      5 :     5.507344922402195   Change is   -0.000126138983536
 Root      6 :     6.038573986435000   Change is   -0.000145461879043
 Iteration     6 Dimension    66 NMult    54 NNew     12
 CISAX will form    12 AO SS matrices at one time.
 NMat=    12 NSing=    12 JSym2X= 0.
 Root      1 not converged, maximum delta is    0.000080538142276
 Root      2 not converged, maximum delta is    0.000024446632068
 Root      3 not converged, maximum delta is    0.000029141567538
 Root      4 not converged, maximum delta is    0.000314009846551
 Root      5 not converged, maximum delta is    0.000484497703470
 Root      6 not converged, maximum delta is    0.001113618669226
 Excitation Energies [eV] at current iteration:
 Root      1 :     3.372687121752020   Change is   -0.000002005924170
 Root      2 :     4.100942692721724   Change is   -0.000000132747467
 Root      3 :     4.254783210809219   Change is   -0.000000182882415
 Root      4 :     5.021270926533452   Change is   -0.000014482340522
 Root      5 :     5.507329336735264   Change is   -0.000015585666931
 Root      6 :     6.038551191253362   Change is   -0.000022795181638
 Iteration     7 Dimension    78 NMult    66 NNew     12
 CISAX will form    12 AO SS matrices at one time.
 NMat=    12 NSing=    12 JSym2X= 0.
 Root      1 not converged, maximum delta is    0.000011438740830
 Root      2 not converged, maximum delta is    0.000006175272224
 Root      3 not converged, maximum delta is    0.000008170024383
 Root      4 not converged, maximum delta is    0.000109053283173
 Root      5 not converged, maximum delta is    0.000150228056659
 Root      6 not converged, maximum delta is    0.000149713470888
 Excitation Energies [eV] at current iteration:
 Root      1 :     3.372687043104693   Change is   -0.000000078647328
 Root      2 :     4.100942686801558   Change is   -0.000000005920166
 Root      3 :     4.254783200537219   Change is   -0.000000010272000
 Root      4 :     5.021269720878803   Change is   -0.000001205654649
 Root      5 :     5.507327910317802   Change is   -0.000001426417462
 Root      6 :     6.038549065819108   Change is   -0.000002125434254
 Iteration     8 Dimension    90 NMult    78 NNew     12
 CISAX will form    12 AO SS matrices at one time.
 NMat=    12 NSing=    12 JSym2X= 0.
 Root      1 not converged, maximum delta is    0.000002727322437
 Root      2 not converged, maximum delta is    0.000001652598413
 Root      3 not converged, maximum delta is    0.000001301171415
 Root      4 not converged, maximum delta is    0.000026410780078
 Root      5 not converged, maximum delta is    0.000049229057090
 Root      6 not converged, maximum delta is    0.000031953356871
 Excitation Energies [eV] at current iteration:
 Root      1 :     3.372687039410495   Change is   -0.000000003694197
 Root      2 :     4.100942686569424   Change is   -0.000000000232133
 Root      3 :     4.254783200058228   Change is   -0.000000000478992
 Root      4 :     5.021269635460237   Change is   -0.000000085418566
 Root      5 :     5.507327786279120   Change is   -0.000000124038682
 Root      6 :     6.038548855231299   Change is   -0.000000210587810
 Iteration     9 Dimension   102 NMult    90 NNew     12
 CISAX will form    12 AO SS matrices at one time.
 NMat=    12 NSing=    12 JSym2X= 0.
 Root      1 has converged.
 Root      2 has converged.
 Root      3 has converged.
 Root      4 not converged, maximum delta is    0.000007012450351
 Root      5 not converged, maximum delta is    0.000010460850631
 Root      6 not converged, maximum delta is    0.000021051651807
 Excitation Energies [eV] at current iteration:
 Root      1 :     3.372687039218522   Change is   -0.000000000191974
 Root      2 :     4.100942686558179   Change is   -0.000000000011246
 Root      3 :     4.254783200025729   Change is   -0.000000000032498
 Root      4 :     5.021269629079895   Change is   -0.000000006380342
 Root      5 :     5.507327774249415   Change is   -0.000000012029705
 Root      6 :     6.038548832993777   Change is   -0.000000022237522
 Iteration    10 Dimension   108 NMult   102 NNew      6
 CISAX will form     6 AO SS matrices at one time.
 NMat=     6 NSing=     6 JSym2X= 0.
 Root      1 has converged.
 Root      2 has converged.
 Root      3 has converged.
 Root      4 not converged, maximum delta is    0.000001526244872
 Root      5 not converged, maximum delta is    0.000002861751757
 Root      6 not converged, maximum delta is    0.000008138770834
 Excitation Energies [eV] at current iteration:
 Root      1 :     3.372687039217352   Change is   -0.000000000001170
 Root      2 :     4.100942686558018   Change is   -0.000000000000160
 Root      3 :     4.254783200024995   Change is   -0.000000000000734
 Root      4 :     5.021269628738623   Change is   -0.000000000341271
 Root      5 :     5.507327773387354   Change is   -0.000000000862060
 Root      6 :     6.038548830112010   Change is   -0.000000002881767
 Iteration    11 Dimension   114 NMult   108 NNew      6
 CISAX will form     6 AO SS matrices at one time.
 NMat=     6 NSing=     6 JSym2X= 0.
 Root      1 has converged.
 Root      2 has converged.
 Root      3 has converged.
 Root      4 has converged.
 Root      5 has converged.
 Root      6 not converged, maximum delta is    0.000001499846929
 Excitation Energies [eV] at current iteration:
 Root      1 :     3.372687039217279   Change is   -0.000000000000073
 Root      2 :     4.100942686557999   Change is   -0.000000000000020
 Root      3 :     4.254783200024899   Change is   -0.000000000000097
 Root      4 :     5.021269628719124   Change is   -0.000000000019500
 Root      5 :     5.507327773328736   Change is   -0.000000000058618
 Root      6 :     6.038548829830654   Change is   -0.000000000281356
 Iteration    12 Dimension   116 NMult   114 NNew      2
 CISAX will form     2 AO SS matrices at one time.
 NMat=     2 NSing=     2 JSym2X= 0.
 Root      1 has converged.
 Root      2 has converged.
 Root      3 has converged.
 Root      4 has converged.
 Root      5 has converged.
 Root      6 has converged.
 Excitation Energies [eV] at current iteration:
 Root      1 :     3.372687039217133   Change is   -0.000000000000146
 Root      2 :     4.100942686557999   Change is    0.000000000000000
 Root      3 :     4.254783200024820   Change is   -0.000000000000078
 Root      4 :     5.021269628719059   Change is   -0.000000000000065
 Root      5 :     5.507327773328558   Change is   -0.000000000000179
 Root      6 :     6.038548829809798   Change is   -0.000000000020856
 Convergence achieved on expansion vectors.
 ***********************************************************************
 Excited states from <AA,BB:AA,BB> singles matrix:
 ***********************************************************************
 
 1PDM for each excited state written to RWF  633
 Ground to excited state transition densities written to RWF  633
 Ground to excited state transition electric dipole moments (Au):
       state          X           Y           Z        Dip. S.      Osc.
         1         1.7011      0.2177      0.0581      2.9446      0.2433
         2         0.1567     -0.0051      0.0461      0.0267      0.0027
         3         0.0055      0.1752     -0.0395      0.0323      0.0034
         4         0.2018     -1.9838      0.1458      3.9973      0.4917
         5         0.0706     -1.4224      0.0171      2.0284      0.2737
         6        -0.0273      0.2779      0.0567      0.0812      0.0120
 Ground to excited state transition velocity dipole moments (Au):
       state          X           Y           Z        Dip. S.      Osc.
         1        -0.2027     -0.0225     -0.0079      0.0416      0.2240
         2        -0.0228      0.0010     -0.0040      0.0005      0.0024
         3        -0.0009     -0.0258      0.0027      0.0007      0.0029
         4        -0.0394      0.3516     -0.0222      0.1257      0.4541
         5        -0.0142      0.2832     -0.0046      0.0805      0.2650
         6         0.0068     -0.0575     -0.0321      0.0044      0.0132
 Ground to excited state transition magnetic dipole moments (Au):
       state          X           Y           Z
         1        -0.0762     -0.0065      1.4307
         2         0.8093      0.1457      0.3682
         3         0.1540      0.9998      0.1878
         4         0.0855      0.1299     -0.1260
         5         0.1964      0.1056     -0.2672
         6         0.0504      0.0228     -0.0343
 Ground to excited state transition velocity quadrupole moments (Au):
       state          XX          YY          ZZ          XY          XZ          YZ
         1        -0.1942      0.1127     -0.0006      0.5585     -0.0644      0.0121
         2         0.0019     -0.0081      0.0039      0.0619     -0.0189      0.0897
         3         0.0201     -0.0118      0.0303      0.0561     -0.0682      0.0086
         4        -1.3765      0.3219     -0.0001     -0.1292     -0.1020     -0.0529
         5        -0.4129      0.2460      0.0501     -0.2127     -0.0666      0.0443
         6        -0.3334     -0.2569      0.2137     -0.0219     -0.0433      0.1077
 <0|del|b> * <b|rxdel|0> + <0|del|b> * <b|delr+rdel|0>
 Rotatory Strengths (R) in cgs (10**-40 erg-esu-cm/Gauss)
       state          XX          YY          ZZ    R(velocity)    E-M Angle
         1       -48.5885     17.3698     55.6338      8.1384       89.16
         2        -3.6491    -50.9272    -38.1736    -30.9166      161.36
         3       -60.8945      0.4578    -54.7242    -38.3870      162.24
         4       167.1127     -2.5973      8.3939     57.6364       50.53
         5        89.0945     -5.5454     15.4829     33.0106       73.32
         6        -3.1779      2.3481      1.2595      0.1433       88.21
 1/2[<0|r|b>*<b|rxdel|0> + (<0|rxdel|b>*<b|r|0>)*]
 Rotatory Strengths (R) in cgs (10**-40 erg-esu-cm/Gauss)
       state          XX          YY          ZZ     R(length)
         1        91.6981      1.0008    -58.7322     11.3223
         2       -89.6578      0.5208    -12.0067    -33.7145
         3        -0.6004   -123.8666      5.2436    -39.7411
         4       -12.2011    182.2850     12.9972     61.0271
         5        -9.8145    106.2006      3.2370     33.2077
         6         0.9742     -4.4743      1.3753     -0.7083
  1/2[<0|del|b>*<b|r|0> + (<0|r|b>*<b|del|0>)*] (Au)
       state          X           Y           Z        Dip. S.   Osc.(frdel)
         1        -0.3448     -0.0049     -0.0005      0.3501      0.2334
         2        -0.0036     -0.0000     -0.0002      0.0038      0.0025
         3        -0.0000     -0.0045     -0.0001      0.0046      0.0031
         4        -0.0080     -0.6976     -0.0032      0.7088      0.4725
         5        -0.0010     -0.4029     -0.0001      0.4040      0.2693
         6        -0.0002     -0.0160     -0.0018      0.0180      0.0120

 Excitation energies and oscillator strengths:
 
 Excited State   1:      Singlet-A      3.3727 eV  367.61 nm  f=0.2433  <S**2>=0.000
      52 -> 53         0.69875
 
 Excited State   2:      Singlet-A      4.1009 eV  302.33 nm  f=0.0027  <S**2>=0.000
      50 -> 53         0.11658
      50 -> 54         0.19992
      51 -> 53         0.55991
      51 -> 54         0.31933
 This state for optimization and/or second-order correction.
 Total Energy, E(TD-HF/TD-DFT) =  -633.181536418    
 Copying the excited state density for this state as the 1-particle RhoCI density.
 
 Excited State   3:      Singlet-A      4.2548 eV  291.40 nm  f=0.0034  <S**2>=0.000
      49 -> 53         0.26599
      49 -> 54        -0.17836
      50 -> 53         0.50290
      50 -> 54        -0.24104
      50 -> 58         0.10674
      51 -> 53        -0.10599
      51 -> 54         0.21417
 
 Excited State   4:      Singlet-A      5.0213 eV  246.92 nm  f=0.4917  <S**2>=0.000
      49 -> 53         0.13346
      52 -> 54         0.68374
 
 Excited State   5:      Singlet-A      5.5073 eV  225.13 nm  f=0.2737  <S**2>=0.000
      49 -> 53         0.58645
      50 -> 53        -0.30710
      51 -> 53         0.15294
      52 -> 54        -0.13753
 
 Excited State   6:      Singlet-A      6.0385 eV  205.32 nm  f=0.0120  <S**2>=0.000
      52 -> 55         0.66332
      52 -> 56        -0.14219
 SavETr:  write IOETrn=   770 NScale= 10 NData=  16 NLR=1 NState=    6 LETran=     118.
 The selected state is a singlet.
 CISGrd: IGrad=1 NXY=2 DFT=T
 CISAX will form     1 AO SS matrices at one time.
 NMat=     1 NSing=     1 JSym2X= 0.
 Leave Link  914 at Sat Jan 24 21:51:54 2026, MaxMem=  2147483648 cpu:            7728.9 elap:             484.6
 (Enter /data/home/wyx/g16/l1002.exe)
 Minotr:  Closed shell wavefunction.
          Computing CIS/TDA/TD derivatives.
          Using Z-Vector for PSCF gradient.
          Skipping F1 and S1 gradient terms here.
 NEqPCM:  Using equilibrium solvation (IEInf=0, Eps=  78.3553, EpsInf=   1.7778)
          Frozen-core window.
          Direct CPHF calculation.
          Differentiating once with respect to electric field.
                with respect to dipole field.
          Electric field/nuclear overlap derivatives assumed to be zero.
          Requested convergence is 1.0D-10 RMS, and 1.0D-09 maximum.
          NewPWx=F KeepS1=T KeepF1=T KeepIn=T MapXYZ=F SortEE=F KeepMc=T.
 Two-electron integral symmetry used by symmetrizing perturbed Fock matrices.
          MDV=    2147483648 using IRadAn=       5.
          Solving linear equations separately, MaxMat=     384.
          There are     1 degrees of freedom in the 1st order CPHF.  IDoFFX=0 NUNeed=     1.
 FoFJK:  IHMeth= 1 ICntrl=       0 DoSepK=T KAlg= 0 I1Cent=           0 FoldK=F
 IRaf=         1 NMat=       1 IRICut=       1 DoRegI=T DoRafI=F ISym2E=-1 IDoP0=0 IntGTp=1.
 FoFCou: FMM=F IPFlag=           0 FMFlag=      100000 FMFlg1=           0
         NFxFlg=           0 DoJE=T BraDBF=F KetDBF=F FulRan=T
         wScrn=  0.000000 ICntrl=       500 IOpCl=  0 I1Cent=           0 NGrid=           0
         NMat0=    1 NMatS0=      1 NMatT0=    0 NMatD0=    1 NMtDS0=    0 NMtDT0=    0
 Petite list used in FoFCou.
 LinEq1:  Iter=  0 NonCon=     1 RMS=7.53D-03 Max=2.94D-01 NDo=     1
 AX will form     1 AO Fock derivatives at one time.
 LinEq1:  Iter=  1 NonCon=     1 RMS=2.02D-03 Max=8.02D-02 NDo=     1
 LinEq1:  Iter=  2 NonCon=     1 RMS=1.43D-03 Max=8.22D-02 NDo=     1
 LinEq1:  Iter=  3 NonCon=     1 RMS=5.71D-04 Max=3.00D-02 NDo=     1
 LinEq1:  Iter=  4 NonCon=     1 RMS=3.02D-04 Max=1.32D-02 NDo=     1
 LinEq1:  Iter=  5 NonCon=     1 RMS=1.54D-04 Max=7.62D-03 NDo=     1
 LinEq1:  Iter=  6 NonCon=     1 RMS=7.60D-05 Max=2.39D-03 NDo=     1
 LinEq1:  Iter=  7 NonCon=     1 RMS=4.24D-05 Max=1.69D-03 NDo=     1
 LinEq1:  Iter=  8 NonCon=     1 RMS=1.77D-05 Max=5.21D-04 NDo=     1
 LinEq1:  Iter=  9 NonCon=     1 RMS=1.33D-05 Max=6.46D-04 NDo=     1
 LinEq1:  Iter= 10 NonCon=     1 RMS=5.13D-06 Max=9.51D-05 NDo=     1
 LinEq1:  Iter= 11 NonCon=     1 RMS=3.12D-06 Max=1.15D-04 NDo=     1
 LinEq1:  Iter= 12 NonCon=     1 RMS=1.03D-06 Max=2.88D-05 NDo=     1
 LinEq1:  Iter= 13 NonCon=     1 RMS=4.74D-07 Max=1.33D-05 NDo=     1
 LinEq1:  Iter= 14 NonCon=     1 RMS=1.81D-07 Max=5.70D-06 NDo=     1
 LinEq1:  Iter= 15 NonCon=     1 RMS=8.22D-08 Max=3.35D-06 NDo=     1
 LinEq1:  Iter= 16 NonCon=     1 RMS=3.51D-08 Max=1.55D-06 NDo=     1
 LinEq1:  Iter= 17 NonCon=     1 RMS=1.36D-08 Max=4.20D-07 NDo=     1
 LinEq1:  Iter= 18 NonCon=     1 RMS=5.59D-09 Max=1.04D-07 NDo=     1
 LinEq1:  Iter= 19 NonCon=     1 RMS=1.56D-09 Max=3.12D-08 NDo=     1
 LinEq1:  Iter= 20 NonCon=     1 RMS=4.06D-10 Max=1.14D-08 NDo=     1
 LinEq1:  Iter= 21 NonCon=     1 RMS=1.45D-10 Max=3.71D-09 NDo=     1
 LinEq1:  Iter= 22 NonCon=     1 RMS=5.98D-11 Max=1.58D-09 NDo=     1
 LinEq1:  Iter= 23 NonCon=     0 RMS=1.80D-11 Max=5.49D-10 NDo=     1
 Linear equations converged to 1.000D-10 1.000D-09 after    23 iterations.
 PCM Corrected Linear-Response - Equilibrium solvation:
 Corrected transition energy               =    4.0130          eV
 Total energy after correction             = -633.184769895     a.u.
 NEqPCM:  Using non-equilibrium solvation (IEInf=1, Eps=  78.3553, EpsInf=   1.7778)
 Inv3:  Mode=1 IEnd=    13230000.
 Iteration    1 A*A^-1 deviation from unit magnitude is 3.33D-15 for    114.
 Iteration    1 A*A^-1 deviation from orthogonality  is 3.64D-15 for   1375     45.
 Iteration    1 A^-1*A deviation from unit magnitude is 3.33D-15 for    114.
 Iteration    1 A^-1*A deviation from orthogonality  is 2.63D-15 for   1324    399.
 NEqSol: Computing the dynamic-inertial partition of the PCM polarization charges.
 End of Minotr F.D. properties file   721 does not exist.
 End of Minotr F.D. properties file   722 does not exist.
 End of Minotr F.D. properties file   788 does not exist.
 Leave Link 1002 at Sat Jan 24 21:53:56 2026, MaxMem=  2147483648 cpu:            1905.4 elap:             119.9
 (Enter /data/home/wyx/g16/l601.exe)
 Copying SCF densities to generalized density rwf, IOpCl= 0 IROHF=0.

 **********************************************************************

            Population analysis using the CI density.

 **********************************************************************

 Orbital symmetries:
       Occupied  (A) (A) (A) (A) (A) (A) (A) (A) (A) (A) (A) (A)
                 (A) (A) (A) (A) (A) (A) (A) (A) (A) (A) (A) (A)
                 (A) (A) (A) (A) (A) (A) (A) (A) (A) (A) (A) (A)
                 (A) (A) (A) (A) (A) (A) (A) (A) (A) (A) (A) (A)
                 (A) (A) (A) (A)
       Virtual   (A) (A) (A) (A) (A) (A) (A) (A) (A) (A) (A) (A)
                 (A) (A) (A) (A) (A) (A) (A) (A) (A) (A) (A) (A)
                 (A) (A) (A) (A) (A) (A) (A) (A) (A) (A) (A) (A)
                 (A) (A) (A) (A) (A) (A) (A) (A) (A) (A) (A) (A)
                 (A) (A) (A) (A) (A) (A) (A) (A) (A) (A) (A) (A)
                 (A) (A) (A) (A) (A) (A) (A) (A) (A) (A) (A) (A)
                 (A) (A) (A) (A) (A) (A) (A) (A) (A) (A) (A) (A)
                 (A) (A) (A) (A) (A) (A) (A) (A) (A) (A) (A) (A)
                 (A) (A) (A) (A) (A) (A) (A) (A) (A) (A) (A) (A)
                 (A) (A) (A) (A) (A) (A) (A) (A) (A) (A) (A) (A)
                 (A) (A) (A) (A) (A) (A) (A) (A) (A) (A) (A) (A)
                 (A) (A) (A) (A) (A) (A) (A) (A) (A) (A) (A) (A)
                 (A) (A) (A) (A) (A) (A) (A) (A) (A) (A) (A) (A)
                 (A) (A) (A) (A) (A) (A) (A) (A) (A) (A) (A) (A)
                 (A) (A) (A) (A) (A) (A) (A) (A) (A) (A) (A) (A)
                 (A) (A) (A) (A) (A) (A) (A) (A) (A) (A) (A) (A)
                 (A) (A) (A) (A) (A) (A) (A) (A) (A) (A) (A) (A)
                 (A) (A) (A) (A) (A) (A) (A) (A) (A) (A) (A) (A)
                 (A) (A) (A) (A) (A) (A) (A) (A) (A) (A) (A) (A)
                 (A) (A) (A) (A) (A) (A) (A) (A) (A) (A) (A) (A)
                 (A) (A) (A) (A) (A) (A) (A) (A) (A) (A) (A) (A)
                 (A) (A) (A) (A) (A) (A) (A) (A) (A) (A) (A) (A)
                 (A) (A) (A) (A) (A) (A) (A) (A) (A) (A) (A) (A)
                 (A) (A) (A) (A) (A) (A) (A) (A) (A) (A) (A) (A)
                 (A) (A) (A) (A) (A) (A) (A) (A) (A) (A) (A) (A)
                 (A) (A) (A) (A)
 The electronic state is 1-A.
 Alpha  occ. eigenvalues --  -19.17979 -19.17525 -14.44083 -10.33518 -10.33192
 Alpha  occ. eigenvalues --  -10.32057 -10.31567 -10.25600 -10.25045 -10.24838
 Alpha  occ. eigenvalues --  -10.24730 -10.24563 -10.24179 -10.23810  -1.12035
 Alpha  occ. eigenvalues --   -1.11671  -1.07552  -0.91207  -0.90304  -0.83875
 Alpha  occ. eigenvalues --   -0.82520  -0.81518  -0.78517  -0.73961  -0.71201
 Alpha  occ. eigenvalues --   -0.68637  -0.61611  -0.58197  -0.56825  -0.55179
 Alpha  occ. eigenvalues --   -0.54487  -0.54021  -0.52595  -0.51908  -0.50722
 Alpha  occ. eigenvalues --   -0.50091  -0.49536  -0.49110  -0.48486  -0.48151
 Alpha  occ. eigenvalues --   -0.46845  -0.45468  -0.45009  -0.43394  -0.43069
 Alpha  occ. eigenvalues --   -0.42460  -0.42107  -0.42084  -0.32821  -0.32356
 Alpha  occ. eigenvalues --   -0.31436  -0.26099
 Alpha virt. eigenvalues --   -0.02423   0.02433   0.06529   0.08249   0.08811
 Alpha virt. eigenvalues --    0.10108   0.10753   0.11994   0.12730   0.13621
 Alpha virt. eigenvalues --    0.14205   0.15087   0.15741   0.16218   0.16988
 Alpha virt. eigenvalues --    0.17505   0.17799   0.18028   0.18243   0.19206
 Alpha virt. eigenvalues --    0.20038   0.22148   0.22856   0.23419   0.23608
 Alpha virt. eigenvalues --    0.24210   0.24858   0.25691   0.25818   0.26543
 Alpha virt. eigenvalues --    0.26860   0.27358   0.28734   0.29184   0.30230
 Alpha virt. eigenvalues --    0.31632   0.32022   0.32704   0.33627   0.34431
 Alpha virt. eigenvalues --    0.35358   0.35918   0.36763   0.38127   0.38860
 Alpha virt. eigenvalues --    0.39939   0.40940   0.41797   0.42258   0.42695
 Alpha virt. eigenvalues --    0.44080   0.44241   0.45381   0.46048   0.46144
 Alpha virt. eigenvalues --    0.47329   0.47813   0.48055   0.48285   0.48993
 Alpha virt. eigenvalues --    0.49557   0.50171   0.50757   0.51356   0.51596
 Alpha virt. eigenvalues --    0.52780   0.53182   0.53442   0.54194   0.54391
 Alpha virt. eigenvalues --    0.54677   0.55940   0.56165   0.56576   0.58268
 Alpha virt. eigenvalues --    0.58606   0.59160   0.60693   0.60981   0.62591
 Alpha virt. eigenvalues --    0.63176   0.65596   0.66023   0.66399   0.67886
 Alpha virt. eigenvalues --    0.68749   0.70218   0.71316   0.72319   0.73136
 Alpha virt. eigenvalues --    0.73436   0.73825   0.74821   0.76195   0.77649
 Alpha virt. eigenvalues --    0.78147   0.79630   0.81964   0.84206   0.84787
 Alpha virt. eigenvalues --    0.89166   0.93033   0.98865   0.99760   1.24709
 Alpha virt. eigenvalues --    1.25681   1.27279   1.27647   1.29393   1.31531
 Alpha virt. eigenvalues --    1.32467   1.32984   1.34127   1.35106   1.36026
 Alpha virt. eigenvalues --    1.36498   1.37113   1.38282   1.39267   1.39857
 Alpha virt. eigenvalues --    1.40111   1.40401   1.41138   1.41597   1.41772
 Alpha virt. eigenvalues --    1.43326   1.44160   1.44600   1.45170   1.47021
 Alpha virt. eigenvalues --    1.48064   1.49042   1.49653   1.50498   1.51114
 Alpha virt. eigenvalues --    1.52120   1.52417   1.53801   1.54338   1.57630
 Alpha virt. eigenvalues --    1.58146   1.60396   1.60720   1.61250   1.62208
 Alpha virt. eigenvalues --    1.62691   1.63321   1.64248   1.65382   1.65700
 Alpha virt. eigenvalues --    1.67164   1.67505   1.67974   1.68147   1.68808
 Alpha virt. eigenvalues --    1.68867   1.69985   1.70630   1.72168   1.72324
 Alpha virt. eigenvalues --    1.73368   1.75154   1.76133   1.76697   1.78745
 Alpha virt. eigenvalues --    1.79997   1.83408   1.84587   1.86223   1.86628
 Alpha virt. eigenvalues --    1.87033   1.87297   1.88490   1.89353   1.90964
 Alpha virt. eigenvalues --    1.91438   1.94529   1.95413   1.98220   1.99622
 Alpha virt. eigenvalues --    2.00955   2.03814   2.04572   2.06559   2.09518
 Alpha virt. eigenvalues --    2.11315   2.12905   2.14644   2.16754   2.19595
 Alpha virt. eigenvalues --    2.20524   2.21344   2.21827   2.22865   2.25915
 Alpha virt. eigenvalues --    2.26976   2.27687   2.29036   2.30630   2.31577
 Alpha virt. eigenvalues --    2.33024   2.34597   2.36155   2.36788   2.37868
 Alpha virt. eigenvalues --    2.39503   2.40156   2.41619   2.43941   2.44876
 Alpha virt. eigenvalues --    2.45904   2.47591   2.50001   2.50563   2.51903
 Alpha virt. eigenvalues --    2.52975   2.53389   2.54889   2.56883   2.58765
 Alpha virt. eigenvalues --    2.59021   2.60072   2.61082   2.61805   2.62608
 Alpha virt. eigenvalues --    2.64453   2.65586   2.67122   2.67600   2.69166
 Alpha virt. eigenvalues --    2.70700   2.72070   2.72995   2.73631   2.74849
 Alpha virt. eigenvalues --    2.76318   2.76571   2.77373   2.77999   2.79289
 Alpha virt. eigenvalues --    2.80660   2.81381   2.82929   2.83444   2.84460
 Alpha virt. eigenvalues --    2.85549   2.86094   2.87815   2.90301   2.91739
 Alpha virt. eigenvalues --    2.97559   2.99672   3.01012   3.04240   3.10276
 Alpha virt. eigenvalues --    3.12302   3.15334   3.16908   3.17221   3.19776
 Alpha virt. eigenvalues --    3.20723   3.22111   3.24895   3.26174   3.27004
 Alpha virt. eigenvalues --    3.27304   3.29438   3.33373   3.34512   3.36590
 Alpha virt. eigenvalues --    3.37121   3.38880   3.39833   3.40393   3.41550
 Alpha virt. eigenvalues --    3.42750   3.44956   3.45432   3.46399   3.47928
 Alpha virt. eigenvalues --    3.48673   3.49794   3.55258   3.58235   3.59511
 Alpha virt. eigenvalues --    3.60199   3.89907   3.99648   4.33962   4.35704
 Alpha virt. eigenvalues --   21.63634  21.79258  22.08232  22.11017  22.11764
 Alpha virt. eigenvalues --   22.14534  22.15457  22.18078  22.21029  22.24745
 Alpha virt. eigenvalues --   22.30195  31.93140  43.62794  43.65132
          Condensed to atoms (all electrons):
               1          2          3          4          5          6
     1  O    7.980348   0.000000  -0.000240   0.000018   0.016867   0.016827
     2  O    0.000000   7.984481   0.000811   0.000024  -0.103684   0.000152
     3  N   -0.000240   0.000811   6.396939   0.373901  -0.090673   0.379927
     4  H    0.000018   0.000024   0.373901   0.412523   0.017155  -0.047142
     5  C    0.016867  -0.103684  -0.090673   0.017155   6.077581  -0.078490
     6  C    0.016827   0.000152   0.379927  -0.047142  -0.078490   5.624055
     7  C   -0.000578   0.009738   0.316001  -0.041479   0.281163  -0.101122
     8  C    0.000144   0.315361   0.014479  -0.000938   0.318883   0.018802
     9  C   -0.029557   0.009660   0.003374  -0.000366  -0.379983  -0.110515
    10  H    0.004514  -0.000000   0.004207   0.000015  -0.024276  -0.017808
    11  H    0.018028   0.000003  -0.001137   0.000022  -0.102560   0.023838
    12  C   -0.231558  -0.000597  -0.102882   0.015937   0.184044  -0.166527
    13  C    0.702820   0.000022  -0.000109   0.000421   0.081685   0.172152
    14  C   -0.000005   0.003659  -0.030566  -0.007519  -0.084411   0.010146
    15  H    0.000000   0.000812   0.003372   0.001644   0.015393   0.004027
    16  H   -0.000000  -0.002046  -0.001678   0.000718  -0.001245  -0.000538
    17  H    0.000000   0.001108   0.001506   0.000699   0.001212  -0.000884
    18  C   -0.000071  -0.047575  -0.000379   0.000014  -0.030265  -0.000515
    19  H   -0.000005   0.000304  -0.000001  -0.000001   0.009230   0.000089
    20  H   -0.000099   0.002443  -0.000023   0.000000  -0.011869  -0.000081
    21  H    0.000033   0.002433   0.000037   0.000000  -0.011205  -0.000444
    22  C   -0.106642   0.000000   0.000061   0.000118   0.004297  -0.009546
    23  H    0.004813  -0.000000  -0.000049  -0.000053  -0.000617  -0.031640
    24  H    0.001602  -0.000000  -0.000030  -0.000017  -0.000106   0.011386
    25  H    0.007963  -0.000000   0.000037  -0.000002  -0.000159  -0.001416
    26  C    0.000830   0.000001  -0.032635  -0.006417  -0.002938   0.171785
    27  H   -0.000289   0.000000   0.002574   0.000901  -0.000067  -0.055566
    28  H   -0.000049   0.000000  -0.003491   0.000463   0.000488  -0.035581
    29  H    0.000028  -0.000000   0.000278   0.001091  -0.000400  -0.046779
               7          8          9         10         11         12
     1  O   -0.000578   0.000144  -0.029557   0.004514   0.018028  -0.231558
     2  O    0.009738   0.315361   0.009660  -0.000000   0.000003  -0.000597
     3  N    0.316001   0.014479   0.003374   0.004207  -0.001137  -0.102882
     4  H   -0.041479  -0.000938  -0.000366   0.000015   0.000022   0.015937
     5  C    0.281163   0.318883  -0.379983  -0.024276  -0.102560   0.184044
     6  C   -0.101122   0.018802  -0.110515  -0.017808   0.023838  -0.166527
     7  C    5.560173  -0.117287  -0.073582  -0.008200   0.018281  -0.023115
     8  C   -0.117287   5.411816  -0.024743  -0.007590  -0.011910  -0.024522
     9  C   -0.073582  -0.024743   6.359749   0.391035   0.518824  -0.092155
    10  H   -0.008200  -0.007590   0.391035   0.559541  -0.039121  -0.019413
    11  H    0.018281  -0.011910   0.518824  -0.039121   0.515020  -0.106051
    12  C   -0.023115  -0.024522  -0.092155  -0.019413  -0.106051   7.348193
    13  C    0.007800  -0.002807  -0.296398   0.004517   0.000149  -0.345883
    14  C    0.194705  -0.021860   0.013102  -0.001233   0.000554  -0.005574
    15  H   -0.056100   0.000860  -0.001050   0.000076  -0.000004   0.000029
    16  H   -0.049988  -0.003464   0.001545  -0.000072   0.000058  -0.000178
    17  H   -0.053251  -0.015618   0.000269   0.000152  -0.000064  -0.000186
    18  C    0.013024   0.177950  -0.026275  -0.009290   0.008803  -0.000673
    19  H   -0.000051  -0.044375   0.003440  -0.000158   0.000516  -0.000768
    20  H   -0.001007  -0.055358  -0.013429   0.001259  -0.001656   0.002783
    21  H    0.000305  -0.033821   0.003398   0.002737  -0.005346   0.001698
    22  C   -0.000051  -0.000048   0.000156   0.001718   0.001056  -0.255077
    23  H    0.000007  -0.000010   0.003577  -0.000122  -0.000095   0.063208
    24  H    0.000048  -0.000001  -0.002245   0.000144  -0.000131  -0.012570
    25  H    0.000007   0.000003   0.000636  -0.000052  -0.000120   0.024837
    26  C    0.000305   0.000466   0.027994  -0.000929  -0.000012  -0.079921
    27  H   -0.001081   0.000012   0.000691  -0.000107   0.000009  -0.003510
    28  H    0.000384  -0.000037  -0.001433  -0.000016   0.000045  -0.018026
    29  H    0.004111  -0.000014  -0.001084   0.000109  -0.000010   0.022833
              13         14         15         16         17         18
     1  O    0.702820  -0.000005   0.000000  -0.000000   0.000000  -0.000071
     2  O    0.000022   0.003659   0.000812  -0.002046   0.001108  -0.047575
     3  N   -0.000109  -0.030566   0.003372  -0.001678   0.001506  -0.000379
     4  H    0.000421  -0.007519   0.001644   0.000718   0.000699   0.000014
     5  C    0.081685  -0.084411   0.015393  -0.001245   0.001212  -0.030265
     6  C    0.172152   0.010146   0.004027  -0.000538  -0.000884  -0.000515
     7  C    0.007800   0.194705  -0.056100  -0.049988  -0.053251   0.013024
     8  C   -0.002807  -0.021860   0.000860  -0.003464  -0.015618   0.177950
     9  C   -0.296398   0.013102  -0.001050   0.001545   0.000269  -0.026275
    10  H    0.004517  -0.001233   0.000076  -0.000072   0.000152  -0.009290
    11  H    0.000149   0.000554  -0.000004   0.000058  -0.000064   0.008803
    12  C   -0.345883  -0.005574   0.000029  -0.000178  -0.000186  -0.000673
    13  C    5.446931  -0.000232   0.000022  -0.000036  -0.000004   0.000512
    14  C   -0.000232   5.134999   0.398702   0.421290   0.442609   0.002780
    15  H    0.000022   0.398702   0.538158  -0.022340  -0.023471   0.000023
    16  H   -0.000036   0.421290  -0.022340   0.525965  -0.032936  -0.000605
    17  H   -0.000004   0.442609  -0.023471  -0.032936   0.516949  -0.000645
    18  C    0.000512   0.002780   0.000023  -0.000605  -0.000645   5.094797
    19  H   -0.000041  -0.000035   0.000003   0.000028   0.000088   0.401047
    20  H    0.000094  -0.000179   0.000001  -0.000046  -0.000032   0.437071
    21  H    0.000038  -0.000364  -0.000003   0.000033   0.000056   0.406556
    22  C    0.287179  -0.000026   0.000002  -0.000000  -0.000000   0.000017
    23  H   -0.089745  -0.000000  -0.000000   0.000000   0.000000   0.000003
    24  H   -0.024899  -0.000001   0.000000  -0.000000  -0.000000  -0.000002
    25  H   -0.042714   0.000001  -0.000000   0.000000   0.000000  -0.000001
    26  C   -0.055867   0.001620  -0.000163  -0.000065   0.000089   0.000016
    27  H   -0.006401   0.000104  -0.000015   0.000003  -0.000000  -0.000000
    28  H    0.006976  -0.000167   0.000011  -0.000028   0.000001  -0.000000
    29  H   -0.000037  -0.000305   0.000141  -0.000004  -0.000011   0.000000
              19         20         21         22         23         24
     1  O   -0.000005  -0.000099   0.000033  -0.106642   0.004813   0.001602
     2  O    0.000304   0.002443   0.002433   0.000000  -0.000000  -0.000000
     3  N   -0.000001  -0.000023   0.000037   0.000061  -0.000049  -0.000030
     4  H   -0.000001   0.000000   0.000000   0.000118  -0.000053  -0.000017
     5  C    0.009230  -0.011869  -0.011205   0.004297  -0.000617  -0.000106
     6  C    0.000089  -0.000081  -0.000444  -0.009546  -0.031640   0.011386
     7  C   -0.000051  -0.001007   0.000305  -0.000051   0.000007   0.000048
     8  C   -0.044375  -0.055358  -0.033821  -0.000048  -0.000010  -0.000001
     9  C    0.003440  -0.013429   0.003398   0.000156   0.003577  -0.002245
    10  H   -0.000158   0.001259   0.002737   0.001718  -0.000122   0.000144
    11  H    0.000516  -0.001656  -0.005346   0.001056  -0.000095  -0.000131
    12  C   -0.000768   0.002783   0.001698  -0.255077   0.063208  -0.012570
    13  C   -0.000041   0.000094   0.000038   0.287179  -0.089745  -0.024899
    14  C   -0.000035  -0.000179  -0.000364  -0.000026  -0.000000  -0.000001
    15  H    0.000003   0.000001  -0.000003   0.000002  -0.000000   0.000000
    16  H    0.000028  -0.000046   0.000033  -0.000000   0.000000  -0.000000
    17  H    0.000088  -0.000032   0.000056  -0.000000   0.000000  -0.000000
    18  C    0.401047   0.437071   0.406556   0.000017   0.000003  -0.000002
    19  H    0.505125  -0.023810  -0.017900  -0.000001   0.000000  -0.000000
    20  H   -0.023810   0.523794  -0.039943  -0.000001  -0.000000   0.000000
    21  H   -0.017900  -0.039943   0.518895   0.000007  -0.000000  -0.000000
    22  C   -0.000001  -0.000001   0.000007   5.416120   0.398787   0.403833
    23  H    0.000000  -0.000000  -0.000000   0.398787   0.538067  -0.026684
    24  H   -0.000000   0.000000  -0.000000   0.403833  -0.026684   0.497549
    25  H    0.000000  -0.000001   0.000000   0.381559  -0.021657  -0.010138
    26  C    0.000001  -0.000005  -0.000005  -0.030167   0.014585  -0.014364
    27  H    0.000000  -0.000000   0.000000   0.007474  -0.009603  -0.001825
    28  H   -0.000000   0.000001  -0.000000  -0.010763  -0.001689   0.001367
    29  H   -0.000000   0.000000   0.000000   0.001982   0.000706   0.000214
              25         26         27         28         29
     1  O    0.007963   0.000830  -0.000289  -0.000049   0.000028
     2  O   -0.000000   0.000001   0.000000   0.000000  -0.000000
     3  N    0.000037  -0.032635   0.002574  -0.003491   0.000278
     4  H   -0.000002  -0.006417   0.000901   0.000463   0.001091
     5  C   -0.000159  -0.002938  -0.000067   0.000488  -0.000400
     6  C   -0.001416   0.171785  -0.055566  -0.035581  -0.046779
     7  C    0.000007   0.000305  -0.001081   0.000384   0.004111
     8  C    0.000003   0.000466   0.000012  -0.000037  -0.000014
     9  C    0.000636   0.027994   0.000691  -0.001433  -0.001084
    10  H   -0.000052  -0.000929  -0.000107  -0.000016   0.000109
    11  H   -0.000120  -0.000012   0.000009   0.000045  -0.000010
    12  C    0.024837  -0.079921  -0.003510  -0.018026   0.022833
    13  C   -0.042714  -0.055867  -0.006401   0.006976  -0.000037
    14  C    0.000001   0.001620   0.000104  -0.000167  -0.000305
    15  H   -0.000000  -0.000163  -0.000015   0.000011   0.000141
    16  H    0.000000  -0.000065   0.000003  -0.000028  -0.000004
    17  H    0.000000   0.000089  -0.000000   0.000001  -0.000011
    18  C   -0.000001   0.000016  -0.000000  -0.000000   0.000000
    19  H    0.000000   0.000001   0.000000  -0.000000  -0.000000
    20  H   -0.000001  -0.000005  -0.000000   0.000001   0.000000
    21  H    0.000000  -0.000005   0.000000  -0.000000   0.000000
    22  C    0.381559  -0.030167   0.007474  -0.010763   0.001982
    23  H   -0.021657   0.014585  -0.009603  -0.001689   0.000706
    24  H   -0.010138  -0.014364  -0.001825   0.001367   0.000214
    25  H    0.503473   0.002016   0.000991   0.000035  -0.000049
    26  C    0.002016   5.266646   0.434349   0.425262   0.387302
    27  H    0.000991   0.434349   0.521130  -0.029172  -0.027505
    28  H    0.000035   0.425262  -0.029172   0.492153  -0.017871
    29  H   -0.000049   0.387302  -0.027505  -0.017871   0.522093
 Mulliken charges:
               1
     1  O   -0.385742
     2  O   -0.177112
     3  N   -0.233610
     4  H    0.278270
     5  C   -0.085049
     6  C    0.271408
     7  C    0.120839
     8  C    0.105627
     9  C   -0.284633
    10  H    0.158361
    11  H    0.163010
    12  C   -0.174376
    13  C    0.153858
    14  C   -0.471793
    15  H    0.139871
    16  H    0.165627
    17  H    0.162362
    18  C   -0.426318
    19  H    0.167275
    20  H    0.180092
    21  H    0.172805
    22  C   -0.492045
    23  H    0.158211
    24  H    0.176870
    25  H    0.154750
    26  C   -0.509780
    27  H    0.166904
    28  H    0.191136
    29  H    0.153182
 Sum of Mulliken charges =  -0.00000
 Mulliken charges with hydrogens summed into heavy atoms:
               1
     1  O   -0.385742
     2  O   -0.177112
     3  N    0.044660
     5  C   -0.085049
     6  C    0.271408
     7  C    0.120839
     8  C    0.105627
     9  C    0.036738
    12  C   -0.174376
    13  C    0.153858
    14  C   -0.003933
    18  C    0.093853
    22  C   -0.002214
    26  C    0.001443
 Electronic spatial extent (au):  <R**2>=           3176.8668
 Charge=             -0.0000 electrons
 Dipole moment (field-independent basis, Debye):
    X=             -0.3098    Y=              6.2299    Z=              0.0818  Tot=              6.2381
 Quadrupole moment (field-independent basis, Debye-Ang):
   XX=            -86.6822   YY=            -78.8252   ZZ=            -86.1890
   XY=            -16.0661   XZ=             -3.8268   YZ=             -1.3973
 Traceless Quadrupole moment (field-independent basis, Debye-Ang):
   XX=             -2.7834   YY=              5.0736   ZZ=             -2.2902
   XY=            -16.0661   XZ=             -3.8268   YZ=             -1.3973
 Octapole moment (field-independent basis, Debye-Ang**2):
  XXX=            -44.0523  YYY=             56.7627  ZZZ=              2.1263  XYY=             42.5579
  XXY=             18.6516  XXZ=             -2.6421  XZZ=             -2.0549  YZZ=             -1.9558
  YYZ=              2.3585  XYZ=              4.8129
 Hexadecapole moment (field-independent basis, Debye-Ang**3):
 XXXX=          -2802.0384 YYYY=          -1268.1109 ZZZZ=           -160.9848 XXXY=            -90.1808
 XXXZ=            -33.8707 YYYX=           -108.1733 YYYZ=            -20.6986 ZZZX=              3.1636
 ZZZY=              5.9425 XXYY=           -680.1664 XXZZ=           -487.5292 YYZZ=           -244.9534
 XXYZ=             -9.1210 YYXZ=             -7.8941 ZZXY=             -0.7169
 N-N= 9.008072063323D+02 E-N=-3.277906179221D+03  KE= 6.308249647483D+02
 No NMR shielding tensors so no spin-rotation constants.
 Leave Link  601 at Sat Jan 24 21:53:56 2026, MaxMem=  2147483648 cpu:               1.8 elap:               0.1
 (Enter /data/home/wyx/g16/l9999.exe)
 Electronic transition elements 
                 1             2             3             4             5 
      1  -0.633208D+03 -0.633182D+03 -0.633176D+03 -0.633148D+03 -0.633130D+03
      2  -0.163074D+01 -0.133875D+00 -0.710716D-01  0.502298D+00  0.411408D+00
      3  -0.372698D+00 -0.579683D-01  0.162970D+00 -0.193462D+01 -0.136192D+01
      4  -0.382646D+00 -0.735423D-01  0.259773D-01 -0.469711D-01  0.656210D-01
      5   0.192926D+00  0.199133D-01  0.998084D-02 -0.849573D-01 -0.820111D-01
      6   0.476705D-01  0.867069D-02 -0.239833D-01  0.344169D+00  0.271267D+00
      7   0.463270D-01  0.801974D-02 -0.737923D-03  0.540820D-02 -0.118599D-01
      8   0.351170D+00 -0.723554D+00 -0.438194D+00 -0.146686D+00 -0.268436D+00
      9   0.183279D-01 -0.137978D+00  0.887938D+00  0.933269D-01  0.329071D-01
     10  -0.138892D+01 -0.518918D+00 -0.279377D+00  0.992596D-01  0.219094D+00
     11   0.211595D+00  0.340698D-01  0.748285D-01 -0.117211D+01 -0.434761D+00
     12  -0.279351D+00 -0.466654D-01 -0.439922D-01  0.208834D+00  0.305789D+00
     13  -0.143397D-01  0.102669D-01  0.784759D-02 -0.914022D-01  0.121455D-01
     14  -0.511308D+00 -0.259562D-01 -0.263672D-01 -0.437346D+00 -0.332930D-01
     15  -0.138177D-01  0.186555D-01 -0.523152D-01 -0.346175D+00 -0.143922D+00
     16  -0.135189D+00 -0.976495D-01 -0.370326D-01 -0.715806D-01 -0.723927D-01
                 6 
      1  -0.633110D+03
      2  -0.562392D-01
      3   0.270635D+00
      4  -0.692073D-01
      5   0.661912D-02
      6  -0.563763D-01
      7   0.340936D-01
      8  -0.608068D-01
      9   0.432682D-02
     10   0.229160D-01
     11  -0.315992D+00
     12  -0.252005D+00
     13   0.191357D+00
     14   0.150555D-01
     15  -0.109379D+00
     16  -0.114752D+00
 1\1\GINC-CN012\SP\RCAM-B3LYP TD-FC\TZVP\C11H15N1O2\WYX\24-Jan-2026\0\\
 #p CAM-B3LYP TZVP em=gd3bj td(nstates=6,root=2) scrf=(Solvent=Water,Co
 rrectedLR,NonEquilibrium=Save) Geom=Check Guess=Read\\Title Card Requi
 red\\0,1\O,0,2.74408,-1.558299,0.749034\O,0,-3.230656,-1.641882,-1.096
 703\N,0,-0.708613,1.513486,0.113102\H,0,-1.016805,2.471204,0.055253\C,
 0,-1.248516,-0.758707,-0.15312\C,0,0.641061,1.302995,0.278281\C,0,-1.6
 20382,0.546537,-0.230096\C,0,-2.151921,-1.835866,-0.543762\C,0,0.09815
 4,-1.104499,0.425558\H,0,-0.00759,-1.433582,1.468704\H,0,0.525473,-1.9
 63788,-0.088273\C,0,1.094001,0.024796,0.35723\C,0,2.491045,-0.390769,0
 .459368\C,0,-2.945089,1.084984,-0.656635\H,0,-3.0387,2.13535,-0.386148
 \H,0,-3.065811,0.997733,-1.734698\H,0,-3.759662,0.527107,-0.20838\C,0,
 -1.7223,-3.250288,-0.252087\H,0,-2.559188,-3.921853,-0.415316\H,0,-0.9
 08283,-3.542521,-0.91586\H,0,-1.357325,-3.363233,0.766948\C,0,3.647078
 ,0.538279,0.181779\H,0,3.449182,1.236989,-0.626618\H,0,3.894563,1.1129
 51,1.076002\H,0,4.510429,-0.073281,-0.070063\C,0,1.418371,2.580018,0.3
 50038\H,0,2.251852,2.5179,1.038412\H,0,1.803165,2.859635,-0.631042\H,0
 ,0.772387,3.388601,0.689092\\Version=ES64L-G16RevA.03\State=1-A\HF=-63
 3.3322433\RMSD=2.543e-09\Dipole=-0.6967993,2.3468615,-0.1735621\Quadru
 pole=-7.5856139,10.7262029,-3.140589,7.1845468,-4.2044166,1.4258124\PG
 =C01 [X(C11H15N1O2)]\\@


 NOTHING WILL BE ATTEMPTED IF ALL POSSIBLE OBJECTIONS
 MUST FIRST BE OVERCOME.

                               -- THE GOLDEN PRINCIPLE,
                    PAUL DICKSON'S "THE OFFICIAL RULES"
 Job cpu time:       0 days  2 hours 42 minutes 12.7 seconds.
 Elapsed time:       0 days  0 hours 10 minutes 11.2 seconds.
 File lengths (MBytes):  RWF=    734 Int=      0 D2E=      0 Chk=     67 Scr=      1
 Normal termination of Gaussian 16 at Sat Jan 24 21:53:58 2026.
