 Entering Gaussian System, Link 0=g16
 Input=DDL-LR-Eq-10.gjf
 Output=DDL-LR-Eq-10.log
 Initial command:
 /data/home/wyx/g16/l1.exe "/scr/tmp/wyx/13117/Gau-2013150.inp" -scrdir="/scr/tmp/wyx/13117/"
 Entering Link 1 = /data/home/wyx/g16/l1.exe PID=   2013151.
  
 Copyright (c) 1988,1990,1992,1993,1995,1998,2003,2009,2016,
            Gaussian, Inc.  All Rights Reserved.
  
 This is part of the Gaussian(R) 16 program.  It is based on
 the Gaussian(R) 09 system (copyright 2009, Gaussian, Inc.),
 the Gaussian(R) 03 system (copyright 2003, Gaussian, Inc.),
 the Gaussian(R) 98 system (copyright 1998, Gaussian, Inc.),
 the Gaussian(R) 94 system (copyright 1995, Gaussian, Inc.),
 the Gaussian 92(TM) system (copyright 1992, Gaussian, Inc.),
 the Gaussian 90(TM) system (copyright 1990, Gaussian, Inc.),
 the Gaussian 88(TM) system (copyright 1988, Gaussian, Inc.),
 the Gaussian 86(TM) system (copyright 1986, Carnegie Mellon
 University), and the Gaussian 82(TM) system (copyright 1983,
 Carnegie Mellon University). Gaussian is a federally registered
 trademark of Gaussian, Inc.
  
 This software contains proprietary and confidential information,
 including trade secrets, belonging to Gaussian, Inc.
  
 This software is provided under written license and may be
 used, copied, transmitted, or stored only in accord with that
 written license.
  
 The following legend is applicable only to US Government
 contracts under FAR:
  
                    RESTRICTED RIGHTS LEGEND
  
 Use, reproduction and disclosure by the US Government is
 subject to restrictions as set forth in subparagraphs (a)
 and (c) of the Commercial Computer Software - Restricted
 Rights clause in FAR 52.227-19.
  
 Gaussian, Inc.
 340 Quinnipiac St., Bldg. 40, Wallingford CT 06492
  
  
 ---------------------------------------------------------------
 Warning -- This program may not be used in any manner that
 competes with the business of Gaussian, Inc. or will provide
 assistance to any competitor of Gaussian, Inc.  The licensee
 of this program is prohibited from giving any competitor of
 Gaussian, Inc. access to this program.  By using this program,
 the user acknowledges that Gaussian, Inc. is engaged in the
 business of creating and licensing software in the field of
 computational chemistry and represents and warrants to the
 licensee that it is not a competitor of Gaussian, Inc. and that
 it will not use this program in any manner prohibited above.
 ---------------------------------------------------------------
  

 Cite this work as:
 Gaussian 16, Revision A.03,
 M. J. Frisch, G. W. Trucks, H. B. Schlegel, G. E. Scuseria, 
 M. A. Robb, J. R. Cheeseman, G. Scalmani, V. Barone, 
 G. A. Petersson, H. Nakatsuji, X. Li, M. Caricato, A. V. Marenich, 
 J. Bloino, B. G. Janesko, R. Gomperts, B. Mennucci, H. P. Hratchian, 
 J. V. Ortiz, A. F. Izmaylov, J. L. Sonnenberg, D. Williams-Young, 
 F. Ding, F. Lipparini, F. Egidi, J. Goings, B. Peng, A. Petrone, 
 T. Henderson, D. Ranasinghe, V. G. Zakrzewski, J. Gao, N. Rega, 
 G. Zheng, W. Liang, M. Hada, M. Ehara, K. Toyota, R. Fukuda, 
 J. Hasegawa, M. Ishida, T. Nakajima, Y. Honda, O. Kitao, H. Nakai, 
 T. Vreven, K. Throssell, J. A. Montgomery, Jr., J. E. Peralta, 
 F. Ogliaro, M. J. Bearpark, J. J. Heyd, E. N. Brothers, K. N. Kudin, 
 V. N. Staroverov, T. A. Keith, R. Kobayashi, J. Normand, 
 K. Raghavachari, A. P. Rendell, J. C. Burant, S. S. Iyengar, 
 J. Tomasi, M. Cossi, J. M. Millam, M. Klene, C. Adamo, R. Cammi, 
 J. W. Ochterski, R. L. Martin, K. Morokuma, O. Farkas, 
 J. B. Foresman, and D. J. Fox, Gaussian, Inc., Wallingford CT, 2016.
 
 ******************************************
 Gaussian 16:  ES64L-G16RevA.03 25-Dec-2016
                24-Jan-2026 
 ******************************************
 %nprocshared=16
 Will use up to   16 processors via shared memory.
 %mem=16GB
 %oldchk=DDL-LR-10.chk
 %chk=DDL-LR-Eq-10.chk
 Copying data from "DDL-LR-10.chk" to current chk file "DDL-LR-Eq-10.chk"
 IOpt=  2 FromEx=T IUOpen= 4 IOptOp= 5 NList=   0 IFRang= 0 IUIn= 4 IUOut= 2.
 ----------------------------------------------------------------------
 #p CAM-B3LYP TZVP em=gd3bj td(Eqsolv,nstates=6,root=1) scrf=(Solvent=W
 ater) Geom=Check Guess=Read
 ----------------------------------------------------------------------
 1/29=2,38=1,172=1/1;
 2/12=2,40=1/2;
 3/5=19,7=101,11=9,14=-4,25=1,30=1,70=2201,72=1,74=-40,116=-2,124=41/1,2,3,8;
 4/5=1/1;
 5/5=2,38=6,53=1/2;
 8/6=1,10=1,107=1,108=6/1;
 9/8=1,41=6,42=1,70=2,73=2/14;
 6/7=2,8=2,9=2,10=2/1;
 99/5=1,9=1/99;
 Leave Link    1 at Sat Jan 24 16:18:53 2026, MaxMem=  2147483648 cpu:               0.8 elap:               0.1
 (Enter /data/home/wyx/g16/l101.exe)
 -------------------
 Title Card Required
 -------------------
 Structure from the checkpoint file:  "DDL-LR-Eq-10.chk"
 Charge =  0 Multiplicity = 1
 Z-Matrix found in chk file.
 O,0,2.734014,-1.5589,0.793923
 O,0,-3.259804,-1.649664,-1.022918
 N,0,-0.698803,1.514889,0.048595
 H,0,-1.007133,2.47372,-0.013227
 C,0,-1.250234,-0.760451,-0.161152
 C,0,0.642107,1.314882,0.24953
 C,0,-1.62307,0.557362,-0.253139
 C,0,-2.157038,-1.841258,-0.513425
 C,0,0.106747,-1.095213,0.369667
 H,0,0.025487,-1.465938,1.402961
 H,0,0.530347,-1.9433,-0.169918
 C,0,1.098267,0.025718,0.34027
 C,0,2.48697,-0.39262,0.480434
 C,0,-2.956238,1.091804,-0.645477
 H,0,-3.028011,2.156977,-0.438305
 H,0,-3.139188,0.940961,-1.705527
 H,0,-3.755054,0.580038,-0.122441
 C,0,-1.714567,-3.255362,-0.252065
 H,0,-2.563296,-3.924083,-0.337708
 H,0,-0.968567,-3.561565,-0.983194
 H,0,-1.263597,-3.376512,0.728249
 C,0,3.648083,0.532705,0.213092
 H,0,3.456938,1.239105,-0.590126
 H,0,3.898485,1.098535,1.112426
 H,0,4.508692,-0.081325,-0.042984
 C,0,1.416357,2.588057,0.357753
 H,0,2.21049,2.520251,1.091003
 H,0,1.860168,2.8679,-0.597243
 H,0,0.761446,3.403289,0.660945
 Recover connectivity data from disk.
 ITRead=  0  0  0  0  0  0  0  0  0  0  0  0  0  0  0  0  0  0  0  0
 ITRead=  0  0  0  0  0  0  0  0  0
 MicOpt= -1 -1 -1 -1 -1 -1 -1 -1 -1 -1 -1 -1 -1 -1 -1 -1 -1 -1 -1 -1
 MicOpt= -1 -1 -1 -1 -1 -1 -1 -1 -1
 NAtoms=     29 NQM=       29 NQMF=       0 NMMI=      0 NMMIF=      0
                NMic=       0 NMicF=      0.
                    Isotopes and Nuclear Properties:
 (Nuclear quadrupole moments (NQMom) in fm**2, nuclear magnetic moments (NMagM)
  in nuclear magnetons)

  Atom         1           2           3           4           5           6           7           8           9          10
 IAtWgt=          16          16          14           1          12          12          12          12          12           1
 AtmWgt=  15.9949146  15.9949146  14.0030740   1.0078250  12.0000000  12.0000000  12.0000000  12.0000000  12.0000000   1.0078250
 NucSpn=           0           0           2           1           0           0           0           0           0           1
 AtZEff=   5.6000000   5.6000000   4.5500000   1.0000000   3.6000000   3.6000000   3.6000000   3.6000000   3.6000000   1.0000000
 NQMom=    0.0000000   0.0000000   2.0440000   0.0000000   0.0000000   0.0000000   0.0000000   0.0000000   0.0000000   0.0000000
 NMagM=    0.0000000   0.0000000   0.4037610   2.7928460   0.0000000   0.0000000   0.0000000   0.0000000   0.0000000   2.7928460
 AtZNuc=   8.0000000   8.0000000   7.0000000   1.0000000   6.0000000   6.0000000   6.0000000   6.0000000   6.0000000   1.0000000

  Atom        11          12          13          14          15          16          17          18          19          20
 IAtWgt=           1          12          12          12           1           1           1          12           1           1
 AtmWgt=   1.0078250  12.0000000  12.0000000  12.0000000   1.0078250   1.0078250   1.0078250  12.0000000   1.0078250   1.0078250
 NucSpn=           1           0           0           0           1           1           1           0           1           1
 AtZEff=   1.0000000   3.6000000   3.6000000   3.6000000   1.0000000   1.0000000   1.0000000   3.6000000   1.0000000   1.0000000
 NQMom=    0.0000000   0.0000000   0.0000000   0.0000000   0.0000000   0.0000000   0.0000000   0.0000000   0.0000000   0.0000000
 NMagM=    2.7928460   0.0000000   0.0000000   0.0000000   2.7928460   2.7928460   2.7928460   0.0000000   2.7928460   2.7928460
 AtZNuc=   1.0000000   6.0000000   6.0000000   6.0000000   1.0000000   1.0000000   1.0000000   6.0000000   1.0000000   1.0000000

  Atom        21          22          23          24          25          26          27          28          29
 IAtWgt=           1          12           1           1           1          12           1           1           1
 AtmWgt=   1.0078250  12.0000000   1.0078250   1.0078250   1.0078250  12.0000000   1.0078250   1.0078250   1.0078250
 NucSpn=           1           0           1           1           1           0           1           1           1
 AtZEff=   1.0000000   3.6000000   1.0000000   1.0000000   1.0000000   3.6000000   1.0000000   1.0000000   1.0000000
 NQMom=    0.0000000   0.0000000   0.0000000   0.0000000   0.0000000   0.0000000   0.0000000   0.0000000   0.0000000
 NMagM=    2.7928460   0.0000000   2.7928460   2.7928460   2.7928460   0.0000000   2.7928460   2.7928460   2.7928460
 AtZNuc=   1.0000000   6.0000000   1.0000000   1.0000000   1.0000000   6.0000000   1.0000000   1.0000000   1.0000000
 Leave Link  101 at Sat Jan 24 16:18:56 2026, MaxMem=  2147483648 cpu:               0.9 elap:               0.1
 (Enter /data/home/wyx/g16/l202.exe)
                          Input orientation:                          
 ---------------------------------------------------------------------
 Center     Atomic      Atomic             Coordinates (Angstroms)
 Number     Number       Type             X           Y           Z
 ---------------------------------------------------------------------
      1          8           0        2.734014   -1.558900    0.793923
      2          8           0       -3.259804   -1.649664   -1.022918
      3          7           0       -0.698803    1.514889    0.048595
      4          1           0       -1.007133    2.473720   -0.013227
      5          6           0       -1.250234   -0.760451   -0.161152
      6          6           0        0.642107    1.314882    0.249530
      7          6           0       -1.623070    0.557362   -0.253139
      8          6           0       -2.157038   -1.841258   -0.513425
      9          6           0        0.106747   -1.095213    0.369667
     10          1           0        0.025487   -1.465938    1.402961
     11          1           0        0.530347   -1.943300   -0.169918
     12          6           0        1.098267    0.025718    0.340270
     13          6           0        2.486970   -0.392620    0.480434
     14          6           0       -2.956238    1.091804   -0.645477
     15          1           0       -3.028011    2.156977   -0.438305
     16          1           0       -3.139188    0.940961   -1.705527
     17          1           0       -3.755054    0.580038   -0.122441
     18          6           0       -1.714567   -3.255362   -0.252065
     19          1           0       -2.563296   -3.924083   -0.337708
     20          1           0       -0.968567   -3.561565   -0.983194
     21          1           0       -1.263597   -3.376512    0.728249
     22          6           0        3.648083    0.532705    0.213092
     23          1           0        3.456938    1.239105   -0.590126
     24          1           0        3.898485    1.098535    1.112426
     25          1           0        4.508692   -0.081325   -0.042984
     26          6           0        1.416357    2.588057    0.357753
     27          1           0        2.210490    2.520251    1.091003
     28          1           0        1.860168    2.867900   -0.597243
     29          1           0        0.761446    3.403289    0.660945
 ---------------------------------------------------------------------
                    Distance matrix (angstroms):
                    1          2          3          4          5
     1  O    0.000000
     2  O    6.263785   0.000000
     3  N    4.667754   4.209663   0.000000
     4  H    5.559649   4.805861   1.009082   0.000000
     5  C    4.174197   2.360447   2.350583   3.246666   0.000000
     6  C    3.595979   5.062861   1.370554   2.032717   2.838419
     7  C    4.955712   2.853493   1.364614   2.027157   1.372625
     8  C    5.070629   1.229790   3.702167   4.493497   1.454144
     9  C    2.701394   3.685156   2.750387   3.758273   1.495069
    10  H    2.777713   4.088005   3.353242   4.311937   2.138136
    11  H    2.435755   3.896033   3.676633   4.679579   2.137680
    12  C    2.322172   4.863946   2.352056   3.248135   2.526844
    13  C    1.232686   6.071708   3.738211   4.546247   3.809675
    14  C    6.440270   2.783929   2.399323   2.471526   2.564346
    15  H    6.966137   3.858240   2.464662   2.089250   3.427636
    16  H    6.855002   2.681761   3.059709   3.123922   2.974566
    17  H    6.893677   2.455138   3.200605   3.339016   2.841220
    18  C    4.874623   2.358016   4.886458   5.777533   2.539380
    19  H    5.910683   2.475403   5.762637   6.592330   3.429850
    20  H    4.569236   2.984411   5.187268   6.112854   2.932802
    21  H    4.391915   3.167559   4.970586   5.902607   2.763148
    22  C    2.355355   7.349106   4.459503   5.048742   5.079943
    23  H    3.204223   7.324406   4.213574   4.667442   5.132223
    24  H    2.918801   7.959484   4.737103   5.217597   5.620244
    25  H    2.456242   7.985580   5.447411   6.078936   5.800035
    26  C    4.373067   6.459955   2.391897   2.454384   4.311899
    27  H    4.123325   7.195899   3.249824   3.402144   4.930265
    28  H    4.721812   6.841323   2.965818   2.952604   4.798928
    29  H    5.341538   6.673693   2.464418   2.108667   4.696747
                    6          7          8          9         10
     6  C    0.000000
     7  C    2.440807   0.000000
     8  C    4.287019   2.471082   0.000000
     9  C    2.471761   2.472076   2.541881   0.000000
    10  H    3.073041   3.090979   2.928620   1.100789   0.000000
    11  H    3.286971   3.301127   2.711171   1.090798   1.719508
    12  C    1.370496   2.835570   3.848559   1.496817   2.122547
    13  C    2.524361   4.281708   4.965191   2.484224   2.839360
    14  C    3.714685   1.488924   3.042862   3.898133   4.430443
    15  H    3.827794   2.137034   4.092691   4.588711   5.083269
    16  H    4.273202   2.134290   3.182211   4.357583   5.046883
    17  H    4.473632   2.136107   2.927319   4.238177   4.561289
    18  C    5.166492   3.813822   1.504586   2.893092   2.994818
    19  H    6.169782   4.579795   2.129338   3.953734   3.971675
    20  H    5.281441   4.234019   2.143036   3.011549   3.327692
    21  H    5.086262   4.070345   2.167255   2.685284   2.401513
    22  C    3.106287   5.291789   6.313712   3.900730   4.305063
    23  H    2.938373   5.136615   6.404002   4.194523   4.802552
    24  H    3.375706   5.713598   6.924964   4.443141   4.654143
    25  H    4.121339   6.168516   6.910183   4.536008   4.909892
    26  C    1.494038   3.706080   5.757337   3.909181   4.411559
    27  H    2.149608   4.511744   6.377480   4.244719   4.556452
    28  H    2.147688   4.194036   6.190407   4.440233   5.113611
    29  H    2.131888   3.823711   6.115715   4.555216   4.980120
                   11         12         13         14         15
    11  H    0.000000
    12  C    2.111837   0.000000
    13  C    2.579911   1.457103   0.000000
    14  C    4.646965   4.306652   5.753234   0.000000
    15  H    5.435643   4.708993   6.144879   1.087504   0.000000
    16  H    4.913506   4.793640   6.181466   1.086246   1.759803
    17  H    4.973344   4.906740   6.346053   1.083318   1.764964
    18  C    2.601518   4.362153   5.136610   4.538102   5.572543
    19  H    3.677266   5.428409   6.216573   5.040659   6.099621
    20  H    2.350945   4.346488   4.911736   5.071364   6.102453
    21  H    2.465570   4.159819   4.799143   4.971720   5.923977
    22  C    3.999697   2.602839   1.508602   6.683322   6.901653
    23  H    4.343871   2.810920   2.179326   6.415106   6.551344
    24  H    4.716092   3.096511   2.148332   7.076545   7.176448
    25  H    4.394348   3.433561   2.111452   7.580528   7.871986
    26  C    4.647219   2.582067   3.169495   4.729147   4.535631
    27  H    4.933162   2.832549   2.988989   5.634794   5.469245
    28  H    5.009858   3.088272   3.490739   5.133674   4.942162
    29  H    5.415695   3.409438   4.173601   4.568465   4.137829
                   16         17         18         19         20
    16  H    0.000000
    17  H    1.736582   0.000000
    18  C    4.663821   4.346341   0.000000
    19  H    5.086377   4.664090   1.083911   0.000000
    20  H    5.050357   5.065400   1.088497   1.758190   0.000000
    21  H    5.299215   4.752401   1.085848   1.767856   1.746518
    22  C    7.065042   7.410888   6.582085   7.664696   6.285507
    23  H    6.696409   7.257129   6.859955   7.935077   6.541103
    24  H    7.582515   7.769839   7.233575   8.311690   7.056653
    25  H    7.892983   8.290550   6.989076   8.053984   6.557166
    26  C    5.265267   5.568323   6.657335   7.663503   6.730814
    27  H    6.239695   6.389412   7.111091   8.146146   7.169183
    28  H    5.471284   6.081979   7.098747   8.109588   7.034822
    29  H    5.184418   5.383606   7.162532   8.108119   7.362427
                   21         22         23         24         25
    21  H    0.000000
    22  C    6.298568   0.000000
    23  H    6.732420   1.086599   0.000000
    24  H    6.842567   1.091635   1.764485   0.000000
    25  H    6.691216   1.087776   1.774566   1.760510   0.000000
    26  C    6.549466   3.037433   2.623379   2.991516   4.104720
    27  H    6.853662   2.605329   2.453806   2.207048   3.651829
    28  H    7.106864   3.050642   2.280942   3.195052   4.002476
    29  H    7.076089   4.095546   3.676214   3.918768   5.165259
                   26         27         28         29
    26  C    0.000000
    27  H    1.083005   0.000000
    28  H    1.089632   1.758909   0.000000
    29  H    1.088778   1.750553   1.754100   0.000000
 Stoichiometry    C11H15NO2
 Framework group  C1[X(C11H15NO2)]
 Deg. of freedom    81
 Full point group                 C1      NOp   1
 RotChk:  IX=0 Diff= 1.27D-15
 Largest Abelian subgroup         C1      NOp   1
 Largest concise Abelian subgroup C1      NOp   1
                         Standard orientation:                         
 ---------------------------------------------------------------------
 Center     Atomic      Atomic             Coordinates (Angstroms)
 Number     Number       Type             X           Y           Z
 ---------------------------------------------------------------------
      1          8           0       -2.287683   -2.282763   -0.218620
      2          8           0        3.606477   -0.251891    0.389190
      3          7           0       -0.024675    1.799571   -0.183084
      4          1           0       -0.053666    2.808213   -0.189956
      5          6           0        1.293406   -0.143316   -0.068656
      6          6           0       -1.231262    1.153002   -0.115903
      7          6           0        1.207822    1.226618   -0.061239
      8          6           0        2.560744   -0.834334    0.107078
      9          6           0        0.057632   -0.946132   -0.320812
     10          1           0        0.070288   -1.343671   -1.347232
     11          1           0        0.052094   -1.844700    0.297561
     12          6           0       -1.232075   -0.217458   -0.105982
     13          6           0       -2.397754   -1.080804    0.031767
     14          6           0        2.328771    2.199282    0.058315
     15          1           0        1.996453    3.210009   -0.166763
     16          1           0        2.741586    2.195497    1.063054
     17          1           0        3.144409    1.943828   -0.607310
     18          6           0        2.583861   -2.330301   -0.052069
     19          1           0        3.609472   -2.672350   -0.129451
     20          1           0        2.131964   -2.811706    0.813300
     21          1           0        2.030293   -2.665262   -0.924095
     22          6           0       -3.734457   -0.574859    0.514596
     23          1           0       -3.651235    0.211786    1.259553
     24          1           0       -4.320903   -0.191198   -0.322394
     25          1           0       -4.274271   -1.418573    0.938863
     26          6           0       -2.397021    2.086730   -0.079718
     27          1           0       -3.240496    1.706493   -0.642631
     28          1           0       -2.727800    2.273070    0.941634
     29          1           0       -2.123827    3.048229   -0.511368
 ---------------------------------------------------------------------
 Rotational constants (GHZ):           1.0782815           0.4906857           0.3454908
 Leave Link  202 at Sat Jan 24 16:18:56 2026, MaxMem=  2147483648 cpu:               0.0 elap:               0.0
 (Enter /data/home/wyx/g16/l301.exe)
 Standard basis: TZVP (5D, 7F)
 Ernie: Thresh=  0.10000D-02 Tol=  0.10000D-05 Strict=F.
 There are   370 symmetry adapted cartesian basis functions of A   symmetry.
 There are   356 symmetry adapted basis functions of A   symmetry.
   356 basis functions,   610 primitive gaussians,   370 cartesian basis functions
    52 alpha electrons       52 beta electrons
       nuclear repulsion energy       900.6214957222 Hartrees.
 IExCor=20419 DFT=T Ex+Corr=CAM-B3LYP ExCW=0 ScaHFX=  1.000000
 ScaDFX=  1.000000  1.000000  1.000000  0.810000 ScalE2=  1.000000  1.000000
 IRadAn=      5 IRanWt=     -1 IRanGd=            0 ICorTp=0 IEmpDi=141
 HFx  wShort=  0.000000 wLong=  0.330000 cFull=  0.190000 cShort=  0.000000 cLong=  0.460000
 DFx  wShort=  0.000000 wLong=  0.330000 cFull=  0.190000 cShort=  0.000000 cLong=  0.460000
 NAtoms=   29 NActive=   29 NUniq=   29 SFac= 1.00D+00 NAtFMM=   60 NAOKFM=F Big=F
 Integral buffers will be    131072 words long.
 Raffenetti 1 integral format.
 Two-electron integral symmetry is turned on.
 R6Disp:  Grimme-D3(BJ) Dispersion energy=       -0.0261895184 Hartrees.
 Nuclear repulsion after empirical dispersion term =      900.5953062037 Hartrees.
 ------------------------------------------------------------------------------
 Polarizable Continuum Model (PCM)
 =================================
 Model                : PCM.
 Atomic radii         : UFF (Universal Force Field).
 Polarization charges : Total charges.
 Charge compensation  : None.
 Solution method      : On-the-fly selection.
 Cavity type          : Scaled VdW (van der Waals Surface) (Alpha=1.100).
 Cavity algorithm     : GePol (No added spheres)
                        Default sphere list used, NSphG=   29.
                        Lebedev-Laikov grids with approx.  5.0 points / Ang**2.
                        Smoothing algorithm: York/Karplus (Gamma=1.0000).
                        Polarization charges: spherical gaussians, with
                                              point-specific exponents (IZeta= 3).
                        Self-potential: point-specific (ISelfS= 7).
                        Self-field    : sphere-specific E.n sum rule (ISelfD= 2).
 Solvent              : Water, Eps=  78.355300 Eps(inf)=   1.777849
 ------------------------------------------------------------------------------
 GePol: Number of generator spheres                  =      29
 GePol: Total number of spheres                      =      29
 GePol: Number of exposed spheres                    =      29 (100.00%)
 GePol: Number of points                             =    2104
 GePol: Average weight of points                     =       0.13
 GePol: Minimum weight of points                     =   0.41D-11
 GePol: Maximum weight of points                     =    0.20577
 GePol: Number of points with low weight             =     135
 GePol: Fraction of low-weight points (<1% of avg)   =       6.42%
 GePol: Cavity surface area                          =    268.579 Ang**2
 GePol: Cavity volume                                =    286.653 Ang**3
 Leave Link  301 at Sat Jan 24 16:18:56 2026, MaxMem=  2147483648 cpu:               0.5 elap:               0.0
 (Enter /data/home/wyx/g16/l302.exe)
 NPDir=0 NMtPBC=     1 NCelOv=     1 NCel=       1 NClECP=     1 NCelD=      1
         NCelK=      1 NCelE2=     1 NClLst=     1 CellRange=     0.0.
 One-electron integrals computed using PRISM.
 One-electron integral symmetry used in STVInt
 NBasis=   356 RedAO= T EigKep=  4.67D-05  NBF=   356
 NBsUse=   356 1.00D-06 EigRej= -1.00D+00 NBFU=   356
 Precomputing XC quadrature grid using
 IXCGrd= 4 IRadAn=           5 IRanWt=          -1 IRanGd=           0 AccXCQ= 0.00D+00.
 Generated NRdTot=       0 NPtTot=           0 NUsed=           0 NTot=          32
 NSgBfM=   366   366   366   366   366 MxSgAt=    29 MxSgA2=    29.
 Leave Link  302 at Sat Jan 24 16:18:57 2026, MaxMem=  2147483648 cpu:               3.1 elap:               0.2
 (Enter /data/home/wyx/g16/l303.exe)
 DipDrv:  MaxL=1.
 Leave Link  303 at Sat Jan 24 16:18:57 2026, MaxMem=  2147483648 cpu:               0.6 elap:               0.0
 (Enter /data/home/wyx/g16/l308.exe)
 Leave Link  308 at Sat Jan 24 16:18:57 2026, MaxMem=  2147483648 cpu:               0.7 elap:               0.1
 (Enter /data/home/wyx/g16/l401.exe)
 Initial guess from the checkpoint file:  "DDL-LR-Eq-10.chk"
 B after Tr=    -0.000000    0.000000   -0.000000
         Rot=    1.000000    0.000000   -0.000000    0.000000 Ang=   0.00 deg.
 Guess basis will be translated and rotated to current coordinates.
 JPrj=2 DoOrth=T DoCkMO=T.
 Leave Link  401 at Sat Jan 24 16:18:57 2026, MaxMem=  2147483648 cpu:               2.2 elap:               0.2
 (Enter /data/home/wyx/g16/l502.exe)
 Integral symmetry usage will be decided dynamically.
 Closed shell SCF:
 Using DIIS extrapolation, IDIIS=  1040.
 NGot=  2147483648 LenX=  2147200095 LenY=  2147062754
 Requested convergence on RMS density matrix=1.00D-08 within 128 cycles.
 Requested convergence on MAX density matrix=1.00D-06.
 Requested convergence on             energy=1.00D-06.
 No special actions if energy rises.
 Fock matrices will be formed incrementally for  20 cycles.

 Cycle   1  Pass 1  IDiag  1:
 FoFJK:  IHMeth= 1 ICntrl=       0 DoSepK=T KAlg= 0 I1Cent=           0 FoldK=F
 IRaf=         1 NMat=       1 IRICut=       1 DoRegI=T DoRafI=F ISym2E= 0 IDoP0=0 IntGTp=1.
 FoFCou: FMM=F IPFlag=           0 FMFlag=      100000 FMFlg1=           0
         NFxFlg=           0 DoJE=T BraDBF=F KetDBF=F FulRan=T
         wScrn=  0.000000 ICntrl=       500 IOpCl=  0 I1Cent=           0 NGrid=           0
         NMat0=    1 NMatS0=      1 NMatT0=    0 NMatD0=    1 NMtDS0=    0 NMtDT0=    0
 Symmetry not used in FoFCou.
 Inv3:  Mode=1 IEnd=    13280448.
 Iteration    1 A*A^-1 deviation from unit magnitude is 2.78D-15 for   1430.
 Iteration    1 A*A^-1 deviation from orthogonality  is 1.89D-15 for   1938    312.
 Iteration    1 A^-1*A deviation from unit magnitude is 2.44D-15 for    491.
 Iteration    1 A^-1*A deviation from orthogonality  is 8.18D-15 for   1378   1347.
 E= -633.330586820850    
 DIIS: error= 1.35D-08 at cycle   1 NSaved=   1.
 NSaved= 1 IEnMin= 1 EnMin= -633.330586820850     IErMin= 1 ErrMin= 1.35D-08
 ErrMax= 1.35D-08  0.00D+00 EMaxC= 1.00D-01 BMatC= 5.30D-14 BMatP= 5.30D-14
 IDIUse=1 WtCom= 1.00D+00 WtEn= 0.00D+00
 Coeff-Com:  0.100D+01
 Coeff:      0.100D+01
 Gap=     0.230 Goal=   None    Shift=    0.000
 RMSDP=2.62D-09 MaxDP=7.39D-08              OVMax= 2.88D-07

 Error on total polarization charges =  0.01548
 SCF Done:  E(RCAM-B3LYP) =  -633.330586821     A.U. after    1 cycles
            NFock=  1  Conv=0.26D-08     -V/T= 2.0041
 KE= 6.307295370446D+02 PE=-3.277252142007D+03 EE= 1.112596711937D+03
 Leave Link  502 at Sat Jan 24 16:19:03 2026, MaxMem=  2147483648 cpu:              84.9 elap:               5.6
 (Enter /data/home/wyx/g16/l801.exe)
 DoSCS=F DFT=T ScalE2(SS,OS)=  1.000000  1.000000
 ExpMin= 9.52D-02 ExpMax= 2.70D+04 ExpMxC= 9.22D+02 IAcc=3 IRadAn=         5 AccDes= 0.00D+00
 HarFok:  IExCor=  205 AccDes= 0.00D+00 IRadAn=         5 IDoV=-2 UseB2=F ITyADJ=14
 ICtDFT= 12500011 ScaDFX=  1.000000  1.000000  1.000000  1.000000
 Largest valence mixing into a core orbital is  5.62D-05
 Largest core mixing into a valence orbital is  1.19D-05
 Range of M.O.s used for correlation:    15   356
 NBasis=   356 NAE=    52 NBE=    52 NFC=    14 NFV=     0
 NROrb=    342 NOA=    38 NOB=    38 NVA=   304 NVB=   304

 **** Warning!!: The largest alpha MO coefficient is  0.58268497D+02

 Leave Link  801 at Sat Jan 24 16:19:03 2026, MaxMem=  2147483648 cpu:               1.0 elap:               0.1
 (Enter /data/home/wyx/g16/l914.exe)
 RHF ground state
 Two-electron integrals replicated using symmetry.
 MDV=  2147483648 DFT=T DoStab=F Mixed=T DoRPA=T DoScal=F NonHer=T
 NEqPCM:  Using equilibrium solvation (IEInf=0, Eps=  78.3553, EpsInf=   1.7778)
 Making orbital integer symmetry assigments:
 Orbital symmetries:
       Occupied  (A) (A) (A) (A) (A) (A) (A) (A) (A) (A) (A) (A)
                 (A) (A) (A) (A) (A) (A) (A) (A) (A) (A) (A) (A)
                 (A) (A) (A) (A) (A) (A) (A) (A) (A) (A) (A) (A)
                 (A) (A) (A) (A) (A) (A) (A) (A) (A) (A) (A) (A)
                 (A) (A) (A) (A)
       Virtual   (A) (A) (A) (A) (A) (A) (A) (A) (A) (A) (A) (A)
                 (A) (A) (A) (A) (A) (A) (A) (A) (A) (A) (A) (A)
                 (A) (A) (A) (A) (A) (A) (A) (A) (A) (A) (A) (A)
                 (A) (A) (A) (A) (A) (A) (A) (A) (A) (A) (A) (A)
                 (A) (A) (A) (A) (A) (A) (A) (A) (A) (A) (A) (A)
                 (A) (A) (A) (A) (A) (A) (A) (A) (A) (A) (A) (A)
                 (A) (A) (A) (A) (A) (A) (A) (A) (A) (A) (A) (A)
                 (A) (A) (A) (A) (A) (A) (A) (A) (A) (A) (A) (A)
                 (A) (A) (A) (A) (A) (A) (A) (A) (A) (A) (A) (A)
                 (A) (A) (A) (A) (A) (A) (A) (A) (A) (A) (A) (A)
                 (A) (A) (A) (A) (A) (A) (A) (A) (A) (A) (A) (A)
                 (A) (A) (A) (A) (A) (A) (A) (A) (A) (A) (A) (A)
                 (A) (A) (A) (A) (A) (A) (A) (A) (A) (A) (A) (A)
                 (A) (A) (A) (A) (A) (A) (A) (A) (A) (A) (A) (A)
                 (A) (A) (A) (A) (A) (A) (A) (A) (A) (A) (A) (A)
                 (A) (A) (A) (A) (A) (A) (A) (A) (A) (A) (A) (A)
                 (A) (A) (A) (A) (A) (A) (A) (A) (A) (A) (A) (A)
                 (A) (A) (A) (A) (A) (A) (A) (A) (A) (A) (A) (A)
                 (A) (A) (A) (A) (A) (A) (A) (A) (A) (A) (A) (A)
                 (A) (A) (A) (A) (A) (A) (A) (A) (A) (A) (A) (A)
                 (A) (A) (A) (A) (A) (A) (A) (A) (A) (A) (A) (A)
                 (A) (A) (A) (A) (A) (A) (A) (A) (A) (A) (A) (A)
                 (A) (A) (A) (A) (A) (A) (A) (A) (A) (A) (A) (A)
                 (A) (A) (A) (A) (A) (A) (A) (A) (A) (A) (A) (A)
                 (A) (A) (A) (A) (A) (A) (A) (A) (A) (A) (A) (A)
                 (A) (A) (A) (A)
    24 initial guesses have been made.
 Convergence on wavefunction:    0.001000000000000
 Davidson Disk Diagonalization:  ConvIn= 1.00D-03 SkipCon=T Conv= 1.00D-03.
 Max sub-space:  2000 roots to seek:    24 dimension of matrix:        23104
 Iteration     1 Dimension    24 NMult     0 NNew     24
 CISAX will form    24 AO SS matrices at one time.
 NMat=    24 NSing=    24 JSym2X= 0.
 FoFJK:  IHMeth= 1 ICntrl=       0 DoSepK=T KAlg= 0 I1Cent=           0 FoldK=F
 IRaf=         1 NMat=      48 IRICut=       1 DoRegI=T DoRafI=F ISym2E= 0 IDoP0=3 IntGTp=3.
 FoFCou: FMM=F IPFlag=           0 FMFlag=      100000 FMFlg1=           0
         NFxFlg=           0 DoJE=F BraDBF=F KetDBF=F FulRan=T
         wScrn=  0.000000 ICntrl=       500 IOpCl=  0 I1Cent=           0 NGrid=           0
         NMat0=   24 NMatS0=     24 NMatT0=    0 NMatD0=   24 NMtDS0=    0 NMtDT0=    0
 Symmetry not used in FoFCou.
 New state      2 was old state      3
 New state      3 was old state      4
 New state      4 was old state      2
 New state      5 was old state      6
 New state      6 was old state      5
 Excitation Energies [eV] at current iteration:
 Root      1 :     3.642775678090399
 Root      2 :     4.290038510736819
 Root      3 :     4.490457488735643
 Root      4 :     5.405930864511236
 Root      5 :     6.032921081150222
 Root      6 :     6.141524771576090
 Root      7 :     6.707639785125000
 Root      8 :     6.796069451502712
 Root      9 :     7.001911233221761
 Root     10 :     7.016722479282993
 Root     11 :     7.176556565015421
 Root     12 :     7.326202779212649
 Root     13 :     7.485327155951627
 Root     14 :     7.546193796386741
 Root     15 :     7.778606375440577
 Root     16 :     7.865371290531268
 Root     17 :     8.134479288220168
 Root     18 :     8.199940672739061
 Root     19 :     8.320406235310109
 Root     20 :     8.345988393191144
 Root     21 :     8.571683034993374
 Root     22 :     8.721734118107586
 Root     23 :     8.842533264273555
 Root     24 :     8.964908517919868
 Iteration     2 Dimension    36 NMult    24 NNew     12
 CISAX will form    12 AO SS matrices at one time.
 NMat=    12 NSing=    12 JSym2X= 0.
 Root      1 not converged, maximum delta is    0.043022656965328
 Root      2 not converged, maximum delta is    0.074837215028839
 Root      3 not converged, maximum delta is    0.086808797468322
 Root      4 not converged, maximum delta is    0.351244031192737
 New state      5 was old state      6
 Root      5 not converged, maximum delta is    0.459773102791013
 New state      6 was old state      5
 Root      6 not converged, maximum delta is    0.314055122723986
 Excitation Energies [eV] at current iteration:
 Root      1 :     3.213652193229320   Change is   -0.429123484861079
 Root      2 :     4.065895756698567   Change is   -0.224142754038251
 Root      3 :     4.226973904123544   Change is   -0.263483584612099
 Root      4 :     4.965175194657460   Change is   -0.440755669853776
 Root      5 :     5.432283984600783   Change is   -0.709240786975306
 Root      6 :     5.945849982835084   Change is   -0.087071098315138
 Iteration     3 Dimension    48 NMult    36 NNew     12
 CISAX will form    12 AO SS matrices at one time.
 NMat=    12 NSing=    12 JSym2X= 0.
 Root      1 not converged, maximum delta is    0.006077517050684
 Root      2 not converged, maximum delta is    0.013255839181089
 Root      3 not converged, maximum delta is    0.012190242473123
 Root      4 not converged, maximum delta is    0.010707166353912
 Root      5 not converged, maximum delta is    0.011487242090954
 Root      6 not converged, maximum delta is    0.007393686804529
 Excitation Energies [eV] at current iteration:
 Root      1 :     3.199322715178250   Change is   -0.014329478051071
 Root      2 :     4.053230174169947   Change is   -0.012665582528621
 Root      3 :     4.213668987067795   Change is   -0.013304917055749
 Root      4 :     4.945387452799716   Change is   -0.019787741857745
 Root      5 :     5.417145770583956   Change is   -0.015138214016827
 Root      6 :     5.940159329390574   Change is   -0.005690653444510
 Iteration     4 Dimension    60 NMult    48 NNew     12
 CISAX will form    12 AO SS matrices at one time.
 NMat=    12 NSing=    12 JSym2X= 0.
 Root      1 not converged, maximum delta is    0.001751434499407
 Root      2 not converged, maximum delta is    0.002135976490956
 Root      3 not converged, maximum delta is    0.002100856611453
 Root      4 not converged, maximum delta is    0.003060729819106
 Root      5 not converged, maximum delta is    0.002312880671690
 Root      6 not converged, maximum delta is    0.001925668197073
 Excitation Energies [eV] at current iteration:
 Root      1 :     3.198232700115534   Change is   -0.001090015062716
 Root      2 :     4.052438353553725   Change is   -0.000791820616221
 Root      3 :     4.212782272662338   Change is   -0.000886714405458
 Root      4 :     4.943630122341125   Change is   -0.001757330458590
 Root      5 :     5.415602261139333   Change is   -0.001543509444623
 Root      6 :     5.939766657436237   Change is   -0.000392671954337
 Iteration     5 Dimension    72 NMult    60 NNew     12
 CISAX will form    12 AO SS matrices at one time.
 NMat=    12 NSing=    12 JSym2X= 0.
 Root      1 has converged.
 Root      2 has converged.
 Root      3 has converged.
 Root      4 has converged.
 Root      5 not converged, maximum delta is    0.001117148492538
 Root      6 has converged.
 Excitation Energies [eV] at current iteration:
 Root      1 :     3.198183108969245   Change is   -0.000049591146288
 Root      2 :     4.052399117787693   Change is   -0.000039235766032
 Root      3 :     4.212740940666568   Change is   -0.000041331995769
 Root      4 :     4.943508978883170   Change is   -0.000121143457956
 Root      5 :     5.415483745151027   Change is   -0.000118515988306
 Root      6 :     5.939740842137693   Change is   -0.000025815298544
 Iteration     6 Dimension    74 NMult    72 NNew      2
 CISAX will form     2 AO SS matrices at one time.
 NMat=     2 NSing=     2 JSym2X= 0.
 Root      1 has converged.
 Root      2 has converged.
 Root      3 has converged.
 Root      4 has converged.
 Root      5 has converged.
 Root      6 has converged.
 Excitation Energies [eV] at current iteration:
 Root      1 :     3.198183086177296   Change is   -0.000000022791950
 Root      2 :     4.052399039097308   Change is   -0.000000078690385
 Root      3 :     4.212740817624964   Change is   -0.000000123041604
 Root      4 :     4.943507125739389   Change is   -0.000001853143781
 Root      5 :     5.415472983373230   Change is   -0.000010761777797
 Root      6 :     5.939740762802373   Change is   -0.000000079335320
 Convergence achieved on expansion vectors.
 ***********************************************************************
 Excited states from <AA,BB:AA,BB> singles matrix:
 ***********************************************************************
 
 1PDM for each excited state written to RWF  633
 Ground to excited state transition densities written to RWF  633
 Ground to excited state transition electric dipole moments (Au):
       state          X           Y           Z        Dip. S.      Osc.
         1         1.7140      0.2146      0.0571      2.9872      0.2341
         2         0.1028     -0.0198      0.0421      0.0127      0.0013
         3        -0.0267     -0.1649      0.0342      0.0291      0.0030
         4         0.2036     -1.9744      0.1127      3.9523      0.4787
         5         0.0709     -1.4490      0.0080      2.1046      0.2792
         6        -0.0277      0.2714      0.0473      0.0767      0.0112
 Ground to excited state transition velocity dipole moments (Au):
       state          X           Y           Z        Dip. S.      Osc.
         1        -0.1936     -0.0208     -0.0073      0.0380      0.2153
         2        -0.0147      0.0033     -0.0032      0.0002      0.0011
         3         0.0039      0.0237     -0.0018      0.0006      0.0025
         4        -0.0401      0.3443     -0.0163      0.1204      0.4419
         5        -0.0141      0.2836     -0.0028      0.0806      0.2701
         6         0.0069     -0.0556     -0.0303      0.0041      0.0124
 Ground to excited state transition magnetic dipole moments (Au):
       state          X           Y           Z
         1        -0.0539     -0.0257      1.4483
         2         0.8038      0.1297      0.2722
         3        -0.1706     -0.9892     -0.2037
         4         0.0665      0.1171     -0.1161
         5         0.1668      0.1046     -0.2658
         6         0.0932      0.0258     -0.0420
 Ground to excited state transition velocity quadrupole moments (Au):
       state          XX          YY          ZZ          XY          XZ          YZ
         1        -0.1896      0.1069      0.0024      0.5352     -0.0520      0.0153
         2         0.0106     -0.0083     -0.0008      0.0429     -0.0126      0.0872
         3        -0.0096      0.0070     -0.0263     -0.0625      0.0669     -0.0097
         4        -1.3952      0.3100      0.0055     -0.1230     -0.0953     -0.0425
         5        -0.3778      0.2545      0.0421     -0.2184     -0.0620      0.0307
         6        -0.2882     -0.2298      0.1925     -0.0234     -0.0415      0.1435
 <0|del|b> * <b|rxdel|0> + <0|del|b> * <b|delr+rdel|0>
 Rotatory Strengths (R) in cgs (10**-40 erg-esu-cm/Gauss)
       state          XX          YY          ZZ    R(velocity)    E-M Angle
         1       -45.0885      2.5050     45.1943      0.8702       89.91
         2        -1.2625    -32.8563    -24.1367    -19.4185      158.09
         3       -56.0111     -1.0258    -51.3108    -36.1159      164.21
         4       149.9429     -2.0894      6.1009     51.3181       50.13
         5        86.3629     -4.7078     18.0392     33.2314       72.62
         6        -2.8507      3.5626      0.8544      0.5221       85.87
 1/2[<0|r|b>*<b|rxdel|0> + (<0|rxdel|b>*<b|r|0>)*]
 Rotatory Strengths (R) in cgs (10**-40 erg-esu-cm/Gauss)
       state          XX          YY          ZZ     R(length)
         1        65.3892      3.8949    -58.4715      3.6042
         2       -58.4488      1.8112     -8.0951    -21.5776
         3        -3.2166   -115.3745      4.9201    -37.8903
         4        -9.5799    163.5113      9.2494     54.3936
         5        -8.3650    107.1800      1.4968     33.4373
         6         1.8276     -4.9426      1.4051     -0.5700
  1/2[<0|del|b>*<b|r|0> + (<0|r|b>*<b|del|0>)*] (Au)
       state          X           Y           Z        Dip. S.   Osc.(frdel)
         1        -0.3318     -0.0045     -0.0004      0.3367      0.2245
         2        -0.0015     -0.0001     -0.0001      0.0017      0.0011
         3        -0.0001     -0.0039     -0.0001      0.0041      0.0027
         4        -0.0082     -0.6798     -0.0018      0.6898      0.4598
         5        -0.0010     -0.4109     -0.0000      0.4119      0.2746
         6        -0.0002     -0.0151     -0.0014      0.0167      0.0111

 Excitation energies and oscillator strengths:
 
 Excited State   1:      Singlet-A      3.1982 eV  387.67 nm  f=0.2341  <S**2>=0.000
      52 -> 53         0.70004
 This state for optimization and/or second-order correction.
 Total Energy, E(TD-HF/TD-DFT) =  -633.213055755    
 Copying the excited state density for this state as the 1-particle RhoCI density.
 
 Excited State   2:      Singlet-A      4.0524 eV  305.95 nm  f=0.0013  <S**2>=0.000
      50 -> 54        -0.19008
      51 -> 53         0.57153
      51 -> 54         0.31384
 
 Excited State   3:      Singlet-A      4.2127 eV  294.31 nm  f=0.0030  <S**2>=0.000
      49 -> 53        -0.28928
      49 -> 54         0.18122
      50 -> 53         0.50127
      50 -> 54        -0.23011
      50 -> 58         0.10584
      51 -> 54        -0.20999
 
 Excited State   4:      Singlet-A      4.9435 eV  250.80 nm  f=0.4787  <S**2>=0.000
      49 -> 53         0.12865
      52 -> 54         0.68518
 
 Excited State   5:      Singlet-A      5.4155 eV  228.94 nm  f=0.2792  <S**2>=0.000
      49 -> 53         0.57752
      50 -> 53         0.33497
      51 -> 53         0.13524
      52 -> 54        -0.13705
 
 Excited State   6:      Singlet-A      5.9397 eV  208.74 nm  f=0.0112  <S**2>=0.000
      52 -> 55         0.66003
      52 -> 56        -0.15740
 SavETr:  write IOETrn=   770 NScale= 10 NData=  16 NLR=1 NState=    6 LETran=     118.
 Leave Link  914 at Sat Jan 24 16:21:15 2026, MaxMem=  2147483648 cpu:            2051.5 elap:             128.6
 (Enter /data/home/wyx/g16/l601.exe)
 Copying SCF densities to generalized density rwf, IOpCl= 0 IROHF=0.

 **********************************************************************

            Population analysis using the SCF density.

 **********************************************************************

 Orbital symmetries:
       Occupied  (A) (A) (A) (A) (A) (A) (A) (A) (A) (A) (A) (A)
                 (A) (A) (A) (A) (A) (A) (A) (A) (A) (A) (A) (A)
                 (A) (A) (A) (A) (A) (A) (A) (A) (A) (A) (A) (A)
                 (A) (A) (A) (A) (A) (A) (A) (A) (A) (A) (A) (A)
                 (A) (A) (A) (A)
       Virtual   (A) (A) (A) (A) (A) (A) (A) (A) (A) (A) (A) (A)
                 (A) (A) (A) (A) (A) (A) (A) (A) (A) (A) (A) (A)
                 (A) (A) (A) (A) (A) (A) (A) (A) (A) (A) (A) (A)
                 (A) (A) (A) (A) (A) (A) (A) (A) (A) (A) (A) (A)
                 (A) (A) (A) (A) (A) (A) (A) (A) (A) (A) (A) (A)
                 (A) (A) (A) (A) (A) (A) (A) (A) (A) (A) (A) (A)
                 (A) (A) (A) (A) (A) (A) (A) (A) (A) (A) (A) (A)
                 (A) (A) (A) (A) (A) (A) (A) (A) (A) (A) (A) (A)
                 (A) (A) (A) (A) (A) (A) (A) (A) (A) (A) (A) (A)
                 (A) (A) (A) (A) (A) (A) (A) (A) (A) (A) (A) (A)
                 (A) (A) (A) (A) (A) (A) (A) (A) (A) (A) (A) (A)
                 (A) (A) (A) (A) (A) (A) (A) (A) (A) (A) (A) (A)
                 (A) (A) (A) (A) (A) (A) (A) (A) (A) (A) (A) (A)
                 (A) (A) (A) (A) (A) (A) (A) (A) (A) (A) (A) (A)
                 (A) (A) (A) (A) (A) (A) (A) (A) (A) (A) (A) (A)
                 (A) (A) (A) (A) (A) (A) (A) (A) (A) (A) (A) (A)
                 (A) (A) (A) (A) (A) (A) (A) (A) (A) (A) (A) (A)
                 (A) (A) (A) (A) (A) (A) (A) (A) (A) (A) (A) (A)
                 (A) (A) (A) (A) (A) (A) (A) (A) (A) (A) (A) (A)
                 (A) (A) (A) (A) (A) (A) (A) (A) (A) (A) (A) (A)
                 (A) (A) (A) (A) (A) (A) (A) (A) (A) (A) (A) (A)
                 (A) (A) (A) (A) (A) (A) (A) (A) (A) (A) (A) (A)
                 (A) (A) (A) (A) (A) (A) (A) (A) (A) (A) (A) (A)
                 (A) (A) (A) (A) (A) (A) (A) (A) (A) (A) (A) (A)
                 (A) (A) (A) (A) (A) (A) (A) (A) (A) (A) (A) (A)
                 (A) (A) (A) (A)
 The electronic state is 1-A.
 Alpha  occ. eigenvalues --  -19.17942 -19.17351 -14.44305 -10.33466 -10.33073
 Alpha  occ. eigenvalues --  -10.32319 -10.31816 -10.25664 -10.25130 -10.24763
 Alpha  occ. eigenvalues --  -10.24711 -10.24607 -10.24154 -10.23718  -1.11815
 Alpha  occ. eigenvalues --   -1.11451  -1.07926  -0.91307  -0.90427  -0.83951
 Alpha  occ. eigenvalues --   -0.82582  -0.81593  -0.78572  -0.73925  -0.71584
 Alpha  occ. eigenvalues --   -0.68702  -0.61666  -0.58256  -0.56918  -0.55184
 Alpha  occ. eigenvalues --   -0.54543  -0.54048  -0.52601  -0.51876  -0.50798
 Alpha  occ. eigenvalues --   -0.49994  -0.49562  -0.49202  -0.48486  -0.48148
 Alpha  occ. eigenvalues --   -0.46944  -0.45419  -0.45084  -0.43587  -0.43118
 Alpha  occ. eigenvalues --   -0.42408  -0.42188  -0.41924  -0.32772  -0.32328
 Alpha  occ. eigenvalues --   -0.31407  -0.25752
 Alpha virt. eigenvalues --   -0.02769   0.02477   0.06515   0.08232   0.08762
 Alpha virt. eigenvalues --    0.10024   0.10758   0.11882   0.12692   0.13623
 Alpha virt. eigenvalues --    0.14046   0.15104   0.15736   0.16268   0.16995
 Alpha virt. eigenvalues --    0.17515   0.17949   0.18011   0.18282   0.19213
 Alpha virt. eigenvalues --    0.20076   0.22132   0.22991   0.23442   0.23734
 Alpha virt. eigenvalues --    0.24216   0.24813   0.25743   0.26029   0.26676
 Alpha virt. eigenvalues --    0.26969   0.27684   0.28895   0.29032   0.30218
 Alpha virt. eigenvalues --    0.31742   0.32018   0.32543   0.33615   0.34532
 Alpha virt. eigenvalues --    0.35180   0.36004   0.36660   0.38168   0.38606
 Alpha virt. eigenvalues --    0.39748   0.41005   0.41636   0.42129   0.42631
 Alpha virt. eigenvalues --    0.44148   0.44490   0.45450   0.46193   0.46226
 Alpha virt. eigenvalues --    0.47366   0.47884   0.48067   0.48298   0.49151
 Alpha virt. eigenvalues --    0.49605   0.50413   0.50878   0.51444   0.51638
 Alpha virt. eigenvalues --    0.52735   0.53132   0.53513   0.53983   0.54356
 Alpha virt. eigenvalues --    0.54652   0.55820   0.56105   0.56574   0.58464
 Alpha virt. eigenvalues --    0.58748   0.59251   0.60838   0.61085   0.62869
 Alpha virt. eigenvalues --    0.63489   0.65737   0.66207   0.66379   0.67864
 Alpha virt. eigenvalues --    0.68659   0.70050   0.71371   0.72036   0.72792
 Alpha virt. eigenvalues --    0.73251   0.74077   0.74748   0.75996   0.77799
 Alpha virt. eigenvalues --    0.78459   0.79773   0.82377   0.85225   0.86048
 Alpha virt. eigenvalues --    0.89659   0.93754   1.00322   1.01283   1.23780
 Alpha virt. eigenvalues --    1.25333   1.27221   1.27918   1.29518   1.31260
 Alpha virt. eigenvalues --    1.32628   1.32904   1.34080   1.34925   1.36190
 Alpha virt. eigenvalues --    1.36512   1.37371   1.38483   1.39190   1.39870
 Alpha virt. eigenvalues --    1.40100   1.40671   1.40891   1.41485   1.41811
 Alpha virt. eigenvalues --    1.43470   1.44141   1.44290   1.45143   1.47263
 Alpha virt. eigenvalues --    1.48081   1.49502   1.49727   1.50370   1.51155
 Alpha virt. eigenvalues --    1.51593   1.52455   1.53087   1.54574   1.57853
 Alpha virt. eigenvalues --    1.58357   1.60519   1.60751   1.61345   1.62435
 Alpha virt. eigenvalues --    1.62781   1.63317   1.64300   1.65172   1.65750
 Alpha virt. eigenvalues --    1.67014   1.67330   1.67881   1.68355   1.68567
 Alpha virt. eigenvalues --    1.68939   1.69994   1.70354   1.71715   1.72354
 Alpha virt. eigenvalues --    1.73781   1.75128   1.76222   1.76571   1.78693
 Alpha virt. eigenvalues --    1.80637   1.83244   1.84469   1.86285   1.86679
 Alpha virt. eigenvalues --    1.86951   1.87631   1.88510   1.89292   1.90716
 Alpha virt. eigenvalues --    1.91401   1.94676   1.95394   1.98739   1.99754
 Alpha virt. eigenvalues --    2.01285   2.03906   2.05070   2.06891   2.09669
 Alpha virt. eigenvalues --    2.11120   2.12640   2.15137   2.17300   2.19804
 Alpha virt. eigenvalues --    2.20371   2.21490   2.22005   2.23129   2.26052
 Alpha virt. eigenvalues --    2.27234   2.27846   2.29367   2.31173   2.32102
 Alpha virt. eigenvalues --    2.33600   2.34491   2.36684   2.37688   2.38269
 Alpha virt. eigenvalues --    2.39606   2.40298   2.41624   2.43507   2.45028
 Alpha virt. eigenvalues --    2.46137   2.47758   2.50157   2.50651   2.51734
 Alpha virt. eigenvalues --    2.52453   2.53811   2.54982   2.56948   2.58297
 Alpha virt. eigenvalues --    2.59113   2.60497   2.61490   2.62525   2.63108
 Alpha virt. eigenvalues --    2.64594   2.65880   2.66984   2.67569   2.68904
 Alpha virt. eigenvalues --    2.71680   2.72215   2.73080   2.73972   2.75355
 Alpha virt. eigenvalues --    2.75968   2.76857   2.77415   2.77972   2.79312
 Alpha virt. eigenvalues --    2.80654   2.81769   2.83213   2.83791   2.84374
 Alpha virt. eigenvalues --    2.85525   2.86487   2.88321   2.89854   2.91805
 Alpha virt. eigenvalues --    2.97486   2.99474   3.00805   3.05439   3.10716
 Alpha virt. eigenvalues --    3.12567   3.15565   3.17343   3.17963   3.20660
 Alpha virt. eigenvalues --    3.21524   3.22604   3.24466   3.25913   3.26922
 Alpha virt. eigenvalues --    3.27425   3.29744   3.33365   3.34404   3.36793
 Alpha virt. eigenvalues --    3.37378   3.39039   3.39874   3.40533   3.41890
 Alpha virt. eigenvalues --    3.42638   3.44972   3.45582   3.47051   3.48099
 Alpha virt. eigenvalues --    3.49364   3.50002   3.55354   3.58439   3.59779
 Alpha virt. eigenvalues --    3.60543   3.90520   4.00307   4.33567   4.35947
 Alpha virt. eigenvalues --   21.65255  21.80016  22.08325  22.11005  22.11923
 Alpha virt. eigenvalues --   22.15051  22.15473  22.18663  22.20490  22.24604
 Alpha virt. eigenvalues --   22.29252  31.92524  43.63241  43.65805
          Condensed to atoms (all electrons):
               1          2          3          4          5          6
     1  O    7.954711   0.000000  -0.000226   0.000018   0.018186   0.012742
     2  O    0.000000   7.985744   0.000373   0.000020  -0.203214   0.001112
     3  N   -0.000226   0.000373   6.378491   0.371559  -0.115291   0.332724
     4  H    0.000018   0.000020   0.371559   0.402512   0.016603  -0.045154
     5  C    0.018186  -0.203214  -0.115291   0.016603   7.061498  -0.070622
     6  C    0.012742   0.001112   0.332724  -0.045154  -0.070622   5.579385
     7  C   -0.000308  -0.037986   0.386764  -0.037835   0.414526  -0.106583
     8  C   -0.000395   0.715044   0.004372  -0.000731  -0.301793   0.030008
     9  C   -0.020145   0.021291   0.012666  -0.000173  -0.563466  -0.088317
    10  H    0.005295   0.000105   0.003904   0.000025  -0.033643  -0.018786
    11  H    0.014118   0.000010  -0.001382   0.000018  -0.115603   0.026328
    12  C   -0.226309  -0.002539  -0.090888   0.014792   0.162568  -0.114617
    13  C    0.713034  -0.000028   0.000803   0.000446   0.079357   0.150533
    14  C   -0.000007  -0.011267  -0.034315  -0.009526  -0.076301   0.010193
    15  H   -0.000000   0.004148   0.004822   0.001507   0.017512   0.006273
    16  H   -0.000000   0.002428  -0.003052   0.000908  -0.005354  -0.001735
    17  H   -0.000000   0.002484   0.000878   0.000781  -0.006878  -0.000959
    18  C    0.000059  -0.105611  -0.000545   0.000018  -0.266678   0.000368
    19  H   -0.000003   0.008836   0.000004  -0.000001   0.026298   0.000021
    20  H    0.000004   0.000945   0.000012  -0.000001   0.002774   0.000233
    21  H    0.000092   0.003899   0.000124   0.000001   0.043432  -0.001168
    22  C   -0.106136   0.000000   0.000003   0.000110   0.004072  -0.018016
    23  H    0.004932  -0.000000   0.000019  -0.000054  -0.000673  -0.030493
    24  H    0.001318   0.000000  -0.000017  -0.000014  -0.000057   0.010580
    25  H    0.006995   0.000000   0.000029  -0.000002  -0.000148  -0.001069
    26  C    0.000880   0.000006  -0.027804  -0.006326  -0.000003   0.184447
    27  H   -0.000243  -0.000000   0.002270   0.000825   0.000063  -0.046183
    28  H   -0.000051  -0.000000  -0.002507   0.000463   0.000394  -0.033493
    29  H    0.000024  -0.000000   0.001201   0.001289  -0.000454  -0.048552
               7          8          9         10         11         12
     1  O   -0.000308  -0.000395  -0.020145   0.005295   0.014118  -0.226309
     2  O   -0.037986   0.715044   0.021291   0.000105   0.000010  -0.002539
     3  N    0.386764   0.004372   0.012666   0.003904  -0.001382  -0.090888
     4  H   -0.037835  -0.000731  -0.000173   0.000025   0.000018   0.014792
     5  C    0.414526  -0.301793  -0.563466  -0.033643  -0.115603   0.162568
     6  C   -0.106583   0.030008  -0.088317  -0.018786   0.026328  -0.114617
     7  C    5.401085  -0.202918  -0.187911  -0.005534   0.017821   0.008978
     8  C   -0.202918   5.385255   0.128854  -0.004469  -0.008349  -0.037993
     9  C   -0.187911   0.128854   6.336854   0.397483   0.535349  -0.040219
    10  H   -0.005534  -0.004469   0.397483   0.566790  -0.041751  -0.019274
    11  H    0.017821  -0.008349   0.535349  -0.041751   0.518536  -0.109903
    12  C    0.008978  -0.037993  -0.040219  -0.019274  -0.109903   7.270195
    13  C    0.014645  -0.007455  -0.263073  -0.000375  -0.000604  -0.412782
    14  C    0.268655  -0.038372   0.008783  -0.001254   0.000572  -0.002713
    15  H   -0.076353   0.005446   0.000182   0.000065  -0.000004  -0.001257
    16  H   -0.022365  -0.000899   0.000711  -0.000066   0.000055   0.000646
    17  H   -0.029687  -0.007788  -0.000426   0.000199  -0.000059   0.000028
    18  C    0.001571   0.325358  -0.000964  -0.010475   0.008191  -0.002580
    19  H    0.000439  -0.054331  -0.000906   0.000007   0.000537  -0.000199
    20  H    0.000469  -0.024756  -0.009402   0.000892  -0.001651  -0.003210
    21  H    0.001680  -0.066288  -0.008720   0.002556  -0.006069   0.006907
    22  C    0.000147  -0.000072   0.006485   0.002087   0.000279  -0.247892
    23  H    0.000015  -0.000004   0.003482  -0.000155  -0.000031   0.063859
    24  H    0.000013   0.000003  -0.002163   0.000156  -0.000115  -0.012582
    25  H    0.000004   0.000004   0.000176  -0.000059  -0.000107   0.023458
    26  C    0.002709   0.000599   0.021324  -0.000743   0.000055  -0.081353
    27  H   -0.000779   0.000004  -0.000635  -0.000090   0.000006  -0.007382
    28  H   -0.000860  -0.000012  -0.000309  -0.000020   0.000047  -0.018883
    29  H    0.003495  -0.000007  -0.000533   0.000094  -0.000011   0.023195
              13         14         15         16         17         18
     1  O    0.713034  -0.000007  -0.000000  -0.000000  -0.000000   0.000059
     2  O   -0.000028  -0.011267   0.004148   0.002428   0.002484  -0.105611
     3  N    0.000803  -0.034315   0.004822  -0.003052   0.000878  -0.000545
     4  H    0.000446  -0.009526   0.001507   0.000908   0.000781   0.000018
     5  C    0.079357  -0.076301   0.017512  -0.005354  -0.006878  -0.266678
     6  C    0.150533   0.010193   0.006273  -0.001735  -0.000959   0.000368
     7  C    0.014645   0.268655  -0.076353  -0.022365  -0.029687   0.001571
     8  C   -0.007455  -0.038372   0.005446  -0.000899  -0.007788   0.325358
     9  C   -0.263073   0.008783   0.000182   0.000711  -0.000426  -0.000964
    10  H   -0.000375  -0.001254   0.000065  -0.000066   0.000199  -0.010475
    11  H   -0.000604   0.000572  -0.000004   0.000055  -0.000059   0.008191
    12  C   -0.412782  -0.002713  -0.001257   0.000646   0.000028  -0.002580
    13  C    5.481581   0.000015  -0.000027  -0.000016  -0.000002   0.000732
    14  C    0.000015   5.061671   0.389733   0.406782   0.421849   0.001309
    15  H   -0.000027   0.389733   0.567436  -0.024686  -0.027234   0.000256
    16  H   -0.000016   0.406782  -0.024686   0.510145  -0.027839   0.000031
    17  H   -0.000002   0.421849  -0.027234  -0.027839   0.511964  -0.000189
    18  C    0.000732   0.001309   0.000256   0.000031  -0.000189   5.339171
    19  H   -0.000010   0.000070  -0.000005  -0.000027   0.000034   0.392171
    20  H   -0.000109  -0.000253  -0.000005  -0.000007   0.000020   0.399127
    21  H    0.000619   0.000081  -0.000016   0.000002  -0.000039   0.380002
    22  C    0.290355  -0.000019   0.000002   0.000000  -0.000000   0.000030
    23  H   -0.093604   0.000001   0.000000   0.000000   0.000000   0.000002
    24  H   -0.021951  -0.000001   0.000000   0.000000  -0.000000  -0.000002
    25  H   -0.040242   0.000000   0.000000  -0.000000   0.000000  -0.000001
    26  C   -0.056079   0.001167   0.000112  -0.000147   0.000047   0.000019
    27  H   -0.004510   0.000083  -0.000011   0.000001  -0.000002  -0.000000
    28  H    0.006653  -0.000116   0.000000  -0.000009   0.000004  -0.000001
    29  H   -0.000652  -0.000211   0.000118   0.000001  -0.000003   0.000000
              19         20         21         22         23         24
     1  O   -0.000003   0.000004   0.000092  -0.106136   0.004932   0.001318
     2  O    0.008836   0.000945   0.003899   0.000000  -0.000000   0.000000
     3  N    0.000004   0.000012   0.000124   0.000003   0.000019  -0.000017
     4  H   -0.000001  -0.000001   0.000001   0.000110  -0.000054  -0.000014
     5  C    0.026298   0.002774   0.043432   0.004072  -0.000673  -0.000057
     6  C    0.000021   0.000233  -0.001168  -0.018016  -0.030493   0.010580
     7  C    0.000439   0.000469   0.001680   0.000147   0.000015   0.000013
     8  C   -0.054331  -0.024756  -0.066288  -0.000072  -0.000004   0.000003
     9  C   -0.000906  -0.009402  -0.008720   0.006485   0.003482  -0.002163
    10  H    0.000007   0.000892   0.002556   0.002087  -0.000155   0.000156
    11  H    0.000537  -0.001651  -0.006069   0.000279  -0.000031  -0.000115
    12  C   -0.000199  -0.003210   0.006907  -0.247892   0.063859  -0.012582
    13  C   -0.000010  -0.000109   0.000619   0.290355  -0.093604  -0.021951
    14  C    0.000070  -0.000253   0.000081  -0.000019   0.000001  -0.000001
    15  H   -0.000005  -0.000005  -0.000016   0.000002   0.000000   0.000000
    16  H   -0.000027  -0.000007   0.000002   0.000000   0.000000   0.000000
    17  H    0.000034   0.000020  -0.000039  -0.000000   0.000000  -0.000000
    18  C    0.392171   0.399127   0.380002   0.000030   0.000002  -0.000002
    19  H    0.507610  -0.009794  -0.022581  -0.000000   0.000000   0.000000
    20  H   -0.009794   0.494306  -0.025157  -0.000013  -0.000000   0.000000
    21  H   -0.022581  -0.025157   0.537092   0.000020  -0.000000  -0.000000
    22  C   -0.000000  -0.000013   0.000020   5.410498   0.399032   0.401937
    23  H    0.000000  -0.000000  -0.000000   0.399032   0.537859  -0.026029
    24  H    0.000000   0.000000  -0.000000   0.401937  -0.026029   0.488995
    25  H   -0.000000   0.000000  -0.000000   0.383119  -0.022263  -0.008396
    26  C    0.000000   0.000004  -0.000016  -0.029956   0.016166  -0.012821
    27  H   -0.000000   0.000000  -0.000000   0.007345  -0.009140  -0.000544
    28  H    0.000000  -0.000000  -0.000000  -0.011262  -0.001421   0.001005
    29  H    0.000000  -0.000000   0.000000   0.001931   0.000673   0.000181
              25         26         27         28         29
     1  O    0.006995   0.000880  -0.000243  -0.000051   0.000024
     2  O    0.000000   0.000006  -0.000000  -0.000000  -0.000000
     3  N    0.000029  -0.027804   0.002270  -0.002507   0.001201
     4  H   -0.000002  -0.006326   0.000825   0.000463   0.001289
     5  C   -0.000148  -0.000003   0.000063   0.000394  -0.000454
     6  C   -0.001069   0.184447  -0.046183  -0.033493  -0.048552
     7  C    0.000004   0.002709  -0.000779  -0.000860   0.003495
     8  C    0.000004   0.000599   0.000004  -0.000012  -0.000007
     9  C    0.000176   0.021324  -0.000635  -0.000309  -0.000533
    10  H   -0.000059  -0.000743  -0.000090  -0.000020   0.000094
    11  H   -0.000107   0.000055   0.000006   0.000047  -0.000011
    12  C    0.023458  -0.081353  -0.007382  -0.018883   0.023195
    13  C   -0.040242  -0.056079  -0.004510   0.006653  -0.000652
    14  C    0.000000   0.001167   0.000083  -0.000116  -0.000211
    15  H    0.000000   0.000112  -0.000011   0.000000   0.000118
    16  H   -0.000000  -0.000147   0.000001  -0.000009   0.000001
    17  H    0.000000   0.000047  -0.000002   0.000004  -0.000003
    18  C   -0.000001   0.000019  -0.000000  -0.000001   0.000000
    19  H   -0.000000   0.000000  -0.000000   0.000000   0.000000
    20  H    0.000000   0.000004   0.000000  -0.000000  -0.000000
    21  H   -0.000000  -0.000016  -0.000000  -0.000000   0.000000
    22  C    0.383119  -0.029956   0.007345  -0.011262   0.001931
    23  H   -0.022263   0.016166  -0.009140  -0.001421   0.000673
    24  H   -0.008396  -0.012821  -0.000544   0.001005   0.000181
    25  H    0.497354   0.001987   0.000751   0.000114  -0.000041
    26  C    0.001987   5.250747   0.428761   0.428450   0.389221
    27  H    0.000751   0.428761   0.506957  -0.026055  -0.025666
    28  H    0.000114   0.428450  -0.026055   0.475895  -0.017067
    29  H   -0.000041   0.389221  -0.025666  -0.017067   0.513567
 Mulliken charges:
               1
     1  O   -0.378584
     2  O   -0.385800
     3  N   -0.224993
     4  H    0.287919
     5  C   -0.087106
     6  C    0.280802
     7  C    0.186099
     8  C    0.161686
     9  C   -0.286280
    10  H    0.157035
    11  H    0.163717
    12  C   -0.142049
    13  C    0.162745
    14  C   -0.396610
    15  H    0.131985
    16  H    0.164492
    17  H    0.162815
    18  C   -0.461371
    19  H    0.151830
    20  H    0.175570
    21  H    0.153550
    22  C   -0.494085
    23  H    0.157828
    24  H    0.180503
    25  H    0.158335
    26  C   -0.511453
    27  H    0.174176
    28  H    0.199040
    29  H    0.158203
 Sum of Mulliken charges =  -0.00000
 Mulliken charges with hydrogens summed into heavy atoms:
               1
     1  O   -0.378584
     2  O   -0.385800
     3  N    0.062927
     5  C   -0.087106
     6  C    0.280802
     7  C    0.186099
     8  C    0.161686
     9  C    0.034473
    12  C   -0.142049
    13  C    0.162745
    14  C    0.062682
    18  C    0.019580
    22  C    0.002580
    26  C    0.019966
 Electronic spatial extent (au):  <R**2>=           3190.5740
 Charge=              0.0000 electrons
 Dipole moment (field-independent basis, Debye):
    X=             -4.1147    Y=              7.7772    Z=             -0.2004  Tot=              8.8009
 Quadrupole moment (field-independent basis, Debye-Ang):
   XX=            -98.4021   YY=            -78.1285   ZZ=            -84.9185
   XY=            -12.8947   XZ=             -5.2567   YZ=             -1.8970
 Traceless Quadrupole moment (field-independent basis, Debye-Ang):
   XX=            -11.2524   YY=              9.0212   ZZ=              2.2312
   XY=            -12.8947   XZ=             -5.2567   YZ=             -1.8970
 Octapole moment (field-independent basis, Debye-Ang**2):
  XXX=           -111.9734  YYY=             66.9877  ZZZ=              1.7506  XYY=             35.3348
  XXY=             32.8025  XXZ=             -8.8914  XZZ=             -1.9999  YZZ=             -0.9515
  YYZ=              3.7301  XYZ=              5.3138
 Hexadecapole moment (field-independent basis, Debye-Ang**3):
 XXXX=          -3045.1719 YYYY=          -1275.7889 ZZZZ=           -151.5118 XXXY=            -39.3473
 XXXZ=            -60.5664 YYYX=            -90.6400 YYYZ=            -21.9364 ZZZX=              2.8152
 ZZZY=              4.3181 XXYY=           -690.5333 XXZZ=           -483.4089 YYZZ=           -243.0195
 XXYZ=             -7.5519 YYXZ=             -8.0289 ZZXY=              0.5682
 N-N= 9.005953062037D+02 E-N=-3.277252141693D+03  KE= 6.307295370446D+02
 Leave Link  601 at Sat Jan 24 16:21:15 2026, MaxMem=  2147483648 cpu:               0.7 elap:               0.1
 (Enter /data/home/wyx/g16/l9999.exe)
 Electronic transition elements 
                 1             2             3             4             5 
      1  -0.633213D+03 -0.633182D+03 -0.633176D+03 -0.633149D+03 -0.633132D+03
      2  -0.164205D+01 -0.801428D-01  0.858736D-01  0.487388D+00  0.415536D+00
      3  -0.379256D+00 -0.537313D-01 -0.146385D+00 -0.192736D+01 -0.138732D+01
      4  -0.383481D+00 -0.584985D-01 -0.165715D-01 -0.303212D-02  0.853587D-01
      5   0.184156D+00  0.118877D-01 -0.117982D-01 -0.801299D-01 -0.813763D-01
      6   0.460676D-01  0.807878D-02  0.209640D-01  0.337619D+00  0.271588D+00
      7   0.438752D-01  0.553841D-02 -0.668798D-03 -0.189259D-02 -0.154513D-01
      8   0.342063D+00 -0.731575D+00  0.444910D+00 -0.122897D+00 -0.240665D+00
      9  -0.165634D-01 -0.152344D+00 -0.871401D+00  0.885004D-01  0.438637D-01
     10  -0.140845D+01 -0.422613D+00  0.303187D+00  0.931265D-01  0.222678D+00
     11   0.194011D+00  0.275446D-01 -0.695170D-01 -0.118987D+01 -0.407451D+00
     12  -0.268782D+00 -0.347385D-01  0.454177D-01  0.192750D+00  0.320383D+00
     13  -0.551333D-02  0.871603D-02 -0.473028D-02 -0.826014D-01  0.585550D-02
     14  -0.491410D+00 -0.948143D-02  0.363387D-01 -0.442155D+00 -0.227994D-01
     15  -0.180443D-02  0.232417D-01  0.508361D-01 -0.339611D+00 -0.137694D+00
     16  -0.128809D+00 -0.896386D-01  0.391113D-01 -0.818707D-01 -0.575815D-01
                 6 
      1  -0.633112D+03
      2  -0.549160D-01
      3   0.264355D+00
      4  -0.612438D-01
      5   0.607988D-02
      6  -0.544338D-01
      7   0.325088D-01
      8  -0.102773D+00
      9  -0.703254D-02
     10   0.223177D-01
     11  -0.281204D+00
     12  -0.223800D+00
     13   0.179541D+00
     14   0.281141D-01
     15  -0.855302D-01
     16  -0.143223D+00
 1\1\GINC-CN012\SP\RCAM-B3LYP TD-FC\TZVP\C11H15N1O2\WYX\24-Jan-2026\0\\
 #p CAM-B3LYP TZVP em=gd3bj td(Eqsolv,nstates=6,root=1) scrf=(Solvent=W
 ater) Geom=Check Guess=Read\\Title Card Required\\0,1\O,0,2.734014,-1.
 5589,0.793923\O,0,-3.259804,-1.649664,-1.022918\N,0,-0.698803,1.514889
 ,0.048595\H,0,-1.007133,2.47372,-0.013227\C,0,-1.250234,-0.760451,-0.1
 61152\C,0,0.642107,1.314882,0.24953\C,0,-1.62307,0.557362,-0.253139\C,
 0,-2.157038,-1.841258,-0.513425\C,0,0.106747,-1.095213,0.369667\H,0,0.
 025487,-1.465938,1.402961\H,0,0.530347,-1.9433,-0.169918\C,0,1.098267,
 0.025718,0.34027\C,0,2.48697,-0.39262,0.480434\C,0,-2.956238,1.091804,
 -0.645477\H,0,-3.028011,2.156977,-0.438305\H,0,-3.139188,0.940961,-1.7
 05527\H,0,-3.755054,0.580038,-0.122441\C,0,-1.714567,-3.255362,-0.2520
 65\H,0,-2.563296,-3.924083,-0.337708\H,0,-0.968567,-3.561565,-0.983194
 \H,0,-1.263597,-3.376512,0.728249\C,0,3.648083,0.532705,0.213092\H,0,3
 .456938,1.239105,-0.590126\H,0,3.898485,1.098535,1.112426\H,0,4.508692
 ,-0.081325,-0.042984\C,0,1.416357,2.588057,0.357753\H,0,2.21049,2.5202
 51,1.091003\H,0,1.860168,2.8679,-0.597243\H,0,0.761446,3.403289,0.6609
 45\\Version=ES64L-G16RevA.03\State=1-A\HF=-633.3305868\RMSD=2.617e-09\
 PG=C01 [X(C11H15N1O2)]\\@


 ONE BIG VICE IN A MAN IS APT TO KEEP OUT MANY SMALLER ONES.

                           -- BRET HARTE
 Job cpu time:       0 days  0 hours 35 minutes 47.4 seconds.
 Elapsed time:       0 days  0 hours  2 minutes 15.1 seconds.
 File lengths (MBytes):  RWF=    734 Int=      0 D2E=      0 Chk=     67 Scr=      1
 Normal termination of Gaussian 16 at Sat Jan 24 16:21:17 2026.
