 Entering Gaussian System, Link 0=g16
 Input=DDL-S2-cLR-gs-12.gjf
 Output=DDL-S2-cLR-gs-12.log
 Initial command:
 /data/home/wyx/g16/l1.exe "/scr/tmp/wyx/13117/Gau-2035205.inp" -scrdir="/scr/tmp/wyx/13117/"
 Entering Link 1 = /data/home/wyx/g16/l1.exe PID=   2035206.
  
 Copyright (c) 1988,1990,1992,1993,1995,1998,2003,2009,2016,
            Gaussian, Inc.  All Rights Reserved.
  
 This is part of the Gaussian(R) 16 program.  It is based on
 the Gaussian(R) 09 system (copyright 2009, Gaussian, Inc.),
 the Gaussian(R) 03 system (copyright 2003, Gaussian, Inc.),
 the Gaussian(R) 98 system (copyright 1998, Gaussian, Inc.),
 the Gaussian(R) 94 system (copyright 1995, Gaussian, Inc.),
 the Gaussian 92(TM) system (copyright 1992, Gaussian, Inc.),
 the Gaussian 90(TM) system (copyright 1990, Gaussian, Inc.),
 the Gaussian 88(TM) system (copyright 1988, Gaussian, Inc.),
 the Gaussian 86(TM) system (copyright 1986, Carnegie Mellon
 University), and the Gaussian 82(TM) system (copyright 1983,
 Carnegie Mellon University). Gaussian is a federally registered
 trademark of Gaussian, Inc.
  
 This software contains proprietary and confidential information,
 including trade secrets, belonging to Gaussian, Inc.
  
 This software is provided under written license and may be
 used, copied, transmitted, or stored only in accord with that
 written license.
  
 The following legend is applicable only to US Government
 contracts under FAR:
  
                    RESTRICTED RIGHTS LEGEND
  
 Use, reproduction and disclosure by the US Government is
 subject to restrictions as set forth in subparagraphs (a)
 and (c) of the Commercial Computer Software - Restricted
 Rights clause in FAR 52.227-19.
  
 Gaussian, Inc.
 340 Quinnipiac St., Bldg. 40, Wallingford CT 06492
  
  
 ---------------------------------------------------------------
 Warning -- This program may not be used in any manner that
 competes with the business of Gaussian, Inc. or will provide
 assistance to any competitor of Gaussian, Inc.  The licensee
 of this program is prohibited from giving any competitor of
 Gaussian, Inc. access to this program.  By using this program,
 the user acknowledges that Gaussian, Inc. is engaged in the
 business of creating and licensing software in the field of
 computational chemistry and represents and warrants to the
 licensee that it is not a competitor of Gaussian, Inc. and that
 it will not use this program in any manner prohibited above.
 ---------------------------------------------------------------
  

 Cite this work as:
 Gaussian 16, Revision A.03,
 M. J. Frisch, G. W. Trucks, H. B. Schlegel, G. E. Scuseria, 
 M. A. Robb, J. R. Cheeseman, G. Scalmani, V. Barone, 
 G. A. Petersson, H. Nakatsuji, X. Li, M. Caricato, A. V. Marenich, 
 J. Bloino, B. G. Janesko, R. Gomperts, B. Mennucci, H. P. Hratchian, 
 J. V. Ortiz, A. F. Izmaylov, J. L. Sonnenberg, D. Williams-Young, 
 F. Ding, F. Lipparini, F. Egidi, J. Goings, B. Peng, A. Petrone, 
 T. Henderson, D. Ranasinghe, V. G. Zakrzewski, J. Gao, N. Rega, 
 G. Zheng, W. Liang, M. Hada, M. Ehara, K. Toyota, R. Fukuda, 
 J. Hasegawa, M. Ishida, T. Nakajima, Y. Honda, O. Kitao, H. Nakai, 
 T. Vreven, K. Throssell, J. A. Montgomery, Jr., J. E. Peralta, 
 F. Ogliaro, M. J. Bearpark, J. J. Heyd, E. N. Brothers, K. N. Kudin, 
 V. N. Staroverov, T. A. Keith, R. Kobayashi, J. Normand, 
 K. Raghavachari, A. P. Rendell, J. C. Burant, S. S. Iyengar, 
 J. Tomasi, M. Cossi, J. M. Millam, M. Klene, C. Adamo, R. Cammi, 
 J. W. Ochterski, R. L. Martin, K. Morokuma, O. Farkas, 
 J. B. Foresman, and D. J. Fox, Gaussian, Inc., Wallingford CT, 2016.
 
 ******************************************
 Gaussian 16:  ES64L-G16RevA.03 25-Dec-2016
                24-Jan-2026 
 ******************************************
 %nprocshared=16
 Will use up to   16 processors via shared memory.
 %mem=16GB
 %oldchk=DDL-S2-cLR-12.chk
 %chk=DDL-S2-cLR-gs-12.chk
 Copying data from "DDL-S2-cLR-12.chk" to current chk file "DDL-S2-cLR-gs-12.chk"
 IOpt=  2 FromEx=T IUOpen= 4 IOptOp= 5 NList=   0 IFRang= 0 IUIn= 4 IUOut= 2.
 ----------------------------------------------------------------------
 #p CAM-B3LYP TZVP em=gd3bj scrf=(Solvent=Water,NonEquilibrium=Read) Ge
 om=Check Guess=Read
 ----------------------------------------------------------------------
 1/29=2,38=1,172=1/1;
 2/12=2,40=1/2;
 3/5=19,7=101,11=2,14=-4,25=1,30=1,70=6002201,72=1,74=-40,116=-2,124=41/1,2,3;
 4/5=1/1;
 5/5=2,38=6,53=1/2;
 6/7=2,8=2,9=2,10=2,28=1/1;
 99/5=1,9=1/99;
 Leave Link    1 at Sat Jan 24 23:08:41 2026, MaxMem=  2147483648 cpu:               0.9 elap:               0.1
 (Enter /data/home/wyx/g16/l101.exe)
 -------------------
 Title Card Required
 -------------------
 Structure from the checkpoint file:  "DDL-S2-cLR-gs-12.chk"
 Charge =  0 Multiplicity = 1
 Z-Matrix found in chk file.
 O,0,2.739089,-1.55862,0.771511
 O,0,-3.245355,-1.645769,-1.059826
 N,0,-0.703705,1.514226,0.080834
 H,0,-1.011972,2.472492,0.020982
 C,0,-1.249387,-0.759555,-0.157148
 C,0,0.641581,1.308914,0.263892
 C,0,-1.621687,0.551929,-0.241609
 C,0,-2.154488,-1.838532,-0.528575
 C,0,0.10247,-1.099823,0.397526
 H,0,0.008954,-1.449804,1.435936
 H,0,0.527941,-1.953591,-0.129178
 C,0,1.096136,0.025281,0.348733
 C,0,2.489041,-0.391686,0.469907
 C,0,-2.950424,1.088404,-0.650903
 H,0,-3.033347,2.146532,-0.412091
 H,0,-3.102525,0.969311,-1.720644
 H,0,-3.757771,0.553276,-0.16516
 C,0,-1.718625,-3.25257,-0.252146
 H,0,-2.561654,-3.923218,-0.376604
 H,0,-0.937936,-3.552174,-0.94991
 H,0,-1.310311,-3.369913,0.74819
 C,0,3.647592,0.535486,0.197444
 H,0,3.453072,1.238051,-0.60837
 H,0,3.89654,1.105737,1.094232
 H,0,4.509567,-0.077312,-0.056519
 C,0,1.417259,2.583987,0.353938
 H,0,2.231353,2.519066,1.064883
 H,0,1.831768,2.863832,-0.614382
 H,0,0.766824,3.396041,0.675055
 Recover connectivity data from disk.
 ITRead=  0  0  0  0  0  0  0  0  0  0  0  0  0  0  0  0  0  0  0  0
 ITRead=  0  0  0  0  0  0  0  0  0
 MicOpt= -1 -1 -1 -1 -1 -1 -1 -1 -1 -1 -1 -1 -1 -1 -1 -1 -1 -1 -1 -1
 MicOpt= -1 -1 -1 -1 -1 -1 -1 -1 -1
 NAtoms=     29 NQM=       29 NQMF=       0 NMMI=      0 NMMIF=      0
                NMic=       0 NMicF=      0.
                    Isotopes and Nuclear Properties:
 (Nuclear quadrupole moments (NQMom) in fm**2, nuclear magnetic moments (NMagM)
  in nuclear magnetons)

  Atom         1           2           3           4           5           6           7           8           9          10
 IAtWgt=          16          16          14           1          12          12          12          12          12           1
 AtmWgt=  15.9949146  15.9949146  14.0030740   1.0078250  12.0000000  12.0000000  12.0000000  12.0000000  12.0000000   1.0078250
 NucSpn=           0           0           2           1           0           0           0           0           0           1
 AtZEff=   5.6000000   5.6000000   4.5500000   1.0000000   3.6000000   3.6000000   3.6000000   3.6000000   3.6000000   1.0000000
 NQMom=    0.0000000   0.0000000   2.0440000   0.0000000   0.0000000   0.0000000   0.0000000   0.0000000   0.0000000   0.0000000
 NMagM=    0.0000000   0.0000000   0.4037610   2.7928460   0.0000000   0.0000000   0.0000000   0.0000000   0.0000000   2.7928460
 AtZNuc=   8.0000000   8.0000000   7.0000000   1.0000000   6.0000000   6.0000000   6.0000000   6.0000000   6.0000000   1.0000000

  Atom        11          12          13          14          15          16          17          18          19          20
 IAtWgt=           1          12          12          12           1           1           1          12           1           1
 AtmWgt=   1.0078250  12.0000000  12.0000000  12.0000000   1.0078250   1.0078250   1.0078250  12.0000000   1.0078250   1.0078250
 NucSpn=           1           0           0           0           1           1           1           0           1           1
 AtZEff=   1.0000000   3.6000000   3.6000000   3.6000000   1.0000000   1.0000000   1.0000000   3.6000000   1.0000000   1.0000000
 NQMom=    0.0000000   0.0000000   0.0000000   0.0000000   0.0000000   0.0000000   0.0000000   0.0000000   0.0000000   0.0000000
 NMagM=    2.7928460   0.0000000   0.0000000   0.0000000   2.7928460   2.7928460   2.7928460   0.0000000   2.7928460   2.7928460
 AtZNuc=   1.0000000   6.0000000   6.0000000   6.0000000   1.0000000   1.0000000   1.0000000   6.0000000   1.0000000   1.0000000

  Atom        21          22          23          24          25          26          27          28          29
 IAtWgt=           1          12           1           1           1          12           1           1           1
 AtmWgt=   1.0078250  12.0000000   1.0078250   1.0078250   1.0078250  12.0000000   1.0078250   1.0078250   1.0078250
 NucSpn=           1           0           1           1           1           0           1           1           1
 AtZEff=   1.0000000   3.6000000   1.0000000   1.0000000   1.0000000   3.6000000   1.0000000   1.0000000   1.0000000
 NQMom=    0.0000000   0.0000000   0.0000000   0.0000000   0.0000000   0.0000000   0.0000000   0.0000000   0.0000000
 NMagM=    2.7928460   0.0000000   2.7928460   2.7928460   2.7928460   0.0000000   2.7928460   2.7928460   2.7928460
 AtZNuc=   1.0000000   6.0000000   1.0000000   1.0000000   1.0000000   6.0000000   1.0000000   1.0000000   1.0000000
 Leave Link  101 at Sat Jan 24 23:08:44 2026, MaxMem=  2147483648 cpu:               0.9 elap:               0.1
 (Enter /data/home/wyx/g16/l202.exe)
                          Input orientation:                          
 ---------------------------------------------------------------------
 Center     Atomic      Atomic             Coordinates (Angstroms)
 Number     Number       Type             X           Y           Z
 ---------------------------------------------------------------------
      1          8           0        2.739089   -1.558620    0.771511
      2          8           0       -3.245355   -1.645769   -1.059826
      3          7           0       -0.703705    1.514226    0.080834
      4          1           0       -1.011972    2.472492    0.020982
      5          6           0       -1.249387   -0.759555   -0.157148
      6          6           0        0.641581    1.308914    0.263892
      7          6           0       -1.621687    0.551929   -0.241609
      8          6           0       -2.154488   -1.838532   -0.528575
      9          6           0        0.102470   -1.099823    0.397526
     10          1           0        0.008954   -1.449804    1.435936
     11          1           0        0.527941   -1.953591   -0.129178
     12          6           0        1.096136    0.025281    0.348733
     13          6           0        2.489041   -0.391686    0.469907
     14          6           0       -2.950424    1.088404   -0.650903
     15          1           0       -3.033347    2.146532   -0.412091
     16          1           0       -3.102525    0.969311   -1.720644
     17          1           0       -3.757771    0.553276   -0.165160
     18          6           0       -1.718625   -3.252570   -0.252146
     19          1           0       -2.561654   -3.923218   -0.376604
     20          1           0       -0.937936   -3.552174   -0.949910
     21          1           0       -1.310311   -3.369913    0.748190
     22          6           0        3.647592    0.535486    0.197444
     23          1           0        3.453072    1.238051   -0.608370
     24          1           0        3.896540    1.105737    1.094232
     25          1           0        4.509567   -0.077312   -0.056519
     26          6           0        1.417259    2.583987    0.353938
     27          1           0        2.231353    2.519066    1.064883
     28          1           0        1.831768    2.863832   -0.614382
     29          1           0        0.766824    3.396041    0.675055
 ---------------------------------------------------------------------
                    Distance matrix (angstroms):
                    1          2          3          4          5
     1  O    0.000000
     2  O    6.258990   0.000000
     3  N    4.666074   4.212678   0.000000
     4  H    5.557303   4.807933   1.008407   0.000000
     5  C    4.172392   2.363068   2.350422   3.245647   0.000000
     6  C    3.588867   5.058720   1.373120   2.036457   2.834008
     7  C    4.949464   2.852307   1.368458   2.032060   1.365918
     8  C    5.071062   1.228567   3.703665   4.493582   1.456488
     9  C    2.702243   3.691865   2.753809   3.761011   1.500321
    10  H    2.811928   4.105820   3.336114   4.292877   2.144244
    11  H    2.420004   3.898541   3.686029   4.688720   2.141355
    12  C    2.320943   4.860555   2.351203   3.246595   2.524552
    13  C    1.230944   6.065979   3.738650   4.545563   3.808460
    14  C    6.434326   2.780271   2.400939   2.474818   2.559741
    15  H    6.960609   3.853058   2.463741   2.092787   3.419481
    16  H    6.835622   2.701060   3.049031   3.108573   2.977855
    17  H    6.895408   2.428744   3.211115   3.355213   2.831180
    18  C    4.877351   2.359038   4.885006   5.774971   2.538569
    19  H    5.916702   2.474068   5.764288   6.592776   3.432050
    20  H    4.523059   2.995103   5.175491   6.102845   2.919622
    21  H    4.436098   3.160062   4.966704   5.895043   2.763570
    22  C    2.353765   7.338346   4.461537   5.049224   5.077723
    23  H    3.199252   7.306788   4.222567   4.675099   5.129050
    24  H    2.922779   7.950938   4.728223   5.207050   5.614787
    25  H    2.452448   7.975305   5.452528   6.082343   5.800098
    26  C    4.368386   6.452095   2.391122   2.454476   4.307143
    27  H    4.119634   7.201012   3.254631   3.407500   4.935409
    28  H    4.722501   6.805299   2.955230   2.940016   4.778233
    29  H    5.333648   6.672873   2.461053   2.108286   4.693255
                    6          7          8          9         10
     6  C    0.000000
     7  C    2.439455   0.000000
     8  C    4.283973   2.465873   0.000000
     9  C    2.471945   2.471739   2.548963   0.000000
    10  H    3.063402   3.078974   2.948032   1.099785   0.000000
    11  H    3.288063   3.303206   2.714440   1.089662   1.724161
    12  C    1.364380   2.830622   3.848379   1.501869   2.130693
    13  C    2.519443   4.277236   4.965148   2.490465   2.864203
    14  C    3.713216   1.490258   3.035693   3.899705   4.422139
    15  H    3.829315   2.136494   4.082487   4.585591   5.060082
    16  H    4.251123   2.134159   3.194336   4.363479   5.049497
    17  H    4.484347   2.137452   2.902298   4.236840   4.556759
    18  C    5.161783   3.805748   1.505288   2.893576   3.013987
    19  H    6.168157   4.574790   2.129506   3.958332   4.001388
    20  H    5.253415   4.220529   2.143383   2.985306   3.317954
    21  H    5.092725   4.056785   2.165154   2.696706   2.429048
    22  C    3.104627   5.287565   6.310879   3.909240   4.326075
    23  H    2.944545   5.134049   6.396597   4.207614   4.823453
    24  H    3.365339   5.704560   6.922222   4.443519   4.664855
    25  H    4.121359   6.166237   6.909006   4.546888   4.936261
    26  C    1.495191   3.703934   5.752815   3.911653   4.407438
    27  H    2.152540   4.519122   6.384620   4.251337   4.563843
    28  H    2.146085   4.172554   6.165211   4.441283   5.112134
    29  H    2.130925   3.825471   6.114208   4.553151   4.963418
                   11         12         13         14         15
    11  H    0.000000
    12  C    2.113570   0.000000
    13  C    2.577666   1.459016   0.000000
    14  C    4.650264   4.301645   5.747579   0.000000
    15  H    5.438182   4.704380   6.141436   1.087907   0.000000
    16  H    4.925079   4.775172   6.157632   1.087044   1.761518
    17  H    4.965179   4.909509   6.349718   1.083567   1.767549
    18  C    2.597985   4.362137   5.139112   4.529944   5.559171
    19  H    3.672363   5.431039   6.220757   5.034157   6.088154
    20  H    2.319022   4.315334   4.873267   5.066999   6.095510
    21  H    2.480910   4.180657   4.835530   4.952173   5.894597
    22  C    4.004299   2.606362   1.508683   6.675270   6.899417
    23  H    4.355754   2.818156   2.179009   6.405386   6.552671
    24  H    4.712078   3.092801   2.147815   7.065884   7.167677
    25  H    4.402164   3.438934   2.111511   7.573880   7.871942
    26  C    4.649075   2.578783   3.164932   4.724736   4.537186
    27  H    4.932753   2.832058   2.982093   5.642830   5.480630
    28  H    5.014275   3.086441   3.493721   5.101259   4.921868
    29  H    5.415018   3.402493   4.165932   4.571792   4.145414
                   16         17         18         19         20
    16  H    0.000000
    17  H    1.738379   0.000000
    18  C    4.679310   4.318582   0.000000
    19  H    5.102531   4.638362   1.084415   0.000000
    20  H    5.071815   5.042026   1.089088   1.761481   0.000000
    21  H    5.304341   4.713351   1.086813   1.771205   1.747978
    22  C    7.030743   7.414256   6.583903   7.665788   6.249196
    23  H    6.654715   7.256832   6.858500   7.929019   6.507216
    24  H    7.545134   7.776873   7.234477   8.316370   7.017607
    25  H    7.861849   8.292064   6.993633   8.055781   6.522891
    26  C    5.228720   5.583385   6.653308   7.662190   6.700704
    27  H    6.213788   6.422378   7.116788   8.158053   7.138889
    28  H    5.400025   6.064933   7.081446   8.088433   6.996354
    29  H    5.157543   5.409181   7.158295   8.109026   7.336512
                   21         22         23         24         25
    21  H    0.000000
    22  C    6.335319   0.000000
    23  H    6.764865   1.086633   0.000000
    24  H    6.874772   1.091508   1.764376   0.000000
    25  H    6.734965   1.087667   1.775078   1.760578   0.000000
    26  C    6.560792   3.032364   2.623379   2.979948   4.100409
    27  H    6.879226   2.587039   2.435851   2.184309   3.631664
    28  H    7.112583   3.062266   2.296046   3.205237   4.016484
    29  H    7.077992   4.087751   3.676959   3.900811   5.158246
                   26         27         28         29
    26  C    0.000000
    27  H    1.082777   0.000000
    28  H    1.089851   1.760245   0.000000
    29  H    1.088859   1.750970   1.754993   0.000000
 Stoichiometry    C11H15NO2
 Framework group  C1[X(C11H15NO2)]
 Deg. of freedom    81
 Full point group                 C1      NOp   1
 RotChk:  IX=0 Diff= 1.07D-15
 Largest Abelian subgroup         C1      NOp   1
 Largest concise Abelian subgroup C1      NOp   1
                         Standard orientation:                         
 ---------------------------------------------------------------------
 Center     Atomic      Atomic             Coordinates (Angstroms)
 Number     Number       Type             X           Y           Z
 ---------------------------------------------------------------------
      1          8           0       -2.287139   -2.281933   -0.203336
      2          8           0        3.599485   -0.249892    0.423906
      3          7           0       -0.025806    1.799557   -0.211459
      4          1           0       -0.055336    2.807516   -0.217003
      5          6           0        1.292247   -0.141742   -0.075141
      6          6           0       -1.231138    1.147214   -0.127305
      7          6           0        1.206526    1.221476   -0.070541
      8          6           0        2.561191   -0.830428    0.116823
      9          6           0        0.058832   -0.949279   -0.353589
     10          1           0        0.074412   -1.320303   -1.388783
     11          1           0        0.051746   -1.856693    0.249663
     12          6           0       -1.230843   -0.217121   -0.116325
     13          6           0       -2.397063   -1.080037    0.038711
     14          6           0        2.325553    2.195729    0.069024
     15          1           0        1.999714    3.201923   -0.185820
     16          1           0        2.701429    2.209167    1.088926
     17          1           0        3.163515    1.926128   -0.562839
     18          6           0        2.588011   -2.324672   -0.063196
     19          1           0        3.616159   -2.667138   -0.103025
     20          1           0        2.096379   -2.816627    0.774891
     21          1           0        2.068510   -2.640679   -0.963985
     22          6           0       -3.730995   -0.573106    0.528375
     23          1           0       -3.642733    0.208868    1.277707
     24          1           0       -4.317693   -0.182128   -0.304878
     25          1           0       -4.272391   -1.417784    0.948412
     26          6           0       -2.395810    2.083048   -0.069419
     27          1           0       -3.254797    1.702011   -0.607340
     28          1           0       -2.696636    2.276672    0.960041
     29          1           0       -2.129461    3.040277   -0.514822
 ---------------------------------------------------------------------
 Rotational constants (GHZ):           1.0786643           0.4907898           0.3461667
 Leave Link  202 at Sat Jan 24 23:08:44 2026, MaxMem=  2147483648 cpu:               0.0 elap:               0.0
 (Enter /data/home/wyx/g16/l301.exe)
 Standard basis: TZVP (5D, 7F)
 Ernie: Thresh=  0.10000D-02 Tol=  0.10000D-05 Strict=F.
 There are   370 symmetry adapted cartesian basis functions of A   symmetry.
 There are   356 symmetry adapted basis functions of A   symmetry.
   356 basis functions,   610 primitive gaussians,   370 cartesian basis functions
    52 alpha electrons       52 beta electrons
       nuclear repulsion energy       900.7854429471 Hartrees.
 IExCor=20419 DFT=T Ex+Corr=CAM-B3LYP ExCW=0 ScaHFX=  1.000000
 ScaDFX=  1.000000  1.000000  1.000000  0.810000 ScalE2=  1.000000  1.000000
 IRadAn=      5 IRanWt=     -1 IRanGd=            0 ICorTp=0 IEmpDi=141
 HFx  wShort=  0.000000 wLong=  0.330000 cFull=  0.190000 cShort=  0.000000 cLong=  0.460000
 DFx  wShort=  0.000000 wLong=  0.330000 cFull=  0.190000 cShort=  0.000000 cLong=  0.460000
 NAtoms=   29 NActive=   29 NUniq=   29 SFac= 1.00D+00 NAtFMM=   60 NAOKFM=F Big=F
 Integral buffers will be    131072 words long.
 Raffenetti 2 integral format.
 Two-electron integral symmetry is turned on.
 R6Disp:  Grimme-D3(BJ) Dispersion energy=       -0.0262018423 Hartrees.
 Nuclear repulsion after empirical dispersion term =      900.7592411048 Hartrees.
 ------------------------------------------------------------------------------
 Polarizable Continuum Model (PCM)
 =================================
 Model                : PCM.
 Atomic radii         : UFF (Universal Force Field).
 Polarization charges : Total charges.
 Charge compensation  : None.
 Solution method      : On-the-fly selection.
 Cavity type          : Scaled VdW (van der Waals Surface) (Alpha=1.100).
 Cavity algorithm     : GePol (No added spheres)
                        Default sphere list used, NSphG=   29.
                        Lebedev-Laikov grids with approx.  5.0 points / Ang**2.
                        Smoothing algorithm: York/Karplus (Gamma=1.0000).
                        Polarization charges: spherical gaussians, with
                                              point-specific exponents (IZeta= 3).
                        Self-potential: point-specific (ISelfS= 7).
                        Self-field    : sphere-specific E.n sum rule (ISelfD= 2).
 Solvent              : Water, Eps=  78.355300 Eps(inf)=   1.777849
 ------------------------------------------------------------------------------
 GePol: Number of generator spheres                  =      29
 GePol: Total number of spheres                      =      29
 GePol: Number of exposed spheres                    =      29 (100.00%)
 GePol: Number of points                             =    2111
 GePol: Average weight of points                     =       0.13
 GePol: Minimum weight of points                     =   0.25D-11
 GePol: Maximum weight of points                     =    0.20577
 GePol: Number of points with low weight             =     158
 GePol: Fraction of low-weight points (<1% of avg)   =       7.48%
 GePol: Cavity surface area                          =    268.533 Ang**2
 GePol: Cavity volume                                =    286.631 Ang**3
 Leave Link  301 at Sat Jan 24 23:08:44 2026, MaxMem=  2147483648 cpu:               0.6 elap:               0.0
 (Enter /data/home/wyx/g16/l302.exe)
 NPDir=0 NMtPBC=     1 NCelOv=     1 NCel=       1 NClECP=     1 NCelD=      1
         NCelK=      1 NCelE2=     1 NClLst=     1 CellRange=     0.0.
 One-electron integrals computed using PRISM.
 One-electron integral symmetry used in STVInt
 NBasis=   356 RedAO= T EigKep=  4.69D-05  NBF=   356
 NBsUse=   356 1.00D-06 EigRej= -1.00D+00 NBFU=   356
 Precomputing XC quadrature grid using
 IXCGrd= 4 IRadAn=           5 IRanWt=          -1 IRanGd=           0 AccXCQ= 0.00D+00.
 Generated NRdTot=       0 NPtTot=           0 NUsed=           0 NTot=          32
 NSgBfM=   366   366   366   366   366 MxSgAt=    29 MxSgA2=    29.
 Leave Link  302 at Sat Jan 24 23:08:44 2026, MaxMem=  2147483648 cpu:               3.3 elap:               0.2
 (Enter /data/home/wyx/g16/l303.exe)
 DipDrv:  MaxL=1.
 Leave Link  303 at Sat Jan 24 23:08:45 2026, MaxMem=  2147483648 cpu:               0.6 elap:               0.0
 (Enter /data/home/wyx/g16/l401.exe)
 Initial guess from the checkpoint file:  "DDL-S2-cLR-gs-12.chk"
 B after Tr=     0.000000   -0.000000    0.000000
         Rot=    1.000000   -0.000000   -0.000000   -0.000000 Ang=   0.00 deg.
 Guess basis will be translated and rotated to current coordinates.
 JPrj=2 DoOrth=T DoCkMO=T.
 Leave Link  401 at Sat Jan 24 23:08:45 2026, MaxMem=  2147483648 cpu:               2.2 elap:               0.2
 (Enter /data/home/wyx/g16/l502.exe)
 Integral symmetry usage will be decided dynamically.
 Closed shell SCF:
 Using DIIS extrapolation, IDIIS=  1040.
 NGot=  2147483648 LenX=  2147200095 LenY=  2147062754
 Requested convergence on RMS density matrix=1.00D-08 within 128 cycles.
 Requested convergence on MAX density matrix=1.00D-06.
 Requested convergence on             energy=1.00D-06.
 No special actions if energy rises.
 Fock matrices will be formed incrementally for  20 cycles.

 Cycle   1  Pass 1  IDiag  1:
 FoFJK:  IHMeth= 1 ICntrl=       0 DoSepK=T KAlg= 0 I1Cent=           0 FoldK=F
 IRaf=         1 NMat=       1 IRICut=       1 DoRegI=T DoRafI=F ISym2E= 0 IDoP0=0 IntGTp=1.
 FoFCou: FMM=F IPFlag=           0 FMFlag=      100000 FMFlg1=           0
         NFxFlg=           0 DoJE=T BraDBF=F KetDBF=F FulRan=T
         wScrn=  0.000000 ICntrl=       500 IOpCl=  0 I1Cent=           0 NGrid=           0
         NMat0=    1 NMatS0=      1 NMatT0=    0 NMatD0=    1 NMtDS0=    0 NMtDT0=    0
 Symmetry not used in FoFCou.
 Inv3:  Mode=1 IEnd=    13368963.
 Iteration    1 A*A^-1 deviation from unit magnitude is 3.22D-15 for   1651.
 Iteration    1 A*A^-1 deviation from orthogonality  is 2.41D-15 for   1798    252.
 Iteration    1 A^-1*A deviation from unit magnitude is 3.22D-15 for   1651.
 Iteration    1 A^-1*A deviation from orthogonality  is 1.89D-15 for   1956     85.
 NEqPCM:  Using non-equilibrium solvation (IEInf=1, Eps=  78.3553, EpsInf=   1.7778)
 Inv3:  Mode=1 IEnd=    13368963.
 Iteration    1 A*A^-1 deviation from unit magnitude is 3.22D-15 for   1402.
 Iteration    1 A*A^-1 deviation from orthogonality  is 3.77D-15 for   1712    514.
 Iteration    1 A^-1*A deviation from unit magnitude is 3.00D-15 for   1602.
 Iteration    1 A^-1*A deviation from orthogonality  is 1.86D-15 for   1338    442.
 E= -633.329265345398    
 DIIS: error= 7.42D-04 at cycle   1 NSaved=   1.
 NSaved= 1 IEnMin= 1 EnMin= -633.329265345398     IErMin= 1 ErrMin= 7.42D-04
 ErrMax= 7.42D-04  0.00D+00 EMaxC= 1.00D-01 BMatC= 1.23D-04 BMatP= 1.23D-04
 IDIUse=3 WtCom= 9.93D-01 WtEn= 7.42D-03
 Coeff-Com:  0.100D+01
 Coeff-En:   0.100D+01
 Coeff:      0.100D+01
 Gap=     0.234 Goal=   None    Shift=    0.000
 RMSDP=4.39D-04 MaxDP=2.29D-02              OVMax= 1.23D-02

 Cycle   2  Pass 1  IDiag  1:
 RMSU=  4.36D-04    CP:  1.00D+00
 E= -633.329484461745     Delta-E=       -0.000219116347 Rises=F Damp=F
 DIIS: error= 5.29D-04 at cycle   2 NSaved=   2.
 NSaved= 2 IEnMin= 2 EnMin= -633.329484461745     IErMin= 2 ErrMin= 5.29D-04
 ErrMax= 5.29D-04  0.00D+00 EMaxC= 1.00D-01 BMatC= 1.19D-04 BMatP= 1.23D-04
 IDIUse=3 WtCom= 9.95D-01 WtEn= 5.29D-03
 Coeff-Com:  0.495D+00 0.505D+00
 Coeff-En:   0.000D+00 0.100D+01
 Coeff:      0.492D+00 0.508D+00
 Gap=     0.234 Goal=   None    Shift=    0.000
 RMSDP=1.19D-04 MaxDP=6.12D-03 DE=-2.19D-04 OVMax= 2.87D-03

 Cycle   3  Pass 1  IDiag  1:
 RMSU=  1.10D-04    CP:  1.00D+00  9.69D-01
 E= -633.329577174957     Delta-E=       -0.000092713212 Rises=F Damp=F
 DIIS: error= 2.06D-04 at cycle   3 NSaved=   3.
 NSaved= 3 IEnMin= 3 EnMin= -633.329577174957     IErMin= 3 ErrMin= 2.06D-04
 ErrMax= 2.06D-04  0.00D+00 EMaxC= 1.00D-01 BMatC= 1.57D-05 BMatP= 1.19D-04
 IDIUse=3 WtCom= 9.98D-01 WtEn= 2.06D-03
 EnCoef did     7 forward-backward iterations
 Coeff-Com:  0.691D-01 0.245D+00 0.686D+00
 Coeff-En:   0.000D+00 0.148D-02 0.999D+00
 Coeff:      0.690D-01 0.244D+00 0.687D+00
 Gap=     0.234 Goal=   None    Shift=    0.000
 RMSDP=3.13D-05 MaxDP=1.57D-03 DE=-9.27D-05 OVMax= 1.70D-03

 Cycle   4  Pass 1  IDiag  1:
 RMSU=  2.47D-05    CP:  1.00D+00  9.87D-01  1.16D+00
 E= -633.329590232793     Delta-E=       -0.000013057836 Rises=F Damp=F
 DIIS: error= 6.87D-05 at cycle   4 NSaved=   4.
 NSaved= 4 IEnMin= 4 EnMin= -633.329590232793     IErMin= 4 ErrMin= 6.87D-05
 ErrMax= 6.87D-05  0.00D+00 EMaxC= 1.00D-01 BMatC= 1.18D-06 BMatP= 1.57D-05
 IDIUse=1 WtCom= 1.00D+00 WtEn= 0.00D+00
 Coeff-Com: -0.120D-01 0.218D-01 0.209D+00 0.781D+00
 Coeff:     -0.120D-01 0.218D-01 0.209D+00 0.781D+00
 Gap=     0.234 Goal=   None    Shift=    0.000
 RMSDP=2.09D-05 MaxDP=1.06D-03 DE=-1.31D-05 OVMax= 1.03D-03

 Cycle   5  Pass 1  IDiag  1:
 RMSU=  1.12D-05    CP:  1.00D+00  9.98D-01  1.30D+00  1.07D+00
 E= -633.329591857807     Delta-E=       -0.000001625014 Rises=F Damp=F
 DIIS: error= 2.35D-05 at cycle   5 NSaved=   5.
 NSaved= 5 IEnMin= 5 EnMin= -633.329591857807     IErMin= 5 ErrMin= 2.35D-05
 ErrMax= 2.35D-05  0.00D+00 EMaxC= 1.00D-01 BMatC= 3.22D-07 BMatP= 1.18D-06
 IDIUse=1 WtCom= 1.00D+00 WtEn= 0.00D+00
 Coeff-Com: -0.133D-01-0.286D-01-0.211D-02 0.358D+00 0.686D+00
 Coeff:     -0.133D-01-0.286D-01-0.211D-02 0.358D+00 0.686D+00
 Gap=     0.234 Goal=   None    Shift=    0.000
 RMSDP=8.30D-06 MaxDP=3.63D-04 DE=-1.63D-06 OVMax= 3.84D-04

 Cycle   6  Pass 1  IDiag  1:
 RMSU=  3.65D-06    CP:  1.00D+00  9.97D-01  1.36D+00  1.23D+00  1.07D+00
 E= -633.329592339468     Delta-E=       -0.000000481661 Rises=F Damp=F
 DIIS: error= 1.83D-05 at cycle   6 NSaved=   6.
 NSaved= 6 IEnMin= 6 EnMin= -633.329592339468     IErMin= 6 ErrMin= 1.83D-05
 ErrMax= 1.83D-05  0.00D+00 EMaxC= 1.00D-01 BMatC= 3.43D-08 BMatP= 3.22D-07
 IDIUse=1 WtCom= 1.00D+00 WtEn= 0.00D+00
 Coeff-Com: -0.116D-02-0.151D-01-0.243D-01 0.516D-02 0.190D+00 0.845D+00
 Coeff:     -0.116D-02-0.151D-01-0.243D-01 0.516D-02 0.190D+00 0.845D+00
 Gap=     0.234 Goal=   None    Shift=    0.000
 RMSDP=3.72D-06 MaxDP=1.36D-04 DE=-4.82D-07 OVMax= 3.10D-04

 Cycle   7  Pass 1  IDiag  1:
 RMSU=  1.63D-06    CP:  1.00D+00  9.95D-01  1.38D+00  1.30D+00  1.18D+00
                    CP:  1.22D+00
 E= -633.329592433928     Delta-E=       -0.000000094460 Rises=F Damp=F
 DIIS: error= 7.37D-06 at cycle   7 NSaved=   7.
 NSaved= 7 IEnMin= 7 EnMin= -633.329592433928     IErMin= 7 ErrMin= 7.37D-06
 ErrMax= 7.37D-06  0.00D+00 EMaxC= 1.00D-01 BMatC= 1.65D-08 BMatP= 3.43D-08
 IDIUse=1 WtCom= 1.00D+00 WtEn= 0.00D+00
 Coeff-Com:  0.217D-02-0.340D-02-0.817D-02-0.688D-01-0.833D-01 0.434D+00
 Coeff-Com:  0.727D+00
 Coeff:      0.217D-02-0.340D-02-0.817D-02-0.688D-01-0.833D-01 0.434D+00
 Coeff:      0.727D+00
 Gap=     0.234 Goal=   None    Shift=    0.000
 RMSDP=1.72D-06 MaxDP=7.17D-05 DE=-9.45D-08 OVMax= 1.58D-04

 Cycle   8  Pass 1  IDiag  1:
 RMSU=  6.20D-07    CP:  1.00D+00  9.94D-01  1.39D+00  1.33D+00  1.23D+00
                    CP:  1.44D+00  1.11D+00
 E= -633.329592464141     Delta-E=       -0.000000030213 Rises=F Damp=F
 DIIS: error= 2.56D-06 at cycle   8 NSaved=   8.
 NSaved= 8 IEnMin= 8 EnMin= -633.329592464141     IErMin= 8 ErrMin= 2.56D-06
 ErrMax= 2.56D-06  0.00D+00 EMaxC= 1.00D-01 BMatC= 1.61D-09 BMatP= 1.65D-08
 IDIUse=1 WtCom= 1.00D+00 WtEn= 0.00D+00
 Coeff-Com:  0.967D-03 0.463D-03 0.207D-02-0.228D-01-0.744D-01 0.111D-01
 Coeff-Com:  0.239D+00 0.843D+00
 Coeff:      0.967D-03 0.463D-03 0.207D-02-0.228D-01-0.744D-01 0.111D-01
 Coeff:      0.239D+00 0.843D+00
 Gap=     0.234 Goal=   None    Shift=    0.000
 RMSDP=7.26D-07 MaxDP=2.45D-05 DE=-3.02D-08 OVMax= 6.39D-05

 Cycle   9  Pass 1  IDiag  1:
 RMSU=  2.07D-07    CP:  1.00D+00  9.94D-01  1.39D+00  1.34D+00  1.23D+00
                    CP:  1.55D+00  1.30D+00  1.16D+00
 E= -633.329592467937     Delta-E=       -0.000000003797 Rises=F Damp=F
 DIIS: error= 9.20D-07 at cycle   9 NSaved=   9.
 NSaved= 9 IEnMin= 9 EnMin= -633.329592467937     IErMin= 9 ErrMin= 9.20D-07
 ErrMax= 9.20D-07  0.00D+00 EMaxC= 1.00D-01 BMatC= 1.84D-10 BMatP= 1.61D-09
 IDIUse=1 WtCom= 1.00D+00 WtEn= 0.00D+00
 Coeff-Com:  0.499D-04 0.534D-03 0.192D-02 0.317D-02-0.173D-01-0.581D-01
 Coeff-Com: -0.630D-02 0.319D+00 0.757D+00
 Coeff:      0.499D-04 0.534D-03 0.192D-02 0.317D-02-0.173D-01-0.581D-01
 Coeff:     -0.630D-02 0.319D+00 0.757D+00
 Gap=     0.234 Goal=   None    Shift=    0.000
 RMSDP=2.17D-07 MaxDP=9.99D-06 DE=-3.80D-09 OVMax= 2.02D-05

 Cycle  10  Pass 1  IDiag  1:
 RMSU=  8.83D-08    CP:  1.00D+00  9.94D-01  1.39D+00  1.35D+00  1.23D+00
                    CP:  1.58D+00  1.36D+00  1.26D+00  1.00D+00
 E= -633.329592468313     Delta-E=       -0.000000000376 Rises=F Damp=F
 DIIS: error= 2.52D-07 at cycle  10 NSaved=  10.
 NSaved=10 IEnMin=10 EnMin= -633.329592468313     IErMin=10 ErrMin= 2.52D-07
 ErrMax= 2.52D-07  0.00D+00 EMaxC= 1.00D-01 BMatC= 3.45D-11 BMatP= 1.84D-10
 IDIUse=1 WtCom= 1.00D+00 WtEn= 0.00D+00
 Coeff-Com: -0.718D-04 0.260D-03 0.222D-03 0.353D-02 0.145D-02-0.230D-01
 Coeff-Com: -0.259D-01 0.604D-02 0.284D+00 0.754D+00
 Coeff:     -0.718D-04 0.260D-03 0.222D-03 0.353D-02 0.145D-02-0.230D-01
 Coeff:     -0.259D-01 0.604D-02 0.284D+00 0.754D+00
 Gap=     0.234 Goal=   None    Shift=    0.000
 RMSDP=7.67D-08 MaxDP=3.01D-06 DE=-3.76D-10 OVMax= 5.23D-06

 Cycle  11  Pass 1  IDiag  1:
 RMSU=  2.69D-08    CP:  1.00D+00  9.94D-01  1.39D+00  1.35D+00  1.23D+00
                    CP:  1.59D+00  1.39D+00  1.29D+00  1.14D+00  1.12D+00
 E= -633.329592468354     Delta-E=       -0.000000000040 Rises=F Damp=F
 DIIS: error= 1.41D-07 at cycle  11 NSaved=  11.
 NSaved=11 IEnMin=11 EnMin= -633.329592468354     IErMin=11 ErrMin= 1.41D-07
 ErrMax= 1.41D-07  0.00D+00 EMaxC= 1.00D-01 BMatC= 6.15D-12 BMatP= 3.45D-11
 IDIUse=1 WtCom= 1.00D+00 WtEn= 0.00D+00
 Coeff-Com: -0.456D-04 0.771D-04-0.254D-03 0.129D-02 0.359D-02-0.806D-03
 Coeff-Com: -0.881D-02-0.520D-01 0.166D-01 0.325D+00 0.715D+00
 Coeff:     -0.456D-04 0.771D-04-0.254D-03 0.129D-02 0.359D-02-0.806D-03
 Coeff:     -0.881D-02-0.520D-01 0.166D-01 0.325D+00 0.715D+00
 Gap=     0.234 Goal=   None    Shift=    0.000
 RMSDP=3.50D-08 MaxDP=2.13D-06 DE=-4.04D-11 OVMax= 1.62D-06

 Cycle  12  Pass 1  IDiag  1:
 RMSU=  1.42D-08    CP:  1.00D+00  9.94D-01  1.39D+00  1.35D+00  1.23D+00
                    CP:  1.59D+00  1.39D+00  1.31D+00  1.16D+00  1.27D+00
                    CP:  9.91D-01
 E= -633.329592468357     Delta-E=       -0.000000000003 Rises=F Damp=F
 DIIS: error= 5.14D-08 at cycle  12 NSaved=  12.
 NSaved=12 IEnMin=12 EnMin= -633.329592468357     IErMin=12 ErrMin= 5.14D-08
 ErrMax= 5.14D-08  0.00D+00 EMaxC= 1.00D-01 BMatC= 9.71D-13 BMatP= 6.15D-12
 IDIUse=1 WtCom= 1.00D+00 WtEn= 0.00D+00
 Coeff-Com: -0.110D-04 0.179D-04-0.142D-03 0.903D-04 0.132D-02 0.242D-02
 Coeff-Com:  0.246D-03-0.232D-01-0.259D-01 0.260D-01 0.327D+00 0.693D+00
 Coeff:     -0.110D-04 0.179D-04-0.142D-03 0.903D-04 0.132D-02 0.242D-02
 Coeff:      0.246D-03-0.232D-01-0.259D-01 0.260D-01 0.327D+00 0.693D+00
 Gap=     0.234 Goal=   None    Shift=    0.000
 RMSDP=8.69D-09 MaxDP=4.25D-07 DE=-3.07D-12 OVMax= 6.29D-07

 Error on total polarization charges =  0.00826
 SCF Done:  E(RCAM-B3LYP) =  -633.329592468     A.U. after   12 cycles
            NFock= 12  Conv=0.87D-08     -V/T= 2.0041
 KE= 6.307379797629D+02 PE=-3.277716802271D+03 EE= 1.112889988935D+03
 Leave Link  502 at Sat Jan 24 23:09:33 2026, MaxMem=  2147483648 cpu:             757.6 elap:              48.0
 (Enter /data/home/wyx/g16/l601.exe)
 Copying SCF densities to generalized density rwf, IOpCl= 0 IROHF=0.

 **********************************************************************

            Population analysis using the SCF density.

 **********************************************************************

 Orbital symmetries:
       Occupied  (A) (A) (A) (A) (A) (A) (A) (A) (A) (A) (A) (A)
                 (A) (A) (A) (A) (A) (A) (A) (A) (A) (A) (A) (A)
                 (A) (A) (A) (A) (A) (A) (A) (A) (A) (A) (A) (A)
                 (A) (A) (A) (A) (A) (A) (A) (A) (A) (A) (A) (A)
                 (A) (A) (A) (A)
       Virtual   (A) (A) (A) (A) (A) (A) (A) (A) (A) (A) (A) (A)
                 (A) (A) (A) (A) (A) (A) (A) (A) (A) (A) (A) (A)
                 (A) (A) (A) (A) (A) (A) (A) (A) (A) (A) (A) (A)
                 (A) (A) (A) (A) (A) (A) (A) (A) (A) (A) (A) (A)
                 (A) (A) (A) (A) (A) (A) (A) (A) (A) (A) (A) (A)
                 (A) (A) (A) (A) (A) (A) (A) (A) (A) (A) (A) (A)
                 (A) (A) (A) (A) (A) (A) (A) (A) (A) (A) (A) (A)
                 (A) (A) (A) (A) (A) (A) (A) (A) (A) (A) (A) (A)
                 (A) (A) (A) (A) (A) (A) (A) (A) (A) (A) (A) (A)
                 (A) (A) (A) (A) (A) (A) (A) (A) (A) (A) (A) (A)
                 (A) (A) (A) (A) (A) (A) (A) (A) (A) (A) (A) (A)
                 (A) (A) (A) (A) (A) (A) (A) (A) (A) (A) (A) (A)
                 (A) (A) (A) (A) (A) (A) (A) (A) (A) (A) (A) (A)
                 (A) (A) (A) (A) (A) (A) (A) (A) (A) (A) (A) (A)
                 (A) (A) (A) (A) (A) (A) (A) (A) (A) (A) (A) (A)
                 (A) (A) (A) (A) (A) (A) (A) (A) (A) (A) (A) (A)
                 (A) (A) (A) (A) (A) (A) (A) (A) (A) (A) (A) (A)
                 (A) (A) (A) (A) (A) (A) (A) (A) (A) (A) (A) (A)
                 (A) (A) (A) (A) (A) (A) (A) (A) (A) (A) (A) (A)
                 (A) (A) (A) (A) (A) (A) (A) (A) (A) (A) (A) (A)
                 (A) (A) (A) (A) (A) (A) (A) (A) (A) (A) (A) (A)
                 (A) (A) (A) (A) (A) (A) (A) (A) (A) (A) (A) (A)
                 (A) (A) (A) (A) (A) (A) (A) (A) (A) (A) (A) (A)
                 (A) (A) (A) (A) (A) (A) (A) (A) (A) (A) (A) (A)
                 (A) (A) (A) (A) (A) (A) (A) (A) (A) (A) (A) (A)
                 (A) (A) (A) (A)
 The electronic state is 1-A.
 Alpha  occ. eigenvalues --  -19.18365 -19.16984 -14.44496 -10.33898 -10.32743
 Alpha  occ. eigenvalues --  -10.32608 -10.31721 -10.26142 -10.25461 -10.25012
 Alpha  occ. eigenvalues --  -10.24728 -10.24692 -10.24618 -10.23252  -1.12338
 Alpha  occ. eigenvalues --   -1.11074  -1.08056  -0.91569  -0.90567  -0.84048
 Alpha  occ. eigenvalues --   -0.82654  -0.81813  -0.78583  -0.74227  -0.71619
 Alpha  occ. eigenvalues --   -0.68829  -0.61766  -0.58423  -0.57098  -0.55428
 Alpha  occ. eigenvalues --   -0.54773  -0.54047  -0.52689  -0.52022  -0.51011
 Alpha  occ. eigenvalues --   -0.50235  -0.49497  -0.49213  -0.48711  -0.48295
 Alpha  occ. eigenvalues --   -0.47033  -0.45313  -0.44969  -0.43784  -0.43384
 Alpha  occ. eigenvalues --   -0.42656  -0.42289  -0.41737  -0.33107  -0.32615
 Alpha  occ. eigenvalues --   -0.30981  -0.26162
 Alpha virt. eigenvalues --   -0.02797   0.02350   0.06164   0.08077   0.08486
 Alpha virt. eigenvalues --    0.09770   0.10822   0.11863   0.12523   0.13376
 Alpha virt. eigenvalues --    0.13988   0.14851   0.15607   0.16187   0.16980
 Alpha virt. eigenvalues --    0.17662   0.17721   0.17967   0.18053   0.19271
 Alpha virt. eigenvalues --    0.19899   0.22105   0.22646   0.23111   0.23481
 Alpha virt. eigenvalues --    0.23861   0.24709   0.25484   0.26038   0.26516
 Alpha virt. eigenvalues --    0.26765   0.27431   0.28650   0.28768   0.30187
 Alpha virt. eigenvalues --    0.31411   0.31787   0.32489   0.33421   0.34263
 Alpha virt. eigenvalues --    0.35152   0.35819   0.36677   0.37953   0.38546
 Alpha virt. eigenvalues --    0.39714   0.40701   0.41480   0.41873   0.42399
 Alpha virt. eigenvalues --    0.43976   0.44303   0.45180   0.45816   0.46393
 Alpha virt. eigenvalues --    0.47172   0.47649   0.48046   0.48179   0.48817
 Alpha virt. eigenvalues --    0.49330   0.50388   0.50850   0.51344   0.51619
 Alpha virt. eigenvalues --    0.52816   0.53057   0.53445   0.54022   0.54267
 Alpha virt. eigenvalues --    0.54447   0.55656   0.56027   0.56394   0.58154
 Alpha virt. eigenvalues --    0.58605   0.58755   0.60577   0.60902   0.62525
 Alpha virt. eigenvalues --    0.63212   0.65612   0.66006   0.66469   0.67645
 Alpha virt. eigenvalues --    0.68615   0.70155   0.71054   0.71943   0.72767
 Alpha virt. eigenvalues --    0.73014   0.73783   0.74676   0.75728   0.77513
 Alpha virt. eigenvalues --    0.78044   0.79507   0.82097   0.84579   0.85097
 Alpha virt. eigenvalues --    0.89337   0.93623   0.99420   1.00967   1.24135
 Alpha virt. eigenvalues --    1.25208   1.26843   1.27921   1.29267   1.31127
 Alpha virt. eigenvalues --    1.32489   1.32861   1.33787   1.34860   1.35808
 Alpha virt. eigenvalues --    1.36535   1.37549   1.38061   1.38924   1.39697
 Alpha virt. eigenvalues --    1.39885   1.40322   1.40929   1.41473   1.41552
 Alpha virt. eigenvalues --    1.43165   1.43955   1.44417   1.45006   1.47078
 Alpha virt. eigenvalues --    1.47891   1.48933   1.49543   1.50163   1.50841
 Alpha virt. eigenvalues --    1.51746   1.52149   1.53201   1.54275   1.57619
 Alpha virt. eigenvalues --    1.58194   1.60426   1.60510   1.61128   1.62163
 Alpha virt. eigenvalues --    1.62436   1.63303   1.64122   1.65367   1.65755
 Alpha virt. eigenvalues --    1.66830   1.67144   1.67527   1.68331   1.68664
 Alpha virt. eigenvalues --    1.68751   1.69706   1.70314   1.71533   1.72000
 Alpha virt. eigenvalues --    1.73434   1.74921   1.76064   1.76782   1.78582
 Alpha virt. eigenvalues --    1.80173   1.82970   1.84130   1.85865   1.86590
 Alpha virt. eigenvalues --    1.87079   1.87740   1.88696   1.88885   1.90649
 Alpha virt. eigenvalues --    1.91140   1.94434   1.95052   1.98344   1.99700
 Alpha virt. eigenvalues --    2.00968   2.03598   2.04591   2.06539   2.09388
 Alpha virt. eigenvalues --    2.11043   2.12676   2.14658   2.17039   2.19434
 Alpha virt. eigenvalues --    2.20376   2.21127   2.21634   2.22751   2.26156
 Alpha virt. eigenvalues --    2.27010   2.27485   2.28988   2.30751   2.31545
 Alpha virt. eigenvalues --    2.33390   2.34300   2.36276   2.37023   2.38085
 Alpha virt. eigenvalues --    2.39237   2.40226   2.41453   2.43469   2.44686
 Alpha virt. eigenvalues --    2.45924   2.47432   2.50172   2.50509   2.51570
 Alpha virt. eigenvalues --    2.52333   2.53522   2.55036   2.56688   2.58309
 Alpha virt. eigenvalues --    2.58941   2.60450   2.61006   2.62094   2.62744
 Alpha virt. eigenvalues --    2.64481   2.65701   2.66823   2.67272   2.68875
 Alpha virt. eigenvalues --    2.71005   2.72045   2.72777   2.74025   2.75057
 Alpha virt. eigenvalues --    2.76173   2.76670   2.77101   2.77668   2.79383
 Alpha virt. eigenvalues --    2.80815   2.81476   2.83306   2.83380   2.84370
 Alpha virt. eigenvalues --    2.85435   2.86127   2.87898   2.90025   2.91941
 Alpha virt. eigenvalues --    2.97244   2.99814   3.00592   3.04746   3.10279
 Alpha virt. eigenvalues --    3.12064   3.15897   3.16830   3.17218   3.20278
 Alpha virt. eigenvalues --    3.21077   3.22027   3.24291   3.25708   3.27009
 Alpha virt. eigenvalues --    3.27588   3.29683   3.33399   3.34673   3.36426
 Alpha virt. eigenvalues --    3.37052   3.38618   3.40054   3.40491   3.41661
 Alpha virt. eigenvalues --    3.42599   3.44748   3.45366   3.46658   3.48044
 Alpha virt. eigenvalues --    3.49166   3.49480   3.55026   3.58094   3.59391
 Alpha virt. eigenvalues --    3.60465   3.89945   3.99681   4.33362   4.36345
 Alpha virt. eigenvalues --   21.64196  21.79495  22.08201  22.10664  22.12030
 Alpha virt. eigenvalues --   22.14929  22.15197  22.18417  22.20496  22.24307
 Alpha virt. eigenvalues --   22.29623  31.92518  43.62784  43.65782
          Condensed to atoms (all electrons):
               1          2          3          4          5          6
     1  O    7.953810   0.000000  -0.000237   0.000018   0.017052   0.014329
     2  O    0.000000   7.952643   0.000525   0.000030  -0.194359   0.000913
     3  N   -0.000237   0.000525   6.403620   0.373398  -0.119582   0.332467
     4  H    0.000018   0.000030   0.373398   0.403670   0.015995  -0.046549
     5  C    0.017052  -0.194359  -0.119582   0.015995   7.006853  -0.069492
     6  C    0.014329   0.000913   0.332467  -0.046549  -0.069492   5.625044
     7  C   -0.000340  -0.035797   0.374377  -0.038672   0.385313  -0.097221
     8  C   -0.000310   0.706894   0.004965  -0.000633  -0.227721   0.025898
     9  C   -0.024037   0.020136   0.015140  -0.000160  -0.540923  -0.104545
    10  H    0.004530   0.000088   0.003776   0.000017  -0.026115  -0.017418
    11  H    0.015158  -0.000027  -0.001332   0.000018  -0.114645   0.026156
    12  C   -0.225516  -0.002346  -0.095939   0.014895   0.162143  -0.155292
    13  C    0.714279  -0.000022   0.000547   0.000419   0.078740   0.164980
    14  C   -0.000006  -0.003016  -0.035095  -0.008556  -0.075999   0.010805
    15  H   -0.000000   0.004166   0.003791   0.001181   0.017991   0.006494
    16  H   -0.000000   0.001232  -0.003033   0.000931  -0.005401  -0.001948
    17  H   -0.000000   0.001283   0.001539   0.000788  -0.010667  -0.000867
    18  C    0.000004  -0.105132  -0.000509   0.000020  -0.268043   0.000187
    19  H   -0.000003   0.008611   0.000002  -0.000001   0.021279   0.000032
    20  H    0.000008   0.001009   0.000011  -0.000001   0.003553   0.000256
    21  H    0.000079   0.003672   0.000121   0.000001   0.043100  -0.001126
    22  C   -0.106620   0.000000  -0.000041   0.000111   0.003974  -0.014455
    23  H    0.004863  -0.000000  -0.000020  -0.000053  -0.000624  -0.032473
    24  H    0.001298  -0.000000  -0.000030  -0.000015  -0.000067   0.010854
    25  H    0.007265   0.000000   0.000032  -0.000002  -0.000143  -0.001144
    26  C    0.000901   0.000004  -0.028901  -0.006198  -0.000172   0.177644
    27  H   -0.000251  -0.000000   0.002746   0.000866   0.000040  -0.044726
    28  H   -0.000048  -0.000000  -0.002631   0.000442   0.000456  -0.034031
    29  H    0.000025  -0.000000   0.000435   0.001104  -0.000520  -0.048950
               7          8          9         10         11         12
     1  O   -0.000340  -0.000310  -0.024037   0.004530   0.015158  -0.225516
     2  O   -0.035797   0.706894   0.020136   0.000088  -0.000027  -0.002346
     3  N    0.374377   0.004965   0.015140   0.003776  -0.001332  -0.095939
     4  H   -0.038672  -0.000633  -0.000160   0.000017   0.000018   0.014895
     5  C    0.385313  -0.227721  -0.540923  -0.026115  -0.114645   0.162143
     6  C   -0.097221   0.025898  -0.104545  -0.017418   0.026156  -0.155292
     7  C    5.442624  -0.178272  -0.188409  -0.004094   0.018193   0.004524
     8  C   -0.178272   5.305735   0.114596  -0.005942  -0.007136  -0.035712
     9  C   -0.188409   0.114596   6.344187   0.391587   0.533615  -0.033462
    10  H   -0.004094  -0.005942   0.391587   0.562291  -0.037526  -0.024562
    11  H    0.018193  -0.007136   0.533615  -0.037526   0.509065  -0.107274
    12  C    0.004524  -0.035712  -0.033462  -0.024562  -0.107274   7.313178
    13  C    0.012045  -0.006048  -0.268805   0.000851  -0.001487  -0.403109
    14  C    0.253638  -0.027651   0.011758  -0.001292   0.000539  -0.004925
    15  H   -0.079674   0.005273   0.000055   0.000070  -0.000005  -0.001177
    16  H   -0.019285  -0.002034   0.000712  -0.000069   0.000053   0.000762
    17  H   -0.025049  -0.007571  -0.000727   0.000198  -0.000055   0.000010
    18  C    0.003298   0.309605   0.000679  -0.008787   0.006064  -0.003096
    19  H    0.000193  -0.048016  -0.000509   0.000007   0.000478  -0.000210
    20  H    0.000891  -0.024699  -0.009426   0.000972  -0.001752  -0.003791
    21  H    0.000731  -0.066237  -0.008566   0.001770  -0.005108   0.007451
    22  C    0.000163  -0.000067   0.005064   0.001785   0.000722  -0.252792
    23  H    0.000004  -0.000007   0.003529  -0.000140  -0.000054   0.064691
    24  H    0.000023   0.000002  -0.002057   0.000153  -0.000114  -0.012448
    25  H    0.000004   0.000004   0.000176  -0.000048  -0.000125   0.023989
    26  C    0.001994   0.000519   0.020910  -0.000691   0.000016  -0.077674
    27  H   -0.000755   0.000004  -0.000812  -0.000103   0.000007  -0.008512
    28  H   -0.000875  -0.000009  -0.000291  -0.000017   0.000042  -0.019522
    29  H    0.003613  -0.000008  -0.000480   0.000098  -0.000010   0.024052
              13         14         15         16         17         18
     1  O    0.714279  -0.000006  -0.000000  -0.000000  -0.000000   0.000004
     2  O   -0.000022  -0.003016   0.004166   0.001232   0.001283  -0.105132
     3  N    0.000547  -0.035095   0.003791  -0.003033   0.001539  -0.000509
     4  H    0.000419  -0.008556   0.001181   0.000931   0.000788   0.000020
     5  C    0.078740  -0.075999   0.017991  -0.005401  -0.010667  -0.268043
     6  C    0.164980   0.010805   0.006494  -0.001948  -0.000867   0.000187
     7  C    0.012045   0.253638  -0.079674  -0.019285  -0.025049   0.003298
     8  C   -0.006048  -0.027651   0.005273  -0.002034  -0.007571   0.309605
     9  C   -0.268805   0.011758   0.000055   0.000712  -0.000727   0.000679
    10  H    0.000851  -0.001292   0.000070  -0.000069   0.000198  -0.008787
    11  H   -0.001487   0.000539  -0.000005   0.000053  -0.000055   0.006064
    12  C   -0.403109  -0.004925  -0.001177   0.000762   0.000010  -0.003096
    13  C    5.468870  -0.000080  -0.000020  -0.000018  -0.000000   0.000779
    14  C   -0.000080   5.049441   0.391722   0.405946   0.423222   0.002249
    15  H   -0.000020   0.391722   0.576604  -0.026778  -0.029098   0.000283
    16  H   -0.000018   0.405946  -0.026778   0.506290  -0.024179  -0.000084
    17  H   -0.000000   0.423222  -0.029098  -0.024179   0.503833  -0.000308
    18  C    0.000779   0.002249   0.000283  -0.000084  -0.000308   5.348546
    19  H   -0.000015  -0.000011  -0.000005  -0.000018   0.000039   0.393711
    20  H   -0.000096  -0.000288  -0.000006  -0.000005   0.000026   0.397083
    21  H    0.000529   0.000038  -0.000017   0.000005  -0.000036   0.380761
    22  C    0.287743  -0.000020   0.000002   0.000000  -0.000000   0.000035
    23  H   -0.092770  -0.000000   0.000000   0.000000   0.000000   0.000003
    24  H   -0.021576  -0.000001   0.000000   0.000000  -0.000000  -0.000002
    25  H   -0.041009   0.000000   0.000000  -0.000000   0.000000  -0.000001
    26  C   -0.055461   0.001408   0.000064  -0.000163   0.000050   0.000020
    27  H   -0.004678   0.000091  -0.000012   0.000001  -0.000002  -0.000000
    28  H    0.006579  -0.000123   0.000003  -0.000010   0.000004  -0.000001
    29  H   -0.000602  -0.000238   0.000124   0.000001  -0.000004   0.000000
              19         20         21         22         23         24
     1  O   -0.000003   0.000008   0.000079  -0.106620   0.004863   0.001298
     2  O    0.008611   0.001009   0.003672   0.000000  -0.000000  -0.000000
     3  N    0.000002   0.000011   0.000121  -0.000041  -0.000020  -0.000030
     4  H   -0.000001  -0.000001   0.000001   0.000111  -0.000053  -0.000015
     5  C    0.021279   0.003553   0.043100   0.003974  -0.000624  -0.000067
     6  C    0.000032   0.000256  -0.001126  -0.014455  -0.032473   0.010854
     7  C    0.000193   0.000891   0.000731   0.000163   0.000004   0.000023
     8  C   -0.048016  -0.024699  -0.066237  -0.000067  -0.000007   0.000002
     9  C   -0.000509  -0.009426  -0.008566   0.005064   0.003529  -0.002057
    10  H    0.000007   0.000972   0.001770   0.001785  -0.000140   0.000153
    11  H    0.000478  -0.001752  -0.005108   0.000722  -0.000054  -0.000114
    12  C   -0.000210  -0.003791   0.007451  -0.252792   0.064691  -0.012448
    13  C   -0.000015  -0.000096   0.000529   0.287743  -0.092770  -0.021576
    14  C   -0.000011  -0.000288   0.000038  -0.000020  -0.000000  -0.000001
    15  H   -0.000005  -0.000006  -0.000017   0.000002   0.000000   0.000000
    16  H   -0.000018  -0.000005   0.000005   0.000000   0.000000   0.000000
    17  H    0.000039   0.000026  -0.000036  -0.000000   0.000000  -0.000000
    18  C    0.393711   0.397083   0.380761   0.000035   0.000003  -0.000002
    19  H    0.490885  -0.008171  -0.022185  -0.000000   0.000000   0.000000
    20  H   -0.008171   0.502330  -0.027269  -0.000014  -0.000000   0.000000
    21  H   -0.022185  -0.027269   0.542906   0.000017  -0.000000  -0.000000
    22  C   -0.000000  -0.000014   0.000017   5.416350   0.399374   0.401285
    23  H    0.000000  -0.000000  -0.000000   0.399374   0.537962  -0.026200
    24  H    0.000000   0.000000  -0.000000   0.401285  -0.026200   0.489463
    25  H   -0.000000   0.000000  -0.000000   0.383712  -0.022097  -0.008040
    26  C    0.000000   0.000006  -0.000016  -0.030179   0.016264  -0.013772
    27  H   -0.000000   0.000000  -0.000000   0.007841  -0.009677  -0.000602
    28  H    0.000000  -0.000000  -0.000000  -0.011280  -0.001375   0.001076
    29  H    0.000000  -0.000000   0.000000   0.001962   0.000692   0.000199
              25         26         27         28         29
     1  O    0.007265   0.000901  -0.000251  -0.000048   0.000025
     2  O    0.000000   0.000004  -0.000000  -0.000000  -0.000000
     3  N    0.000032  -0.028901   0.002746  -0.002631   0.000435
     4  H   -0.000002  -0.006198   0.000866   0.000442   0.001104
     5  C   -0.000143  -0.000172   0.000040   0.000456  -0.000520
     6  C   -0.001144   0.177644  -0.044726  -0.034031  -0.048950
     7  C    0.000004   0.001994  -0.000755  -0.000875   0.003613
     8  C    0.000004   0.000519   0.000004  -0.000009  -0.000008
     9  C    0.000176   0.020910  -0.000812  -0.000291  -0.000480
    10  H   -0.000048  -0.000691  -0.000103  -0.000017   0.000098
    11  H   -0.000125   0.000016   0.000007   0.000042  -0.000010
    12  C    0.023989  -0.077674  -0.008512  -0.019522   0.024052
    13  C   -0.041009  -0.055461  -0.004678   0.006579  -0.000602
    14  C    0.000000   0.001408   0.000091  -0.000123  -0.000238
    15  H    0.000000   0.000064  -0.000012   0.000003   0.000124
    16  H   -0.000000  -0.000163   0.000001  -0.000010   0.000001
    17  H    0.000000   0.000050  -0.000002   0.000004  -0.000004
    18  C   -0.000001   0.000020  -0.000000  -0.000001   0.000000
    19  H   -0.000000   0.000000  -0.000000   0.000000   0.000000
    20  H    0.000000   0.000006   0.000000  -0.000000  -0.000000
    21  H   -0.000000  -0.000016  -0.000000  -0.000000   0.000000
    22  C    0.383712  -0.030179   0.007841  -0.011280   0.001962
    23  H   -0.022097   0.016264  -0.009677  -0.001375   0.000692
    24  H   -0.008040  -0.013772  -0.000602   0.001076   0.000199
    25  H    0.494838   0.001939   0.000805   0.000106  -0.000042
    26  C    0.001939   5.254819   0.427745   0.429365   0.389754
    27  H    0.000805   0.427745   0.508971  -0.025560  -0.026419
    28  H    0.000106   0.429365  -0.025560   0.476014  -0.017251
    29  H   -0.000042   0.389754  -0.026419  -0.017251   0.514254
 Mulliken charges:
               1
     1  O   -0.376249
     2  O   -0.360506
     3  N   -0.230142
     4  H    0.286936
     5  C   -0.102016
     6  C    0.274178
     7  C    0.166816
     8  C    0.164580
     9  C   -0.278936
    10  H    0.158611
    11  H    0.166523
    12  C   -0.148334
    13  C    0.159435
    14  C   -0.393556
    15  H    0.128967
    16  H    0.167092
    17  H    0.167572
    18  C   -0.457363
    19  H    0.163907
    20  H    0.169375
    21  H    0.149380
    22  C   -0.494671
    23  H    0.158107
    24  H    0.180570
    25  H    0.159782
    26  C   -0.510194
    27  H    0.172990
    28  H    0.198939
    29  H    0.158207
 Sum of Mulliken charges =  -0.00000
 Mulliken charges with hydrogens summed into heavy atoms:
               1
     1  O   -0.376249
     2  O   -0.360506
     3  N    0.056794
     5  C   -0.102016
     6  C    0.274178
     7  C    0.166816
     8  C    0.164580
     9  C    0.046198
    12  C   -0.148334
    13  C    0.159435
    14  C    0.070074
    18  C    0.025298
    22  C    0.003788
    26  C    0.019942
 Electronic spatial extent (au):  <R**2>=           3185.7172
 Charge=             -0.0000 electrons
 Dipole moment (field-independent basis, Debye):
    X=             -3.4756    Y=              7.4379    Z=             -0.2005  Tot=              8.2123
 Quadrupole moment (field-independent basis, Debye-Ang):
   XX=            -96.0542   YY=            -78.4287   ZZ=            -85.0163
   XY=            -13.2005   XZ=             -5.2822   YZ=             -1.7211
 Traceless Quadrupole moment (field-independent basis, Debye-Ang):
   XX=             -9.5545   YY=              8.0710   ZZ=              1.4834
   XY=            -13.2005   XZ=             -5.2822   YZ=             -1.7211
 Octapole moment (field-independent basis, Debye-Ang**2):
  XXX=           -100.3093  YYY=             64.6388  ZZZ=              2.0744  XYY=             36.1846
  XXY=             30.3109  XXZ=             -8.8585  XZZ=             -1.8869  YZZ=             -1.1454
  YYZ=              3.5916  XYZ=              5.2332
 Hexadecapole moment (field-independent basis, Debye-Ang**3):
 XXXX=          -2992.6118 YYYY=          -1275.2830 ZZZZ=           -154.8308 XXXY=            -45.4625
 XXXZ=            -60.6483 YYYX=            -92.4053 YYYZ=            -21.9394 ZZZX=              3.0429
 ZZZY=              5.0304 XXYY=           -685.6492 XXZZ=           -483.4051 YYZZ=           -243.0583
 XXYZ=             -7.1268 YYXZ=             -7.0830 ZZXY=              0.7250
 N-N= 9.007592411048D+02 E-N=-3.277716804720D+03  KE= 6.307379797629D+02
 No NMR shielding tensors so no spin-rotation constants.
 Leave Link  601 at Sat Jan 24 23:09:33 2026, MaxMem=  2147483648 cpu:               1.8 elap:               0.1
 (Enter /data/home/wyx/g16/l9999.exe)
 1\1\GINC-CN012\SP\RCAM-B3LYP\TZVP\C11H15N1O2\WYX\24-Jan-2026\0\\#p CAM
 -B3LYP TZVP em=gd3bj scrf=(Solvent=Water,NonEquilibrium=Read) Geom=Che
 ck Guess=Read\\Title Card Required\\0,1\O,0,2.739089,-1.55862,0.771511
 \O,0,-3.245355,-1.645769,-1.059826\N,0,-0.703705,1.514226,0.080834\H,0
 ,-1.011972,2.472492,0.020982\C,0,-1.249387,-0.759555,-0.157148\C,0,0.6
 41581,1.308914,0.263892\C,0,-1.621687,0.551929,-0.241609\C,0,-2.154488
 ,-1.838532,-0.528575\C,0,0.10247,-1.099823,0.397526\H,0,0.008954,-1.44
 9804,1.435936\H,0,0.527941,-1.953591,-0.129178\C,0,1.096136,0.025281,0
 .348733\C,0,2.489041,-0.391686,0.469907\C,0,-2.950424,1.088404,-0.6509
 03\H,0,-3.033347,2.146532,-0.412091\H,0,-3.102525,0.969311,-1.720644\H
 ,0,-3.757771,0.553276,-0.16516\C,0,-1.718625,-3.25257,-0.252146\H,0,-2
 .561654,-3.923218,-0.376604\H,0,-0.937936,-3.552174,-0.94991\H,0,-1.31
 0311,-3.369913,0.74819\C,0,3.647592,0.535486,0.197444\H,0,3.453072,1.2
 38051,-0.60837\H,0,3.89654,1.105737,1.094232\H,0,4.509567,-0.077312,-0
 .056519\C,0,1.417259,2.583987,0.353938\H,0,2.231353,2.519066,1.064883\
 H,0,1.831768,2.863832,-0.614382\H,0,0.766824,3.396041,0.675055\\Versio
 n=ES64L-G16RevA.03\State=1-A\HF=-633.3295925\RMSD=8.689e-09\Dipole=0.2
 756445,3.216891,0.1215884\Quadrupole=-9.7761672,10.7542419,-0.9780746,
 3.3276822,-6.3099518,0.4911983\PG=C01 [X(C11H15N1O2)]\\@


 SUCCESS IS COUNTED SWEETEST
 BY THOSE WHO NE'ER SUCCEED.
 TO COMPREHEND NECTAR
 REQUIRES SOREST NEED.
           EMILY DICKINSON
 Job cpu time:       0 days  0 hours 12 minutes 48.1 seconds.
 Elapsed time:       0 days  0 hours  0 minutes 48.9 seconds.
 File lengths (MBytes):  RWF=    342 Int=      0 D2E=      0 Chk=     67 Scr=      1
 Normal termination of Gaussian 16 at Sat Jan 24 23:09:34 2026.
