 Entering Gaussian System, Link 0=g16
 Input=DDL-LR-Eq-14.gjf
 Output=DDL-LR-Eq-14.log
 Initial command:
 /data/home/wyx/g16/l1.exe "/scr/tmp/wyx/13117/Gau-2015657.inp" -scrdir="/scr/tmp/wyx/13117/"
 Entering Link 1 = /data/home/wyx/g16/l1.exe PID=   2015658.
  
 Copyright (c) 1988,1990,1992,1993,1995,1998,2003,2009,2016,
            Gaussian, Inc.  All Rights Reserved.
  
 This is part of the Gaussian(R) 16 program.  It is based on
 the Gaussian(R) 09 system (copyright 2009, Gaussian, Inc.),
 the Gaussian(R) 03 system (copyright 2003, Gaussian, Inc.),
 the Gaussian(R) 98 system (copyright 1998, Gaussian, Inc.),
 the Gaussian(R) 94 system (copyright 1995, Gaussian, Inc.),
 the Gaussian 92(TM) system (copyright 1992, Gaussian, Inc.),
 the Gaussian 90(TM) system (copyright 1990, Gaussian, Inc.),
 the Gaussian 88(TM) system (copyright 1988, Gaussian, Inc.),
 the Gaussian 86(TM) system (copyright 1986, Carnegie Mellon
 University), and the Gaussian 82(TM) system (copyright 1983,
 Carnegie Mellon University). Gaussian is a federally registered
 trademark of Gaussian, Inc.
  
 This software contains proprietary and confidential information,
 including trade secrets, belonging to Gaussian, Inc.
  
 This software is provided under written license and may be
 used, copied, transmitted, or stored only in accord with that
 written license.
  
 The following legend is applicable only to US Government
 contracts under FAR:
  
                    RESTRICTED RIGHTS LEGEND
  
 Use, reproduction and disclosure by the US Government is
 subject to restrictions as set forth in subparagraphs (a)
 and (c) of the Commercial Computer Software - Restricted
 Rights clause in FAR 52.227-19.
  
 Gaussian, Inc.
 340 Quinnipiac St., Bldg. 40, Wallingford CT 06492
  
  
 ---------------------------------------------------------------
 Warning -- This program may not be used in any manner that
 competes with the business of Gaussian, Inc. or will provide
 assistance to any competitor of Gaussian, Inc.  The licensee
 of this program is prohibited from giving any competitor of
 Gaussian, Inc. access to this program.  By using this program,
 the user acknowledges that Gaussian, Inc. is engaged in the
 business of creating and licensing software in the field of
 computational chemistry and represents and warrants to the
 licensee that it is not a competitor of Gaussian, Inc. and that
 it will not use this program in any manner prohibited above.
 ---------------------------------------------------------------
  

 Cite this work as:
 Gaussian 16, Revision A.03,
 M. J. Frisch, G. W. Trucks, H. B. Schlegel, G. E. Scuseria, 
 M. A. Robb, J. R. Cheeseman, G. Scalmani, V. Barone, 
 G. A. Petersson, H. Nakatsuji, X. Li, M. Caricato, A. V. Marenich, 
 J. Bloino, B. G. Janesko, R. Gomperts, B. Mennucci, H. P. Hratchian, 
 J. V. Ortiz, A. F. Izmaylov, J. L. Sonnenberg, D. Williams-Young, 
 F. Ding, F. Lipparini, F. Egidi, J. Goings, B. Peng, A. Petrone, 
 T. Henderson, D. Ranasinghe, V. G. Zakrzewski, J. Gao, N. Rega, 
 G. Zheng, W. Liang, M. Hada, M. Ehara, K. Toyota, R. Fukuda, 
 J. Hasegawa, M. Ishida, T. Nakajima, Y. Honda, O. Kitao, H. Nakai, 
 T. Vreven, K. Throssell, J. A. Montgomery, Jr., J. E. Peralta, 
 F. Ogliaro, M. J. Bearpark, J. J. Heyd, E. N. Brothers, K. N. Kudin, 
 V. N. Staroverov, T. A. Keith, R. Kobayashi, J. Normand, 
 K. Raghavachari, A. P. Rendell, J. C. Burant, S. S. Iyengar, 
 J. Tomasi, M. Cossi, J. M. Millam, M. Klene, C. Adamo, R. Cammi, 
 J. W. Ochterski, R. L. Martin, K. Morokuma, O. Farkas, 
 J. B. Foresman, and D. J. Fox, Gaussian, Inc., Wallingford CT, 2016.
 
 ******************************************
 Gaussian 16:  ES64L-G16RevA.03 25-Dec-2016
                24-Jan-2026 
 ******************************************
 %nprocshared=16
 Will use up to   16 processors via shared memory.
 %mem=16GB
 %oldchk=DDL-LR-14.chk
 %chk=DDL-LR-Eq-14.chk
 Copying data from "DDL-LR-14.chk" to current chk file "DDL-LR-Eq-14.chk"
 IOpt=  2 FromEx=T IUOpen= 4 IOptOp= 5 NList=   0 IFRang= 0 IUIn= 4 IUOut= 2.
 ----------------------------------------------------------------------
 #p CAM-B3LYP TZVP em=gd3bj td(Eqsolv,nstates=6,root=1) scrf=(Solvent=W
 ater) Geom=Check Guess=Read
 ----------------------------------------------------------------------
 1/29=2,38=1,172=1/1;
 2/12=2,40=1/2;
 3/5=19,7=101,11=9,14=-4,25=1,30=1,70=2201,72=1,74=-40,116=-2,124=41/1,2,3,8;
 4/5=1/1;
 5/5=2,38=6,53=1/2;
 8/6=1,10=1,107=1,108=6/1;
 9/8=1,41=6,42=1,70=2,73=2/14;
 6/7=2,8=2,9=2,10=2/1;
 99/5=1,9=1/99;
 Leave Link    1 at Sat Jan 24 16:40:10 2026, MaxMem=  2147483648 cpu:               0.8 elap:               0.1
 (Enter /data/home/wyx/g16/l101.exe)
 -------------------
 Title Card Required
 -------------------
 Structure from the checkpoint file:  "DDL-LR-Eq-14.chk"
 Charge =  0 Multiplicity = 1
 Z-Matrix found in chk file.
 O,0,2.74408,-1.558299,0.749034
 O,0,-3.230656,-1.641882,-1.096703
 N,0,-0.708613,1.513486,0.113102
 H,0,-1.016805,2.471204,0.055253
 C,0,-1.248516,-0.758707,-0.15312
 C,0,0.641061,1.302995,0.278281
 C,0,-1.620382,0.546537,-0.230096
 C,0,-2.151921,-1.835866,-0.543762
 C,0,0.098154,-1.104499,0.425558
 H,0,-0.00759,-1.433582,1.468704
 H,0,0.525473,-1.963788,-0.088273
 C,0,1.094001,0.024796,0.35723
 C,0,2.491045,-0.390769,0.459368
 C,0,-2.945089,1.084984,-0.656635
 H,0,-3.0387,2.13535,-0.386148
 H,0,-3.065811,0.997733,-1.734698
 H,0,-3.759662,0.527107,-0.20838
 C,0,-1.7223,-3.250288,-0.252087
 H,0,-2.559188,-3.921853,-0.415316
 H,0,-0.908283,-3.542521,-0.91586
 H,0,-1.357325,-3.363233,0.766948
 C,0,3.647078,0.538279,0.181779
 H,0,3.449182,1.236989,-0.626618
 H,0,3.894563,1.112951,1.076002
 H,0,4.510429,-0.073281,-0.070063
 C,0,1.418371,2.580018,0.350038
 H,0,2.251852,2.5179,1.038412
 H,0,1.803165,2.859635,-0.631042
 H,0,0.772387,3.388601,0.689092
 Recover connectivity data from disk.
 ITRead=  0  0  0  0  0  0  0  0  0  0  0  0  0  0  0  0  0  0  0  0
 ITRead=  0  0  0  0  0  0  0  0  0
 MicOpt= -1 -1 -1 -1 -1 -1 -1 -1 -1 -1 -1 -1 -1 -1 -1 -1 -1 -1 -1 -1
 MicOpt= -1 -1 -1 -1 -1 -1 -1 -1 -1
 NAtoms=     29 NQM=       29 NQMF=       0 NMMI=      0 NMMIF=      0
                NMic=       0 NMicF=      0.
                    Isotopes and Nuclear Properties:
 (Nuclear quadrupole moments (NQMom) in fm**2, nuclear magnetic moments (NMagM)
  in nuclear magnetons)

  Atom         1           2           3           4           5           6           7           8           9          10
 IAtWgt=          16          16          14           1          12          12          12          12          12           1
 AtmWgt=  15.9949146  15.9949146  14.0030740   1.0078250  12.0000000  12.0000000  12.0000000  12.0000000  12.0000000   1.0078250
 NucSpn=           0           0           2           1           0           0           0           0           0           1
 AtZEff=   5.6000000   5.6000000   4.5500000   1.0000000   3.6000000   3.6000000   3.6000000   3.6000000   3.6000000   1.0000000
 NQMom=    0.0000000   0.0000000   2.0440000   0.0000000   0.0000000   0.0000000   0.0000000   0.0000000   0.0000000   0.0000000
 NMagM=    0.0000000   0.0000000   0.4037610   2.7928460   0.0000000   0.0000000   0.0000000   0.0000000   0.0000000   2.7928460
 AtZNuc=   8.0000000   8.0000000   7.0000000   1.0000000   6.0000000   6.0000000   6.0000000   6.0000000   6.0000000   1.0000000

  Atom        11          12          13          14          15          16          17          18          19          20
 IAtWgt=           1          12          12          12           1           1           1          12           1           1
 AtmWgt=   1.0078250  12.0000000  12.0000000  12.0000000   1.0078250   1.0078250   1.0078250  12.0000000   1.0078250   1.0078250
 NucSpn=           1           0           0           0           1           1           1           0           1           1
 AtZEff=   1.0000000   3.6000000   3.6000000   3.6000000   1.0000000   1.0000000   1.0000000   3.6000000   1.0000000   1.0000000
 NQMom=    0.0000000   0.0000000   0.0000000   0.0000000   0.0000000   0.0000000   0.0000000   0.0000000   0.0000000   0.0000000
 NMagM=    2.7928460   0.0000000   0.0000000   0.0000000   2.7928460   2.7928460   2.7928460   0.0000000   2.7928460   2.7928460
 AtZNuc=   1.0000000   6.0000000   6.0000000   6.0000000   1.0000000   1.0000000   1.0000000   6.0000000   1.0000000   1.0000000

  Atom        21          22          23          24          25          26          27          28          29
 IAtWgt=           1          12           1           1           1          12           1           1           1
 AtmWgt=   1.0078250  12.0000000   1.0078250   1.0078250   1.0078250  12.0000000   1.0078250   1.0078250   1.0078250
 NucSpn=           1           0           1           1           1           0           1           1           1
 AtZEff=   1.0000000   3.6000000   1.0000000   1.0000000   1.0000000   3.6000000   1.0000000   1.0000000   1.0000000
 NQMom=    0.0000000   0.0000000   0.0000000   0.0000000   0.0000000   0.0000000   0.0000000   0.0000000   0.0000000
 NMagM=    2.7928460   0.0000000   2.7928460   2.7928460   2.7928460   0.0000000   2.7928460   2.7928460   2.7928460
 AtZNuc=   1.0000000   6.0000000   1.0000000   1.0000000   1.0000000   6.0000000   1.0000000   1.0000000   1.0000000
 Leave Link  101 at Sat Jan 24 16:40:13 2026, MaxMem=  2147483648 cpu:               0.9 elap:               0.1
 (Enter /data/home/wyx/g16/l202.exe)
                          Input orientation:                          
 ---------------------------------------------------------------------
 Center     Atomic      Atomic             Coordinates (Angstroms)
 Number     Number       Type             X           Y           Z
 ---------------------------------------------------------------------
      1          8           0        2.744080   -1.558299    0.749034
      2          8           0       -3.230656   -1.641882   -1.096703
      3          7           0       -0.708613    1.513486    0.113102
      4          1           0       -1.016805    2.471204    0.055253
      5          6           0       -1.248516   -0.758707   -0.153120
      6          6           0        0.641061    1.302995    0.278281
      7          6           0       -1.620382    0.546537   -0.230096
      8          6           0       -2.151921   -1.835866   -0.543762
      9          6           0        0.098154   -1.104499    0.425558
     10          1           0       -0.007590   -1.433582    1.468704
     11          1           0        0.525473   -1.963788   -0.088273
     12          6           0        1.094001    0.024796    0.357230
     13          6           0        2.491045   -0.390769    0.459368
     14          6           0       -2.945089    1.084984   -0.656635
     15          1           0       -3.038700    2.135350   -0.386148
     16          1           0       -3.065811    0.997733   -1.734698
     17          1           0       -3.759662    0.527107   -0.208380
     18          6           0       -1.722300   -3.250288   -0.252087
     19          1           0       -2.559188   -3.921853   -0.415316
     20          1           0       -0.908283   -3.542521   -0.915860
     21          1           0       -1.357325   -3.363233    0.766948
     22          6           0        3.647078    0.538279    0.181779
     23          1           0        3.449182    1.236989   -0.626618
     24          1           0        3.894563    1.112951    1.076002
     25          1           0        4.510429   -0.073281   -0.070063
     26          6           0        1.418371    2.580018    0.350038
     27          1           0        2.251852    2.517900    1.038412
     28          1           0        1.803165    2.859635   -0.631042
     29          1           0        0.772387    3.388601    0.689092
 ---------------------------------------------------------------------
                    Distance matrix (angstroms):
                    1          2          3          4          5
     1  O    0.000000
     2  O    6.253895   0.000000
     3  N    4.664907   4.216714   0.000000
     4  H    5.555401   4.810989   1.007746   0.000000
     5  C    4.170618   2.366268   2.350581   3.244909   0.000000
     6  C    3.582080   5.055005   1.375940   2.040337   2.829704
     7  C    4.943436   2.851871   1.372624   2.037173   1.359364
     8  C    5.071409   1.227617   3.705775   4.494236   1.459114
     9  C    2.703978   3.699599   2.757235   3.763763   1.505975
    10  H    2.846958   4.124664   3.318780   4.273606   2.150736
    11  H    2.405768   3.902443   3.695261   4.697699   2.145568
    12  C    2.320013   4.857406   2.350577   3.245243   2.522245
    13  C    1.229252   6.060075   3.739505   4.545240   3.807208
    14  C    6.428802   2.776870   2.403733   2.479248   2.555599
    15  H    6.955014   3.848275   2.462777   2.096591   3.410957
    16  H    6.815941   2.720621   3.039202   3.094102   2.981448
    17  H    6.896682   2.402806   3.222607   3.372281   2.821742
    18  C    4.879920   2.361246   4.884104   5.773011   2.538157
    19  H    5.921718   2.472534   5.766001   6.593296   3.433963
    20  H    4.477585   3.006418   5.163510   6.092596   2.906398
    21  H    4.481030   3.153667   4.962936   5.887539   2.764402
    22  C    2.352195   7.327404   4.464055   5.050150   5.075546
    23  H    3.194248   7.288972   4.232127   4.683297   5.125951
    24  H    2.926789   7.942197   4.719834   5.196953   5.609377
    25  H    2.448711   7.964854   5.458001   6.086084   5.800186
    26  C    4.363756   6.444451   2.391169   2.455366   4.302620
    27  H    4.115996   7.205581   3.260276   3.413635   4.940494
    28  H    4.723142   6.769036   2.945318   2.928158   4.757475
    29  H    5.325691   6.672269   2.457882   2.108217   4.689726
                    6          7          8          9         10
     6  C    0.000000
     7  C    2.438196   0.000000
     8  C    4.281232   2.461049   0.000000
     9  C    2.472340   2.471673   2.556818   0.000000
    10  H    3.053966   3.067229   2.968166   1.098923   0.000000
    11  H    3.289315   3.305532   2.718873   1.088578   1.729003
    12  C    1.358374   2.825781   3.848358   1.507212   2.139099
    13  C    2.514770   4.272907   4.965049   2.497295   2.889532
    14  C    3.712421   1.492216   3.028732   3.902090   4.414651
    15  H    3.830786   2.135487   4.072073   4.582067   5.036405
    16  H    4.229204   2.134636   3.206682   4.369984   5.052306
    17  H    4.495020   2.139478   2.877665   4.236362   4.553565
    18  C    5.157437   3.798256   1.506731   2.894420   3.033442
    19  H    6.166174   4.569702   2.129250   3.963082   4.031337
    20  H    5.225463   4.206870   2.144240   2.959099   3.308325
    21  H    5.099610   4.043464   2.163838   2.708661   2.457193
    22  C    3.103263   5.283545   6.308040   3.918292   4.347529
    23  H    2.951058   5.131709   6.389183   4.221259   4.844749
    24  H    3.355257   5.695730   6.919474   4.444422   4.676093
    25  H    4.121588   6.164141   6.907822   4.558204   4.962934
    26  C    1.496712   3.702110   5.748556   3.914632   4.403835
    27  H    2.156024   4.526542   6.391539   4.258612   4.572137
    28  H    2.144873   4.151127   6.139874   4.442727   5.110722
    29  H    2.129733   3.827215   6.112819   4.551043   4.946676
                   11         12         13         14         15
    11  H    0.000000
    12  C    2.115695   0.000000
    13  C    2.576388   1.461115   0.000000
    14  C    4.654336   4.297228   5.742374   0.000000
    15  H    5.440128   4.699603   6.137936   1.088667   0.000000
    16  H    4.937473   4.756764   6.133556   1.088304   1.764510
    17  H    4.957960   4.912258   6.352930   1.084292   1.771393
    18  C    2.595072   4.362223   5.141526   4.522550   5.545807
    19  H    3.668257   5.433107   6.224024   5.027482   6.076223
    20  H    2.287565   4.284349   4.835310   5.062566   6.087486
    21  H    2.496954   4.201858   4.872381   4.932972   5.864390
    22  C    4.009699   2.610105   1.508840   6.667720   6.897304
    23  H    4.368394   2.825641   2.178758   6.396148   6.554196
    24  H    4.708782   3.089314   2.147388   7.055753   7.159142
    25  H    4.410694   3.444442   2.111636   7.567720   7.871932
    26  C    4.651404   2.575738   3.160405   4.721049   4.539293
    27  H    4.933085   2.831995   2.975376   5.651073   5.492327
    28  H    5.019214   3.084786   3.496755   5.069118   4.901859
    29  H    5.414179   3.395402   4.158148   4.575725   4.153452
                   16         17         18         19         20
    16  H    0.000000
    17  H    1.741426   0.000000
    18  C    4.695619   4.292024   0.000000
    19  H    5.118570   4.612722   1.085368   0.000000
    20  H    5.093067   5.019239   1.090238   1.766331   0.000000
    21  H    5.309914   4.675172   1.088299   1.776029   1.750893
    22  C    6.996203   7.417017   6.585719   7.665966   6.213618
    23  H    6.612883   7.255776   6.857124   7.922046   6.474170
    24  H    7.507337   7.783316   7.235387   8.320107   6.979131
    25  H    7.830549   8.293009   6.998101   8.056686   6.489487
    26  C    5.192075   5.598062   6.649725   7.660357   6.670929
    27  H    6.186969   6.454150   7.122588   8.168834   7.108751
    28  H    5.328383   6.046848   7.064253   8.066303   6.958496
    29  H    5.130572   5.434434   7.154308   8.109368   7.310333
                   21         22         23         24         25
    21  H    0.000000
    22  C    6.372462   0.000000
    23  H    6.797542   1.086676   0.000000
    24  H    6.907537   1.091390   1.764275   0.000000
    25  H    6.779005   1.087568   1.775614   1.760654   0.000000
    26  C    6.572711   3.027234   2.623314   2.968305   4.096011
    27  H    6.905619   2.568925   2.417986   2.161896   3.611662
    28  H    7.118087   3.073985   2.311357   3.215408   4.030629
    29  H    7.080183   4.079896   3.677738   3.882817   5.151107
                   26         27         28         29
    26  C    0.000000
    27  H    1.082778   0.000000
    28  H    1.090307   1.762152   0.000000
    29  H    1.089064   1.751845   1.756434   0.000000
 Stoichiometry    C11H15NO2
 Framework group  C1[X(C11H15NO2)]
 Deg. of freedom    81
 Full point group                 C1      NOp   1
 RotChk:  IX=0 Diff= 4.00D-16
 Largest Abelian subgroup         C1      NOp   1
 Largest concise Abelian subgroup C1      NOp   1
                         Standard orientation:                         
 ---------------------------------------------------------------------
 Center     Atomic      Atomic             Coordinates (Angstroms)
 Number     Number       Type             X           Y           Z
 ---------------------------------------------------------------------
      1          8           0       -2.286449   -2.281171   -0.188026
      2          8           0        3.592296   -0.248108    0.458670
      3          7           0       -0.026987    1.799700   -0.239863
      4          1           0       -0.057103    2.806987   -0.244108
      5          6           0        1.291071   -0.140124   -0.081636
      6          6           0       -1.231081    1.141558   -0.138776
      7          6           0        1.205251    1.216528   -0.079870
      8          6           0        2.561675   -0.826567    0.126632
      9          6           0        0.060049   -0.952253   -0.386577
     10          1           0        0.078534   -1.296542   -1.430012
     11          1           0        0.051392   -1.868271    0.201503
     12          6           0       -1.229606   -0.216762   -0.126712
     13          6           0       -2.396273   -1.079340    0.045640
     14          6           0        2.322795    2.192370    0.079933
     15          1           0        2.003193    3.193399   -0.204656
     16          1           0        2.660961    2.222731    1.113919
     17          1           0        3.181761    1.908593   -0.517844
     18          6           0        2.591997   -2.319523   -0.074362
     19          1           0        3.621972   -2.661825   -0.076600
     20          1           0        2.061496   -2.820761    0.735544
     21          1           0        2.107205   -2.615509   -1.002675
     22          6           0       -3.727493   -0.571479    0.542160
     23          1           0       -3.634201    0.205788    1.295829
     24          1           0       -4.314436   -0.173208   -0.287303
     25          1           0       -4.270467   -1.417115    0.957954
     26          6           0       -2.394854    2.079331   -0.059027
     27          1           0       -3.268708    1.697435   -0.571806
     28          1           0       -2.665377    2.280081    0.977934
     29          1           0       -2.135264    3.032124   -0.518219
 ---------------------------------------------------------------------
 Rotational constants (GHZ):           1.0785988           0.4908285           0.3468335
 Leave Link  202 at Sat Jan 24 16:40:13 2026, MaxMem=  2147483648 cpu:               0.0 elap:               0.0
 (Enter /data/home/wyx/g16/l301.exe)
 Standard basis: TZVP (5D, 7F)
 Ernie: Thresh=  0.10000D-02 Tol=  0.10000D-05 Strict=F.
 There are   370 symmetry adapted cartesian basis functions of A   symmetry.
 There are   356 symmetry adapted basis functions of A   symmetry.
   356 basis functions,   610 primitive gaussians,   370 cartesian basis functions
    52 alpha electrons       52 beta electrons
       nuclear repulsion energy       900.8334184365 Hartrees.
 IExCor=20419 DFT=T Ex+Corr=CAM-B3LYP ExCW=0 ScaHFX=  1.000000
 ScaDFX=  1.000000  1.000000  1.000000  0.810000 ScalE2=  1.000000  1.000000
 IRadAn=      5 IRanWt=     -1 IRanGd=            0 ICorTp=0 IEmpDi=141
 HFx  wShort=  0.000000 wLong=  0.330000 cFull=  0.190000 cShort=  0.000000 cLong=  0.460000
 DFx  wShort=  0.000000 wLong=  0.330000 cFull=  0.190000 cShort=  0.000000 cLong=  0.460000
 NAtoms=   29 NActive=   29 NUniq=   29 SFac= 1.00D+00 NAtFMM=   60 NAOKFM=F Big=F
 Integral buffers will be    131072 words long.
 Raffenetti 1 integral format.
 Two-electron integral symmetry is turned on.
 R6Disp:  Grimme-D3(BJ) Dispersion energy=       -0.0262121042 Hartrees.
 Nuclear repulsion after empirical dispersion term =      900.8072063323 Hartrees.
 ------------------------------------------------------------------------------
 Polarizable Continuum Model (PCM)
 =================================
 Model                : PCM.
 Atomic radii         : UFF (Universal Force Field).
 Polarization charges : Total charges.
 Charge compensation  : None.
 Solution method      : On-the-fly selection.
 Cavity type          : Scaled VdW (van der Waals Surface) (Alpha=1.100).
 Cavity algorithm     : GePol (No added spheres)
                        Default sphere list used, NSphG=   29.
                        Lebedev-Laikov grids with approx.  5.0 points / Ang**2.
                        Smoothing algorithm: York/Karplus (Gamma=1.0000).
                        Polarization charges: spherical gaussians, with
                                              point-specific exponents (IZeta= 3).
                        Self-potential: point-specific (ISelfS= 7).
                        Self-field    : sphere-specific E.n sum rule (ISelfD= 2).
 Solvent              : Water, Eps=  78.355300 Eps(inf)=   1.777849
 ------------------------------------------------------------------------------
 GePol: Number of generator spheres                  =      29
 GePol: Total number of spheres                      =      29
 GePol: Number of exposed spheres                    =      29 (100.00%)
 GePol: Number of points                             =    2100
 GePol: Average weight of points                     =       0.13
 GePol: Minimum weight of points                     =   0.29D-09
 GePol: Maximum weight of points                     =    0.20577
 GePol: Number of points with low weight             =     150
 GePol: Fraction of low-weight points (<1% of avg)   =       7.14%
 GePol: Cavity surface area                          =    268.569 Ang**2
 GePol: Cavity volume                                =    286.670 Ang**3
 Leave Link  301 at Sat Jan 24 16:40:13 2026, MaxMem=  2147483648 cpu:               0.6 elap:               0.0
 (Enter /data/home/wyx/g16/l302.exe)
 NPDir=0 NMtPBC=     1 NCelOv=     1 NCel=       1 NClECP=     1 NCelD=      1
         NCelK=      1 NCelE2=     1 NClLst=     1 CellRange=     0.0.
 One-electron integrals computed using PRISM.
 One-electron integral symmetry used in STVInt
 NBasis=   356 RedAO= T EigKep=  4.71D-05  NBF=   356
 NBsUse=   356 1.00D-06 EigRej= -1.00D+00 NBFU=   356
 Precomputing XC quadrature grid using
 IXCGrd= 4 IRadAn=           5 IRanWt=          -1 IRanGd=           0 AccXCQ= 0.00D+00.
 Generated NRdTot=       0 NPtTot=           0 NUsed=           0 NTot=          32
 NSgBfM=   366   366   366   366   366 MxSgAt=    29 MxSgA2=    29.
 Leave Link  302 at Sat Jan 24 16:40:13 2026, MaxMem=  2147483648 cpu:               3.2 elap:               0.2
 (Enter /data/home/wyx/g16/l303.exe)
 DipDrv:  MaxL=1.
 Leave Link  303 at Sat Jan 24 16:40:14 2026, MaxMem=  2147483648 cpu:               0.6 elap:               0.0
 (Enter /data/home/wyx/g16/l308.exe)
 Leave Link  308 at Sat Jan 24 16:40:14 2026, MaxMem=  2147483648 cpu:               0.7 elap:               0.1
 (Enter /data/home/wyx/g16/l401.exe)
 Initial guess from the checkpoint file:  "DDL-LR-Eq-14.chk"
 B after Tr=    -0.000000    0.000000   -0.000000
         Rot=    1.000000   -0.000000   -0.000000    0.000000 Ang=   0.00 deg.
 Guess basis will be translated and rotated to current coordinates.
 JPrj=2 DoOrth=T DoCkMO=T.
 Leave Link  401 at Sat Jan 24 16:40:14 2026, MaxMem=  2147483648 cpu:               2.2 elap:               0.2
 (Enter /data/home/wyx/g16/l502.exe)
 Integral symmetry usage will be decided dynamically.
 Closed shell SCF:
 Using DIIS extrapolation, IDIIS=  1040.
 NGot=  2147483648 LenX=  2147200095 LenY=  2147062754
 Requested convergence on RMS density matrix=1.00D-08 within 128 cycles.
 Requested convergence on MAX density matrix=1.00D-06.
 Requested convergence on             energy=1.00D-06.
 No special actions if energy rises.
 Fock matrices will be formed incrementally for  20 cycles.

 Cycle   1  Pass 1  IDiag  1:
 FoFJK:  IHMeth= 1 ICntrl=       0 DoSepK=T KAlg= 0 I1Cent=           0 FoldK=F
 IRaf=         1 NMat=       1 IRICut=       1 DoRegI=T DoRafI=F ISym2E= 0 IDoP0=0 IntGTp=1.
 FoFCou: FMM=F IPFlag=           0 FMFlag=      100000 FMFlg1=           0
         NFxFlg=           0 DoJE=T BraDBF=F KetDBF=F FulRan=T
         wScrn=  0.000000 ICntrl=       500 IOpCl=  0 I1Cent=           0 NGrid=           0
         NMat0=    1 NMatS0=      1 NMatT0=    0 NMatD0=    1 NMtDS0=    0 NMtDT0=    0
 Symmetry not used in FoFCou.
 Inv3:  Mode=1 IEnd=    13230000.
 Iteration    1 A*A^-1 deviation from unit magnitude is 3.33D-15 for   1802.
 Iteration    1 A*A^-1 deviation from orthogonality  is 2.89D-15 for   2023   1557.
 Iteration    1 A^-1*A deviation from unit magnitude is 3.11D-15 for   1402.
 Iteration    1 A^-1*A deviation from orthogonality  is 1.71D-15 for   1224    589.
 E= -633.332243288448    
 DIIS: error= 1.40D-08 at cycle   1 NSaved=   1.
 NSaved= 1 IEnMin= 1 EnMin= -633.332243288448     IErMin= 1 ErrMin= 1.40D-08
 ErrMax= 1.40D-08  0.00D+00 EMaxC= 1.00D-01 BMatC= 5.41D-14 BMatP= 5.41D-14
 IDIUse=1 WtCom= 1.00D+00 WtEn= 0.00D+00
 Coeff-Com:  0.100D+01
 Coeff:      0.100D+01
 Gap=     0.237 Goal=   None    Shift=    0.000
 RMSDP=2.54D-09 MaxDP=7.34D-08              OVMax= 3.06D-07

 Error on total polarization charges =  0.01548
 SCF Done:  E(RCAM-B3LYP) =  -633.332243288     A.U. after    1 cycles
            NFock=  1  Conv=0.25D-08     -V/T= 2.0041
 KE= 6.307205355828D+02 PE=-3.277697893465D+03 EE= 1.112837908261D+03
 Leave Link  502 at Sat Jan 24 16:40:20 2026, MaxMem=  2147483648 cpu:              85.6 elap:               5.6
 (Enter /data/home/wyx/g16/l801.exe)
 DoSCS=F DFT=T ScalE2(SS,OS)=  1.000000  1.000000
 ExpMin= 9.52D-02 ExpMax= 2.70D+04 ExpMxC= 9.22D+02 IAcc=3 IRadAn=         5 AccDes= 0.00D+00
 HarFok:  IExCor=  205 AccDes= 0.00D+00 IRadAn=         5 IDoV=-2 UseB2=F ITyADJ=14
 ICtDFT= 12500011 ScaDFX=  1.000000  1.000000  1.000000  1.000000
 Largest valence mixing into a core orbital is  5.64D-05
 Largest core mixing into a valence orbital is  1.20D-05
 Range of M.O.s used for correlation:    15   356
 NBasis=   356 NAE=    52 NBE=    52 NFC=    14 NFV=     0
 NROrb=    342 NOA=    38 NOB=    38 NVA=   304 NVB=   304

 **** Warning!!: The largest alpha MO coefficient is  0.53859962D+02

 Leave Link  801 at Sat Jan 24 16:40:20 2026, MaxMem=  2147483648 cpu:               1.0 elap:               0.1
 (Enter /data/home/wyx/g16/l914.exe)
 RHF ground state
 Two-electron integrals replicated using symmetry.
 MDV=  2147483648 DFT=T DoStab=F Mixed=T DoRPA=T DoScal=F NonHer=T
 NEqPCM:  Using equilibrium solvation (IEInf=0, Eps=  78.3553, EpsInf=   1.7778)
 Making orbital integer symmetry assigments:
 Orbital symmetries:
       Occupied  (A) (A) (A) (A) (A) (A) (A) (A) (A) (A) (A) (A)
                 (A) (A) (A) (A) (A) (A) (A) (A) (A) (A) (A) (A)
                 (A) (A) (A) (A) (A) (A) (A) (A) (A) (A) (A) (A)
                 (A) (A) (A) (A) (A) (A) (A) (A) (A) (A) (A) (A)
                 (A) (A) (A) (A)
       Virtual   (A) (A) (A) (A) (A) (A) (A) (A) (A) (A) (A) (A)
                 (A) (A) (A) (A) (A) (A) (A) (A) (A) (A) (A) (A)
                 (A) (A) (A) (A) (A) (A) (A) (A) (A) (A) (A) (A)
                 (A) (A) (A) (A) (A) (A) (A) (A) (A) (A) (A) (A)
                 (A) (A) (A) (A) (A) (A) (A) (A) (A) (A) (A) (A)
                 (A) (A) (A) (A) (A) (A) (A) (A) (A) (A) (A) (A)
                 (A) (A) (A) (A) (A) (A) (A) (A) (A) (A) (A) (A)
                 (A) (A) (A) (A) (A) (A) (A) (A) (A) (A) (A) (A)
                 (A) (A) (A) (A) (A) (A) (A) (A) (A) (A) (A) (A)
                 (A) (A) (A) (A) (A) (A) (A) (A) (A) (A) (A) (A)
                 (A) (A) (A) (A) (A) (A) (A) (A) (A) (A) (A) (A)
                 (A) (A) (A) (A) (A) (A) (A) (A) (A) (A) (A) (A)
                 (A) (A) (A) (A) (A) (A) (A) (A) (A) (A) (A) (A)
                 (A) (A) (A) (A) (A) (A) (A) (A) (A) (A) (A) (A)
                 (A) (A) (A) (A) (A) (A) (A) (A) (A) (A) (A) (A)
                 (A) (A) (A) (A) (A) (A) (A) (A) (A) (A) (A) (A)
                 (A) (A) (A) (A) (A) (A) (A) (A) (A) (A) (A) (A)
                 (A) (A) (A) (A) (A) (A) (A) (A) (A) (A) (A) (A)
                 (A) (A) (A) (A) (A) (A) (A) (A) (A) (A) (A) (A)
                 (A) (A) (A) (A) (A) (A) (A) (A) (A) (A) (A) (A)
                 (A) (A) (A) (A) (A) (A) (A) (A) (A) (A) (A) (A)
                 (A) (A) (A) (A) (A) (A) (A) (A) (A) (A) (A) (A)
                 (A) (A) (A) (A) (A) (A) (A) (A) (A) (A) (A) (A)
                 (A) (A) (A) (A) (A) (A) (A) (A) (A) (A) (A) (A)
                 (A) (A) (A) (A) (A) (A) (A) (A) (A) (A) (A) (A)
                 (A) (A) (A) (A)
    24 initial guesses have been made.
 Convergence on wavefunction:    0.001000000000000
 Davidson Disk Diagonalization:  ConvIn= 1.00D-03 SkipCon=T Conv= 1.00D-03.
 Max sub-space:  2000 roots to seek:    24 dimension of matrix:        23104
 Iteration     1 Dimension    24 NMult     0 NNew     24
 CISAX will form    24 AO SS matrices at one time.
 NMat=    24 NSing=    24 JSym2X= 0.
 FoFJK:  IHMeth= 1 ICntrl=       0 DoSepK=T KAlg= 0 I1Cent=           0 FoldK=F
 IRaf=         1 NMat=      48 IRICut=       1 DoRegI=T DoRafI=F ISym2E= 0 IDoP0=3 IntGTp=3.
 FoFCou: FMM=F IPFlag=           0 FMFlag=      100000 FMFlg1=           0
         NFxFlg=           0 DoJE=F BraDBF=F KetDBF=F FulRan=T
         wScrn=  0.000000 ICntrl=       500 IOpCl=  0 I1Cent=           0 NGrid=           0
         NMat0=   24 NMatS0=     24 NMatT0=    0 NMatD0=   24 NMtDS0=    0 NMtDT0=    0
 Symmetry not used in FoFCou.
 New state      2 was old state      3
 New state      3 was old state      4
 New state      4 was old state      2
 New state      5 was old state      6
 New state      6 was old state      5
 Excitation Energies [eV] at current iteration:
 Root      1 :     3.810398517141977
 Root      2 :     4.346747470252692
 Root      3 :     4.537965261756795
 Root      4 :     5.489514082710328
 Root      5 :     6.124793964630200
 Root      6 :     6.285615264902873
 Root      7 :     6.801715152140824
 Root      8 :     6.822126795184331
 Root      9 :     7.020649445839442
 Root     10 :     7.105878089959655
 Root     11 :     7.198865191086405
 Root     12 :     7.414551176688407
 Root     13 :     7.579312378174636
 Root     14 :     7.644282883095141
 Root     15 :     7.822419956752784
 Root     16 :     7.953146510892753
 Root     17 :     8.154561041640653
 Root     18 :     8.288711286014122
 Root     19 :     8.295697128795370
 Root     20 :     8.640760212357966
 Root     21 :     8.773517687465716
 Root     22 :     8.867277991026169
 Root     23 :     8.981848276624586
 Root     24 :     9.231050572026152
 Iteration     2 Dimension    36 NMult    24 NNew     12
 CISAX will form    12 AO SS matrices at one time.
 NMat=    12 NSing=    12 JSym2X= 0.
 Root      1 not converged, maximum delta is    0.045631413327690
 Root      2 not converged, maximum delta is    0.073377286497337
 Root      3 not converged, maximum delta is    0.087687166056865
 Root      4 not converged, maximum delta is    0.356409843521530
 Root      5 not converged, maximum delta is    0.405513797263675
 Root      6 not converged, maximum delta is    0.283875203368302
 Excitation Energies [eV] at current iteration:
 Root      1 :     3.388258176593241   Change is   -0.422140340548737
 Root      2 :     4.114854431501723   Change is   -0.231893038750969
 Root      3 :     4.269135168542191   Change is   -0.268830093214604
 Root      4 :     5.043318503652886   Change is   -0.446195579057442
 Root      5 :     5.523451301547857   Change is   -0.601342663082343
 Root      6 :     6.050598455334632   Change is   -0.235016809568241
 Iteration     3 Dimension    48 NMult    36 NNew     12
 CISAX will form    12 AO SS matrices at one time.
 NMat=    12 NSing=    12 JSym2X= 0.
 Root      1 not converged, maximum delta is    0.006601646935203
 Root      2 not converged, maximum delta is    0.011527252658874
 Root      3 not converged, maximum delta is    0.012377129818580
 Root      4 not converged, maximum delta is    0.010179715051696
 Root      5 not converged, maximum delta is    0.010599241237586
 Root      6 not converged, maximum delta is    0.018641684227361
 Excitation Energies [eV] at current iteration:
 Root      1 :     3.373871259643691   Change is   -0.014386916949550
 Root      2 :     4.101859743565412   Change is   -0.012994687936311
 Root      3 :     4.255643957089397   Change is   -0.013491211452793
 Root      4 :     5.023098846297976   Change is   -0.020219657354910
 Root      5 :     5.508881337120425   Change is   -0.014569964427432
 Root      6 :     6.039355285611050   Change is   -0.011243169723583
 Iteration     4 Dimension    60 NMult    48 NNew     12
 CISAX will form    12 AO SS matrices at one time.
 NMat=    12 NSing=    12 JSym2X= 0.
 Root      1 not converged, maximum delta is    0.001729543741919
 Root      2 not converged, maximum delta is    0.002291678595560
 Root      3 not converged, maximum delta is    0.002069443838550
 Root      4 not converged, maximum delta is    0.002982891935277
 Root      5 not converged, maximum delta is    0.002070039369646
 Root      6 not converged, maximum delta is    0.003532258509068
 Excitation Energies [eV] at current iteration:
 Root      1 :     3.372743484998741   Change is   -0.001127774644950
 Root      2 :     4.100986270150963   Change is   -0.000873473414450
 Root      3 :     4.254828141543757   Change is   -0.000815815545640
 Root      4 :     5.021411719405489   Change is   -0.001687126892487
 Root      5 :     5.507458964755803   Change is   -0.001422372364623
 Root      6 :     6.038601713992784   Change is   -0.000753571618266
 Iteration     5 Dimension    72 NMult    60 NNew     12
 CISAX will form    12 AO SS matrices at one time.
 NMat=    12 NSing=    12 JSym2X= 0.
 Root      1 has converged.
 Root      2 has converged.
 Root      3 has converged.
 Root      4 has converged.
 Root      5 has converged.
 Root      6 has converged.
 Excitation Energies [eV] at current iteration:
 Root      1 :     3.372690184061755   Change is   -0.000053300936986
 Root      2 :     4.100945531058801   Change is   -0.000040739092162
 Root      3 :     4.254785892095238   Change is   -0.000042249448520
 Root      4 :     5.021278653910173   Change is   -0.000133065495316
 Root      5 :     5.507337583217451   Change is   -0.000121381538351
 Root      6 :     6.038553048995199   Change is   -0.000048664997585
 Convergence achieved on expansion vectors.
 ***********************************************************************
 Excited states from <AA,BB:AA,BB> singles matrix:
 ***********************************************************************
 
 1PDM for each excited state written to RWF  633
 Ground to excited state transition densities written to RWF  633
 Ground to excited state transition electric dipole moments (Au):
       state          X           Y           Z        Dip. S.      Osc.
         1         1.7008      0.2177      0.0578      2.9436      0.2432
         2         0.1566     -0.0051      0.0461      0.0267      0.0027
         3         0.0057      0.1753     -0.0397      0.0323      0.0034
         4         0.2013     -1.9841      0.1458      3.9984      0.4919
         5         0.0708     -1.4232      0.0167      2.0307      0.2740
         6        -0.0272      0.2783      0.0563      0.0814      0.0120
 Ground to excited state transition velocity dipole moments (Au):
       state          X           Y           Z        Dip. S.      Osc.
         1        -0.2026     -0.0225     -0.0079      0.0416      0.2238
         2        -0.0228      0.0010     -0.0040      0.0005      0.0024
         3        -0.0009     -0.0259      0.0027      0.0007      0.0029
         4        -0.0393      0.3517     -0.0221      0.1257      0.4542
         5        -0.0143      0.2835     -0.0046      0.0806      0.2654
         6         0.0067     -0.0576     -0.0322      0.0044      0.0132
 Ground to excited state transition magnetic dipole moments (Au):
       state          X           Y           Z
         1        -0.0763     -0.0064      1.4306
         2         0.8091      0.1458      0.3682
         3         0.1540      0.9998      0.1877
         4         0.0857      0.1300     -0.1254
         5         0.1965      0.1052     -0.2660
         6         0.0498      0.0234     -0.0347
 Ground to excited state transition velocity quadrupole moments (Au):
       state          XX          YY          ZZ          XY          XZ          YZ
         1        -0.1941      0.1126     -0.0007      0.5584     -0.0644      0.0121
         2         0.0021     -0.0078      0.0039      0.0620     -0.0190      0.0896
         3         0.0199     -0.0121      0.0301      0.0562     -0.0684      0.0086
         4        -1.3752      0.3220     -0.0003     -0.1287     -0.1017     -0.0530
         5        -0.4122      0.2454      0.0497     -0.2116     -0.0662      0.0445
         6        -0.3337     -0.2572      0.2134     -0.0220     -0.0438      0.1075
 <0|del|b> * <b|rxdel|0> + <0|del|b> * <b|delr+rdel|0>
 Rotatory Strengths (R) in cgs (10**-40 erg-esu-cm/Gauss)
       state          XX          YY          ZZ    R(velocity)    E-M Angle
         1       -48.2993     17.5534     55.6552      8.3031       89.14
         2        -3.6510    -50.8924    -38.1538    -30.8991      161.36
         3       -60.9515      0.4633    -54.7667    -38.4183      162.19
         4       166.9230     -2.5990      8.5955     57.6399       50.47
         5        88.6754     -5.5789     15.4854     32.8607       73.36
         6        -3.2612      2.3379      1.2566      0.1111       88.61
 1/2[<0|r|b>*<b|rxdel|0> + (<0|rxdel|b>*<b|r|0>)*]
 Rotatory Strengths (R) in cgs (10**-40 erg-esu-cm/Gauss)
       state          XX          YY          ZZ     R(length)
         1        91.7937      0.9797    -58.4843     11.4297
         2       -89.5928      0.5244    -12.0104    -33.6929
         3        -0.6179   -123.9181      5.2654    -39.7569
         4       -12.2019    182.3824     12.9306     61.0370
         5        -9.8441    105.8320      3.1447     33.0442
         6         0.9573     -4.5966      1.3812     -0.7527
  1/2[<0|del|b>*<b|r|0> + (<0|r|b>*<b|del|0>)*] (Au)
       state          X           Y           Z        Dip. S.   Osc.(frdel)
         1        -0.3446     -0.0049     -0.0005      0.3499      0.2333
         2        -0.0036     -0.0000     -0.0002      0.0038      0.0025
         3        -0.0000     -0.0045     -0.0001      0.0046      0.0031
         4        -0.0079     -0.6978     -0.0032      0.7089      0.4726
         5        -0.0010     -0.4034     -0.0001      0.4045      0.2697
         6        -0.0002     -0.0160     -0.0018      0.0180      0.0120

 Excitation energies and oscillator strengths:
 
 Excited State   1:      Singlet-A      3.3727 eV  367.61 nm  f=0.2432  <S**2>=0.000
      52 -> 53         0.69876
 This state for optimization and/or second-order correction.
 Total Energy, E(TD-HF/TD-DFT) =  -633.208299205    
 Copying the excited state density for this state as the 1-particle RhoCI density.
 
 Excited State   2:      Singlet-A      4.1009 eV  302.33 nm  f=0.0027  <S**2>=0.000
      50 -> 53         0.11659
      50 -> 54         0.19994
      51 -> 53         0.55992
      51 -> 54         0.31931
 
 Excited State   3:      Singlet-A      4.2548 eV  291.40 nm  f=0.0034  <S**2>=0.000
      49 -> 53         0.26600
      49 -> 54        -0.17833
      50 -> 53         0.50290
      50 -> 54        -0.24104
      50 -> 58         0.10675
      51 -> 53        -0.10600
      51 -> 54         0.21419
 
 Excited State   4:      Singlet-A      5.0213 eV  246.92 nm  f=0.4919  <S**2>=0.000
      49 -> 53         0.13345
      52 -> 54         0.68375
 
 Excited State   5:      Singlet-A      5.5073 eV  225.13 nm  f=0.2740  <S**2>=0.000
      49 -> 53         0.58646
      50 -> 53        -0.30713
      51 -> 53         0.15288
      52 -> 54        -0.13753
 
 Excited State   6:      Singlet-A      6.0386 eV  205.32 nm  f=0.0120  <S**2>=0.000
      52 -> 55         0.66333
      52 -> 56        -0.14217
 SavETr:  write IOETrn=   770 NScale= 10 NData=  16 NLR=1 NState=    6 LETran=     118.
 Leave Link  914 at Sat Jan 24 16:42:13 2026, MaxMem=  2147483648 cpu:            1794.4 elap:             112.6
 (Enter /data/home/wyx/g16/l601.exe)
 Copying SCF densities to generalized density rwf, IOpCl= 0 IROHF=0.

 **********************************************************************

            Population analysis using the SCF density.

 **********************************************************************

 Orbital symmetries:
       Occupied  (A) (A) (A) (A) (A) (A) (A) (A) (A) (A) (A) (A)
                 (A) (A) (A) (A) (A) (A) (A) (A) (A) (A) (A) (A)
                 (A) (A) (A) (A) (A) (A) (A) (A) (A) (A) (A) (A)
                 (A) (A) (A) (A) (A) (A) (A) (A) (A) (A) (A) (A)
                 (A) (A) (A) (A)
       Virtual   (A) (A) (A) (A) (A) (A) (A) (A) (A) (A) (A) (A)
                 (A) (A) (A) (A) (A) (A) (A) (A) (A) (A) (A) (A)
                 (A) (A) (A) (A) (A) (A) (A) (A) (A) (A) (A) (A)
                 (A) (A) (A) (A) (A) (A) (A) (A) (A) (A) (A) (A)
                 (A) (A) (A) (A) (A) (A) (A) (A) (A) (A) (A) (A)
                 (A) (A) (A) (A) (A) (A) (A) (A) (A) (A) (A) (A)
                 (A) (A) (A) (A) (A) (A) (A) (A) (A) (A) (A) (A)
                 (A) (A) (A) (A) (A) (A) (A) (A) (A) (A) (A) (A)
                 (A) (A) (A) (A) (A) (A) (A) (A) (A) (A) (A) (A)
                 (A) (A) (A) (A) (A) (A) (A) (A) (A) (A) (A) (A)
                 (A) (A) (A) (A) (A) (A) (A) (A) (A) (A) (A) (A)
                 (A) (A) (A) (A) (A) (A) (A) (A) (A) (A) (A) (A)
                 (A) (A) (A) (A) (A) (A) (A) (A) (A) (A) (A) (A)
                 (A) (A) (A) (A) (A) (A) (A) (A) (A) (A) (A) (A)
                 (A) (A) (A) (A) (A) (A) (A) (A) (A) (A) (A) (A)
                 (A) (A) (A) (A) (A) (A) (A) (A) (A) (A) (A) (A)
                 (A) (A) (A) (A) (A) (A) (A) (A) (A) (A) (A) (A)
                 (A) (A) (A) (A) (A) (A) (A) (A) (A) (A) (A) (A)
                 (A) (A) (A) (A) (A) (A) (A) (A) (A) (A) (A) (A)
                 (A) (A) (A) (A) (A) (A) (A) (A) (A) (A) (A) (A)
                 (A) (A) (A) (A) (A) (A) (A) (A) (A) (A) (A) (A)
                 (A) (A) (A) (A) (A) (A) (A) (A) (A) (A) (A) (A)
                 (A) (A) (A) (A) (A) (A) (A) (A) (A) (A) (A) (A)
                 (A) (A) (A) (A) (A) (A) (A) (A) (A) (A) (A) (A)
                 (A) (A) (A) (A) (A) (A) (A) (A) (A) (A) (A) (A)
                 (A) (A) (A) (A)
 The electronic state is 1-A.
 Alpha  occ. eigenvalues --  -19.17979 -19.17525 -14.44083 -10.33518 -10.33192
 Alpha  occ. eigenvalues --  -10.32057 -10.31567 -10.25600 -10.25045 -10.24838
 Alpha  occ. eigenvalues --  -10.24730 -10.24563 -10.24179 -10.23810  -1.12035
 Alpha  occ. eigenvalues --   -1.11671  -1.07552  -0.91207  -0.90304  -0.83875
 Alpha  occ. eigenvalues --   -0.82520  -0.81518  -0.78517  -0.73961  -0.71201
 Alpha  occ. eigenvalues --   -0.68637  -0.61611  -0.58197  -0.56825  -0.55179
 Alpha  occ. eigenvalues --   -0.54487  -0.54021  -0.52595  -0.51908  -0.50722
 Alpha  occ. eigenvalues --   -0.50091  -0.49536  -0.49110  -0.48486  -0.48151
 Alpha  occ. eigenvalues --   -0.46845  -0.45468  -0.45009  -0.43394  -0.43069
 Alpha  occ. eigenvalues --   -0.42460  -0.42107  -0.42084  -0.32821  -0.32356
 Alpha  occ. eigenvalues --   -0.31436  -0.26099
 Alpha virt. eigenvalues --   -0.02423   0.02433   0.06529   0.08249   0.08811
 Alpha virt. eigenvalues --    0.10108   0.10753   0.11994   0.12730   0.13621
 Alpha virt. eigenvalues --    0.14205   0.15087   0.15741   0.16218   0.16988
 Alpha virt. eigenvalues --    0.17505   0.17799   0.18028   0.18243   0.19206
 Alpha virt. eigenvalues --    0.20038   0.22148   0.22856   0.23419   0.23608
 Alpha virt. eigenvalues --    0.24210   0.24858   0.25691   0.25818   0.26543
 Alpha virt. eigenvalues --    0.26860   0.27358   0.28734   0.29184   0.30230
 Alpha virt. eigenvalues --    0.31632   0.32022   0.32704   0.33627   0.34431
 Alpha virt. eigenvalues --    0.35358   0.35918   0.36763   0.38127   0.38860
 Alpha virt. eigenvalues --    0.39939   0.40940   0.41797   0.42258   0.42695
 Alpha virt. eigenvalues --    0.44080   0.44241   0.45381   0.46048   0.46144
 Alpha virt. eigenvalues --    0.47329   0.47813   0.48055   0.48285   0.48993
 Alpha virt. eigenvalues --    0.49557   0.50171   0.50757   0.51356   0.51596
 Alpha virt. eigenvalues --    0.52780   0.53182   0.53442   0.54194   0.54391
 Alpha virt. eigenvalues --    0.54677   0.55940   0.56165   0.56576   0.58268
 Alpha virt. eigenvalues --    0.58606   0.59160   0.60693   0.60981   0.62591
 Alpha virt. eigenvalues --    0.63176   0.65596   0.66023   0.66399   0.67886
 Alpha virt. eigenvalues --    0.68749   0.70218   0.71316   0.72319   0.73136
 Alpha virt. eigenvalues --    0.73436   0.73825   0.74821   0.76195   0.77649
 Alpha virt. eigenvalues --    0.78147   0.79630   0.81964   0.84206   0.84787
 Alpha virt. eigenvalues --    0.89166   0.93033   0.98865   0.99760   1.24709
 Alpha virt. eigenvalues --    1.25681   1.27279   1.27647   1.29393   1.31531
 Alpha virt. eigenvalues --    1.32467   1.32984   1.34127   1.35106   1.36026
 Alpha virt. eigenvalues --    1.36498   1.37113   1.38282   1.39267   1.39857
 Alpha virt. eigenvalues --    1.40111   1.40401   1.41138   1.41597   1.41772
 Alpha virt. eigenvalues --    1.43326   1.44160   1.44600   1.45170   1.47021
 Alpha virt. eigenvalues --    1.48064   1.49042   1.49653   1.50498   1.51114
 Alpha virt. eigenvalues --    1.52120   1.52417   1.53801   1.54338   1.57630
 Alpha virt. eigenvalues --    1.58146   1.60396   1.60720   1.61250   1.62208
 Alpha virt. eigenvalues --    1.62691   1.63321   1.64248   1.65382   1.65700
 Alpha virt. eigenvalues --    1.67164   1.67505   1.67974   1.68147   1.68808
 Alpha virt. eigenvalues --    1.68867   1.69985   1.70630   1.72168   1.72324
 Alpha virt. eigenvalues --    1.73368   1.75154   1.76133   1.76697   1.78745
 Alpha virt. eigenvalues --    1.79997   1.83408   1.84587   1.86223   1.86628
 Alpha virt. eigenvalues --    1.87033   1.87297   1.88490   1.89353   1.90964
 Alpha virt. eigenvalues --    1.91438   1.94529   1.95413   1.98220   1.99622
 Alpha virt. eigenvalues --    2.00955   2.03814   2.04572   2.06559   2.09518
 Alpha virt. eigenvalues --    2.11315   2.12905   2.14644   2.16754   2.19595
 Alpha virt. eigenvalues --    2.20524   2.21344   2.21827   2.22865   2.25915
 Alpha virt. eigenvalues --    2.26976   2.27687   2.29036   2.30630   2.31577
 Alpha virt. eigenvalues --    2.33024   2.34597   2.36155   2.36788   2.37868
 Alpha virt. eigenvalues --    2.39503   2.40156   2.41619   2.43941   2.44876
 Alpha virt. eigenvalues --    2.45904   2.47591   2.50001   2.50563   2.51903
 Alpha virt. eigenvalues --    2.52975   2.53389   2.54889   2.56883   2.58765
 Alpha virt. eigenvalues --    2.59021   2.60072   2.61082   2.61805   2.62608
 Alpha virt. eigenvalues --    2.64453   2.65586   2.67122   2.67600   2.69166
 Alpha virt. eigenvalues --    2.70700   2.72070   2.72995   2.73631   2.74849
 Alpha virt. eigenvalues --    2.76318   2.76571   2.77373   2.77999   2.79289
 Alpha virt. eigenvalues --    2.80660   2.81381   2.82929   2.83444   2.84460
 Alpha virt. eigenvalues --    2.85549   2.86094   2.87815   2.90301   2.91739
 Alpha virt. eigenvalues --    2.97559   2.99672   3.01012   3.04240   3.10276
 Alpha virt. eigenvalues --    3.12302   3.15334   3.16908   3.17221   3.19776
 Alpha virt. eigenvalues --    3.20723   3.22111   3.24895   3.26174   3.27004
 Alpha virt. eigenvalues --    3.27304   3.29438   3.33373   3.34512   3.36590
 Alpha virt. eigenvalues --    3.37121   3.38880   3.39833   3.40393   3.41550
 Alpha virt. eigenvalues --    3.42750   3.44956   3.45432   3.46399   3.47928
 Alpha virt. eigenvalues --    3.48673   3.49794   3.55258   3.58235   3.59511
 Alpha virt. eigenvalues --    3.60199   3.89907   3.99648   4.33962   4.35704
 Alpha virt. eigenvalues --   21.63634  21.79258  22.08232  22.11017  22.11764
 Alpha virt. eigenvalues --   22.14534  22.15457  22.18078  22.21029  22.24745
 Alpha virt. eigenvalues --   22.30195  31.93140  43.62794  43.65132
          Condensed to atoms (all electrons):
               1          2          3          4          5          6
     1  O    7.955949   0.000000  -0.000244   0.000018   0.016683   0.015955
     2  O    0.000000   7.981700   0.000381   0.000028  -0.203562   0.000943
     3  N   -0.000244   0.000381   6.392711   0.373725  -0.112459   0.332242
     4  H    0.000018   0.000028   0.373725   0.402878   0.016836  -0.045613
     5  C    0.016683  -0.203562  -0.112459   0.016836   6.979551  -0.058493
     6  C    0.015955   0.000943   0.332242  -0.045613  -0.058493   5.610113
     7  C   -0.000436  -0.031133   0.376864  -0.039613   0.368107  -0.091633
     8  C   -0.000200   0.715672   0.004723  -0.000635  -0.252562   0.026815
     9  C   -0.028763   0.018430   0.014724  -0.000258  -0.465604  -0.128550
    10  H    0.003803   0.000074   0.003901   0.000014  -0.029820  -0.016168
    11  H    0.017224   0.000005  -0.001349   0.000018  -0.108450   0.024938
    12  C   -0.220542  -0.002223  -0.093069   0.014801   0.136740  -0.149977
    13  C    0.710321  -0.000031   0.000181   0.000378   0.075260   0.172350
    14  C   -0.000005  -0.013833  -0.035394  -0.008654  -0.068204   0.008734
    15  H   -0.000000   0.004162   0.003782   0.001188   0.016563   0.006295
    16  H   -0.000000   0.001774  -0.003271   0.000895  -0.003987  -0.001933
    17  H   -0.000000   0.002200   0.001643   0.000768  -0.008587  -0.000804
    18  C   -0.000072  -0.106351  -0.000575   0.000018  -0.271576   0.000516
    19  H   -0.000004   0.009338   0.000003  -0.000001   0.026318   0.000024
    20  H    0.000013   0.001094   0.000012  -0.000000   0.003468   0.000243
    21  H    0.000075   0.003566   0.000121   0.000001   0.041196  -0.001074
    22  C   -0.106817   0.000000   0.000017   0.000109   0.003970  -0.011483
    23  H    0.004758  -0.000000  -0.000063  -0.000052  -0.000593  -0.033224
    24  H    0.001235  -0.000000  -0.000035  -0.000016  -0.000094   0.011242
    25  H    0.007572   0.000000   0.000032  -0.000002  -0.000138  -0.001295
    26  C    0.000897   0.000003  -0.029561  -0.006037  -0.000349   0.179553
    27  H   -0.000235  -0.000000   0.002966   0.000876   0.000085  -0.045034
    28  H   -0.000046  -0.000000  -0.002447   0.000441   0.000409  -0.034785
    29  H    0.000025  -0.000000   0.000281   0.000954  -0.000552  -0.048303
               7          8          9         10         11         12
     1  O   -0.000436  -0.000200  -0.028763   0.003803   0.017224  -0.220542
     2  O   -0.031133   0.715672   0.018430   0.000074   0.000005  -0.002223
     3  N    0.376864   0.004723   0.014724   0.003901  -0.001349  -0.093069
     4  H   -0.039613  -0.000635  -0.000258   0.000014   0.000018   0.014801
     5  C    0.368107  -0.252562  -0.465604  -0.029820  -0.108450   0.136740
     6  C   -0.091633   0.026815  -0.128550  -0.016168   0.024938  -0.149977
     7  C    5.423020  -0.177128  -0.169776  -0.004450   0.018214  -0.003259
     8  C   -0.177128   5.347269   0.085492  -0.005145  -0.007893  -0.030006
     9  C   -0.169776   0.085492   6.247761   0.395179   0.524432   0.034565
    10  H   -0.004450  -0.005145   0.395179   0.554795  -0.036504  -0.022958
    11  H    0.018214  -0.007893   0.524432  -0.036504   0.508520  -0.106304
    12  C   -0.003259  -0.030006   0.034565  -0.022958  -0.106304   7.221226
    13  C    0.011788  -0.005963  -0.263214   0.002102  -0.001040  -0.379566
    14  C    0.254842  -0.041681   0.010028  -0.001327   0.000527  -0.003839
    15  H   -0.071367   0.005458  -0.000099   0.000074  -0.000003  -0.001128
    16  H   -0.025131  -0.001078   0.000605  -0.000067   0.000052   0.000833
    17  H   -0.031458  -0.008113  -0.000508   0.000196  -0.000057  -0.000050
    18  C    0.002796   0.318561  -0.000886  -0.009092   0.008504  -0.003382
    19  H    0.000363  -0.054031  -0.000125  -0.000041   0.000484  -0.000206
    20  H    0.001290  -0.025325  -0.009354   0.001000  -0.002309  -0.003596
    21  H    0.000163  -0.062512  -0.008760   0.002259  -0.005160   0.006463
    22  C    0.000033  -0.000056   0.003696   0.001592   0.001035  -0.248771
    23  H    0.000020  -0.000010   0.003477  -0.000123  -0.000082   0.063897
    24  H    0.000034   0.000003  -0.001990   0.000140  -0.000114  -0.012308
    25  H    0.000004   0.000004   0.000207  -0.000038  -0.000140   0.024363
    26  C    0.002398   0.000432   0.019354  -0.000742   0.000029  -0.077266
    27  H   -0.000806   0.000004  -0.000888  -0.000082   0.000002  -0.007692
    28  H   -0.000851  -0.000010  -0.000202  -0.000024   0.000046  -0.019765
    29  H    0.003765  -0.000006  -0.000499   0.000097  -0.000009   0.023848
              13         14         15         16         17         18
     1  O    0.710321  -0.000005  -0.000000  -0.000000  -0.000000  -0.000072
     2  O   -0.000031  -0.013833   0.004162   0.001774   0.002200  -0.106351
     3  N    0.000181  -0.035394   0.003782  -0.003271   0.001643  -0.000575
     4  H    0.000378  -0.008654   0.001188   0.000895   0.000768   0.000018
     5  C    0.075260  -0.068204   0.016563  -0.003987  -0.008587  -0.271576
     6  C    0.172350   0.008734   0.006295  -0.001933  -0.000804   0.000516
     7  C    0.011788   0.254842  -0.071367  -0.025131  -0.031458   0.002796
     8  C   -0.005963  -0.041681   0.005458  -0.001078  -0.008113   0.318561
     9  C   -0.263214   0.010028  -0.000099   0.000605  -0.000508  -0.000886
    10  H    0.002102  -0.001327   0.000074  -0.000067   0.000196  -0.009092
    11  H   -0.001040   0.000527  -0.000003   0.000052  -0.000057   0.008504
    12  C   -0.379566  -0.003839  -0.001128   0.000833  -0.000050  -0.003382
    13  C    5.432689  -0.000053  -0.000016  -0.000023   0.000000   0.000436
    14  C   -0.000053   5.075832   0.386611   0.408440   0.425511   0.001348
    15  H   -0.000016   0.386611   0.569025  -0.024941  -0.027411   0.000278
    16  H   -0.000023   0.408440  -0.024941   0.510837  -0.027574  -0.000033
    17  H    0.000000   0.425511  -0.027411  -0.027574   0.511333  -0.000229
    18  C    0.000436   0.001348   0.000278  -0.000033  -0.000229   5.352096
    19  H   -0.000011   0.000078  -0.000006  -0.000021   0.000030   0.389888
    20  H   -0.000057  -0.000274  -0.000006  -0.000006   0.000027   0.397328
    21  H    0.000479   0.000081  -0.000017   0.000004  -0.000042   0.381145
    22  C    0.287028  -0.000023   0.000002   0.000000  -0.000000   0.000025
    23  H   -0.090229  -0.000001   0.000000   0.000000   0.000000   0.000003
    24  H   -0.021797  -0.000001   0.000000   0.000000  -0.000000  -0.000002
    25  H   -0.041897   0.000000   0.000000  -0.000000   0.000000  -0.000001
    26  C   -0.054820   0.001399   0.000032  -0.000182   0.000057   0.000024
    27  H   -0.005432   0.000093  -0.000012   0.000001  -0.000001  -0.000000
    28  H    0.006415  -0.000112   0.000002  -0.000012   0.000004  -0.000001
    29  H   -0.000420  -0.000235   0.000128   0.000002  -0.000004   0.000000
              19         20         21         22         23         24
     1  O   -0.000004   0.000013   0.000075  -0.106817   0.004758   0.001235
     2  O    0.009338   0.001094   0.003566   0.000000  -0.000000  -0.000000
     3  N    0.000003   0.000012   0.000121   0.000017  -0.000063  -0.000035
     4  H   -0.000001  -0.000000   0.000001   0.000109  -0.000052  -0.000016
     5  C    0.026318   0.003468   0.041196   0.003970  -0.000593  -0.000094
     6  C    0.000024   0.000243  -0.001074  -0.011483  -0.033224   0.011242
     7  C    0.000363   0.001290   0.000163   0.000033   0.000020   0.000034
     8  C   -0.054031  -0.025325  -0.062512  -0.000056  -0.000010   0.000003
     9  C   -0.000125  -0.009354  -0.008760   0.003696   0.003477  -0.001990
    10  H   -0.000041   0.001000   0.002259   0.001592  -0.000123   0.000140
    11  H    0.000484  -0.002309  -0.005160   0.001035  -0.000082  -0.000114
    12  C   -0.000206  -0.003596   0.006463  -0.248771   0.063897  -0.012308
    13  C   -0.000011  -0.000057   0.000479   0.287028  -0.090229  -0.021797
    14  C    0.000078  -0.000274   0.000081  -0.000023  -0.000001  -0.000001
    15  H   -0.000006  -0.000006  -0.000017   0.000002   0.000000   0.000000
    16  H   -0.000021  -0.000006   0.000004   0.000000   0.000000   0.000000
    17  H    0.000030   0.000027  -0.000042  -0.000000   0.000000  -0.000000
    18  C    0.389888   0.397328   0.381145   0.000025   0.000003  -0.000002
    19  H    0.507320  -0.009877  -0.020997  -0.000000   0.000000   0.000000
    20  H   -0.009877   0.499050  -0.025976  -0.000013  -0.000000   0.000000
    21  H   -0.020997  -0.025976   0.534650   0.000015  -0.000000  -0.000000
    22  C   -0.000000  -0.000013   0.000015   5.411359   0.399658   0.401591
    23  H    0.000000  -0.000000  -0.000000   0.399658   0.535258  -0.026078
    24  H    0.000000   0.000000  -0.000000   0.401591  -0.026078   0.489514
    25  H   -0.000000  -0.000000  -0.000000   0.383497  -0.021881  -0.008252
    26  C    0.000000   0.000005  -0.000014  -0.028710   0.015687  -0.014690
    27  H   -0.000000  -0.000000  -0.000000   0.008882  -0.010142  -0.000780
    28  H    0.000000  -0.000000  -0.000000  -0.011276  -0.001280   0.001111
    29  H    0.000000  -0.000000   0.000000   0.001927   0.000713   0.000201
              25         26         27         28         29
     1  O    0.007572   0.000897  -0.000235  -0.000046   0.000025
     2  O    0.000000   0.000003  -0.000000  -0.000000  -0.000000
     3  N    0.000032  -0.029561   0.002966  -0.002447   0.000281
     4  H   -0.000002  -0.006037   0.000876   0.000441   0.000954
     5  C   -0.000138  -0.000349   0.000085   0.000409  -0.000552
     6  C   -0.001295   0.179553  -0.045034  -0.034785  -0.048303
     7  C    0.000004   0.002398  -0.000806  -0.000851   0.003765
     8  C    0.000004   0.000432   0.000004  -0.000010  -0.000006
     9  C    0.000207   0.019354  -0.000888  -0.000202  -0.000499
    10  H   -0.000038  -0.000742  -0.000082  -0.000024   0.000097
    11  H   -0.000140   0.000029   0.000002   0.000046  -0.000009
    12  C    0.024363  -0.077266  -0.007692  -0.019765   0.023848
    13  C   -0.041897  -0.054820  -0.005432   0.006415  -0.000420
    14  C    0.000000   0.001399   0.000093  -0.000112  -0.000235
    15  H    0.000000   0.000032  -0.000012   0.000002   0.000128
    16  H   -0.000000  -0.000182   0.000001  -0.000012   0.000002
    17  H    0.000000   0.000057  -0.000001   0.000004  -0.000004
    18  C   -0.000001   0.000024  -0.000000  -0.000001   0.000000
    19  H   -0.000000   0.000000  -0.000000   0.000000   0.000000
    20  H   -0.000000   0.000005  -0.000000  -0.000000  -0.000000
    21  H   -0.000000  -0.000014  -0.000000  -0.000000   0.000000
    22  C    0.383497  -0.028710   0.008882  -0.011276   0.001927
    23  H   -0.021881   0.015687  -0.010142  -0.001280   0.000713
    24  H   -0.008252  -0.014690  -0.000780   0.001111   0.000201
    25  H    0.496985   0.001975   0.000853   0.000102  -0.000043
    26  C    0.001975   5.253568   0.426969   0.430004   0.388881
    27  H    0.000853   0.426969   0.508816  -0.025143  -0.026232
    28  H    0.000102   0.430004  -0.025143   0.476217  -0.017770
    29  H   -0.000043   0.388881  -0.026232  -0.017770   0.515917
 Mulliken charges:
               1
     1  O   -0.377164
     2  O   -0.382238
     3  N   -0.229845
     4  H    0.286937
     5  C   -0.100157
     6  C    0.278403
     7  C    0.183342
     8  C    0.167921
     9  C   -0.278474
    10  H    0.161354
    11  H    0.165386
    12  C   -0.140828
    13  C    0.165141
    14  C   -0.399888
    15  H    0.131404
    16  H    0.164817
    17  H    0.163068
    18  C   -0.460768
    19  H    0.151472
    20  H    0.173263
    21  H    0.154335
    22  C   -0.497285
    23  H    0.160286
    24  H    0.181084
    25  H    0.158092
    26  C   -0.508896
    27  H    0.172931
    28  H    0.198974
    29  H    0.157333
 Sum of Mulliken charges =  -0.00000
 Mulliken charges with hydrogens summed into heavy atoms:
               1
     1  O   -0.377164
     2  O   -0.382238
     3  N    0.057092
     5  C   -0.100157
     6  C    0.278403
     7  C    0.183342
     8  C    0.167921
     9  C    0.048265
    12  C   -0.140828
    13  C    0.165141
    14  C    0.059401
    18  C    0.018302
    22  C    0.002177
    26  C    0.020342
 Electronic spatial extent (au):  <R**2>=           3184.0282
 Charge=              0.0000 electrons
 Dipole moment (field-independent basis, Debye):
    X=             -4.0409    Y=              7.5471    Z=             -0.3834  Tot=              8.5694
 Quadrupole moment (field-independent basis, Debye-Ang):
   XX=            -97.8847   YY=            -78.4614   ZZ=            -84.9826
   XY=            -12.8332   XZ=             -5.7931   YZ=             -1.5852
 Traceless Quadrupole moment (field-independent basis, Debye-Ang):
   XX=            -10.7751   YY=              8.6482   ZZ=              2.1269
   XY=            -12.8332   XZ=             -5.7931   YZ=             -1.5852
 Octapole moment (field-independent basis, Debye-Ang**2):
  XXX=           -109.4573  YYY=             65.5869  ZZZ=              1.9701  XYY=             34.6688
  XXY=             31.4729  XXZ=            -10.9257  XZZ=             -2.7443  YZZ=             -1.0454
  YYZ=              3.0731  XYZ=              5.1837
 Hexadecapole moment (field-independent basis, Debye-Ang**3):
 XXXX=          -3023.2481 YYYY=          -1272.0419 ZZZZ=           -157.9933 XXXY=            -39.8196
 XXXZ=            -67.5043 YYYX=            -88.9190 YYYZ=            -22.4499 ZZZX=              2.2035
 ZZZY=              5.6503 XXYY=           -690.8173 XXZZ=           -486.3154 YYZZ=           -242.5248
 XXYZ=             -6.1737 YYXZ=             -6.8041 ZZXY=              1.0173
 N-N= 9.008072063323D+02 E-N=-3.277697892785D+03  KE= 6.307205355828D+02
 Leave Link  601 at Sat Jan 24 16:42:13 2026, MaxMem=  2147483648 cpu:               0.7 elap:               0.1
 (Enter /data/home/wyx/g16/l9999.exe)
 Electronic transition elements 
                 1             2             3             4             5 
      1  -0.633208D+03 -0.633182D+03 -0.633176D+03 -0.633148D+03 -0.633130D+03
      2  -0.163051D+01 -0.133806D+00 -0.712766D-01  0.502795D+00  0.411427D+00
      3  -0.372580D+00 -0.579788D-01  0.162973D+00 -0.193479D+01 -0.136275D+01
      4  -0.382356D+00 -0.735446D-01  0.261267D-01 -0.467953D-01  0.660484D-01
      5   0.192879D+00  0.199080D-01  0.100048D-01 -0.850403D-01 -0.820337D-01
      6   0.476534D-01  0.866459D-02 -0.240021D-01  0.344176D+00  0.271493D+00
      7   0.462646D-01  0.801943D-02 -0.768287D-03  0.534409D-02 -0.119277D-01
      8   0.351185D+00 -0.723317D+00 -0.438242D+00 -0.146764D+00 -0.268134D+00
      9   0.184889D-01 -0.137847D+00  0.888001D+00  0.933065D-01  0.324791D-01
     10  -0.138878D+01 -0.518856D+00 -0.279277D+00  0.986512D-01  0.217953D+00
     11   0.211697D+00  0.343701D-01  0.747058D-01 -0.117071D+01 -0.433772D+00
     12  -0.279410D+00 -0.463767D-01 -0.443387D-01  0.208670D+00  0.304574D+00
     13  -0.144727D-01  0.102506D-01  0.758151D-02 -0.914207D-01  0.120395D-01
     14  -0.511199D+00 -0.259954D-01 -0.263926D-01 -0.437384D+00 -0.336548D-01
     15  -0.138028D-01  0.185719D-01 -0.525544D-01 -0.345669D+00 -0.143174D+00
     16  -0.135161D+00 -0.975963D-01 -0.370917D-01 -0.713943D-01 -0.725805D-01
                 6 
      1  -0.633110D+03
      2  -0.565430D-01
      3   0.270958D+00
      4  -0.689172D-01
      5   0.670798D-02
      6  -0.564745D-01
      7   0.342019D-01
      8  -0.604650D-01
      9   0.510571D-02
     10   0.233481D-01
     11  -0.316178D+00
     12  -0.252222D+00
     13   0.190877D+00
     14   0.151085D-01
     15  -0.109882D+00
     16  -0.114788D+00
 1\1\GINC-CN012\SP\RCAM-B3LYP TD-FC\TZVP\C11H15N1O2\WYX\24-Jan-2026\0\\
 #p CAM-B3LYP TZVP em=gd3bj td(Eqsolv,nstates=6,root=1) scrf=(Solvent=W
 ater) Geom=Check Guess=Read\\Title Card Required\\0,1\O,0,2.74408,-1.5
 58299,0.749034\O,0,-3.230656,-1.641882,-1.096703\N,0,-0.708613,1.51348
 6,0.113102\H,0,-1.016805,2.471204,0.055253\C,0,-1.248516,-0.758707,-0.
 15312\C,0,0.641061,1.302995,0.278281\C,0,-1.620382,0.546537,-0.230096\
 C,0,-2.151921,-1.835866,-0.543762\C,0,0.098154,-1.104499,0.425558\H,0,
 -0.00759,-1.433582,1.468704\H,0,0.525473,-1.963788,-0.088273\C,0,1.094
 001,0.024796,0.35723\C,0,2.491045,-0.390769,0.459368\C,0,-2.945089,1.0
 84984,-0.656635\H,0,-3.0387,2.13535,-0.386148\H,0,-3.065811,0.997733,-
 1.734698\H,0,-3.759662,0.527107,-0.20838\C,0,-1.7223,-3.250288,-0.2520
 87\H,0,-2.559188,-3.921853,-0.415316\H,0,-0.908283,-3.542521,-0.91586\
 H,0,-1.357325,-3.363233,0.766948\C,0,3.647078,0.538279,0.181779\H,0,3.
 449182,1.236989,-0.626618\H,0,3.894563,1.112951,1.076002\H,0,4.510429,
 -0.073281,-0.070063\C,0,1.418371,2.580018,0.350038\H,0,2.251852,2.5179
 ,1.038412\H,0,1.803165,2.859635,-0.631042\H,0,0.772387,3.388601,0.6890
 92\\Version=ES64L-G16RevA.03\State=1-A\HF=-633.3322433\RMSD=2.544e-09\
 PG=C01 [X(C11H15N1O2)]\\@


 NO HUMAN INVESTIGATION CAN BECOME REAL SCIENCE
 WITHOUT GOING THROUGH MATHEMATICAL PEOPLE.
 -- LEONARDO DA VINCI, IN "PENSIERI" CA. 1492
 Job cpu time:       0 days  0 hours 31 minutes 31.2 seconds.
 Elapsed time:       0 days  0 hours  1 minutes 59.1 seconds.
 File lengths (MBytes):  RWF=    734 Int=      0 D2E=      0 Chk=     67 Scr=      1
 Normal termination of Gaussian 16 at Sat Jan 24 16:42:16 2026.
