 Entering Gaussian System, Link 0=g16
 Input=DDL-S1-cLR-gs-2.gjf
 Output=DDL-S1-cLR-gs-2.log
 Initial command:
 /data/home/wyx/g16/l1.exe "/scr/tmp/wyx/13117/Gau-2031376.inp" -scrdir="/scr/tmp/wyx/13117/"
 Entering Link 1 = /data/home/wyx/g16/l1.exe PID=   2031377.
  
 Copyright (c) 1988,1990,1992,1993,1995,1998,2003,2009,2016,
            Gaussian, Inc.  All Rights Reserved.
  
 This is part of the Gaussian(R) 16 program.  It is based on
 the Gaussian(R) 09 system (copyright 2009, Gaussian, Inc.),
 the Gaussian(R) 03 system (copyright 2003, Gaussian, Inc.),
 the Gaussian(R) 98 system (copyright 1998, Gaussian, Inc.),
 the Gaussian(R) 94 system (copyright 1995, Gaussian, Inc.),
 the Gaussian 92(TM) system (copyright 1992, Gaussian, Inc.),
 the Gaussian 90(TM) system (copyright 1990, Gaussian, Inc.),
 the Gaussian 88(TM) system (copyright 1988, Gaussian, Inc.),
 the Gaussian 86(TM) system (copyright 1986, Carnegie Mellon
 University), and the Gaussian 82(TM) system (copyright 1983,
 Carnegie Mellon University). Gaussian is a federally registered
 trademark of Gaussian, Inc.
  
 This software contains proprietary and confidential information,
 including trade secrets, belonging to Gaussian, Inc.
  
 This software is provided under written license and may be
 used, copied, transmitted, or stored only in accord with that
 written license.
  
 The following legend is applicable only to US Government
 contracts under FAR:
  
                    RESTRICTED RIGHTS LEGEND
  
 Use, reproduction and disclosure by the US Government is
 subject to restrictions as set forth in subparagraphs (a)
 and (c) of the Commercial Computer Software - Restricted
 Rights clause in FAR 52.227-19.
  
 Gaussian, Inc.
 340 Quinnipiac St., Bldg. 40, Wallingford CT 06492
  
  
 ---------------------------------------------------------------
 Warning -- This program may not be used in any manner that
 competes with the business of Gaussian, Inc. or will provide
 assistance to any competitor of Gaussian, Inc.  The licensee
 of this program is prohibited from giving any competitor of
 Gaussian, Inc. access to this program.  By using this program,
 the user acknowledges that Gaussian, Inc. is engaged in the
 business of creating and licensing software in the field of
 computational chemistry and represents and warrants to the
 licensee that it is not a competitor of Gaussian, Inc. and that
 it will not use this program in any manner prohibited above.
 ---------------------------------------------------------------
  

 Cite this work as:
 Gaussian 16, Revision A.03,
 M. J. Frisch, G. W. Trucks, H. B. Schlegel, G. E. Scuseria, 
 M. A. Robb, J. R. Cheeseman, G. Scalmani, V. Barone, 
 G. A. Petersson, H. Nakatsuji, X. Li, M. Caricato, A. V. Marenich, 
 J. Bloino, B. G. Janesko, R. Gomperts, B. Mennucci, H. P. Hratchian, 
 J. V. Ortiz, A. F. Izmaylov, J. L. Sonnenberg, D. Williams-Young, 
 F. Ding, F. Lipparini, F. Egidi, J. Goings, B. Peng, A. Petrone, 
 T. Henderson, D. Ranasinghe, V. G. Zakrzewski, J. Gao, N. Rega, 
 G. Zheng, W. Liang, M. Hada, M. Ehara, K. Toyota, R. Fukuda, 
 J. Hasegawa, M. Ishida, T. Nakajima, Y. Honda, O. Kitao, H. Nakai, 
 T. Vreven, K. Throssell, J. A. Montgomery, Jr., J. E. Peralta, 
 F. Ogliaro, M. J. Bearpark, J. J. Heyd, E. N. Brothers, K. N. Kudin, 
 V. N. Staroverov, T. A. Keith, R. Kobayashi, J. Normand, 
 K. Raghavachari, A. P. Rendell, J. C. Burant, S. S. Iyengar, 
 J. Tomasi, M. Cossi, J. M. Millam, M. Klene, C. Adamo, R. Cammi, 
 J. W. Ochterski, R. L. Martin, K. Morokuma, O. Farkas, 
 J. B. Foresman, and D. J. Fox, Gaussian, Inc., Wallingford CT, 2016.
 
 ******************************************
 Gaussian 16:  ES64L-G16RevA.03 25-Dec-2016
                24-Jan-2026 
 ******************************************
 %nprocshared=16
 Will use up to   16 processors via shared memory.
 %mem=16GB
 %oldchk=DDL-S1-cLR-2.chk
 %chk=DDL-S1-cLR-gs-2.chk
 Copying data from "DDL-S1-cLR-2.chk" to current chk file "DDL-S1-cLR-gs-2.chk"
 IOpt=  2 FromEx=T IUOpen= 4 IOptOp= 5 NList=   0 IFRang= 0 IUIn= 4 IUOut= 2.
 ----------------------------------------------------------------------
 #p CAM-B3LYP TZVP em=gd3bj scrf=(Solvent=Water,NonEquilibrium=Read) Ge
 om=Check Guess=Read
 ----------------------------------------------------------------------
 1/29=2,38=1,172=1/1;
 2/12=2,40=1/2;
 3/5=19,7=101,11=2,14=-4,25=1,30=1,70=6002201,72=1,74=-40,116=-2,124=41/1,2,3;
 4/5=1/1;
 5/5=2,38=6,53=1/2;
 6/7=2,8=2,9=2,10=2,28=1/1;
 99/5=1,9=1/99;
 Leave Link    1 at Sat Jan 24 22:49:23 2026, MaxMem=  2147483648 cpu:               0.8 elap:               0.1
 (Enter /data/home/wyx/g16/l101.exe)
 -------------------
 Title Card Required
 -------------------
 Structure from the checkpoint file:  "DDL-S1-cLR-gs-2.chk"
 Charge =  0 Multiplicity = 1
 Z-Matrix found in chk file.
 O,0,2.712851,-1.559613,0.883249
 O,0,-3.315314,-1.665408,-0.874337
 N,0,-0.679219,1.516753,-0.080517
 H,0,-0.987645,2.478065,-0.150077
 C,0,-1.25331,-0.764568,-0.176973
 C,0,0.644287,1.339372,0.192064
 C,0,-1.629445,0.579666,-0.299513
 C,0,-2.167058,-1.852857,-0.452815
 C,0,0.123602,-1.077451,0.259392
 H,0,0.091772,-1.529689,1.268376
 H,0,0.539325,-1.901117,-0.331821
 C,0,1.106781,0.026943,0.306498
 C,0,2.477968,-0.396554,0.522494
 C,0,-2.984978,1.105106,-0.625749
 H,0,-3.00737,2.19107,-0.544849
 H,0,-3.284356,0.829656,-1.634121
 H,0,-3.736338,0.692372,0.042023
 C,0,-1.694251,-3.272072,-0.251194
 H,0,-2.561012,-3.922619,-0.181563
 H,0,-1.099459,-3.596362,-1.106613
 H,0,-1.081859,-3.401998,0.637142
 C,0,3.64983,0.521608,0.275676
 H,0,3.472211,1.243224,-0.516983
 H,0,3.90604,1.069681,1.185031
 H,0,4.505025,-0.097319,0.011168
 C,0,1.415004,2.605383,0.372519
 H,0,2.123567,2.525312,1.191761
 H,0,1.971513,2.882941,-0.523947
 H,0,0.741838,3.430474,0.603681
 Recover connectivity data from disk.
 ITRead=  0  0  0  0  0  0  0  0  0  0  0  0  0  0  0  0  0  0  0  0
 ITRead=  0  0  0  0  0  0  0  0  0
 MicOpt= -1 -1 -1 -1 -1 -1 -1 -1 -1 -1 -1 -1 -1 -1 -1 -1 -1 -1 -1 -1
 MicOpt= -1 -1 -1 -1 -1 -1 -1 -1 -1
 NAtoms=     29 NQM=       29 NQMF=       0 NMMI=      0 NMMIF=      0
                NMic=       0 NMicF=      0.
                    Isotopes and Nuclear Properties:
 (Nuclear quadrupole moments (NQMom) in fm**2, nuclear magnetic moments (NMagM)
  in nuclear magnetons)

  Atom         1           2           3           4           5           6           7           8           9          10
 IAtWgt=          16          16          14           1          12          12          12          12          12           1
 AtmWgt=  15.9949146  15.9949146  14.0030740   1.0078250  12.0000000  12.0000000  12.0000000  12.0000000  12.0000000   1.0078250
 NucSpn=           0           0           2           1           0           0           0           0           0           1
 AtZEff=   5.6000000   5.6000000   4.5500000   1.0000000   3.6000000   3.6000000   3.6000000   3.6000000   3.6000000   1.0000000
 NQMom=    0.0000000   0.0000000   2.0440000   0.0000000   0.0000000   0.0000000   0.0000000   0.0000000   0.0000000   0.0000000
 NMagM=    0.0000000   0.0000000   0.4037610   2.7928460   0.0000000   0.0000000   0.0000000   0.0000000   0.0000000   2.7928460
 AtZNuc=   8.0000000   8.0000000   7.0000000   1.0000000   6.0000000   6.0000000   6.0000000   6.0000000   6.0000000   1.0000000

  Atom        11          12          13          14          15          16          17          18          19          20
 IAtWgt=           1          12          12          12           1           1           1          12           1           1
 AtmWgt=   1.0078250  12.0000000  12.0000000  12.0000000   1.0078250   1.0078250   1.0078250  12.0000000   1.0078250   1.0078250
 NucSpn=           1           0           0           0           1           1           1           0           1           1
 AtZEff=   1.0000000   3.6000000   3.6000000   3.6000000   1.0000000   1.0000000   1.0000000   3.6000000   1.0000000   1.0000000
 NQMom=    0.0000000   0.0000000   0.0000000   0.0000000   0.0000000   0.0000000   0.0000000   0.0000000   0.0000000   0.0000000
 NMagM=    2.7928460   0.0000000   0.0000000   0.0000000   2.7928460   2.7928460   2.7928460   0.0000000   2.7928460   2.7928460
 AtZNuc=   1.0000000   6.0000000   6.0000000   6.0000000   1.0000000   1.0000000   1.0000000   6.0000000   1.0000000   1.0000000

  Atom        21          22          23          24          25          26          27          28          29
 IAtWgt=           1          12           1           1           1          12           1           1           1
 AtmWgt=   1.0078250  12.0000000   1.0078250   1.0078250   1.0078250  12.0000000   1.0078250   1.0078250   1.0078250
 NucSpn=           1           0           1           1           1           0           1           1           1
 AtZEff=   1.0000000   3.6000000   1.0000000   1.0000000   1.0000000   3.6000000   1.0000000   1.0000000   1.0000000
 NQMom=    0.0000000   0.0000000   0.0000000   0.0000000   0.0000000   0.0000000   0.0000000   0.0000000   0.0000000
 NMagM=    2.7928460   0.0000000   2.7928460   2.7928460   2.7928460   0.0000000   2.7928460   2.7928460   2.7928460
 AtZNuc=   1.0000000   6.0000000   1.0000000   1.0000000   1.0000000   6.0000000   1.0000000   1.0000000   1.0000000
 Leave Link  101 at Sat Jan 24 22:49:28 2026, MaxMem=  2147483648 cpu:               0.8 elap:               0.1
 (Enter /data/home/wyx/g16/l202.exe)
                          Input orientation:                          
 ---------------------------------------------------------------------
 Center     Atomic      Atomic             Coordinates (Angstroms)
 Number     Number       Type             X           Y           Z
 ---------------------------------------------------------------------
      1          8           0        2.712851   -1.559613    0.883249
      2          8           0       -3.315314   -1.665408   -0.874337
      3          7           0       -0.679219    1.516753   -0.080517
      4          1           0       -0.987645    2.478065   -0.150077
      5          6           0       -1.253310   -0.764568   -0.176973
      6          6           0        0.644287    1.339372    0.192064
      7          6           0       -1.629445    0.579666   -0.299513
      8          6           0       -2.167058   -1.852857   -0.452815
      9          6           0        0.123602   -1.077451    0.259392
     10          1           0        0.091772   -1.529689    1.268376
     11          1           0        0.539325   -1.901117   -0.331821
     12          6           0        1.106781    0.026943    0.306498
     13          6           0        2.477968   -0.396554    0.522494
     14          6           0       -2.984978    1.105106   -0.625749
     15          1           0       -3.007370    2.191070   -0.544849
     16          1           0       -3.284356    0.829656   -1.634121
     17          1           0       -3.736338    0.692372    0.042023
     18          6           0       -1.694251   -3.272072   -0.251194
     19          1           0       -2.561012   -3.922619   -0.181563
     20          1           0       -1.099459   -3.596362   -1.106613
     21          1           0       -1.081859   -3.401998    0.637142
     22          6           0        3.649830    0.521608    0.275676
     23          1           0        3.472211    1.243224   -0.516983
     24          1           0        3.906040    1.069681    1.185031
     25          1           0        4.505025   -0.097319    0.011168
     26          6           0        1.415004    2.605383    0.372519
     27          1           0        2.123567    2.525312    1.191761
     28          1           0        1.971513    2.882941   -0.523947
     29          1           0        0.741838    3.430474    0.603681
 ---------------------------------------------------------------------
                    Distance matrix (angstroms):
                    1          2          3          4          5
     1  O    0.000000
     2  O    6.280054   0.000000
     3  N    4.679638   4.207766   0.000000
     4  H    5.573534   4.807386   1.011971   0.000000
     5  C    4.181698   2.355778   2.354423   3.253609   0.000000
     6  C    3.627783   5.083734   1.362877   2.019130   2.857206
     7  C    4.983069   2.865822   1.352413   2.009517   1.401235
     8  C    5.067995   1.237461   3.702235   4.498839   1.447549
     9  C    2.706638   3.668403   2.736778   3.747563   1.477903
    10  H    2.649391   4.027142   3.419759   4.386256   2.117472
    11  H    2.513411   3.899760   3.637284   4.641326   2.128206
    12  C    2.330078   4.879892   2.357777   3.256237   2.535796
    13  C    1.240170   6.092885   3.740614   4.552610   3.814069
    14  C    6.468621   2.801190   2.404840   2.469943   2.587616
    15  H    6.987705   3.882759   2.467913   2.077860   3.456567
    16  H    6.929087   2.608366   3.110069   3.192886   2.964790
    17  H    6.882669   2.564391   3.168690   3.283430   2.887224
    18  C    4.862307   2.365908   4.898190   5.794272   2.547060
    19  H    5.876330   2.478691   5.756572   6.591300   3.418098
    20  H    4.758320   2.948313   5.231961   6.150295   2.984453
    21  H    4.225491   3.207590   4.987110   5.933273   2.765541
    22  C    2.361897   7.390453   4.456215   5.051254   5.089197
    23  H    3.223844   7.393128   4.183263   4.642173   5.145618
    24  H    2.903095   7.991850   4.777665   5.264429   5.642554
    25  H    2.471986   8.025006   5.430471   6.068610   5.799917
    26  C    4.392316   6.493860   2.403357   2.462121   4.333406
    27  H    4.138725   7.170239   3.239057   3.388569   4.909179
    28  H    4.718694   6.982893   3.014876   3.010036   4.881004
    29  H    5.372524   6.679299   2.479891   2.113373   4.710458
                    6          7          8          9         10
     6  C    0.000000
     7  C    2.447174   0.000000
     8  C    4.302308   2.495936   0.000000
     9  C    2.473192   2.476204   2.521035   0.000000
    10  H    3.113717   3.141694   2.858190   1.106156   0.000000
    11  H    3.284241   3.295283   2.709516   1.095803   1.702614
    12  C    1.396233   2.856516   3.850744   1.479374   2.092500
    13  C    2.546568   4.301109   4.964707   2.464931   2.744862
    14  C    3.727635   1.489962   3.073832   3.900038   4.471716
    15  H    3.821391   2.134359   4.131336   4.597066   5.170736
    16  H    4.362224   2.140655   3.136832   4.340118   5.038773
    17  H    4.430688   2.137369   3.030791   4.251901   4.593030
    18  C    5.189475   3.852586   1.509427   2.895108   2.921450
    19  H    6.172689   4.599163   2.124310   3.936569   3.855606
    20  H    5.393392   4.286199   2.146399   3.115567   3.366117
    21  H    5.065399   4.126842   2.183003   2.645628   2.298131
    22  C    3.115930   5.310834   6.324948   3.871891   4.225287
    23  H    2.917044   5.149223   6.433599   4.147466   4.722703
    24  H    3.420197   5.752007   6.935870   4.446776   4.616526
    25  H    4.123361   6.179527   6.914759   4.496570   4.807188
    26  C    1.493102   3.718041   5.778257   3.904329   4.433094
    27  H    2.143389   4.482693   6.346846   4.224816   4.536198
    28  H    2.157963   4.280461   6.289723   4.439944   5.120269
    29  H    2.133460   3.816523   6.123026   4.563128   5.046546
                   11         12         13         14         15
    11  H    0.000000
    12  C    2.108761   0.000000
    13  C    2.598442   1.451261   0.000000
    14  C    4.641603   4.332899   5.780763   0.000000
    15  H    5.419448   4.725937   6.158243   1.089203   0.000000
    16  H    4.875822   4.867487   6.273672   1.087343   1.765413
    17  H    5.014702   4.895768   6.327259   1.086651   1.766892
    18  C    2.621999   4.363519   5.125876   4.578860   5.626405
    19  H    3.704205   5.412019   6.190327   5.065083   6.140717
    20  H    2.481889   4.471322   5.068604   5.088243   6.119646
    21  H    2.412420   4.081312   4.660280   5.052795   6.032172
    22  C    3.989222   2.590896   1.509040   6.721139   6.912212
    23  H    4.303834   2.784371   2.181262   6.459582   6.548600
    24  H    4.739330   3.113675   2.151323   7.125048   7.214238
    25  H    4.370138   3.413316   2.111861   7.612597   7.872862
    26  C    4.644508   2.597636   3.188105   4.754704   4.535484
    27  H    4.942105   2.838907   3.018413   5.605137   5.427158
    28  H    4.997528   3.097438   3.479457   5.266675   5.026768
    29  H    5.416829   3.435917   4.203199   4.561578   4.112396
                   16         17         18         19         20
    16  H    0.000000
    17  H    1.741434   0.000000
    18  C    4.611409   4.469106   0.000000
    19  H    5.021680   4.767549   1.085972   0.000000
    20  H    4.964038   5.163888   1.091184   1.760198   0.000000
    21  H    5.283609   4.915719   1.086759   1.768959   1.754642
    22  C    7.198969   7.391835   6.574861   7.650803   6.436159
    23  H    6.860775   7.251145   6.866649   7.949731   6.683519
    24  H    7.727032   7.736587   7.230271   8.283321   7.216551
    25  H    8.015031   8.279168   6.969857   8.037347   6.700968
    26  C    5.409602   5.505013   6.678395   7.663584   6.853612
    27  H    6.332968   6.246603   7.089959   8.087466   7.290083
    28  H    5.750880   6.139909   7.169129   8.183927   7.193868
    29  H    5.289825   5.278894   7.182581   8.098975   7.462701
                   21         22         23         24         25
    21  H    0.000000
    22  C    6.157453   0.000000
    23  H    6.606788   1.086548   0.000000
    24  H    6.721252   1.092224   1.764986   0.000000
    25  H    6.521198   1.088298   1.772767   1.760292   0.000000
    26  C    6.510989   3.057114   2.622745   3.037074   4.121092
    27  H    6.761314   2.680209   2.526341   2.301329   3.734078
    28  H    7.083196   3.005335   2.222794   3.154507   3.948035
    29  H    7.071751   4.126198   3.673539   3.990424   5.192107
                   26         27         28         29
    26  C    0.000000
    27  H    1.086108   0.000000
    28  H    1.091051   1.759168   0.000000
    29  H    1.089662   1.753377   1.755972   0.000000
 Stoichiometry    C11H15NO2
 Framework group  C1[X(C11H15NO2)]
 Deg. of freedom    81
 Full point group                 C1      NOp   1
 RotChk:  IX=0 Diff= 5.24D-16
 Largest Abelian subgroup         C1      NOp   1
 Largest concise Abelian subgroup C1      NOp   1
                         Standard orientation:                         
 ---------------------------------------------------------------------
 Center     Atomic      Atomic             Coordinates (Angstroms)
 Number     Number       Type             X           Y           Z
 ---------------------------------------------------------------------
      1          8           0       -2.288456   -2.286751   -0.279886
      2          8           0        3.632577   -0.262068    0.250295
      3          7           0       -0.020626    1.801236   -0.069362
      4          1           0       -0.047938    2.812764   -0.081641
      5          6           0        1.297814   -0.149229   -0.042688
      6          6           0       -1.232461    1.177627   -0.070696
      7          6           0        1.213219    1.249327   -0.024165
      8          6           0        2.559264   -0.850501    0.068485
      9          6           0        0.052961   -0.931838   -0.191218
     10          1           0        0.053688   -1.433253   -1.177202
     11          1           0        0.053482   -1.792469    0.487087
     12          6           0       -1.236937   -0.218586   -0.064805
     13          6           0       -2.399499   -1.084561    0.003711
     14          6           0        2.346706    2.215531    0.016402
     15          1           0        1.985966    3.237826   -0.089160
     16          1           0        2.897699    2.140601    0.950803
     17          1           0        3.060199    2.016079   -0.778555
     18          6           0        2.565656   -2.358032   -0.006873
     19          1           0        3.573680   -2.692323   -0.233750
     20          1           0        2.279551   -2.784797    0.955779
     21          1           0        1.884020   -2.756788   -0.753472
     22          6           0       -3.747937   -0.583199    0.459290
     23          1           0       -3.685073    0.221783    1.186365
     24          1           0       -4.333343   -0.229131   -0.392115
     25          1           0       -4.281354   -1.423018    0.900386
     26          6           0       -2.404656    2.101127   -0.120306
     27          1           0       -3.179557    1.723701   -0.781144
     28          1           0       -2.851336    2.256741    0.862879
     29          1           0       -2.103062    3.078190   -0.496807
 ---------------------------------------------------------------------
 Rotational constants (GHZ):           1.0722595           0.4896111           0.3426742
 Leave Link  202 at Sat Jan 24 22:49:28 2026, MaxMem=  2147483648 cpu:               0.1 elap:               0.0
 (Enter /data/home/wyx/g16/l301.exe)
 Standard basis: TZVP (5D, 7F)
 Ernie: Thresh=  0.10000D-02 Tol=  0.10000D-05 Strict=F.
 There are   370 symmetry adapted cartesian basis functions of A   symmetry.
 There are   356 symmetry adapted basis functions of A   symmetry.
   356 basis functions,   610 primitive gaussians,   370 cartesian basis functions
    52 alpha electrons       52 beta electrons
       nuclear repulsion energy       898.7963420986 Hartrees.
 IExCor=20419 DFT=T Ex+Corr=CAM-B3LYP ExCW=0 ScaHFX=  1.000000
 ScaDFX=  1.000000  1.000000  1.000000  0.810000 ScalE2=  1.000000  1.000000
 IRadAn=      5 IRanWt=     -1 IRanGd=            0 ICorTp=0 IEmpDi=141
 HFx  wShort=  0.000000 wLong=  0.330000 cFull=  0.190000 cShort=  0.000000 cLong=  0.460000
 DFx  wShort=  0.000000 wLong=  0.330000 cFull=  0.190000 cShort=  0.000000 cLong=  0.460000
 NAtoms=   29 NActive=   29 NUniq=   29 SFac= 1.00D+00 NAtFMM=   60 NAOKFM=F Big=F
 Integral buffers will be    131072 words long.
 Raffenetti 2 integral format.
 Two-electron integral symmetry is turned on.
 R6Disp:  Grimme-D3(BJ) Dispersion energy=       -0.0261188790 Hartrees.
 Nuclear repulsion after empirical dispersion term =      898.7702232196 Hartrees.
 ------------------------------------------------------------------------------
 Polarizable Continuum Model (PCM)
 =================================
 Model                : PCM.
 Atomic radii         : UFF (Universal Force Field).
 Polarization charges : Total charges.
 Charge compensation  : None.
 Solution method      : On-the-fly selection.
 Cavity type          : Scaled VdW (van der Waals Surface) (Alpha=1.100).
 Cavity algorithm     : GePol (No added spheres)
                        Default sphere list used, NSphG=   29.
                        Lebedev-Laikov grids with approx.  5.0 points / Ang**2.
                        Smoothing algorithm: York/Karplus (Gamma=1.0000).
                        Polarization charges: spherical gaussians, with
                                              point-specific exponents (IZeta= 3).
                        Self-potential: point-specific (ISelfS= 7).
                        Self-field    : sphere-specific E.n sum rule (ISelfD= 2).
 Solvent              : Water, Eps=  78.355300 Eps(inf)=   1.777849
 ------------------------------------------------------------------------------
 GePol: Number of generator spheres                  =      29
 GePol: Total number of spheres                      =      29
 GePol: Number of exposed spheres                    =      29 (100.00%)
 GePol: Number of points                             =    2103
 GePol: Average weight of points                     =       0.13
 GePol: Minimum weight of points                     =   0.10D-11
 GePol: Maximum weight of points                     =    0.20577
 GePol: Number of points with low weight             =     131
 GePol: Fraction of low-weight points (<1% of avg)   =       6.23%
 GePol: Cavity surface area                          =    269.626 Ang**2
 GePol: Cavity volume                                =    287.581 Ang**3
 Leave Link  301 at Sat Jan 24 22:49:28 2026, MaxMem=  2147483648 cpu:               0.5 elap:               0.0
 (Enter /data/home/wyx/g16/l302.exe)
 NPDir=0 NMtPBC=     1 NCelOv=     1 NCel=       1 NClECP=     1 NCelD=      1
         NCelK=      1 NCelE2=     1 NClLst=     1 CellRange=     0.0.
 One-electron integrals computed using PRISM.
 One-electron integral symmetry used in STVInt
 NBasis=   356 RedAO= T EigKep=  4.07D-05  NBF=   356
 NBsUse=   356 1.00D-06 EigRej= -1.00D+00 NBFU=   356
 Precomputing XC quadrature grid using
 IXCGrd= 4 IRadAn=           5 IRanWt=          -1 IRanGd=           0 AccXCQ= 0.00D+00.
 Generated NRdTot=       0 NPtTot=           0 NUsed=           0 NTot=          32
 NSgBfM=   366   366   366   366   366 MxSgAt=    29 MxSgA2=    29.
 Leave Link  302 at Sat Jan 24 22:49:28 2026, MaxMem=  2147483648 cpu:               3.1 elap:               0.2
 (Enter /data/home/wyx/g16/l303.exe)
 DipDrv:  MaxL=1.
 Leave Link  303 at Sat Jan 24 22:49:28 2026, MaxMem=  2147483648 cpu:               0.6 elap:               0.0
 (Enter /data/home/wyx/g16/l401.exe)
 Initial guess from the checkpoint file:  "DDL-S1-cLR-gs-2.chk"
 B after Tr=     0.000000   -0.000000   -0.000000
         Rot=    1.000000    0.000000   -0.000000   -0.000000 Ang=   0.00 deg.
 Guess basis will be translated and rotated to current coordinates.
 JPrj=2 DoOrth=T DoCkMO=T.
 Leave Link  401 at Sat Jan 24 22:49:29 2026, MaxMem=  2147483648 cpu:               2.2 elap:               0.2
 (Enter /data/home/wyx/g16/l502.exe)
 Integral symmetry usage will be decided dynamically.
 Closed shell SCF:
 Using DIIS extrapolation, IDIIS=  1040.
 NGot=  2147483648 LenX=  2147200095 LenY=  2147062754
 Requested convergence on RMS density matrix=1.00D-08 within 128 cycles.
 Requested convergence on MAX density matrix=1.00D-06.
 Requested convergence on             energy=1.00D-06.
 No special actions if energy rises.
 Fock matrices will be formed incrementally for  20 cycles.

 Cycle   1  Pass 1  IDiag  1:
 FoFJK:  IHMeth= 1 ICntrl=       0 DoSepK=T KAlg= 0 I1Cent=           0 FoldK=F
 IRaf=         1 NMat=       1 IRICut=       1 DoRegI=T DoRafI=F ISym2E= 0 IDoP0=0 IntGTp=1.
 FoFCou: FMM=F IPFlag=           0 FMFlag=      100000 FMFlg1=           0
         NFxFlg=           0 DoJE=T BraDBF=F KetDBF=F FulRan=T
         wScrn=  0.000000 ICntrl=       500 IOpCl=  0 I1Cent=           0 NGrid=           0
         NMat0=    1 NMatS0=      1 NMatT0=    0 NMatD0=    1 NMtDS0=    0 NMtDT0=    0
 Symmetry not used in FoFCou.
 Inv3:  Mode=1 IEnd=    13267827.
 Iteration    1 A*A^-1 deviation from unit magnitude is 2.66D-15 for    340.
 Iteration    1 A*A^-1 deviation from orthogonality  is 2.08D-15 for   1352      3.
 Iteration    1 A^-1*A deviation from unit magnitude is 2.78D-15 for    314.
 Iteration    1 A^-1*A deviation from orthogonality  is 1.93D-15 for   1376   1346.
 NEqPCM:  Using non-equilibrium solvation (IEInf=1, Eps=  78.3553, EpsInf=   1.7778)
 Inv3:  Mode=1 IEnd=    13267827.
 Iteration    1 A*A^-1 deviation from unit magnitude is 3.66D-15 for    132.
 Iteration    1 A*A^-1 deviation from orthogonality  is 1.47D-15 for   1666    671.
 Iteration    1 A^-1*A deviation from unit magnitude is 3.33D-15 for    501.
 Iteration    1 A^-1*A deviation from orthogonality  is 2.24D-15 for   1419     50.
 E= -633.322895595383    
 DIIS: error= 2.96D-04 at cycle   1 NSaved=   1.
 NSaved= 1 IEnMin= 1 EnMin= -633.322895595383     IErMin= 1 ErrMin= 2.96D-04
 ErrMax= 2.96D-04  0.00D+00 EMaxC= 1.00D-01 BMatC= 2.50D-05 BMatP= 2.50D-05
 IDIUse=3 WtCom= 9.97D-01 WtEn= 2.96D-03
 Coeff-Com:  0.100D+01
 Coeff-En:   0.100D+01
 Coeff:      0.100D+01
 Gap=     0.215 Goal=   None    Shift=    0.000
 RMSDP=2.28D-04 MaxDP=1.26D-02              OVMax= 4.36D-03

 Cycle   2  Pass 1  IDiag  1:
 RMSU=  2.27D-04    CP:  9.98D-01
 E= -633.322941798548     Delta-E=       -0.000046203166 Rises=F Damp=F
 DIIS: error= 1.68D-04 at cycle   2 NSaved=   2.
 NSaved= 2 IEnMin= 2 EnMin= -633.322941798548     IErMin= 2 ErrMin= 1.68D-04
 ErrMax= 1.68D-04  0.00D+00 EMaxC= 1.00D-01 BMatC= 1.42D-05 BMatP= 2.50D-05
 IDIUse=3 WtCom= 9.98D-01 WtEn= 1.68D-03
 Coeff-Com:  0.404D+00 0.596D+00
 Coeff-En:   0.000D+00 0.100D+01
 Coeff:      0.404D+00 0.596D+00
 Gap=     0.216 Goal=   None    Shift=    0.000
 RMSDP=4.33D-05 MaxDP=3.54D-03 DE=-4.62D-05 OVMax= 1.23D-03

 Cycle   3  Pass 1  IDiag  1:
 RMSU=  3.25D-05    CP:  9.99D-01  8.94D-01
 E= -633.322953065967     Delta-E=       -0.000011267419 Rises=F Damp=F
 DIIS: error= 1.17D-04 at cycle   3 NSaved=   3.
 NSaved= 3 IEnMin= 3 EnMin= -633.322953065967     IErMin= 3 ErrMin= 1.17D-04
 ErrMax= 1.17D-04  0.00D+00 EMaxC= 1.00D-01 BMatC= 3.77D-06 BMatP= 1.42D-05
 IDIUse=3 WtCom= 9.99D-01 WtEn= 1.17D-03
 Coeff-Com:  0.825D-01 0.326D+00 0.592D+00
 Coeff-En:   0.000D+00 0.108D+00 0.892D+00
 Coeff:      0.824D-01 0.325D+00 0.592D+00
 Gap=     0.216 Goal=   None    Shift=    0.000
 RMSDP=1.59D-05 MaxDP=8.96D-04 DE=-1.13D-05 OVMax= 6.44D-04

 Cycle   4  Pass 1  IDiag  1:
 RMSU=  1.45D-05    CP:  9.99D-01  8.92D-01  8.81D-01
 E= -633.322955908253     Delta-E=       -0.000002842285 Rises=F Damp=F
 DIIS: error= 2.55D-05 at cycle   4 NSaved=   4.
 NSaved= 4 IEnMin= 4 EnMin= -633.322955908253     IErMin= 4 ErrMin= 2.55D-05
 ErrMax= 2.55D-05  0.00D+00 EMaxC= 1.00D-01 BMatC= 2.73D-07 BMatP= 3.77D-06
 IDIUse=1 WtCom= 1.00D+00 WtEn= 0.00D+00
 Coeff-Com: -0.791D-02 0.620D-01 0.233D+00 0.713D+00
 Coeff:     -0.791D-02 0.620D-01 0.233D+00 0.713D+00
 Gap=     0.216 Goal=   None    Shift=    0.000
 RMSDP=7.40D-06 MaxDP=5.01D-04 DE=-2.84D-06 OVMax= 2.56D-04

 Cycle   5  Pass 1  IDiag  1:
 RMSU=  4.38D-06    CP:  9.99D-01  8.94D-01  1.04D+00  1.05D+00
 E= -633.322956145071     Delta-E=       -0.000000236819 Rises=F Damp=F
 DIIS: error= 7.97D-06 at cycle   5 NSaved=   5.
 NSaved= 5 IEnMin= 5 EnMin= -633.322956145071     IErMin= 5 ErrMin= 7.97D-06
 ErrMax= 7.97D-06  0.00D+00 EMaxC= 1.00D-01 BMatC= 4.81D-08 BMatP= 2.73D-07
 IDIUse=1 WtCom= 1.00D+00 WtEn= 0.00D+00
 Coeff-Com: -0.120D-01-0.161D-01 0.226D-01 0.320D+00 0.685D+00
 Coeff:     -0.120D-01-0.161D-01 0.226D-01 0.320D+00 0.685D+00
 Gap=     0.216 Goal=   None    Shift=    0.000
 RMSDP=1.96D-06 MaxDP=1.42D-04 DE=-2.37D-07 OVMax= 1.08D-04

 Cycle   6  Pass 1  IDiag  1:
 RMSU=  1.43D-06    CP:  9.99D-01  8.93D-01  1.06D+00  1.13D+00  1.08D+00
 E= -633.322956200096     Delta-E=       -0.000000055025 Rises=F Damp=F
 DIIS: error= 4.52D-06 at cycle   6 NSaved=   6.
 NSaved= 6 IEnMin= 6 EnMin= -633.322956200096     IErMin= 6 ErrMin= 4.52D-06
 ErrMax= 4.52D-06  0.00D+00 EMaxC= 1.00D-01 BMatC= 2.70D-09 BMatP= 4.81D-08
 IDIUse=1 WtCom= 1.00D+00 WtEn= 0.00D+00
 Coeff-Com: -0.150D-02-0.987D-02-0.134D-01-0.308D-02 0.151D+00 0.876D+00
 Coeff:     -0.150D-02-0.987D-02-0.134D-01-0.308D-02 0.151D+00 0.876D+00
 Gap=     0.216 Goal=   None    Shift=    0.000
 RMSDP=1.24D-06 MaxDP=8.91D-05 DE=-5.50D-08 OVMax= 7.61D-05

 Cycle   7  Pass 1  IDiag  1:
 RMSU=  4.91D-07    CP:  9.99D-01  8.91D-01  1.07D+00  1.17D+00  1.23D+00
                    CP:  1.31D+00
 E= -633.322956206550     Delta-E=       -0.000000006453 Rises=F Damp=F
 DIIS: error= 2.72D-06 at cycle   7 NSaved=   7.
 NSaved= 7 IEnMin= 7 EnMin= -633.322956206550     IErMin= 7 ErrMin= 2.72D-06
 ErrMax= 2.72D-06  0.00D+00 EMaxC= 1.00D-01 BMatC= 1.06D-09 BMatP= 2.70D-09
 IDIUse=1 WtCom= 1.00D+00 WtEn= 0.00D+00
 Coeff-Com:  0.780D-03-0.311D-02-0.704D-02-0.395D-01-0.208D-01 0.422D+00
 Coeff-Com:  0.648D+00
 Coeff:      0.780D-03-0.311D-02-0.704D-02-0.395D-01-0.208D-01 0.422D+00
 Coeff:      0.648D+00
 Gap=     0.216 Goal=   None    Shift=    0.000
 RMSDP=3.38D-07 MaxDP=1.61D-05 DE=-6.45D-09 OVMax= 3.10D-05

 Cycle   8  Pass 1  IDiag  1:
 RMSU=  1.86D-07    CP:  9.99D-01  8.90D-01  1.08D+00  1.17D+00  1.26D+00
                    CP:  1.41D+00  1.05D+00
 E= -633.322956208196     Delta-E=       -0.000000001646 Rises=F Damp=F
 DIIS: error= 1.15D-06 at cycle   8 NSaved=   8.
 NSaved= 8 IEnMin= 8 EnMin= -633.322956208196     IErMin= 8 ErrMin= 1.15D-06
 ErrMax= 1.15D-06  0.00D+00 EMaxC= 1.00D-01 BMatC= 1.83D-10 BMatP= 1.06D-09
 IDIUse=1 WtCom= 1.00D+00 WtEn= 0.00D+00
 Coeff-Com:  0.701D-03 0.305D-03 0.475D-03-0.164D-01-0.499D-01-0.236D-01
 Coeff-Com:  0.277D+00 0.811D+00
 Coeff:      0.701D-03 0.305D-03 0.475D-03-0.164D-01-0.499D-01-0.236D-01
 Coeff:      0.277D+00 0.811D+00
 Gap=     0.216 Goal=   None    Shift=    0.000
 RMSDP=2.74D-07 MaxDP=1.72D-05 DE=-1.65D-09 OVMax= 2.16D-05

 Cycle   9  Pass 1  IDiag  1:
 RMSU=  1.06D-07    CP:  9.99D-01  8.90D-01  1.08D+00  1.17D+00  1.29D+00
                    CP:  1.53D+00  1.31D+00  1.17D+00
 E= -633.322956208651     Delta-E=       -0.000000000456 Rises=F Damp=F
 DIIS: error= 5.74D-07 at cycle   9 NSaved=   9.
 NSaved= 9 IEnMin= 9 EnMin= -633.322956208651     IErMin= 9 ErrMin= 5.74D-07
 ErrMax= 5.74D-07  0.00D+00 EMaxC= 1.00D-01 BMatC= 2.72D-11 BMatP= 1.83D-10
 IDIUse=1 WtCom= 1.00D+00 WtEn= 0.00D+00
 Coeff-Com:  0.157D-03 0.579D-03 0.162D-02 0.141D-02-0.169D-01-0.878D-01
 Coeff-Com: -0.339D-02 0.319D+00 0.785D+00
 Coeff:      0.157D-03 0.579D-03 0.162D-02 0.141D-02-0.169D-01-0.878D-01
 Coeff:     -0.339D-02 0.319D+00 0.785D+00
 Gap=     0.216 Goal=   None    Shift=    0.000
 RMSDP=8.74D-08 MaxDP=3.47D-06 DE=-4.56D-10 OVMax= 9.26D-06

 Cycle  10  Pass 1  IDiag  1:
 RMSU=  3.84D-08    CP:  9.99D-01  8.90D-01  1.08D+00  1.17D+00  1.29D+00
                    CP:  1.56D+00  1.40D+00  1.31D+00  1.19D+00
 E= -633.322956208739     Delta-E=       -0.000000000087 Rises=F Damp=F
 DIIS: error= 2.23D-07 at cycle  10 NSaved=  10.
 NSaved=10 IEnMin=10 EnMin= -633.322956208739     IErMin=10 ErrMin= 2.23D-07
 ErrMax= 2.23D-07  0.00D+00 EMaxC= 1.00D-01 BMatC= 4.56D-12 BMatP= 2.72D-11
 IDIUse=1 WtCom= 1.00D+00 WtEn= 0.00D+00
 Coeff-Com: -0.499D-04 0.212D-03 0.428D-03 0.330D-02 0.126D-02-0.309D-01
 Coeff-Com: -0.419D-01-0.126D-01 0.281D+00 0.799D+00
 Coeff:     -0.499D-04 0.212D-03 0.428D-03 0.330D-02 0.126D-02-0.309D-01
 Coeff:     -0.419D-01-0.126D-01 0.281D+00 0.799D+00
 Gap=     0.216 Goal=   None    Shift=    0.000
 RMSDP=4.54D-08 MaxDP=2.37D-06 DE=-8.74D-11 OVMax= 3.87D-06

 Cycle  11  Pass 1  IDiag  1:
 RMSU=  1.38D-08    CP:  9.99D-01  8.90D-01  1.08D+00  1.17D+00  1.29D+00
                    CP:  1.58D+00  1.44D+00  1.35D+00  1.43D+00  1.20D+00
 E= -633.322956208736     Delta-E=        0.000000000003 Rises=F Damp=F
 DIIS: error= 8.37D-08 at cycle  11 NSaved=  11.
 NSaved=11 IEnMin=10 EnMin= -633.322956208739     IErMin=11 ErrMin= 8.37D-08
 ErrMax= 8.37D-08  0.00D+00 EMaxC= 1.00D-01 BMatC= 1.62D-12 BMatP= 4.56D-12
 IDIUse=1 WtCom= 1.00D+00 WtEn= 0.00D+00
 Coeff-Com: -0.525D-04 0.365D-04-0.127D-03 0.147D-02 0.383D-02 0.126D-02
 Coeff-Com: -0.177D-01-0.648D-01-0.109D-01 0.428D+00 0.659D+00
 Coeff:     -0.525D-04 0.365D-04-0.127D-03 0.147D-02 0.383D-02 0.126D-02
 Coeff:     -0.177D-01-0.648D-01-0.109D-01 0.428D+00 0.659D+00
 Gap=     0.216 Goal=   None    Shift=    0.000
 RMSDP=1.54D-08 MaxDP=7.76D-07 DE= 2.84D-12 OVMax= 1.33D-06

 Cycle  12  Pass 1  IDiag  1:
 RMSU=  6.41D-09    CP:  9.99D-01  8.90D-01  1.08D+00  1.17D+00  1.29D+00
                    CP:  1.58D+00  1.44D+00  1.37D+00  1.48D+00  1.37D+00
                    CP:  1.01D+00
 E= -633.322956208741     Delta-E=       -0.000000000005 Rises=F Damp=F
 DIIS: error= 2.88D-08 at cycle  12 NSaved=  12.
 NSaved=12 IEnMin=12 EnMin= -633.322956208741     IErMin=12 ErrMin= 2.88D-08
 ErrMax= 2.88D-08  0.00D+00 EMaxC= 1.00D-01 BMatC= 1.83D-13 BMatP= 1.62D-12
 IDIUse=1 WtCom= 1.00D+00 WtEn= 0.00D+00
 Coeff-Com: -0.168D-04-0.633D-05-0.156D-03 0.637D-04 0.143D-02 0.546D-02
 Coeff-Com:  0.169D-03-0.271D-01-0.609D-01 0.253D-01 0.253D+00 0.802D+00
 Coeff:     -0.168D-04-0.633D-05-0.156D-03 0.637D-04 0.143D-02 0.546D-02
 Coeff:      0.169D-03-0.271D-01-0.609D-01 0.253D-01 0.253D+00 0.802D+00
 Gap=     0.216 Goal=   None    Shift=    0.000
 RMSDP=9.46D-09 MaxDP=3.91D-07 DE=-5.12D-12 OVMax= 7.22D-07

 Error on total polarization charges =  0.00852
 SCF Done:  E(RCAM-B3LYP) =  -633.322956209     A.U. after   12 cycles
            NFock= 12  Conv=0.95D-08     -V/T= 2.0043
 KE= 6.306041745025D+02 PE=-3.273370914304D+03 EE= 1.110673560373D+03
 Leave Link  502 at Sat Jan 24 22:50:16 2026, MaxMem=  2147483648 cpu:             747.0 elap:              47.4
 (Enter /data/home/wyx/g16/l601.exe)
 Copying SCF densities to generalized density rwf, IOpCl= 0 IROHF=0.

 **********************************************************************

            Population analysis using the SCF density.

 **********************************************************************

 Orbital symmetries:
       Occupied  (A) (A) (A) (A) (A) (A) (A) (A) (A) (A) (A) (A)
                 (A) (A) (A) (A) (A) (A) (A) (A) (A) (A) (A) (A)
                 (A) (A) (A) (A) (A) (A) (A) (A) (A) (A) (A) (A)
                 (A) (A) (A) (A) (A) (A) (A) (A) (A) (A) (A) (A)
                 (A) (A) (A) (A)
       Virtual   (A) (A) (A) (A) (A) (A) (A) (A) (A) (A) (A) (A)
                 (A) (A) (A) (A) (A) (A) (A) (A) (A) (A) (A) (A)
                 (A) (A) (A) (A) (A) (A) (A) (A) (A) (A) (A) (A)
                 (A) (A) (A) (A) (A) (A) (A) (A) (A) (A) (A) (A)
                 (A) (A) (A) (A) (A) (A) (A) (A) (A) (A) (A) (A)
                 (A) (A) (A) (A) (A) (A) (A) (A) (A) (A) (A) (A)
                 (A) (A) (A) (A) (A) (A) (A) (A) (A) (A) (A) (A)
                 (A) (A) (A) (A) (A) (A) (A) (A) (A) (A) (A) (A)
                 (A) (A) (A) (A) (A) (A) (A) (A) (A) (A) (A) (A)
                 (A) (A) (A) (A) (A) (A) (A) (A) (A) (A) (A) (A)
                 (A) (A) (A) (A) (A) (A) (A) (A) (A) (A) (A) (A)
                 (A) (A) (A) (A) (A) (A) (A) (A) (A) (A) (A) (A)
                 (A) (A) (A) (A) (A) (A) (A) (A) (A) (A) (A) (A)
                 (A) (A) (A) (A) (A) (A) (A) (A) (A) (A) (A) (A)
                 (A) (A) (A) (A) (A) (A) (A) (A) (A) (A) (A) (A)
                 (A) (A) (A) (A) (A) (A) (A) (A) (A) (A) (A) (A)
                 (A) (A) (A) (A) (A) (A) (A) (A) (A) (A) (A) (A)
                 (A) (A) (A) (A) (A) (A) (A) (A) (A) (A) (A) (A)
                 (A) (A) (A) (A) (A) (A) (A) (A) (A) (A) (A) (A)
                 (A) (A) (A) (A) (A) (A) (A) (A) (A) (A) (A) (A)
                 (A) (A) (A) (A) (A) (A) (A) (A) (A) (A) (A) (A)
                 (A) (A) (A) (A) (A) (A) (A) (A) (A) (A) (A) (A)
                 (A) (A) (A) (A) (A) (A) (A) (A) (A) (A) (A) (A)
                 (A) (A) (A) (A) (A) (A) (A) (A) (A) (A) (A) (A)
                 (A) (A) (A) (A) (A) (A) (A) (A) (A) (A) (A) (A)
                 (A) (A) (A) (A)
 The electronic state is 1-A.
 Alpha  occ. eigenvalues --  -19.17876 -19.16987 -14.44583 -10.33410 -10.32844
 Alpha  occ. eigenvalues --  -10.32764 -10.32182 -10.25922 -10.25241 -10.24937
 Alpha  occ. eigenvalues --  -10.24591 -10.24262 -10.24225 -10.23651  -1.11347
 Alpha  occ. eigenvalues --   -1.10759  -1.08317  -0.91255  -0.90351  -0.83918
 Alpha  occ. eigenvalues --   -0.82520  -0.81632  -0.78425  -0.73573  -0.72079
 Alpha  occ. eigenvalues --   -0.68643  -0.61486  -0.58156  -0.56980  -0.54985
 Alpha  occ. eigenvalues --   -0.54359  -0.53964  -0.52427  -0.51703  -0.50787
 Alpha  occ. eigenvalues --   -0.49780  -0.49423  -0.49227  -0.48484  -0.47888
 Alpha  occ. eigenvalues --   -0.47123  -0.45171  -0.45127  -0.43796  -0.43180
 Alpha  occ. eigenvalues --   -0.42154  -0.41935  -0.41534  -0.32571  -0.32171
 Alpha  occ. eigenvalues --   -0.31252  -0.24906
 Alpha virt. eigenvalues --   -0.03349   0.02535   0.06595   0.08393   0.08701
 Alpha virt. eigenvalues --    0.09843   0.10864   0.11632   0.12635   0.13496
 Alpha virt. eigenvalues --    0.14032   0.15103   0.15760   0.16416   0.16971
 Alpha virt. eigenvalues --    0.17518   0.17883   0.18169   0.18505   0.19298
 Alpha virt. eigenvalues --    0.20048   0.22056   0.23010   0.23548   0.23898
 Alpha virt. eigenvalues --    0.24155   0.24728   0.25792   0.26428   0.26764
 Alpha virt. eigenvalues --    0.27579   0.28254   0.28586   0.29533   0.30303
 Alpha virt. eigenvalues --    0.31716   0.32089   0.32410   0.33602   0.34343
 Alpha virt. eigenvalues --    0.34981   0.35831   0.36757   0.37702   0.38626
 Alpha virt. eigenvalues --    0.39705   0.41115   0.41538   0.42080   0.42593
 Alpha virt. eigenvalues --    0.44128   0.44928   0.45496   0.46223   0.46491
 Alpha virt. eigenvalues --    0.47317   0.47838   0.48053   0.48521   0.49203
 Alpha virt. eigenvalues --    0.49763   0.50637   0.51160   0.51472   0.51624
 Alpha virt. eigenvalues --    0.52574   0.52715   0.53413   0.53694   0.54326
 Alpha virt. eigenvalues --    0.54477   0.55359   0.55965   0.56722   0.58371
 Alpha virt. eigenvalues --    0.58506   0.59994   0.61104   0.61829   0.63143
 Alpha virt. eigenvalues --    0.64310   0.65196   0.66419   0.66841   0.67553
 Alpha virt. eigenvalues --    0.68546   0.69367   0.70856   0.71295   0.72271
 Alpha virt. eigenvalues --    0.73210   0.74664   0.75255   0.76044   0.77469
 Alpha virt. eigenvalues --    0.79108   0.80599   0.83188   0.86693   0.87549
 Alpha virt. eigenvalues --    0.91221   0.95711   1.02014   1.03920   1.22223
 Alpha virt. eigenvalues --    1.24661   1.27395   1.28440   1.29082   1.30462
 Alpha virt. eigenvalues --    1.31979   1.33290   1.34564   1.35238   1.36450
 Alpha virt. eigenvalues --    1.36865   1.37833   1.38611   1.39066   1.39722
 Alpha virt. eigenvalues --    1.40037   1.40274   1.40930   1.41439   1.42138
 Alpha virt. eigenvalues --    1.43464   1.43744   1.44356   1.45577   1.47400
 Alpha virt. eigenvalues --    1.48295   1.49675   1.49971   1.50323   1.50789
 Alpha virt. eigenvalues --    1.51402   1.52316   1.52995   1.55464   1.58679
 Alpha virt. eigenvalues --    1.59468   1.60111   1.60999   1.61628   1.62590
 Alpha virt. eigenvalues --    1.62673   1.62995   1.63831   1.64650   1.65854
 Alpha virt. eigenvalues --    1.66500   1.67126   1.67638   1.68086   1.68773
 Alpha virt. eigenvalues --    1.69248   1.70022   1.70317   1.71180   1.72522
 Alpha virt. eigenvalues --    1.74392   1.74877   1.75771   1.76714   1.78592
 Alpha virt. eigenvalues --    1.81673   1.83265   1.84097   1.85901   1.86633
 Alpha virt. eigenvalues --    1.86726   1.88052   1.88749   1.89198   1.90359
 Alpha virt. eigenvalues --    1.91452   1.94680   1.95397   1.99129   1.99806
 Alpha virt. eigenvalues --    2.01802   2.03895   2.05878   2.07030   2.09645
 Alpha virt. eigenvalues --    2.10423   2.11782   2.15941   2.17693   2.19893
 Alpha virt. eigenvalues --    2.20690   2.21427   2.22191   2.23080   2.26424
 Alpha virt. eigenvalues --    2.27137   2.27578   2.29346   2.31229   2.32257
 Alpha virt. eigenvalues --    2.33760   2.34541   2.37007   2.37956   2.39308
 Alpha virt. eigenvalues --    2.39490   2.40218   2.41408   2.42839   2.45288
 Alpha virt. eigenvalues --    2.45873   2.47664   2.48963   2.49714   2.51298
 Alpha virt. eigenvalues --    2.52503   2.54194   2.54687   2.56483   2.57609
 Alpha virt. eigenvalues --    2.58836   2.60910   2.61888   2.62560   2.63539
 Alpha virt. eigenvalues --    2.64846   2.65737   2.66640   2.67586   2.68398
 Alpha virt. eigenvalues --    2.71889   2.71985   2.74005   2.74720   2.75329
 Alpha virt. eigenvalues --    2.76817   2.77105   2.77585   2.78164   2.78810
 Alpha virt. eigenvalues --    2.80632   2.81733   2.83028   2.83697   2.85066
 Alpha virt. eigenvalues --    2.85423   2.86562   2.88772   2.89061   2.91882
 Alpha virt. eigenvalues --    2.97132   2.98440   3.01266   3.07244   3.10934
 Alpha virt. eigenvalues --    3.12341   3.14182   3.18043   3.19283   3.21642
 Alpha virt. eigenvalues --    3.22064   3.23289   3.24844   3.25626   3.26114
 Alpha virt. eigenvalues --    3.28931   3.30186   3.32425   3.34529   3.36651
 Alpha virt. eigenvalues --    3.38138   3.38924   3.39312   3.39694   3.41847
 Alpha virt. eigenvalues --    3.42060   3.44121   3.45117   3.47619   3.48428
 Alpha virt. eigenvalues --    3.49789   3.50147   3.55889   3.58397   3.59735
 Alpha virt. eigenvalues --    3.61359   3.91164   4.01071   4.32495   4.35627
 Alpha virt. eigenvalues --   21.68279  21.80722  22.07932  22.10355  22.11534
 Alpha virt. eigenvalues --   22.14872  22.14942  22.17925  22.19105  22.25023
 Alpha virt. eigenvalues --   22.27329  31.91598  43.63946  43.66729
          Condensed to atoms (all electrons):
               1          2          3          4          5          6
     1  O    7.956055   0.000000  -0.000185   0.000018   0.018822   0.007239
     2  O    0.000000   8.001719   0.000282   0.000002  -0.199234   0.001389
     3  N   -0.000185   0.000282   6.339245   0.367319  -0.115339   0.335257
     4  H    0.000018   0.000002   0.367319   0.402555   0.015887  -0.043963
     5  C    0.018822  -0.199234  -0.115339   0.015887   7.151381  -0.084474
     6  C    0.007239   0.001389   0.335257  -0.043963  -0.084474   5.516312
     7  C   -0.000004  -0.048711   0.398852  -0.034260   0.481588  -0.127919
     8  C   -0.000784   0.705418   0.003826  -0.000949  -0.388398   0.035954
     9  C   -0.007711   0.027051   0.014205   0.000237  -0.687641  -0.036430
    10  H    0.008891   0.000111   0.003302   0.000038  -0.064112  -0.019595
    11  H    0.008997   0.000027  -0.001282   0.000020  -0.108416   0.028472
    12  C   -0.234568  -0.003191  -0.085991   0.014558   0.198850  -0.025875
    13  C    0.717782  -0.000019   0.001372   0.000542   0.082808   0.109438
    14  C   -0.000007  -0.010467  -0.032203  -0.010757  -0.083711   0.010570
    15  H   -0.000000   0.004044   0.005920   0.001998   0.019312   0.006141
    16  H   -0.000000   0.004162  -0.002254   0.000909  -0.008230  -0.001224
    17  H    0.000000   0.003094  -0.000515   0.000799  -0.003615  -0.001379
    18  C    0.000267  -0.100559  -0.000519   0.000018  -0.248370   0.000002
    19  H   -0.000001   0.007439   0.000008  -0.000001   0.026274   0.000010
    20  H   -0.000007   0.000730   0.000011  -0.000001   0.000924   0.000179
    21  H    0.000159   0.004371   0.000113   0.000001   0.045434  -0.001241
    22  C   -0.105587   0.000000  -0.000152   0.000108   0.003385  -0.025965
    23  H    0.005283  -0.000000   0.000200  -0.000057  -0.000747  -0.023052
    24  H    0.001494   0.000000   0.000015  -0.000010  -0.000008   0.007716
    25  H    0.006190   0.000000   0.000023  -0.000002  -0.000133  -0.000972
    26  C    0.000677   0.000011  -0.025319  -0.006882   0.000807   0.196470
    27  H   -0.000224  -0.000000   0.000952   0.000729   0.000130  -0.051636
    28  H   -0.000058  -0.000000  -0.002290   0.000501   0.000354  -0.031431
    29  H    0.000023   0.000000   0.002378   0.001861  -0.000292  -0.045621
               7          8          9         10         11         12
     1  O   -0.000004  -0.000784  -0.007711   0.008891   0.008997  -0.234568
     2  O   -0.048711   0.705418   0.027051   0.000111   0.000027  -0.003191
     3  N    0.398852   0.003826   0.014205   0.003302  -0.001282  -0.085991
     4  H   -0.034260  -0.000949   0.000237   0.000038   0.000020   0.014558
     5  C    0.481588  -0.388398  -0.687641  -0.064112  -0.108416   0.198850
     6  C   -0.127919   0.035954  -0.036430  -0.019595   0.028472  -0.025875
     7  C    5.395806  -0.247653  -0.223914  -0.005464   0.015493   0.024515
     8  C   -0.247653   5.462624   0.217019  -0.001812  -0.009397  -0.053516
     9  C   -0.223914   0.217019   6.398700   0.432746   0.523847  -0.134766
    10  H   -0.005464  -0.001812   0.432746   0.571864  -0.050948  -0.017030
    11  H    0.015493  -0.009397   0.523847  -0.050948   0.541105  -0.108420
    12  C    0.024515  -0.053516  -0.134766  -0.017030  -0.108420   7.338594
    13  C    0.021906  -0.010727  -0.249275  -0.006796   0.001336  -0.521854
    14  C    0.291247  -0.035715   0.003380  -0.000733   0.000427   0.001118
    15  H   -0.082118   0.005346   0.000792   0.000042  -0.000003  -0.001574
    16  H   -0.020246  -0.000739   0.000979  -0.000063   0.000065   0.000216
    17  H   -0.027953  -0.006832  -0.000175   0.000184  -0.000060   0.000258
    18  C   -0.001877   0.332760  -0.000917  -0.014052   0.007764   0.000278
    19  H    0.000332  -0.055937  -0.002210   0.000139   0.000572  -0.000151
    20  H   -0.000289  -0.023718  -0.009370   0.000694  -0.000664  -0.002346
    21  H    0.004077  -0.071820  -0.007235   0.003039  -0.007718   0.006565
    22  C    0.000317  -0.000084   0.009921   0.003530  -0.001463  -0.245375
    23  H   -0.000011   0.000011   0.002746  -0.000232   0.000095   0.063511
    24  H   -0.000012   0.000001  -0.002002   0.000173  -0.000132  -0.011554
    25  H    0.000006   0.000003   0.000380  -0.000116  -0.000020   0.021002
    26  C    0.002597   0.000892   0.022169  -0.000745   0.000119  -0.084100
    27  H   -0.000802   0.000002  -0.000024  -0.000083   0.000009  -0.006210
    28  H   -0.000814  -0.000015  -0.000582  -0.000010   0.000042  -0.016832
    29  H    0.002916  -0.000004  -0.000457   0.000077  -0.000013   0.021232
              13         14         15         16         17         18
     1  O    0.717782  -0.000007  -0.000000  -0.000000   0.000000   0.000267
     2  O   -0.000019  -0.010467   0.004044   0.004162   0.003094  -0.100559
     3  N    0.001372  -0.032203   0.005920  -0.002254  -0.000515  -0.000519
     4  H    0.000542  -0.010757   0.001998   0.000909   0.000799   0.000018
     5  C    0.082808  -0.083711   0.019312  -0.008230  -0.003615  -0.248370
     6  C    0.109438   0.010570   0.006141  -0.001224  -0.001379   0.000002
     7  C    0.021906   0.291247  -0.082118  -0.020246  -0.027953  -0.001877
     8  C   -0.010727  -0.035715   0.005346  -0.000739  -0.006832   0.332760
     9  C   -0.249275   0.003380   0.000792   0.000979  -0.000175  -0.000917
    10  H   -0.006796  -0.000733   0.000042  -0.000063   0.000184  -0.014052
    11  H    0.001336   0.000427  -0.000003   0.000065  -0.000060   0.007764
    12  C   -0.521854   0.001118  -0.001574   0.000216   0.000258   0.000278
    13  C    5.631574   0.000161  -0.000042  -0.000007  -0.000005   0.001370
    14  C    0.000161   5.039291   0.392156   0.405338   0.415135   0.000718
    15  H   -0.000042   0.392156   0.565069  -0.024186  -0.026159   0.000214
    16  H   -0.000007   0.405338  -0.024186   0.511367  -0.028319   0.000162
    17  H   -0.000005   0.415135  -0.026159  -0.028319   0.514680  -0.000138
    18  C    0.001370   0.000718   0.000214   0.000162  -0.000138   5.301013
    19  H   -0.000010   0.000057  -0.000005  -0.000040   0.000040   0.395597
    20  H   -0.000148  -0.000184  -0.000005  -0.000008   0.000009   0.401234
    21  H    0.000941   0.000120  -0.000014  -0.000003  -0.000031   0.380291
    22  C    0.279477  -0.000008   0.000002  -0.000000   0.000000   0.000028
    23  H   -0.099289   0.000003   0.000000   0.000000  -0.000000   0.000001
    24  H   -0.022708  -0.000001   0.000000   0.000000  -0.000000  -0.000001
    25  H   -0.035435   0.000000   0.000000  -0.000000  -0.000000  -0.000001
    26  C   -0.057466   0.000500   0.000303  -0.000064   0.000005   0.000004
    27  H   -0.002294   0.000048  -0.000008   0.000001  -0.000002   0.000000
    28  H    0.006959  -0.000091  -0.000006  -0.000005   0.000004  -0.000000
    29  H   -0.001188  -0.000123   0.000113  -0.000001  -0.000000  -0.000000
              19         20         21         22         23         24
     1  O   -0.000001  -0.000007   0.000159  -0.105587   0.005283   0.001494
     2  O    0.007439   0.000730   0.004371   0.000000  -0.000000   0.000000
     3  N    0.000008   0.000011   0.000113  -0.000152   0.000200   0.000015
     4  H   -0.000001  -0.000001   0.000001   0.000108  -0.000057  -0.000010
     5  C    0.026274   0.000924   0.045434   0.003385  -0.000747  -0.000008
     6  C    0.000010   0.000179  -0.001241  -0.025965  -0.023052   0.007716
     7  C    0.000332  -0.000289   0.004077   0.000317  -0.000011  -0.000012
     8  C   -0.055937  -0.023718  -0.071820  -0.000084   0.000011   0.000001
     9  C   -0.002210  -0.009370  -0.007235   0.009921   0.002746  -0.002002
    10  H    0.000139   0.000694   0.003039   0.003530  -0.000232   0.000173
    11  H    0.000572  -0.000664  -0.007718  -0.001463   0.000095  -0.000132
    12  C   -0.000151  -0.002346   0.006565  -0.245375   0.063511  -0.011554
    13  C   -0.000010  -0.000148   0.000941   0.279477  -0.099289  -0.022708
    14  C    0.000057  -0.000184   0.000120  -0.000008   0.000003  -0.000001
    15  H   -0.000005  -0.000005  -0.000014   0.000002   0.000000   0.000000
    16  H   -0.000040  -0.000008  -0.000003  -0.000000   0.000000   0.000000
    17  H    0.000040   0.000009  -0.000031   0.000000  -0.000000  -0.000000
    18  C    0.395597   0.401234   0.380291   0.000028   0.000001  -0.000001
    19  H    0.514610  -0.010989  -0.024688  -0.000000   0.000000   0.000000
    20  H   -0.010989   0.489139  -0.021981  -0.000011   0.000000   0.000000
    21  H   -0.024688  -0.021981   0.533638   0.000035  -0.000000  -0.000000
    22  C   -0.000000  -0.000011   0.000035   5.428679   0.396741   0.401752
    23  H    0.000000   0.000000  -0.000000   0.396741   0.542598  -0.026088
    24  H    0.000000   0.000000  -0.000000   0.401752  -0.026088   0.492248
    25  H   -0.000000   0.000000  -0.000001   0.380486  -0.022454  -0.009285
    26  C    0.000000   0.000002  -0.000017  -0.034984   0.015747  -0.009167
    27  H   -0.000000   0.000000  -0.000000   0.003568  -0.007010  -0.000102
    28  H    0.000000  -0.000000   0.000000  -0.010837  -0.001758   0.000756
    29  H    0.000000  -0.000000   0.000000   0.002002   0.000577   0.000142
              25         26         27         28         29
     1  O    0.006190   0.000677  -0.000224  -0.000058   0.000023
     2  O    0.000000   0.000011  -0.000000  -0.000000   0.000000
     3  N    0.000023  -0.025319   0.000952  -0.002290   0.002378
     4  H   -0.000002  -0.006882   0.000729   0.000501   0.001861
     5  C   -0.000133   0.000807   0.000130   0.000354  -0.000292
     6  C   -0.000972   0.196470  -0.051636  -0.031431  -0.045621
     7  C    0.000006   0.002597  -0.000802  -0.000814   0.002916
     8  C    0.000003   0.000892   0.000002  -0.000015  -0.000004
     9  C    0.000380   0.022169  -0.000024  -0.000582  -0.000457
    10  H   -0.000116  -0.000745  -0.000083  -0.000010   0.000077
    11  H   -0.000020   0.000119   0.000009   0.000042  -0.000013
    12  C    0.021002  -0.084100  -0.006210  -0.016832   0.021232
    13  C   -0.035435  -0.057466  -0.002294   0.006959  -0.001188
    14  C    0.000000   0.000500   0.000048  -0.000091  -0.000123
    15  H    0.000000   0.000303  -0.000008  -0.000006   0.000113
    16  H   -0.000000  -0.000064   0.000001  -0.000005  -0.000001
    17  H   -0.000000   0.000005  -0.000002   0.000004  -0.000000
    18  C   -0.000001   0.000004   0.000000  -0.000000  -0.000000
    19  H   -0.000000   0.000000  -0.000000   0.000000   0.000000
    20  H    0.000000   0.000002   0.000000  -0.000000  -0.000000
    21  H   -0.000001  -0.000017  -0.000000   0.000000   0.000000
    22  C    0.380486  -0.034984   0.003568  -0.010837   0.002002
    23  H   -0.022454   0.015747  -0.007010  -0.001758   0.000577
    24  H   -0.009285  -0.009167  -0.000102   0.000756   0.000142
    25  H    0.500086   0.002172   0.000556   0.000137  -0.000035
    26  C    0.002172   5.238393   0.434499   0.424001   0.387693
    27  H    0.000556   0.434499   0.506079  -0.028730  -0.024268
    28  H    0.000137   0.424001  -0.028730   0.481226  -0.015596
    29  H   -0.000035   0.387693  -0.024268  -0.015596   0.508031
 Mulliken charges:
               1
     1  O   -0.382762
     2  O   -0.397669
     3  N   -0.207230
     4  H    0.288781
     5  C   -0.053235
     6  C    0.265627
     7  C    0.182396
     8  C    0.144245
     9  C   -0.291461
    10  H    0.156960
    11  H    0.160150
    12  C   -0.137345
    13  C    0.151601
    14  C   -0.386264
    15  H    0.132666
    16  H    0.162190
    17  H    0.160977
    18  C   -0.455284
    19  H    0.148952
    20  H    0.176799
    21  H    0.155964
    22  C   -0.485563
    23  H    0.153187
    24  H    0.176774
    25  H    0.157412
    26  C   -0.508315
    27  H    0.174820
    28  H    0.195073
    29  H    0.160554
 Sum of Mulliken charges =  -0.00000
 Mulliken charges with hydrogens summed into heavy atoms:
               1
     1  O   -0.382762
     2  O   -0.397669
     3  N    0.081551
     5  C   -0.053235
     6  C    0.265627
     7  C    0.182396
     8  C    0.144245
     9  C    0.025649
    12  C   -0.137345
    13  C    0.151601
    14  C    0.069569
    18  C    0.026431
    22  C    0.001810
    26  C    0.022132
 Electronic spatial extent (au):  <R**2>=           3209.1598
 Charge=             -0.0000 electrons
 Dipole moment (field-independent basis, Debye):
    X=             -4.2215    Y=              8.2150    Z=              0.1359  Tot=              9.2372
 Quadrupole moment (field-independent basis, Debye-Ang):
   XX=           -100.5301   YY=            -77.7547   ZZ=            -84.8585
   XY=            -12.9267   XZ=             -4.1582   YZ=             -2.4383
 Traceless Quadrupole moment (field-independent basis, Debye-Ang):
   XX=            -12.8156   YY=              9.9598   ZZ=              2.8559
   XY=            -12.9267   XZ=             -4.1582   YZ=             -2.4383
 Octapole moment (field-independent basis, Debye-Ang**2):
  XXX=           -116.5188  YYY=             69.8794  ZZZ=              0.9921  XYY=             35.9964
  XXY=             35.6089  XXZ=             -4.5738  XZZ=             -0.5918  YZZ=             -0.8168
  YYZ=              4.7543  XYZ=              5.5553
 Hexadecapole moment (field-independent basis, Debye-Ang**3):
 XXXX=          -3107.7631 YYYY=          -1290.6269 ZZZZ=           -142.5277 XXXY=            -37.0642
 XXXZ=            -44.9808 YYYX=            -92.3038 YYYZ=            -20.4958 ZZZX=              3.4633
 ZZZY=              1.8253 XXYY=           -697.5753 XXZZ=           -480.5201 YYZZ=           -245.1781
 XXYZ=            -10.6757 YYXZ=            -10.6288 ZZXY=             -0.5999
 N-N= 8.987702232196D+02 E-N=-3.273370913169D+03  KE= 6.306041745025D+02
 No NMR shielding tensors so no spin-rotation constants.
 Leave Link  601 at Sat Jan 24 22:50:16 2026, MaxMem=  2147483648 cpu:               1.8 elap:               0.1
 (Enter /data/home/wyx/g16/l9999.exe)
 1\1\GINC-CN012\SP\RCAM-B3LYP\TZVP\C11H15N1O2\WYX\24-Jan-2026\0\\#p CAM
 -B3LYP TZVP em=gd3bj scrf=(Solvent=Water,NonEquilibrium=Read) Geom=Che
 ck Guess=Read\\Title Card Required\\0,1\O,0,2.712851,-1.559613,0.88324
 9\O,0,-3.315314,-1.665408,-0.874337\N,0,-0.679219,1.516753,-0.080517\H
 ,0,-0.987645,2.478065,-0.150077\C,0,-1.25331,-0.764568,-0.176973\C,0,0
 .644287,1.339372,0.192064\C,0,-1.629445,0.579666,-0.299513\C,0,-2.1670
 58,-1.852857,-0.452815\C,0,0.123602,-1.077451,0.259392\H,0,0.091772,-1
 .529689,1.268376\H,0,0.539325,-1.901117,-0.331821\C,0,1.106781,0.02694
 3,0.306498\C,0,2.477968,-0.396554,0.522494\C,0,-2.984978,1.105106,-0.6
 25749\H,0,-3.00737,2.19107,-0.544849\H,0,-3.284356,0.829656,-1.634121\
 H,0,-3.736338,0.692372,0.042023\C,0,-1.694251,-3.272072,-0.251194\H,0,
 -2.561012,-3.922619,-0.181563\H,0,-1.099459,-3.596362,-1.106613\H,0,-1
 .081859,-3.401998,0.637142\C,0,3.64983,0.521608,0.275676\H,0,3.472211,
 1.243224,-0.516983\H,0,3.90604,1.069681,1.185031\H,0,4.505025,-0.09731
 9,0.011168\C,0,1.415004,2.605383,0.372519\H,0,2.123567,2.525312,1.1917
 61\H,0,1.971513,2.882941,-0.523947\H,0,0.741838,3.430474,0.603681\\Ver
 sion=ES64L-G16RevA.03\State=1-A\HF=-633.3229562\RMSD=9.465e-09\Dipole=
 0.4866773,3.6013147,-0.0300792\Quadrupole=-11.7030392,11.6071824,0.095
 8568,1.8274288,-6.3530708,0.8497394\PG=C01 [X(C11H15N1O2)]\\@


 MY DESCRIPTION OF EXPERIENCE IS NOT WHAT HAPPENS
 TO A MAN.  EXPERIENCE IS WHAT A MAN DOES WITH WHAT
 HAPPENS TO HIM.
                         - CHUCK KNOX, SEATTLE SEAHAWKS, 1985
 Job cpu time:       0 days  0 hours 12 minutes 37.2 seconds.
 Elapsed time:       0 days  0 hours  0 minutes 48.2 seconds.
 File lengths (MBytes):  RWF=    340 Int=      0 D2E=      0 Chk=     67 Scr=      1
 Normal termination of Gaussian 16 at Sat Jan 24 22:50:17 2026.
