 Entering Gaussian System, Link 0=g16
 Input=DDL-LR-2.gjf
 Output=DDL-LR-2.log
 Initial command:
 /data/home/wyx/g16/l1.exe "/scr/tmp/wyx/13117/Gau-2009281.inp" -scrdir="/scr/tmp/wyx/13117/"
 Entering Link 1 = /data/home/wyx/g16/l1.exe PID=   2009282.
  
 Copyright (c) 1988,1990,1992,1993,1995,1998,2003,2009,2016,
            Gaussian, Inc.  All Rights Reserved.
  
 This is part of the Gaussian(R) 16 program.  It is based on
 the Gaussian(R) 09 system (copyright 2009, Gaussian, Inc.),
 the Gaussian(R) 03 system (copyright 2003, Gaussian, Inc.),
 the Gaussian(R) 98 system (copyright 1998, Gaussian, Inc.),
 the Gaussian(R) 94 system (copyright 1995, Gaussian, Inc.),
 the Gaussian 92(TM) system (copyright 1992, Gaussian, Inc.),
 the Gaussian 90(TM) system (copyright 1990, Gaussian, Inc.),
 the Gaussian 88(TM) system (copyright 1988, Gaussian, Inc.),
 the Gaussian 86(TM) system (copyright 1986, Carnegie Mellon
 University), and the Gaussian 82(TM) system (copyright 1983,
 Carnegie Mellon University). Gaussian is a federally registered
 trademark of Gaussian, Inc.
  
 This software contains proprietary and confidential information,
 including trade secrets, belonging to Gaussian, Inc.
  
 This software is provided under written license and may be
 used, copied, transmitted, or stored only in accord with that
 written license.
  
 The following legend is applicable only to US Government
 contracts under FAR:
  
                    RESTRICTED RIGHTS LEGEND
  
 Use, reproduction and disclosure by the US Government is
 subject to restrictions as set forth in subparagraphs (a)
 and (c) of the Commercial Computer Software - Restricted
 Rights clause in FAR 52.227-19.
  
 Gaussian, Inc.
 340 Quinnipiac St., Bldg. 40, Wallingford CT 06492
  
  
 ---------------------------------------------------------------
 Warning -- This program may not be used in any manner that
 competes with the business of Gaussian, Inc. or will provide
 assistance to any competitor of Gaussian, Inc.  The licensee
 of this program is prohibited from giving any competitor of
 Gaussian, Inc. access to this program.  By using this program,
 the user acknowledges that Gaussian, Inc. is engaged in the
 business of creating and licensing software in the field of
 computational chemistry and represents and warrants to the
 licensee that it is not a competitor of Gaussian, Inc. and that
 it will not use this program in any manner prohibited above.
 ---------------------------------------------------------------
  

 Cite this work as:
 Gaussian 16, Revision A.03,
 M. J. Frisch, G. W. Trucks, H. B. Schlegel, G. E. Scuseria, 
 M. A. Robb, J. R. Cheeseman, G. Scalmani, V. Barone, 
 G. A. Petersson, H. Nakatsuji, X. Li, M. Caricato, A. V. Marenich, 
 J. Bloino, B. G. Janesko, R. Gomperts, B. Mennucci, H. P. Hratchian, 
 J. V. Ortiz, A. F. Izmaylov, J. L. Sonnenberg, D. Williams-Young, 
 F. Ding, F. Lipparini, F. Egidi, J. Goings, B. Peng, A. Petrone, 
 T. Henderson, D. Ranasinghe, V. G. Zakrzewski, J. Gao, N. Rega, 
 G. Zheng, W. Liang, M. Hada, M. Ehara, K. Toyota, R. Fukuda, 
 J. Hasegawa, M. Ishida, T. Nakajima, Y. Honda, O. Kitao, H. Nakai, 
 T. Vreven, K. Throssell, J. A. Montgomery, Jr., J. E. Peralta, 
 F. Ogliaro, M. J. Bearpark, J. J. Heyd, E. N. Brothers, K. N. Kudin, 
 V. N. Staroverov, T. A. Keith, R. Kobayashi, J. Normand, 
 K. Raghavachari, A. P. Rendell, J. C. Burant, S. S. Iyengar, 
 J. Tomasi, M. Cossi, J. M. Millam, M. Klene, C. Adamo, R. Cammi, 
 J. W. Ochterski, R. L. Martin, K. Morokuma, O. Farkas, 
 J. B. Foresman, and D. J. Fox, Gaussian, Inc., Wallingford CT, 2016.
 
 ******************************************
 Gaussian 16:  ES64L-G16RevA.03 25-Dec-2016
                24-Jan-2026 
 ******************************************
 %nprocshared=16
 Will use up to   16 processors via shared memory.
 %mem=16GB
 %chk=DDL-LR-2.chk
 --------------------------------------------------------------------
 #p CAM-B3LYP TZVP em=gd3bj td(nstates=6,root=1) scrf=(Solvent=Water)
 --------------------------------------------------------------------
 1/38=1,172=1/1;
 2/12=2,17=6,18=5,40=1/2;
 3/5=19,7=101,11=9,25=1,30=1,70=2201,72=1,74=-40,124=41/1,2,3,8;
 4//1;
 5/5=2,38=5,53=1/2;
 8/6=1,10=1,107=1,108=6/1;
 9/8=1,41=6,42=1,70=2/14;
 6/7=2,8=2,9=2,10=2/1;
 99/5=1,9=1/99;
 Leave Link    1 at Sat Jan 24 15:30:40 2026, MaxMem=  2147483648 cpu:               0.4 elap:               0.1
 (Enter /data/home/wyx/g16/l101.exe)
 -------------------
 Title Card Required
 -------------------
 Symbolic Z-matrix:
 Charge =  0 Multiplicity = 1
 O                     2.71285  -1.55961   0.88325 
 O                    -3.31531  -1.66541  -0.87434 
 N                    -0.67922   1.51675  -0.08052 
 H                    -0.98765   2.47806  -0.15008 
 C                    -1.25331  -0.76457  -0.17697 
 C                     0.64429   1.33937   0.19206 
 C                    -1.62945   0.57967  -0.29951 
 C                    -2.16706  -1.85286  -0.45282 
 C                     0.1236   -1.07745   0.25939 
 H                     0.09177  -1.52969   1.26838 
 H                     0.53933  -1.90112  -0.33182 
 C                     1.10678   0.02694   0.3065 
 C                     2.47797  -0.39655   0.52249 
 C                    -2.98498   1.10511  -0.62575 
 H                    -3.00737   2.19107  -0.54485 
 H                    -3.28436   0.82966  -1.63412 
 H                    -3.73634   0.69237   0.04202 
 C                    -1.69425  -3.27207  -0.25119 
 H                    -2.56101  -3.92262  -0.18156 
 H                    -1.09946  -3.59636  -1.10661 
 H                    -1.08186  -3.402     0.63714 
 C                     3.64983   0.52161   0.27568 
 H                     3.47221   1.24322  -0.51698 
 H                     3.90604   1.06968   1.18503 
 H                     4.50502  -0.09732   0.01117 
 C                     1.415     2.60538   0.37252 
 H                     2.12357   2.52531   1.19176 
 H                     1.97151   2.88294  -0.52395 
 H                     0.74184   3.43047   0.60368 
 
 ITRead=  0  0  0  0  0  0  0  0  0  0  0  0  0  0  0  0  0  0  0  0
 ITRead=  0  0  0  0  0  0  0  0  0
 MicOpt= -1 -1 -1 -1 -1 -1 -1 -1 -1 -1 -1 -1 -1 -1 -1 -1 -1 -1 -1 -1
 MicOpt= -1 -1 -1 -1 -1 -1 -1 -1 -1
 NAtoms=     29 NQM=       29 NQMF=       0 NMMI=      0 NMMIF=      0
                NMic=       0 NMicF=      0.
                    Isotopes and Nuclear Properties:
 (Nuclear quadrupole moments (NQMom) in fm**2, nuclear magnetic moments (NMagM)
  in nuclear magnetons)

  Atom         1           2           3           4           5           6           7           8           9          10
 IAtWgt=          16          16          14           1          12          12          12          12          12           1
 AtmWgt=  15.9949146  15.9949146  14.0030740   1.0078250  12.0000000  12.0000000  12.0000000  12.0000000  12.0000000   1.0078250
 NucSpn=           0           0           2           1           0           0           0           0           0           1
 AtZEff=  -0.0000000  -0.0000000  -0.0000000  -0.0000000  -0.0000000  -0.0000000  -0.0000000  -0.0000000  -0.0000000  -0.0000000
 NQMom=    0.0000000   0.0000000   2.0440000   0.0000000   0.0000000   0.0000000   0.0000000   0.0000000   0.0000000   0.0000000
 NMagM=    0.0000000   0.0000000   0.4037610   2.7928460   0.0000000   0.0000000   0.0000000   0.0000000   0.0000000   2.7928460
 AtZNuc=   8.0000000   8.0000000   7.0000000   1.0000000   6.0000000   6.0000000   6.0000000   6.0000000   6.0000000   1.0000000

  Atom        11          12          13          14          15          16          17          18          19          20
 IAtWgt=           1          12          12          12           1           1           1          12           1           1
 AtmWgt=   1.0078250  12.0000000  12.0000000  12.0000000   1.0078250   1.0078250   1.0078250  12.0000000   1.0078250   1.0078250
 NucSpn=           1           0           0           0           1           1           1           0           1           1
 AtZEff=  -0.0000000  -0.0000000  -0.0000000  -0.0000000  -0.0000000  -0.0000000  -0.0000000  -0.0000000  -0.0000000  -0.0000000
 NQMom=    0.0000000   0.0000000   0.0000000   0.0000000   0.0000000   0.0000000   0.0000000   0.0000000   0.0000000   0.0000000
 NMagM=    2.7928460   0.0000000   0.0000000   0.0000000   2.7928460   2.7928460   2.7928460   0.0000000   2.7928460   2.7928460
 AtZNuc=   1.0000000   6.0000000   6.0000000   6.0000000   1.0000000   1.0000000   1.0000000   6.0000000   1.0000000   1.0000000

  Atom        21          22          23          24          25          26          27          28          29
 IAtWgt=           1          12           1           1           1          12           1           1           1
 AtmWgt=   1.0078250  12.0000000   1.0078250   1.0078250   1.0078250  12.0000000   1.0078250   1.0078250   1.0078250
 NucSpn=           1           0           1           1           1           0           1           1           1
 AtZEff=  -0.0000000  -0.0000000  -0.0000000  -0.0000000  -0.0000000  -0.0000000  -0.0000000  -0.0000000  -0.0000000
 NQMom=    0.0000000   0.0000000   0.0000000   0.0000000   0.0000000   0.0000000   0.0000000   0.0000000   0.0000000
 NMagM=    2.7928460   0.0000000   2.7928460   2.7928460   2.7928460   0.0000000   2.7928460   2.7928460   2.7928460
 AtZNuc=   1.0000000   6.0000000   1.0000000   1.0000000   1.0000000   6.0000000   1.0000000   1.0000000   1.0000000
 Leave Link  101 at Sat Jan 24 15:30:41 2026, MaxMem=  2147483648 cpu:               0.8 elap:               0.1
 (Enter /data/home/wyx/g16/l202.exe)
                          Input orientation:                          
 ---------------------------------------------------------------------
 Center     Atomic      Atomic             Coordinates (Angstroms)
 Number     Number       Type             X           Y           Z
 ---------------------------------------------------------------------
      1          8           0        2.712851   -1.559613    0.883249
      2          8           0       -3.315314   -1.665408   -0.874337
      3          7           0       -0.679219    1.516753   -0.080517
      4          1           0       -0.987645    2.478065   -0.150077
      5          6           0       -1.253310   -0.764568   -0.176973
      6          6           0        0.644287    1.339372    0.192064
      7          6           0       -1.629445    0.579666   -0.299513
      8          6           0       -2.167058   -1.852857   -0.452815
      9          6           0        0.123602   -1.077451    0.259392
     10          1           0        0.091772   -1.529689    1.268376
     11          1           0        0.539325   -1.901117   -0.331821
     12          6           0        1.106781    0.026943    0.306498
     13          6           0        2.477968   -0.396554    0.522494
     14          6           0       -2.984978    1.105106   -0.625749
     15          1           0       -3.007370    2.191070   -0.544849
     16          1           0       -3.284356    0.829656   -1.634121
     17          1           0       -3.736338    0.692372    0.042023
     18          6           0       -1.694251   -3.272072   -0.251194
     19          1           0       -2.561012   -3.922619   -0.181563
     20          1           0       -1.099459   -3.596362   -1.106613
     21          1           0       -1.081859   -3.401998    0.637142
     22          6           0        3.649830    0.521608    0.275676
     23          1           0        3.472211    1.243224   -0.516983
     24          1           0        3.906040    1.069681    1.185031
     25          1           0        4.505025   -0.097319    0.011168
     26          6           0        1.415004    2.605383    0.372519
     27          1           0        2.123567    2.525312    1.191761
     28          1           0        1.971513    2.882941   -0.523947
     29          1           0        0.741838    3.430474    0.603681
 ---------------------------------------------------------------------
                    Distance matrix (angstroms):
                    1          2          3          4          5
     1  O    0.000000
     2  O    6.280054   0.000000
     3  N    4.679638   4.207766   0.000000
     4  H    5.573534   4.807386   1.011971   0.000000
     5  C    4.181698   2.355778   2.354423   3.253609   0.000000
     6  C    3.627783   5.083734   1.362877   2.019130   2.857206
     7  C    4.983069   2.865822   1.352413   2.009517   1.401235
     8  C    5.067995   1.237461   3.702235   4.498839   1.447549
     9  C    2.706638   3.668403   2.736778   3.747563   1.477903
    10  H    2.649391   4.027142   3.419759   4.386256   2.117472
    11  H    2.513411   3.899760   3.637284   4.641326   2.128206
    12  C    2.330078   4.879892   2.357777   3.256237   2.535796
    13  C    1.240170   6.092885   3.740614   4.552610   3.814069
    14  C    6.468621   2.801190   2.404840   2.469943   2.587616
    15  H    6.987705   3.882759   2.467913   2.077860   3.456567
    16  H    6.929087   2.608366   3.110069   3.192886   2.964790
    17  H    6.882669   2.564391   3.168690   3.283430   2.887224
    18  C    4.862307   2.365908   4.898190   5.794272   2.547060
    19  H    5.876330   2.478691   5.756572   6.591300   3.418098
    20  H    4.758320   2.948313   5.231961   6.150295   2.984453
    21  H    4.225491   3.207590   4.987110   5.933273   2.765541
    22  C    2.361897   7.390453   4.456215   5.051254   5.089197
    23  H    3.223844   7.393128   4.183263   4.642173   5.145618
    24  H    2.903095   7.991850   4.777665   5.264429   5.642554
    25  H    2.471986   8.025006   5.430471   6.068610   5.799917
    26  C    4.392316   6.493860   2.403357   2.462121   4.333406
    27  H    4.138725   7.170239   3.239057   3.388569   4.909179
    28  H    4.718694   6.982893   3.014876   3.010036   4.881004
    29  H    5.372524   6.679299   2.479891   2.113373   4.710458
                    6          7          8          9         10
     6  C    0.000000
     7  C    2.447174   0.000000
     8  C    4.302308   2.495936   0.000000
     9  C    2.473192   2.476204   2.521035   0.000000
    10  H    3.113717   3.141694   2.858190   1.106156   0.000000
    11  H    3.284241   3.295283   2.709516   1.095803   1.702614
    12  C    1.396233   2.856516   3.850744   1.479374   2.092500
    13  C    2.546568   4.301109   4.964707   2.464931   2.744862
    14  C    3.727635   1.489962   3.073832   3.900038   4.471716
    15  H    3.821391   2.134359   4.131336   4.597066   5.170736
    16  H    4.362224   2.140655   3.136832   4.340118   5.038773
    17  H    4.430688   2.137369   3.030791   4.251901   4.593030
    18  C    5.189475   3.852586   1.509427   2.895108   2.921450
    19  H    6.172689   4.599163   2.124310   3.936569   3.855606
    20  H    5.393392   4.286199   2.146399   3.115567   3.366117
    21  H    5.065399   4.126842   2.183003   2.645628   2.298131
    22  C    3.115930   5.310834   6.324948   3.871891   4.225287
    23  H    2.917044   5.149223   6.433599   4.147466   4.722703
    24  H    3.420197   5.752007   6.935870   4.446776   4.616526
    25  H    4.123361   6.179527   6.914759   4.496570   4.807188
    26  C    1.493102   3.718041   5.778257   3.904329   4.433094
    27  H    2.143389   4.482693   6.346846   4.224816   4.536198
    28  H    2.157963   4.280461   6.289723   4.439944   5.120269
    29  H    2.133460   3.816523   6.123026   4.563128   5.046546
                   11         12         13         14         15
    11  H    0.000000
    12  C    2.108761   0.000000
    13  C    2.598442   1.451261   0.000000
    14  C    4.641603   4.332899   5.780763   0.000000
    15  H    5.419448   4.725937   6.158243   1.089203   0.000000
    16  H    4.875822   4.867487   6.273672   1.087343   1.765413
    17  H    5.014702   4.895768   6.327259   1.086651   1.766892
    18  C    2.621999   4.363519   5.125876   4.578860   5.626405
    19  H    3.704205   5.412019   6.190327   5.065083   6.140717
    20  H    2.481889   4.471322   5.068604   5.088243   6.119646
    21  H    2.412420   4.081312   4.660280   5.052795   6.032172
    22  C    3.989222   2.590896   1.509040   6.721139   6.912212
    23  H    4.303834   2.784371   2.181262   6.459582   6.548600
    24  H    4.739330   3.113675   2.151323   7.125048   7.214238
    25  H    4.370138   3.413316   2.111861   7.612597   7.872862
    26  C    4.644508   2.597636   3.188105   4.754704   4.535484
    27  H    4.942105   2.838907   3.018413   5.605137   5.427158
    28  H    4.997528   3.097438   3.479457   5.266675   5.026768
    29  H    5.416829   3.435917   4.203199   4.561578   4.112396
                   16         17         18         19         20
    16  H    0.000000
    17  H    1.741434   0.000000
    18  C    4.611409   4.469106   0.000000
    19  H    5.021680   4.767549   1.085972   0.000000
    20  H    4.964038   5.163888   1.091184   1.760198   0.000000
    21  H    5.283609   4.915719   1.086759   1.768959   1.754642
    22  C    7.198969   7.391835   6.574861   7.650803   6.436159
    23  H    6.860775   7.251145   6.866649   7.949731   6.683519
    24  H    7.727032   7.736587   7.230271   8.283321   7.216551
    25  H    8.015031   8.279168   6.969857   8.037347   6.700968
    26  C    5.409602   5.505013   6.678395   7.663584   6.853612
    27  H    6.332968   6.246603   7.089959   8.087466   7.290083
    28  H    5.750880   6.139909   7.169129   8.183927   7.193868
    29  H    5.289825   5.278894   7.182581   8.098975   7.462701
                   21         22         23         24         25
    21  H    0.000000
    22  C    6.157453   0.000000
    23  H    6.606788   1.086548   0.000000
    24  H    6.721252   1.092224   1.764986   0.000000
    25  H    6.521198   1.088298   1.772767   1.760292   0.000000
    26  C    6.510989   3.057114   2.622745   3.037074   4.121092
    27  H    6.761314   2.680209   2.526341   2.301329   3.734078
    28  H    7.083196   3.005335   2.222794   3.154507   3.948035
    29  H    7.071751   4.126198   3.673539   3.990424   5.192107
                   26         27         28         29
    26  C    0.000000
    27  H    1.086108   0.000000
    28  H    1.091051   1.759168   0.000000
    29  H    1.089662   1.753377   1.755972   0.000000
 Stoichiometry    C11H15NO2
 Framework group  C1[X(C11H15NO2)]
 Deg. of freedom    81
 Full point group                 C1      NOp   1
 Largest Abelian subgroup         C1      NOp   1
 Largest concise Abelian subgroup C1      NOp   1
                         Standard orientation:                         
 ---------------------------------------------------------------------
 Center     Atomic      Atomic             Coordinates (Angstroms)
 Number     Number       Type             X           Y           Z
 ---------------------------------------------------------------------
      1          8           0       -2.288456   -2.286751   -0.279886
      2          8           0        3.632577   -0.262068    0.250295
      3          7           0       -0.020626    1.801236   -0.069362
      4          1           0       -0.047938    2.812764   -0.081641
      5          6           0        1.297814   -0.149229   -0.042688
      6          6           0       -1.232461    1.177627   -0.070696
      7          6           0        1.213219    1.249327   -0.024165
      8          6           0        2.559264   -0.850501    0.068485
      9          6           0        0.052961   -0.931838   -0.191218
     10          1           0        0.053688   -1.433253   -1.177202
     11          1           0        0.053482   -1.792469    0.487087
     12          6           0       -1.236937   -0.218586   -0.064805
     13          6           0       -2.399499   -1.084561    0.003711
     14          6           0        2.346706    2.215531    0.016402
     15          1           0        1.985966    3.237826   -0.089160
     16          1           0        2.897699    2.140601    0.950803
     17          1           0        3.060199    2.016079   -0.778555
     18          6           0        2.565656   -2.358032   -0.006873
     19          1           0        3.573680   -2.692323   -0.233750
     20          1           0        2.279551   -2.784797    0.955779
     21          1           0        1.884020   -2.756788   -0.753472
     22          6           0       -3.747937   -0.583199    0.459290
     23          1           0       -3.685073    0.221783    1.186365
     24          1           0       -4.333343   -0.229131   -0.392115
     25          1           0       -4.281354   -1.423018    0.900386
     26          6           0       -2.404656    2.101127   -0.120306
     27          1           0       -3.179557    1.723701   -0.781144
     28          1           0       -2.851336    2.256741    0.862879
     29          1           0       -2.103062    3.078190   -0.496807
 ---------------------------------------------------------------------
 Rotational constants (GHZ):           1.0722595           0.4896111           0.3426742
 Leave Link  202 at Sat Jan 24 15:30:41 2026, MaxMem=  2147483648 cpu:               0.0 elap:               0.0
 (Enter /data/home/wyx/g16/l301.exe)
 Standard basis: TZVP (5D, 7F)
 Ernie: Thresh=  0.10000D-02 Tol=  0.10000D-05 Strict=F.
 There are   370 symmetry adapted cartesian basis functions of A   symmetry.
 There are   356 symmetry adapted basis functions of A   symmetry.
   356 basis functions,   610 primitive gaussians,   370 cartesian basis functions
    52 alpha electrons       52 beta electrons
       nuclear repulsion energy       898.7963420986 Hartrees.
 IExCor=20419 DFT=T Ex+Corr=CAM-B3LYP ExCW=0 ScaHFX=  1.000000
 ScaDFX=  1.000000  1.000000  1.000000  0.810000 ScalE2=  1.000000  1.000000
 IRadAn=      5 IRanWt=     -1 IRanGd=            0 ICorTp=0 IEmpDi=141
 HFx  wShort=  0.000000 wLong=  0.330000 cFull=  0.190000 cShort=  0.000000 cLong=  0.460000
 DFx  wShort=  0.000000 wLong=  0.330000 cFull=  0.190000 cShort=  0.000000 cLong=  0.460000
 NAtoms=   29 NActive=   29 NUniq=   29 SFac= 1.00D+00 NAtFMM=   60 NAOKFM=F Big=F
 Integral buffers will be    131072 words long.
 Raffenetti 1 integral format.
 Two-electron integral symmetry is turned on.
 R6Disp:  Grimme-D3(BJ) Dispersion energy=       -0.0261188790 Hartrees.
 Nuclear repulsion after empirical dispersion term =      898.7702232196 Hartrees.
 ------------------------------------------------------------------------------
 Polarizable Continuum Model (PCM)
 =================================
 Model                : PCM.
 Atomic radii         : UFF (Universal Force Field).
 Polarization charges : Total charges.
 Charge compensation  : None.
 Solution method      : On-the-fly selection.
 Cavity type          : Scaled VdW (van der Waals Surface) (Alpha=1.100).
 Cavity algorithm     : GePol (No added spheres)
                        Default sphere list used, NSphG=   29.
                        Lebedev-Laikov grids with approx.  5.0 points / Ang**2.
                        Smoothing algorithm: York/Karplus (Gamma=1.0000).
                        Polarization charges: spherical gaussians, with
                                              point-specific exponents (IZeta= 3).
                        Self-potential: point-specific (ISelfS= 7).
                        Self-field    : sphere-specific E.n sum rule (ISelfD= 2).
 Solvent              : Water, Eps=  78.355300 Eps(inf)=   1.777849
 ------------------------------------------------------------------------------
 GePol: Number of generator spheres                  =      29
 GePol: Total number of spheres                      =      29
 GePol: Number of exposed spheres                    =      29 (100.00%)
 GePol: Number of points                             =    2103
 GePol: Average weight of points                     =       0.13
 GePol: Minimum weight of points                     =   0.10D-11
 GePol: Maximum weight of points                     =    0.20577
 GePol: Number of points with low weight             =     131
 GePol: Fraction of low-weight points (<1% of avg)   =       6.23%
 GePol: Cavity surface area                          =    269.626 Ang**2
 GePol: Cavity volume                                =    287.581 Ang**3
 Leave Link  301 at Sat Jan 24 15:30:41 2026, MaxMem=  2147483648 cpu:               0.6 elap:               0.0
 (Enter /data/home/wyx/g16/l302.exe)
 NPDir=0 NMtPBC=     1 NCelOv=     1 NCel=       1 NClECP=     1 NCelD=      1
         NCelK=      1 NCelE2=     1 NClLst=     1 CellRange=     0.0.
 One-electron integrals computed using PRISM.
 One-electron integral symmetry used in STVInt
 NBasis=   356 RedAO= T EigKep=  4.07D-05  NBF=   356
 NBsUse=   356 1.00D-06 EigRej= -1.00D+00 NBFU=   356
 Precomputing XC quadrature grid using
 IXCGrd= 4 IRadAn=           5 IRanWt=          -1 IRanGd=           0 AccXCQ= 0.00D+00.
 Generated NRdTot=       0 NPtTot=           0 NUsed=           0 NTot=          32
 NSgBfM=   366   366   366   366   366 MxSgAt=    29 MxSgA2=    29.
 Leave Link  302 at Sat Jan 24 15:30:41 2026, MaxMem=  2147483648 cpu:               3.1 elap:               0.2
 (Enter /data/home/wyx/g16/l303.exe)
 DipDrv:  MaxL=1.
 Leave Link  303 at Sat Jan 24 15:30:42 2026, MaxMem=  2147483648 cpu:               0.5 elap:               0.0
 (Enter /data/home/wyx/g16/l308.exe)
 Leave Link  308 at Sat Jan 24 15:30:42 2026, MaxMem=  2147483648 cpu:               0.7 elap:               0.1
 (Enter /data/home/wyx/g16/l401.exe)
 ExpMin= 9.52D-02 ExpMax= 2.70D+04 ExpMxC= 9.22D+02 IAcc=3 IRadAn=         5 AccDes= 0.00D+00
 Harris functional with IExCor=20419 and IRadAn=       5 diagonalized for initial guess.
 HarFok:  IExCor=20419 AccDes= 0.00D+00 IRadAn=         5 IDoV= 1 UseB2=F ITyADJ=14
 ICtDFT=  3500011 ScaDFX=  1.000000  1.000000  1.000000  1.000000
 FoFCou: FMM=F IPFlag=           0 FMFlag=      100000 FMFlg1=           0
         NFxFlg=           0 DoJE=T BraDBF=F KetDBF=T FulRan=T
         wScrn=  0.000000 ICntrl=       500 IOpCl=  0 I1Cent=   200000004 NGrid=           0
         NMat0=    1 NMatS0=      1 NMatT0=    0 NMatD0=    1 NMtDS0=    0 NMtDT0=    0
 Petite list used in FoFCou.
 Harris En= -608.710730607008    
 JPrj=0 DoOrth=F DoCkMO=F.
 Leave Link  401 at Sat Jan 24 15:30:43 2026, MaxMem=  2147483648 cpu:              11.7 elap:               0.7
 (Enter /data/home/wyx/g16/l502.exe)
 Integral symmetry usage will be decided dynamically.
 Closed shell SCF:
 Using DIIS extrapolation, IDIIS=  1040.
 NGot=  2147483648 LenX=  2147200095 LenY=  2147062754
 Requested convergence on RMS density matrix=1.00D-08 within 128 cycles.
 Requested convergence on MAX density matrix=1.00D-06.
 Requested convergence on             energy=1.00D-06.
 No special actions if energy rises.
 Fock matrices will be formed incrementally for  20 cycles.

 Cycle   1  Pass 1  IDiag  1:
 FoFJK:  IHMeth= 1 ICntrl=       0 DoSepK=T KAlg= 0 I1Cent=           0 FoldK=F
 IRaf=         1 NMat=       1 IRICut=       1 DoRegI=T DoRafI=F ISym2E= 0 IDoP0=0 IntGTp=1.
 FoFCou: FMM=F IPFlag=           0 FMFlag=      100000 FMFlg1=           0
         NFxFlg=           0 DoJE=T BraDBF=F KetDBF=F FulRan=T
         wScrn=  0.000000 ICntrl=       500 IOpCl=  0 I1Cent=           0 NGrid=           0
         NMat0=    1 NMatS0=      1 NMatT0=    0 NMatD0=    1 NMtDS0=    0 NMtDT0=    0
 Symmetry not used in FoFCou.
 Inv3:  Mode=1 IEnd=    13267827.
 Iteration    1 A*A^-1 deviation from unit magnitude is 2.78D-15 for    317.
 Iteration    1 A*A^-1 deviation from orthogonality  is 1.78D-15 for   2016    540.
 Iteration    1 A^-1*A deviation from unit magnitude is 2.89D-15 for   1607.
 Iteration    1 A^-1*A deviation from orthogonality  is 2.33D-15 for    670    602.
 E= -633.121846454458    
 DIIS: error= 4.17D-02 at cycle   1 NSaved=   1.
 NSaved= 1 IEnMin= 1 EnMin= -633.121846454458     IErMin= 1 ErrMin= 4.17D-02
 ErrMax= 4.17D-02  0.00D+00 EMaxC= 1.00D-01 BMatC= 1.10D+00 BMatP= 1.10D+00
 IDIUse=3 WtCom= 5.83D-01 WtEn= 4.17D-01
 Coeff-Com:  0.100D+01
 Coeff-En:   0.100D+01
 Coeff:      0.100D+01
 Gap=     0.200 Goal=   None    Shift=    0.000
 GapD=    0.200 DampG=1.000 DampE=0.500 DampFc=0.5000 IDamp=-1.
 Damping current iteration by 5.00D-01
 RMSDP=3.96D-03 MaxDP=1.88D-01              OVMax= 1.58D-01

 Cycle   2  Pass 1  IDiag  1:
 RMSU=  1.73D-03    CP:  9.31D-01
 E= -633.218210051346     Delta-E=       -0.096363596888 Rises=F Damp=T
 DIIS: error= 2.02D-02 at cycle   2 NSaved=   2.
 NSaved= 2 IEnMin= 2 EnMin= -633.218210051346     IErMin= 2 ErrMin= 2.02D-02
 ErrMax= 2.02D-02  0.00D+00 EMaxC= 1.00D-01 BMatC= 2.24D-01 BMatP= 1.10D+00
 IDIUse=3 WtCom= 7.98D-01 WtEn= 2.02D-01
 Coeff-Com: -0.578D+00 0.158D+01
 Coeff-En:   0.000D+00 0.100D+01
 Coeff:     -0.461D+00 0.146D+01
 Gap=     0.224 Goal=   None    Shift=    0.000
 RMSDP=1.54D-03 MaxDP=5.43D-02 DE=-9.64D-02 OVMax= 1.48D-01

 Cycle   3  Pass 1  IDiag  1:
 RMSU=  1.44D-03    CP:  9.05D-01  1.24D+00
 E= -633.265420963882     Delta-E=       -0.047210912537 Rises=F Damp=F
 DIIS: error= 1.57D-02 at cycle   3 NSaved=   3.
 NSaved= 3 IEnMin= 3 EnMin= -633.265420963882     IErMin= 3 ErrMin= 1.57D-02
 ErrMax= 1.57D-02  0.00D+00 EMaxC= 1.00D-01 BMatC= 6.80D-02 BMatP= 2.24D-01
 IDIUse=3 WtCom= 8.43D-01 WtEn= 1.57D-01
 Coeff-Com: -0.362D+00 0.794D+00 0.567D+00
 Coeff-En:   0.000D+00 0.000D+00 0.100D+01
 Coeff:     -0.305D+00 0.670D+00 0.635D+00
 Gap=     0.218 Goal=   None    Shift=    0.000
 RMSDP=1.39D-03 MaxDP=7.18D-02 DE=-4.72D-02 OVMax= 8.54D-02

 Cycle   4  Pass 1  IDiag  1:
 RMSU=  5.06D-04    CP:  8.57D-01  1.75D+00  5.25D-01
 E= -633.316391944383     Delta-E=       -0.050970980501 Rises=F Damp=F
 DIIS: error= 5.24D-03 at cycle   4 NSaved=   4.
 NSaved= 4 IEnMin= 4 EnMin= -633.316391944383     IErMin= 4 ErrMin= 5.24D-03
 ErrMax= 5.24D-03  0.00D+00 EMaxC= 1.00D-01 BMatC= 8.81D-03 BMatP= 6.80D-02
 IDIUse=3 WtCom= 9.48D-01 WtEn= 5.24D-02
 Coeff-Com: -0.161D+00 0.350D+00 0.371D+00 0.440D+00
 Coeff-En:   0.000D+00 0.000D+00 0.607D-01 0.939D+00
 Coeff:     -0.153D+00 0.332D+00 0.354D+00 0.467D+00
 Gap=     0.216 Goal=   None    Shift=    0.000
 RMSDP=3.81D-04 MaxDP=2.26D-02 DE=-5.10D-02 OVMax= 2.05D-02

 Cycle   5  Pass 1  IDiag  1:
 RMSU=  9.74D-05    CP:  8.69D-01  1.66D+00  6.81D-01  6.27D-01
 E= -633.323363056281     Delta-E=       -0.006971111898 Rises=F Damp=F
 DIIS: error= 4.73D-04 at cycle   5 NSaved=   5.
 NSaved= 5 IEnMin= 5 EnMin= -633.323363056281     IErMin= 5 ErrMin= 4.73D-04
 ErrMax= 4.73D-04  0.00D+00 EMaxC= 1.00D-01 BMatC= 8.15D-05 BMatP= 8.81D-03
 IDIUse=3 WtCom= 9.95D-01 WtEn= 4.73D-03
 Coeff-Com: -0.232D-01 0.495D-01 0.668D-01 0.145D+00 0.762D+00
 Coeff-En:   0.000D+00 0.000D+00 0.000D+00 0.000D+00 0.100D+01
 Coeff:     -0.231D-01 0.493D-01 0.665D-01 0.144D+00 0.763D+00
 Gap=     0.216 Goal=   None    Shift=    0.000
 RMSDP=1.36D-04 MaxDP=9.23D-03 DE=-6.97D-03 OVMax= 2.02D-03

 Cycle   6  Pass 1  IDiag  1:
 RMSU=  5.13D-05    CP:  8.63D-01  1.70D+00  6.84D-01  7.63D-01  1.11D+00
 E= -633.323413041292     Delta-E=       -0.000049985011 Rises=F Damp=F
 DIIS: error= 4.23D-04 at cycle   6 NSaved=   6.
 NSaved= 6 IEnMin= 6 EnMin= -633.323413041292     IErMin= 6 ErrMin= 4.23D-04
 ErrMax= 4.23D-04  0.00D+00 EMaxC= 1.00D-01 BMatC= 2.69D-05 BMatP= 8.15D-05
 IDIUse=3 WtCom= 9.96D-01 WtEn= 4.23D-03
 Coeff-Com:  0.168D-01-0.368D-01-0.302D-01-0.112D-02 0.456D+00 0.595D+00
 Coeff-En:   0.000D+00 0.000D+00 0.000D+00 0.000D+00 0.118D+00 0.882D+00
 Coeff:      0.167D-01-0.366D-01-0.301D-01-0.111D-02 0.454D+00 0.597D+00
 Gap=     0.217 Goal=   None    Shift=    0.000
 RMSDP=2.57D-05 MaxDP=1.24D-03 DE=-5.00D-05 OVMax= 2.75D-03

 Cycle   7  Pass 1  IDiag  1:
 RMSU=  1.66D-05    CP:  8.64D-01  1.70D+00  6.87D-01  7.54D-01  1.21D+00
                    CP:  7.48D-01
 E= -633.323436841189     Delta-E=       -0.000023799897 Rises=F Damp=F
 DIIS: error= 4.68D-05 at cycle   7 NSaved=   7.
 NSaved= 7 IEnMin= 7 EnMin= -633.323436841189     IErMin= 7 ErrMin= 4.68D-05
 ErrMax= 4.68D-05  0.00D+00 EMaxC= 1.00D-01 BMatC= 8.51D-07 BMatP= 2.69D-05
 IDIUse=1 WtCom= 1.00D+00 WtEn= 0.00D+00
 Coeff-Com:  0.327D-02-0.705D-02-0.678D-02-0.981D-02-0.342D-02 0.135D+00
 Coeff-Com:  0.889D+00
 Coeff:      0.327D-02-0.705D-02-0.678D-02-0.981D-02-0.342D-02 0.135D+00
 Coeff:      0.889D+00
 Gap=     0.217 Goal=   None    Shift=    0.000
 RMSDP=1.73D-05 MaxDP=7.66D-04 DE=-2.38D-05 OVMax= 6.42D-04

 Cycle   8  Pass 1  IDiag  1:
 RMSU=  4.82D-06    CP:  8.63D-01  1.70D+00  6.89D-01  7.71D-01  1.26D+00
                    CP:  8.82D-01  1.06D+00
 E= -633.323438171971     Delta-E=       -0.000001330782 Rises=F Damp=F
 DIIS: error= 2.68D-05 at cycle   8 NSaved=   8.
 NSaved= 8 IEnMin= 8 EnMin= -633.323438171971     IErMin= 8 ErrMin= 2.68D-05
 ErrMax= 2.68D-05  0.00D+00 EMaxC= 1.00D-01 BMatC= 1.13D-07 BMatP= 8.51D-07
 IDIUse=1 WtCom= 1.00D+00 WtEn= 0.00D+00
 Coeff-Com: -0.689D-03 0.156D-02 0.855D-03-0.483D-02-0.660D-01-0.143D-01
 Coeff-Com:  0.308D+00 0.775D+00
 Coeff:     -0.689D-03 0.156D-02 0.855D-03-0.483D-02-0.660D-01-0.143D-01
 Coeff:      0.308D+00 0.775D+00
 Gap=     0.217 Goal=   None    Shift=    0.000
 RMSDP=4.86D-06 MaxDP=2.04D-04 DE=-1.33D-06 OVMax= 4.05D-04

 Cycle   9  Pass 1  IDiag  1:
 RMSU=  1.38D-06    CP:  8.63D-01  1.70D+00  6.89D-01  7.75D-01  1.28D+00
                    CP:  9.16D-01  1.16D+00  1.25D+00
 E= -633.323438375227     Delta-E=       -0.000000203256 Rises=F Damp=F
 DIIS: error= 4.98D-06 at cycle   9 NSaved=   9.
 NSaved= 9 IEnMin= 9 EnMin= -633.323438375227     IErMin= 9 ErrMin= 4.98D-06
 ErrMax= 4.98D-06  0.00D+00 EMaxC= 1.00D-01 BMatC= 1.79D-08 BMatP= 1.13D-07
 IDIUse=1 WtCom= 1.00D+00 WtEn= 0.00D+00
 Coeff-Com: -0.869D-03 0.189D-02 0.169D-02 0.668D-04-0.233D-01-0.202D-01
 Coeff-Com: -0.428D-01 0.278D+00 0.805D+00
 Coeff:     -0.869D-03 0.189D-02 0.169D-02 0.668D-04-0.233D-01-0.202D-01
 Coeff:     -0.428D-01 0.278D+00 0.805D+00
 Gap=     0.217 Goal=   None    Shift=    0.000
 RMSDP=2.29D-06 MaxDP=1.47D-04 DE=-2.03D-07 OVMax= 1.29D-04

 Cycle  10  Pass 1  IDiag  1:
 RMSU=  8.49D-07    CP:  8.63D-01  1.70D+00  6.89D-01  7.77D-01  1.28D+00
                    CP:  9.38D-01  1.19D+00  1.37D+00  1.10D+00
 E= -633.323438403653     Delta-E=       -0.000000028426 Rises=F Damp=F
 DIIS: error= 2.13D-06 at cycle  10 NSaved=  10.
 NSaved=10 IEnMin=10 EnMin= -633.323438403653     IErMin=10 ErrMin= 2.13D-06
 ErrMax= 2.13D-06  0.00D+00 EMaxC= 1.00D-01 BMatC= 1.40D-09 BMatP= 1.79D-08
 IDIUse=1 WtCom= 1.00D+00 WtEn= 0.00D+00
 Coeff-Com: -0.211D-03 0.455D-03 0.453D-03 0.311D-03-0.268D-02-0.402D-02
 Coeff-Com: -0.422D-01 0.320D-01 0.256D+00 0.760D+00
 Coeff:     -0.211D-03 0.455D-03 0.453D-03 0.311D-03-0.268D-02-0.402D-02
 Coeff:     -0.422D-01 0.320D-01 0.256D+00 0.760D+00
 Gap=     0.217 Goal=   None    Shift=    0.000
 RMSDP=5.06D-07 MaxDP=2.80D-05 DE=-2.84D-08 OVMax= 3.34D-05

 Cycle  11  Pass 1  IDiag  1:
 RMSU=  2.98D-07    CP:  8.63D-01  1.70D+00  6.89D-01  7.77D-01  1.28D+00
                    CP:  9.41D-01  1.20D+00  1.41D+00  1.22D+00  8.64D-01
 E= -633.323438405400     Delta-E=       -0.000000001747 Rises=F Damp=F
 DIIS: error= 1.30D-06 at cycle  11 NSaved=  11.
 NSaved=11 IEnMin=11 EnMin= -633.323438405400     IErMin=11 ErrMin= 1.30D-06
 ErrMax= 1.30D-06  0.00D+00 EMaxC= 1.00D-01 BMatC= 4.85D-10 BMatP= 1.40D-09
 IDIUse=1 WtCom= 1.00D+00 WtEn= 0.00D+00
 Coeff-Com:  0.293D-04-0.666D-04-0.279D-04 0.158D-03 0.249D-02 0.158D-02
 Coeff-Com: -0.170D-01-0.283D-01-0.292D-02 0.429D+00 0.615D+00
 Coeff:      0.293D-04-0.666D-04-0.279D-04 0.158D-03 0.249D-02 0.158D-02
 Coeff:     -0.170D-01-0.283D-01-0.292D-02 0.429D+00 0.615D+00
 Gap=     0.217 Goal=   None    Shift=    0.000
 RMSDP=1.97D-07 MaxDP=1.04D-05 DE=-1.75D-09 OVMax= 1.16D-05

 Cycle  12  Pass 1  IDiag  1:
 RMSU=  8.52D-08    CP:  8.63D-01  1.70D+00  6.89D-01  7.77D-01  1.28D+00
                    CP:  9.42D-01  1.20D+00  1.42D+00  1.22D+00  9.83D-01
                    CP:  7.85D-01
 E= -633.323438405836     Delta-E=       -0.000000000436 Rises=F Damp=F
 DIIS: error= 2.74D-07 at cycle  12 NSaved=  12.
 NSaved=12 IEnMin=12 EnMin= -633.323438405836     IErMin=12 ErrMin= 2.74D-07
 ErrMax= 2.74D-07  0.00D+00 EMaxC= 1.00D-01 BMatC= 3.57D-11 BMatP= 4.85D-10
 IDIUse=1 WtCom= 1.00D+00 WtEn= 0.00D+00
 Coeff-Com:  0.257D-04-0.571D-04-0.389D-04 0.511D-04 0.130D-02 0.102D-02
 Coeff-Com: -0.442D-02-0.143D-01-0.264D-01 0.130D+00 0.284D+00 0.629D+00
 Coeff:      0.257D-04-0.571D-04-0.389D-04 0.511D-04 0.130D-02 0.102D-02
 Coeff:     -0.442D-02-0.143D-01-0.264D-01 0.130D+00 0.284D+00 0.629D+00
 Gap=     0.217 Goal=   None    Shift=    0.000
 RMSDP=4.90D-08 MaxDP=2.54D-06 DE=-4.36D-10 OVMax= 2.04D-06

 Cycle  13  Pass 1  IDiag  1:
 RMSU=  2.20D-08    CP:  8.63D-01  1.70D+00  6.89D-01  7.77D-01  1.28D+00
                    CP:  9.42D-01  1.20D+00  1.43D+00  1.24D+00  9.88D-01
                    CP:  8.80D-01  9.50D-01
 E= -633.323438405867     Delta-E=       -0.000000000031 Rises=F Damp=F
 DIIS: error= 6.25D-08 at cycle  13 NSaved=  13.
 NSaved=13 IEnMin=13 EnMin= -633.323438405867     IErMin=13 ErrMin= 6.25D-08
 ErrMax= 6.25D-08  0.00D+00 EMaxC= 1.00D-01 BMatC= 2.74D-12 BMatP= 3.57D-11
 IDIUse=1 WtCom= 1.00D+00 WtEn= 0.00D+00
 Coeff-Com:  0.562D-05-0.121D-04-0.116D-04-0.105D-04 0.726D-04 0.134D-03
 Coeff-Com:  0.100D-02 0.672D-04-0.107D-01-0.223D-01 0.250D-02 0.205D+00
 Coeff-Com:  0.824D+00
 Coeff:      0.562D-05-0.121D-04-0.116D-04-0.105D-04 0.726D-04 0.134D-03
 Coeff:      0.100D-02 0.672D-04-0.107D-01-0.223D-01 0.250D-02 0.205D+00
 Coeff:      0.824D+00
 Gap=     0.217 Goal=   None    Shift=    0.000
 RMSDP=1.66D-08 MaxDP=7.64D-07 DE=-3.09D-11 OVMax= 9.26D-07

 Cycle  14  Pass 1  IDiag  1:
 RMSU=  9.47D-09    CP:  8.63D-01  1.70D+00  6.89D-01  7.77D-01  1.28D+00
                    CP:  9.42D-01  1.20D+00  1.43D+00  1.24D+00  9.92D-01
                    CP:  9.10D-01  1.03D+00  1.01D+00
 E= -633.323438405866     Delta-E=        0.000000000001 Rises=F Damp=F
 DIIS: error= 2.77D-08 at cycle  14 NSaved=  14.
 NSaved=14 IEnMin=13 EnMin= -633.323438405867     IErMin=14 ErrMin= 2.77D-08
 ErrMax= 2.77D-08  0.00D+00 EMaxC= 1.00D-01 BMatC= 2.44D-13 BMatP= 2.74D-12
 IDIUse=1 WtCom= 1.00D+00 WtEn= 0.00D+00
 Coeff-Com:  0.558D-06-0.105D-05-0.170D-05-0.686D-05-0.508D-04 0.211D-05
 Coeff-Com:  0.594D-03 0.112D-02-0.205D-02-0.153D-01-0.150D-01 0.206D-01
 Coeff-Com:  0.260D+00 0.750D+00
 Coeff:      0.558D-06-0.105D-05-0.170D-05-0.686D-05-0.508D-04 0.211D-05
 Coeff:      0.594D-03 0.112D-02-0.205D-02-0.153D-01-0.150D-01 0.206D-01
 Coeff:      0.260D+00 0.750D+00
 Gap=     0.217 Goal=   None    Shift=    0.000
 RMSDP=4.33D-09 MaxDP=1.38D-07 DE= 1.02D-12 OVMax= 3.44D-07

 Error on total polarization charges =  0.01557
 SCF Done:  E(RCAM-B3LYP) =  -633.323438406     A.U. after   14 cycles
            NFock= 14  Conv=0.43D-08     -V/T= 2.0043
 KE= 6.306063282071D+02 PE=-3.273442258614D+03 EE= 1.110742268781D+03
 Leave Link  502 at Sat Jan 24 15:31:40 2026, MaxMem=  2147483648 cpu:             873.1 elap:              55.0
 (Enter /data/home/wyx/g16/l801.exe)
 DoSCS=F DFT=T ScalE2(SS,OS)=  1.000000  1.000000
 ExpMin= 9.52D-02 ExpMax= 2.70D+04 ExpMxC= 9.22D+02 IAcc=3 IRadAn=         5 AccDes= 0.00D+00
 HarFok:  IExCor=  205 AccDes= 0.00D+00 IRadAn=         5 IDoV=-2 UseB2=F ITyADJ=14
 ICtDFT= 12500011 ScaDFX=  1.000000  1.000000  1.000000  1.000000
 Largest valence mixing into a core orbital is  5.59D-05
 Largest core mixing into a valence orbital is  1.15D-05
 Range of M.O.s used for correlation:    15   356
 NBasis=   356 NAE=    52 NBE=    52 NFC=    14 NFV=     0
 NROrb=    342 NOA=    38 NOB=    38 NVA=   304 NVB=   304

 **** Warning!!: The largest alpha MO coefficient is  0.61713238D+02

 Leave Link  801 at Sat Jan 24 15:31:41 2026, MaxMem=  2147483648 cpu:               1.0 elap:               0.1
 (Enter /data/home/wyx/g16/l914.exe)
 RHF ground state
 Two-electron integrals replicated using symmetry.
 MDV=  2147483648 DFT=T DoStab=F Mixed=T DoRPA=T DoScal=F NonHer=T
 NEqPCM:  Using non-equilibrium solvation (IEInf=1, Eps=  78.3553, EpsInf=   1.7778)
 Inv3:  Mode=1 IEnd=    13267827.
 Iteration    1 A*A^-1 deviation from unit magnitude is 4.00D-15 for    862.
 Iteration    1 A*A^-1 deviation from orthogonality  is 1.67D-15 for   1398    911.
 Iteration    1 A^-1*A deviation from unit magnitude is 3.33D-15 for    501.
 Iteration    1 A^-1*A deviation from orthogonality  is 2.67D-15 for   1419     50.
 Making orbital integer symmetry assigments:
 Orbital symmetries:
       Occupied  (A) (A) (A) (A) (A) (A) (A) (A) (A) (A) (A) (A)
                 (A) (A) (A) (A) (A) (A) (A) (A) (A) (A) (A) (A)
                 (A) (A) (A) (A) (A) (A) (A) (A) (A) (A) (A) (A)
                 (A) (A) (A) (A) (A) (A) (A) (A) (A) (A) (A) (A)
                 (A) (A) (A) (A)
       Virtual   (A) (A) (A) (A) (A) (A) (A) (A) (A) (A) (A) (A)
                 (A) (A) (A) (A) (A) (A) (A) (A) (A) (A) (A) (A)
                 (A) (A) (A) (A) (A) (A) (A) (A) (A) (A) (A) (A)
                 (A) (A) (A) (A) (A) (A) (A) (A) (A) (A) (A) (A)
                 (A) (A) (A) (A) (A) (A) (A) (A) (A) (A) (A) (A)
                 (A) (A) (A) (A) (A) (A) (A) (A) (A) (A) (A) (A)
                 (A) (A) (A) (A) (A) (A) (A) (A) (A) (A) (A) (A)
                 (A) (A) (A) (A) (A) (A) (A) (A) (A) (A) (A) (A)
                 (A) (A) (A) (A) (A) (A) (A) (A) (A) (A) (A) (A)
                 (A) (A) (A) (A) (A) (A) (A) (A) (A) (A) (A) (A)
                 (A) (A) (A) (A) (A) (A) (A) (A) (A) (A) (A) (A)
                 (A) (A) (A) (A) (A) (A) (A) (A) (A) (A) (A) (A)
                 (A) (A) (A) (A) (A) (A) (A) (A) (A) (A) (A) (A)
                 (A) (A) (A) (A) (A) (A) (A) (A) (A) (A) (A) (A)
                 (A) (A) (A) (A) (A) (A) (A) (A) (A) (A) (A) (A)
                 (A) (A) (A) (A) (A) (A) (A) (A) (A) (A) (A) (A)
                 (A) (A) (A) (A) (A) (A) (A) (A) (A) (A) (A) (A)
                 (A) (A) (A) (A) (A) (A) (A) (A) (A) (A) (A) (A)
                 (A) (A) (A) (A) (A) (A) (A) (A) (A) (A) (A) (A)
                 (A) (A) (A) (A) (A) (A) (A) (A) (A) (A) (A) (A)
                 (A) (A) (A) (A) (A) (A) (A) (A) (A) (A) (A) (A)
                 (A) (A) (A) (A) (A) (A) (A) (A) (A) (A) (A) (A)
                 (A) (A) (A) (A) (A) (A) (A) (A) (A) (A) (A) (A)
                 (A) (A) (A) (A) (A) (A) (A) (A) (A) (A) (A) (A)
                 (A) (A) (A) (A) (A) (A) (A) (A) (A) (A) (A) (A)
                 (A) (A) (A) (A)
    24 initial guesses have been made.
 Convergence on wavefunction:    0.001000000000000
 Davidson Disk Diagonalization:  ConvIn= 1.00D-03 SkipCon=T Conv= 1.00D-03.
 Max sub-space:  2000 roots to seek:    24 dimension of matrix:        23104
 Iteration     1 Dimension    24 NMult     0 NNew     24
 CISAX will form    24 AO SS matrices at one time.
 NMat=    24 NSing=    24 JSym2X= 0.
 FoFJK:  IHMeth= 1 ICntrl=       0 DoSepK=T KAlg= 0 I1Cent=           0 FoldK=F
 IRaf=         1 NMat=      48 IRICut=       1 DoRegI=T DoRafI=F ISym2E= 0 IDoP0=3 IntGTp=3.
 New state      2 was old state      3
 New state      3 was old state      4
 New state      4 was old state      2
 New state      5 was old state      6
 New state      6 was old state      5
 Excitation Energies [eV] at current iteration:
 Root      1 :     3.441955551905637
 Root      2 :     4.172699965426561
 Root      3 :     4.392307728067779
 Root      4 :     5.263868552069459
 Root      5 :     5.921848785589920
 Root      6 :     6.157113637800858
 Root      7 :     6.554013134835144
 Root      8 :     6.727628528701197
 Root      9 :     6.863563008243638
 Root     10 :     6.956657001283204
 Root     11 :     7.069860273818014
 Root     12 :     7.252822513568954
 Root     13 :     7.275519490388219
 Root     14 :     7.344720967821153
 Root     15 :     7.634890765467138
 Root     16 :     7.865976586625188
 Root     17 :     7.980385831723858
 Root     18 :     8.109647505441455
 Root     19 :     8.155247904334750
 Root     20 :     8.320204084798155
 Root     21 :     8.411309121145237
 Root     22 :     8.521592961942861
 Root     23 :     8.730350308454913
 Root     24 :     8.911390799557326
 Iteration     2 Dimension    36 NMult    24 NNew     12
 CISAX will form    12 AO SS matrices at one time.
 NMat=    12 NSing=    12 JSym2X= 0.
 Root      1 not converged, maximum delta is    0.036448105590263
 Root      2 not converged, maximum delta is    0.076090220353533
 Root      3 not converged, maximum delta is    0.075637493759373
 Root      4 not converged, maximum delta is    0.214672637069566
 New state      5 was old state      6
 Root      5 not converged, maximum delta is    0.240640009989714
 New state      6 was old state      5
 Root      6 not converged, maximum delta is    0.096911516044127
 Excitation Energies [eV] at current iteration:
 Root      1 :     2.985135381869744   Change is   -0.456820170035893
 Root      2 :     3.962163440747835   Change is   -0.210536524678726
 Root      3 :     4.139992710406991   Change is   -0.252315017660788
 Root      4 :     4.928384491876930   Change is   -0.335484060192530
 Root      5 :     5.347482601910521   Change is   -0.809631035890338
 Root      6 :     5.818245787524745   Change is   -0.103602998065175
 Iteration     3 Dimension    48 NMult    36 NNew     12
 CISAX will form    12 AO SS matrices at one time.
 NMat=    12 NSing=    12 JSym2X= 0.
 Root      1 not converged, maximum delta is    0.006355335692434
 Root      2 not converged, maximum delta is    0.015134235591697
 Root      3 not converged, maximum delta is    0.011152097176918
 Root      4 not converged, maximum delta is    0.018381323372950
 Root      5 not converged, maximum delta is    0.022473274360132
 Root      6 not converged, maximum delta is    0.007747176628861
 Excitation Energies [eV] at current iteration:
 Root      1 :     2.967674042919567   Change is   -0.017461338950177
 Root      2 :     3.949979003609283   Change is   -0.012184437138551
 Root      3 :     4.126374250291292   Change is   -0.013618460115699
 Root      4 :     4.908508479792999   Change is   -0.019876012083930
 Root      5 :     5.319221036346378   Change is   -0.028261565564143
 Root      6 :     5.813461694971748   Change is   -0.004784092552997
 Iteration     4 Dimension    60 NMult    48 NNew     12
 CISAX will form    12 AO SS matrices at one time.
 NMat=    12 NSing=    12 JSym2X= 0.
 Root      1 not converged, maximum delta is    0.001993796129725
 Root      2 not converged, maximum delta is    0.001803727834977
 Root      3 not converged, maximum delta is    0.002079887584940
 Root      4 not converged, maximum delta is    0.002684012928935
 Root      5 not converged, maximum delta is    0.003475056141097
 Root      6 not converged, maximum delta is    0.002219483640151
 Excitation Energies [eV] at current iteration:
 Root      1 :     2.966405339545088   Change is   -0.001268703374479
 Root      2 :     3.949374341345255   Change is   -0.000604662264028
 Root      3 :     4.125388544543872   Change is   -0.000985705747420
 Root      4 :     4.906715978950994   Change is   -0.001792500842005
 Root      5 :     5.316441600885373   Change is   -0.002779435461005
 Root      6 :     5.813156679284228   Change is   -0.000305015687520
 Iteration     5 Dimension    72 NMult    60 NNew     12
 CISAX will form    12 AO SS matrices at one time.
 NMat=    12 NSing=    12 JSym2X= 0.
 Root      1 has converged.
 Root      2 has converged.
 Root      3 has converged.
 Root      4 has converged.
 Root      5 not converged, maximum delta is    0.001180651753823
 Root      6 has converged.
 Excitation Energies [eV] at current iteration:
 Root      1 :     2.966341812581330   Change is   -0.000063526963758
 Root      2 :     3.949328263435246   Change is   -0.000046077910010
 Root      3 :     4.125344864748423   Change is   -0.000043679795449
 Root      4 :     4.906587022020490   Change is   -0.000128956930504
 Root      5 :     5.316227605967963   Change is   -0.000213994917410
 Root      6 :     5.813131150837760   Change is   -0.000025528446468
 Iteration     6 Dimension    74 NMult    72 NNew      2
 CISAX will form     2 AO SS matrices at one time.
 NMat=     2 NSing=     2 JSym2X= 0.
 Root      1 has converged.
 Root      2 has converged.
 Root      3 has converged.
 Root      4 has converged.
 Root      5 has converged.
 Root      6 has converged.
 Excitation Energies [eV] at current iteration:
 Root      1 :     2.966341753613767   Change is   -0.000000058967563
 Root      2 :     3.949328237583911   Change is   -0.000000025851335
 Root      3 :     4.125344786100739   Change is   -0.000000078647684
 Root      4 :     4.906584082590844   Change is   -0.000002939429646
 Root      5 :     5.316206939075046   Change is   -0.000020666892916
 Root      6 :     5.813130863956061   Change is   -0.000000286881700
 Convergence achieved on expansion vectors.
 ***********************************************************************
 Excited states from <AA,BB:AA,BB> singles matrix:
 ***********************************************************************
 
 1PDM for each excited state written to RWF  633
 Ground to excited state transition densities written to RWF  633
 Ground to excited state transition electric dipole moments (Au):
       state          X           Y           Z        Dip. S.      Osc.
         1        -1.4949     -0.1371     -0.0400      2.2552      0.1639
         2         0.0085     -0.0344      0.0340      0.0024      0.0002
         3        -0.0672     -0.0825      0.0231      0.0119      0.0012
         4        -0.1415      1.2310     -0.0513      1.5381      0.1849
         5         0.0933     -1.5492      0.0197      2.4092      0.3138
         6         0.0197     -0.2142     -0.0615      0.0500      0.0071
 Ground to excited state transition velocity dipole moments (Au):
       state          X           Y           Z        Dip. S.      Osc.
         1         0.1569      0.0112      0.0046      0.0248      0.1514
         2        -0.0011      0.0053     -0.0016      0.0000      0.0001
         3         0.0094      0.0102     -0.0002      0.0002      0.0008
         4         0.0306     -0.2098      0.0062      0.0450      0.1663
         5        -0.0195      0.2953     -0.0044      0.0876      0.2988
         6        -0.0056      0.0434      0.0331      0.0030      0.0094
 Ground to excited state transition magnetic dipole moments (Au):
       state          X           Y           Z
         1         0.0234      0.0644     -1.4739
         2         0.7767      0.1177      0.0998
         3        -0.1848     -0.9565     -0.2232
         4        -0.0080     -0.0367      0.0108
         5         0.1114      0.1024     -0.2408
         6        -0.1199     -0.0191      0.0473
 Ground to excited state transition velocity quadrupole moments (Au):
       state          XX          YY          ZZ          XY          XZ          YZ
         1         0.1387     -0.0730     -0.0056     -0.4553      0.0307     -0.0175
         2         0.0238     -0.0089     -0.0086      0.0128     -0.0073      0.0701
         3         0.0334     -0.0058     -0.0177     -0.0617      0.0570     -0.0078
         4         1.1439     -0.1963     -0.0141      0.0304      0.0550      0.0181
         5        -0.6681      0.3089      0.0369     -0.1833     -0.0610      0.0020
         6         0.0830      0.1488     -0.1247      0.0180      0.0282     -0.1587
 <0|del|b> * <b|rxdel|0> + <0|del|b> * <b|delr+rdel|0>
 Rotatory Strengths (R) in cgs (10**-40 erg-esu-cm/Gauss)
       state          XX          YY          ZZ    R(velocity)    E-M Angle
         1       -27.6832    -12.2537     24.2817     -5.2184       90.60
         2         1.1762     -2.5396     -0.4237     -0.5957       94.74
         3       -23.9183     -4.1667    -25.2193    -17.7681      145.57
         4        38.2322      0.3685     -9.1145      9.8287       24.85
         5        90.6804     -3.5523     18.2959     35.1413       69.76
         6         0.1725      4.1965      0.2996      1.5562       78.62
 1/2[<0|r|b>*<b|rxdel|0> + (<0|rxdel|b>*<b|r|0>)*]
 Rotatory Strengths (R) in cgs (10**-40 erg-esu-cm/Gauss)
       state          XX          YY          ZZ     R(length)
         1        24.7658      6.2482    -41.7390     -3.5750
         2        -4.6843      2.8644     -2.4026     -1.4075
         3        -8.7849    -55.8200      3.6475    -20.3191
         4        -0.7981     31.9354      0.3923     10.5099
         5        -7.3534    112.2358      3.3500     36.0775
         6         1.6693     -2.8854      2.0569      0.2803
  1/2[<0|del|b>*<b|r|0> + (<0|r|b>*<b|del|0>)*] (Au)
       state          X           Y           Z        Dip. S.   Osc.(frdel)
         1        -0.2345     -0.0015     -0.0002      0.2363      0.1575
         2        -0.0000     -0.0002     -0.0001      0.0002      0.0002
         3        -0.0006     -0.0008     -0.0000      0.0015      0.0010
         4        -0.0043     -0.2582     -0.0003      0.2629      0.1752
         5        -0.0018     -0.4574     -0.0001      0.4593      0.3062
         6        -0.0001     -0.0093     -0.0020      0.0114      0.0076

 Excitation energies and oscillator strengths:
 
 Excited State   1:      Singlet-A      2.9663 eV  417.97 nm  f=0.1639  <S**2>=0.000
      52 -> 53         0.70202
 This state for optimization and/or second-order correction.
 Total Energy, E(TD-HF/TD-DFT) =  -633.214427352    
 Copying the excited state density for this state as the 1-particle RhoCI density.
 
 Excited State   2:      Singlet-A      3.9493 eV  313.94 nm  f=0.0002  <S**2>=0.000
      50 -> 54        -0.16150
      51 -> 53         0.58879
      51 -> 54         0.30476
 
 Excited State   3:      Singlet-A      4.1253 eV  300.54 nm  f=0.0012  <S**2>=0.000
      49 -> 53        -0.38261
      49 -> 54         0.20764
      50 -> 53         0.45261
      50 -> 54        -0.19472
      51 -> 54        -0.19784
 
 Excited State   4:      Singlet-A      4.9066 eV  252.69 nm  f=0.1849  <S**2>=0.000
      52 -> 54         0.69910
 
 Excited State   5:      Singlet-A      5.3162 eV  233.22 nm  f=0.3138  <S**2>=0.000
      49 -> 53         0.52246
      50 -> 53         0.43962
      51 -> 53         0.11542
 
 Excited State   6:      Singlet-A      5.8131 eV  213.28 nm  f=0.0071  <S**2>=0.000
      52 -> 55         0.65975
      52 -> 56         0.16446
      52 -> 62        -0.10224
 SavETr:  write IOETrn=   770 NScale= 10 NData=  16 NLR=1 NState=    6 LETran=     118.
 Leave Link  914 at Sat Jan 24 15:33:50 2026, MaxMem=  2147483648 cpu:            2054.4 elap:             129.1
 (Enter /data/home/wyx/g16/l601.exe)
 Copying SCF densities to generalized density rwf, IOpCl= 0 IROHF=0.

 **********************************************************************

            Population analysis using the SCF density.

 **********************************************************************

 Orbital symmetries:
       Occupied  (A) (A) (A) (A) (A) (A) (A) (A) (A) (A) (A) (A)
                 (A) (A) (A) (A) (A) (A) (A) (A) (A) (A) (A) (A)
                 (A) (A) (A) (A) (A) (A) (A) (A) (A) (A) (A) (A)
                 (A) (A) (A) (A) (A) (A) (A) (A) (A) (A) (A) (A)
                 (A) (A) (A) (A)
       Virtual   (A) (A) (A) (A) (A) (A) (A) (A) (A) (A) (A) (A)
                 (A) (A) (A) (A) (A) (A) (A) (A) (A) (A) (A) (A)
                 (A) (A) (A) (A) (A) (A) (A) (A) (A) (A) (A) (A)
                 (A) (A) (A) (A) (A) (A) (A) (A) (A) (A) (A) (A)
                 (A) (A) (A) (A) (A) (A) (A) (A) (A) (A) (A) (A)
                 (A) (A) (A) (A) (A) (A) (A) (A) (A) (A) (A) (A)
                 (A) (A) (A) (A) (A) (A) (A) (A) (A) (A) (A) (A)
                 (A) (A) (A) (A) (A) (A) (A) (A) (A) (A) (A) (A)
                 (A) (A) (A) (A) (A) (A) (A) (A) (A) (A) (A) (A)
                 (A) (A) (A) (A) (A) (A) (A) (A) (A) (A) (A) (A)
                 (A) (A) (A) (A) (A) (A) (A) (A) (A) (A) (A) (A)
                 (A) (A) (A) (A) (A) (A) (A) (A) (A) (A) (A) (A)
                 (A) (A) (A) (A) (A) (A) (A) (A) (A) (A) (A) (A)
                 (A) (A) (A) (A) (A) (A) (A) (A) (A) (A) (A) (A)
                 (A) (A) (A) (A) (A) (A) (A) (A) (A) (A) (A) (A)
                 (A) (A) (A) (A) (A) (A) (A) (A) (A) (A) (A) (A)
                 (A) (A) (A) (A) (A) (A) (A) (A) (A) (A) (A) (A)
                 (A) (A) (A) (A) (A) (A) (A) (A) (A) (A) (A) (A)
                 (A) (A) (A) (A) (A) (A) (A) (A) (A) (A) (A) (A)
                 (A) (A) (A) (A) (A) (A) (A) (A) (A) (A) (A) (A)
                 (A) (A) (A) (A) (A) (A) (A) (A) (A) (A) (A) (A)
                 (A) (A) (A) (A) (A) (A) (A) (A) (A) (A) (A) (A)
                 (A) (A) (A) (A) (A) (A) (A) (A) (A) (A) (A) (A)
                 (A) (A) (A) (A) (A) (A) (A) (A) (A) (A) (A) (A)
                 (A) (A) (A) (A) (A) (A) (A) (A) (A) (A) (A) (A)
                 (A) (A) (A) (A)
 The electronic state is 1-A.
 Alpha  occ. eigenvalues --  -19.17914 -19.17110 -14.44785 -10.33444 -10.32991
 Alpha  occ. eigenvalues --  -10.32890 -10.32390 -10.25903 -10.25386 -10.25049
 Alpha  occ. eigenvalues --  -10.24800 -10.24551 -10.24133 -10.23804  -1.11375
 Alpha  occ. eigenvalues --   -1.10876  -1.08523  -0.91385  -0.90586  -0.83988
 Alpha  occ. eigenvalues --   -0.82617  -0.81640  -0.78547  -0.73793  -0.72203
 Alpha  occ. eigenvalues --   -0.68777  -0.61618  -0.58276  -0.57067  -0.55142
 Alpha  occ. eigenvalues --   -0.54562  -0.54046  -0.52512  -0.51746  -0.50866
 Alpha  occ. eigenvalues --   -0.49794  -0.49501  -0.49304  -0.48518  -0.48045
 Alpha  occ. eigenvalues --   -0.47188  -0.45281  -0.45192  -0.43957  -0.43290
 Alpha  occ. eigenvalues --   -0.42230  -0.42125  -0.41597  -0.32655  -0.32273
 Alpha  occ. eigenvalues --   -0.31363  -0.25138
 Alpha virt. eigenvalues --   -0.03465   0.02427   0.06474   0.08189   0.08657
 Alpha virt. eigenvalues --    0.09802   0.10742   0.11499   0.12597   0.13432
 Alpha virt. eigenvalues --    0.13901   0.15108   0.15654   0.16333   0.16944
 Alpha virt. eigenvalues --    0.17378   0.17894   0.18202   0.18417   0.19205
 Alpha virt. eigenvalues --    0.20013   0.21928   0.22856   0.23395   0.23847
 Alpha virt. eigenvalues --    0.24252   0.24674   0.25725   0.26346   0.26673
 Alpha virt. eigenvalues --    0.27414   0.28113   0.28625   0.29384   0.30172
 Alpha virt. eigenvalues --    0.31623   0.31943   0.32301   0.33456   0.34235
 Alpha virt. eigenvalues --    0.34852   0.35730   0.36627   0.37566   0.38457
 Alpha virt. eigenvalues --    0.39595   0.40928   0.41378   0.41864   0.42518
 Alpha virt. eigenvalues --    0.44061   0.44795   0.45453   0.46185   0.46437
 Alpha virt. eigenvalues --    0.47289   0.47670   0.47893   0.48449   0.49240
 Alpha virt. eigenvalues --    0.49705   0.50519   0.51088   0.51369   0.51522
 Alpha virt. eigenvalues --    0.52506   0.52614   0.53354   0.53530   0.54249
 Alpha virt. eigenvalues --    0.54331   0.55336   0.55867   0.56641   0.58298
 Alpha virt. eigenvalues --    0.58442   0.59939   0.60945   0.61710   0.63003
 Alpha virt. eigenvalues --    0.64161   0.65025   0.66291   0.66731   0.67412
 Alpha virt. eigenvalues --    0.68434   0.69232   0.70777   0.71128   0.72061
 Alpha virt. eigenvalues --    0.73075   0.74522   0.75100   0.75924   0.77347
 Alpha virt. eigenvalues --    0.78937   0.80525   0.83011   0.86561   0.87396
 Alpha virt. eigenvalues --    0.91136   0.95545   1.01913   1.03840   1.22071
 Alpha virt. eigenvalues --    1.24612   1.27396   1.28296   1.28974   1.30337
 Alpha virt. eigenvalues --    1.31935   1.33178   1.34445   1.35119   1.36424
 Alpha virt. eigenvalues --    1.36761   1.37713   1.38493   1.39079   1.39684
 Alpha virt. eigenvalues --    1.39949   1.40155   1.40874   1.41388   1.42038
 Alpha virt. eigenvalues --    1.43286   1.43571   1.44208   1.45410   1.47285
 Alpha virt. eigenvalues --    1.48084   1.49513   1.49837   1.50195   1.50674
 Alpha virt. eigenvalues --    1.51325   1.52141   1.52867   1.55307   1.58522
 Alpha virt. eigenvalues --    1.59324   1.60012   1.60904   1.61524   1.62457
 Alpha virt. eigenvalues --    1.62678   1.62882   1.63777   1.64563   1.65707
 Alpha virt. eigenvalues --    1.66478   1.67010   1.67600   1.68024   1.68629
 Alpha virt. eigenvalues --    1.69216   1.69950   1.70199   1.71142   1.72418
 Alpha virt. eigenvalues --    1.74204   1.74707   1.75556   1.76566   1.78395
 Alpha virt. eigenvalues --    1.81435   1.83107   1.84071   1.85949   1.86545
 Alpha virt. eigenvalues --    1.86655   1.87829   1.88600   1.89238   1.90197
 Alpha virt. eigenvalues --    1.91406   1.94553   1.95234   1.98974   1.99745
 Alpha virt. eigenvalues --    2.01680   2.03800   2.05739   2.06900   2.09449
 Alpha virt. eigenvalues --    2.10221   2.11632   2.15800   2.17553   2.19758
 Alpha virt. eigenvalues --    2.20538   2.21423   2.22047   2.23034   2.26275
 Alpha virt. eigenvalues --    2.26979   2.27548   2.29294   2.31080   2.32209
 Alpha virt. eigenvalues --    2.33583   2.34406   2.36901   2.37881   2.39143
 Alpha virt. eigenvalues --    2.39361   2.40078   2.41283   2.42735   2.45109
 Alpha virt. eigenvalues --    2.45722   2.47623   2.48857   2.49581   2.51222
 Alpha virt. eigenvalues --    2.52447   2.54076   2.54588   2.56355   2.57539
 Alpha virt. eigenvalues --    2.58797   2.60768   2.61772   2.62436   2.63426
 Alpha virt. eigenvalues --    2.64684   2.65690   2.66482   2.67561   2.68320
 Alpha virt. eigenvalues --    2.71820   2.71856   2.73879   2.74650   2.75174
 Alpha virt. eigenvalues --    2.76683   2.76942   2.77464   2.78120   2.78734
 Alpha virt. eigenvalues --    2.80538   2.81617   2.82946   2.83654   2.84946
 Alpha virt. eigenvalues --    2.85282   2.86560   2.88680   2.88908   2.91809
 Alpha virt. eigenvalues --    2.97102   2.98303   3.01099   3.07055   3.10736
 Alpha virt. eigenvalues --    3.12372   3.14020   3.18055   3.19163   3.21575
 Alpha virt. eigenvalues --    3.21970   3.23224   3.24738   3.25543   3.26010
 Alpha virt. eigenvalues --    3.28825   3.30055   3.32253   3.34389   3.36685
 Alpha virt. eigenvalues --    3.38071   3.38920   3.39185   3.39587   3.41648
 Alpha virt. eigenvalues --    3.41984   3.44074   3.45060   3.47492   3.48234
 Alpha virt. eigenvalues --    3.49622   3.50152   3.55729   3.58258   3.59593
 Alpha virt. eigenvalues --    3.61164   3.90970   4.00866   4.32472   4.35508
 Alpha virt. eigenvalues --   21.68113  21.80559  22.07833  22.10289  22.11436
 Alpha virt. eigenvalues --   22.14797  22.14923  22.17788  22.19021  22.24798
 Alpha virt. eigenvalues --   22.27140  31.91393  43.63893  43.66629
          Condensed to atoms (all electrons):
               1          2          3          4          5          6
     1  O    7.954035   0.000000  -0.000183   0.000019   0.020043   0.007317
     2  O    0.000000   7.996905   0.000303   0.000005  -0.198919   0.001397
     3  N   -0.000183   0.000303   6.349351   0.367863  -0.118216   0.334003
     4  H    0.000019   0.000005   0.367863   0.403485   0.015915  -0.044148
     5  C    0.020043  -0.198919  -0.118216   0.015915   7.197274  -0.080693
     6  C    0.007317   0.001397   0.334003  -0.044148  -0.080693   5.524615
     7  C   -0.000034  -0.048341   0.398508  -0.035115   0.476738  -0.131858
     8  C   -0.000783   0.705322   0.003890  -0.000913  -0.390244   0.035595
     9  C   -0.004671   0.027219   0.013817   0.000115  -0.715945  -0.038069
    10  H    0.009002   0.000117   0.003439   0.000039  -0.066764  -0.020097
    11  H    0.009042   0.000034  -0.001217   0.000022  -0.108723   0.027967
    12  C   -0.233739  -0.003202  -0.088194   0.014357   0.189853  -0.029932
    13  C    0.712546  -0.000018   0.001439   0.000552   0.085911   0.107787
    14  C   -0.000007  -0.009757  -0.032141  -0.010493  -0.083405   0.010172
    15  H   -0.000000   0.004016   0.005527   0.002073   0.020304   0.006154
    16  H   -0.000000   0.004002  -0.002239   0.000904  -0.008922  -0.001192
    17  H    0.000000   0.002897  -0.000471   0.000792  -0.004451  -0.001374
    18  C    0.000301  -0.100325  -0.000491   0.000018  -0.248125  -0.000071
    19  H   -0.000000   0.007494   0.000008  -0.000001   0.026189   0.000010
    20  H   -0.000009   0.000704   0.000011  -0.000001   0.001561   0.000182
    21  H    0.000161   0.004389   0.000112   0.000001   0.044558  -0.001242
    22  C   -0.104755   0.000000  -0.000137   0.000109   0.003623  -0.028592
    23  H    0.005276  -0.000000   0.000204  -0.000057  -0.000797  -0.023248
    24  H    0.001439   0.000000   0.000017  -0.000010  -0.000014   0.008146
    25  H    0.005984   0.000000   0.000022  -0.000002  -0.000133  -0.000836
    26  C    0.000733   0.000011  -0.025471  -0.006600   0.000567   0.201070
    27  H   -0.000230  -0.000000   0.001042   0.000719   0.000141  -0.050251
    28  H   -0.000057  -0.000000  -0.002337   0.000503   0.000345  -0.030282
    29  H    0.000022   0.000000   0.002068   0.001936  -0.000314  -0.046679
               7          8          9         10         11         12
     1  O   -0.000034  -0.000783  -0.004671   0.009002   0.009042  -0.233739
     2  O   -0.048341   0.705322   0.027219   0.000117   0.000034  -0.003202
     3  N    0.398508   0.003890   0.013817   0.003439  -0.001217  -0.088194
     4  H   -0.035115  -0.000913   0.000115   0.000039   0.000022   0.014357
     5  C    0.476738  -0.390244  -0.715945  -0.066764  -0.108723   0.189853
     6  C   -0.131858   0.035595  -0.038069  -0.020097   0.027967  -0.029932
     7  C    5.403479  -0.244362  -0.228327  -0.005837   0.015196   0.029858
     8  C   -0.244362   5.453216   0.221440  -0.001476  -0.009269  -0.053619
     9  C   -0.228327   0.221440   6.435094   0.432549   0.526941  -0.141492
    10  H   -0.005837  -0.001476   0.432549   0.586066  -0.053185  -0.019070
    11  H    0.015196  -0.009269   0.526941  -0.053185   0.543836  -0.109456
    12  C    0.029858  -0.053619  -0.141492  -0.019070  -0.109456   7.333554
    13  C    0.020964  -0.010398  -0.244141  -0.006863   0.001040  -0.501109
    14  C    0.292701  -0.034945   0.003484  -0.000734   0.000425   0.001204
    15  H   -0.083022   0.005317   0.000811   0.000043  -0.000004  -0.001597
    16  H   -0.019132  -0.000643   0.000986  -0.000062   0.000063   0.000204
    17  H   -0.027105  -0.006843  -0.000212   0.000183  -0.000059   0.000265
    18  C   -0.001576   0.331862  -0.003121  -0.014394   0.007557   0.000385
    19  H    0.000323  -0.055340  -0.002367   0.000152   0.000554  -0.000158
    20  H   -0.000329  -0.024694  -0.009783   0.000704  -0.000425  -0.002390
    21  H    0.003970  -0.071669  -0.006423   0.003111  -0.007849   0.006932
    22  C    0.000285  -0.000074   0.010988   0.003598  -0.001578  -0.236718
    23  H    0.000004   0.000010   0.002792  -0.000239   0.000100   0.062993
    24  H   -0.000009   0.000001  -0.002069   0.000177  -0.000129  -0.012529
    25  H    0.000006   0.000003   0.000244  -0.000116  -0.000014   0.020548
    26  C    0.002350   0.000872   0.021945  -0.000722   0.000136  -0.086458
    27  H   -0.000808   0.000002  -0.000049  -0.000086   0.000009  -0.007185
    28  H   -0.000813  -0.000015  -0.000583  -0.000009   0.000042  -0.017179
    29  H    0.002977  -0.000003  -0.000472   0.000081  -0.000014   0.022443
              13         14         15         16         17         18
     1  O    0.712546  -0.000007  -0.000000  -0.000000   0.000000   0.000301
     2  O   -0.000018  -0.009757   0.004016   0.004002   0.002897  -0.100325
     3  N    0.001439  -0.032141   0.005527  -0.002239  -0.000471  -0.000491
     4  H    0.000552  -0.010493   0.002073   0.000904   0.000792   0.000018
     5  C    0.085911  -0.083405   0.020304  -0.008922  -0.004451  -0.248125
     6  C    0.107787   0.010172   0.006154  -0.001192  -0.001374  -0.000071
     7  C    0.020964   0.292701  -0.083022  -0.019132  -0.027105  -0.001576
     8  C   -0.010398  -0.034945   0.005317  -0.000643  -0.006843   0.331862
     9  C   -0.244141   0.003484   0.000811   0.000986  -0.000212  -0.003121
    10  H   -0.006863  -0.000734   0.000043  -0.000062   0.000183  -0.014394
    11  H    0.001040   0.000425  -0.000004   0.000063  -0.000059   0.007557
    12  C   -0.501109   0.001204  -0.001597   0.000204   0.000265   0.000385
    13  C    5.601075   0.000152  -0.000042  -0.000008  -0.000005   0.001396
    14  C    0.000152   5.032791   0.392021   0.405264   0.415640   0.000723
    15  H   -0.000042   0.392021   0.566792  -0.024186  -0.026266   0.000212
    16  H   -0.000008   0.405264  -0.024186   0.508330  -0.027613   0.000149
    17  H   -0.000005   0.415640  -0.026266  -0.027613   0.512022  -0.000139
    18  C    0.001396   0.000723   0.000212   0.000149  -0.000139   5.302845
    19  H   -0.000010   0.000052  -0.000004  -0.000039   0.000039   0.395994
    20  H   -0.000155  -0.000186  -0.000005  -0.000008   0.000009   0.402324
    21  H    0.000951   0.000122  -0.000014  -0.000003  -0.000031   0.378618
    22  C    0.278125  -0.000007   0.000002  -0.000000  -0.000000   0.000033
    23  H   -0.099823   0.000003   0.000000   0.000000  -0.000000   0.000000
    24  H   -0.021110  -0.000001   0.000000   0.000000  -0.000000  -0.000002
    25  H   -0.034785   0.000000   0.000000  -0.000000   0.000000  -0.000001
    26  C   -0.056017   0.000510   0.000310  -0.000064   0.000003   0.000004
    27  H   -0.002326   0.000046  -0.000008   0.000001  -0.000002   0.000000
    28  H    0.007000  -0.000090  -0.000006  -0.000005   0.000004  -0.000000
    29  H   -0.001220  -0.000110   0.000104  -0.000001  -0.000001  -0.000000
              19         20         21         22         23         24
     1  O   -0.000000  -0.000009   0.000161  -0.104755   0.005276   0.001439
     2  O    0.007494   0.000704   0.004389   0.000000  -0.000000   0.000000
     3  N    0.000008   0.000011   0.000112  -0.000137   0.000204   0.000017
     4  H   -0.000001  -0.000001   0.000001   0.000109  -0.000057  -0.000010
     5  C    0.026189   0.001561   0.044558   0.003623  -0.000797  -0.000014
     6  C    0.000010   0.000182  -0.001242  -0.028592  -0.023248   0.008146
     7  C    0.000323  -0.000329   0.003970   0.000285   0.000004  -0.000009
     8  C   -0.055340  -0.024694  -0.071669  -0.000074   0.000010   0.000001
     9  C   -0.002367  -0.009783  -0.006423   0.010988   0.002792  -0.002069
    10  H    0.000152   0.000704   0.003111   0.003598  -0.000239   0.000177
    11  H    0.000554  -0.000425  -0.007849  -0.001578   0.000100  -0.000129
    12  C   -0.000158  -0.002390   0.006932  -0.236718   0.062993  -0.012529
    13  C   -0.000010  -0.000155   0.000951   0.278125  -0.099823  -0.021110
    14  C    0.000052  -0.000186   0.000122  -0.000007   0.000003  -0.000001
    15  H   -0.000004  -0.000005  -0.000014   0.000002   0.000000   0.000000
    16  H   -0.000039  -0.000008  -0.000003  -0.000000   0.000000   0.000000
    17  H    0.000039   0.000009  -0.000031  -0.000000  -0.000000  -0.000000
    18  C    0.395994   0.402324   0.378618   0.000033   0.000000  -0.000002
    19  H    0.511020  -0.010257  -0.024648  -0.000000   0.000000   0.000000
    20  H   -0.010257   0.487741  -0.022740  -0.000011   0.000000   0.000000
    21  H   -0.024648  -0.022740   0.539375   0.000034  -0.000001  -0.000000
    22  C   -0.000000  -0.000011   0.000034   5.419583   0.398153   0.401171
    23  H    0.000000   0.000000  -0.000001   0.398153   0.542266  -0.026009
    24  H    0.000000   0.000000  -0.000000   0.401171  -0.026009   0.489969
    25  H   -0.000000   0.000000  -0.000001   0.380714  -0.022555  -0.008979
    26  C    0.000000   0.000003  -0.000017  -0.033860   0.015699  -0.009167
    27  H   -0.000000   0.000000  -0.000000   0.003640  -0.007075  -0.000024
    28  H    0.000000  -0.000000   0.000000  -0.010849  -0.001679   0.000743
    29  H    0.000000  -0.000000   0.000000   0.002023   0.000580   0.000141
              25         26         27         28         29
     1  O    0.005984   0.000733  -0.000230  -0.000057   0.000022
     2  O    0.000000   0.000011  -0.000000  -0.000000   0.000000
     3  N    0.000022  -0.025471   0.001042  -0.002337   0.002068
     4  H   -0.000002  -0.006600   0.000719   0.000503   0.001936
     5  C   -0.000133   0.000567   0.000141   0.000345  -0.000314
     6  C   -0.000836   0.201070  -0.050251  -0.030282  -0.046679
     7  C    0.000006   0.002350  -0.000808  -0.000813   0.002977
     8  C    0.000003   0.000872   0.000002  -0.000015  -0.000003
     9  C    0.000244   0.021945  -0.000049  -0.000583  -0.000472
    10  H   -0.000116  -0.000722  -0.000086  -0.000009   0.000081
    11  H   -0.000014   0.000136   0.000009   0.000042  -0.000014
    12  C    0.020548  -0.086458  -0.007185  -0.017179   0.022443
    13  C   -0.034785  -0.056017  -0.002326   0.007000  -0.001220
    14  C    0.000000   0.000510   0.000046  -0.000090  -0.000110
    15  H    0.000000   0.000310  -0.000008  -0.000006   0.000104
    16  H   -0.000000  -0.000064   0.000001  -0.000005  -0.000001
    17  H    0.000000   0.000003  -0.000002   0.000004  -0.000001
    18  C   -0.000001   0.000004   0.000000  -0.000000  -0.000000
    19  H   -0.000000   0.000000  -0.000000   0.000000   0.000000
    20  H    0.000000   0.000003   0.000000  -0.000000  -0.000000
    21  H   -0.000001  -0.000017  -0.000000   0.000000   0.000000
    22  C    0.380714  -0.033860   0.003640  -0.010849   0.002023
    23  H   -0.022555   0.015699  -0.007075  -0.001679   0.000580
    24  H   -0.008979  -0.009167  -0.000024   0.000743   0.000141
    25  H    0.498276   0.002119   0.000552   0.000132  -0.000035
    26  C    0.002119   5.232127   0.434407   0.423773   0.386853
    27  H    0.000552   0.434407   0.502357  -0.027711  -0.024241
    28  H    0.000132   0.423773  -0.027711   0.476952  -0.015686
    29  H   -0.000035   0.386853  -0.024241  -0.015686   0.510870
 Mulliken charges:
               1
     1  O   -0.381448
     2  O   -0.394252
     3  N   -0.210527
     4  H    0.287912
     5  C   -0.057357
     6  C    0.264148
     7  C    0.179310
     8  C    0.147762
     9  C   -0.300702
    10  H    0.150394
    11  H    0.158958
    12  C   -0.138568
    13  C    0.159092
    14  C   -0.383435
    15  H    0.131467
    16  H    0.164215
    17  H    0.162715
    18  C   -0.454179
    19  H    0.150992
    20  H    0.177753
    21  H    0.152303
    22  C   -0.485499
    23  H    0.153402
    24  H    0.178246
    25  H    0.158854
    26  C   -0.505119
    27  H    0.177080
    28  H    0.197808
    29  H    0.158678
 Sum of Mulliken charges =  -0.00000
 Mulliken charges with hydrogens summed into heavy atoms:
               1
     1  O   -0.381448
     2  O   -0.394252
     3  N    0.077384
     5  C   -0.057357
     6  C    0.264148
     7  C    0.179310
     8  C    0.147762
     9  C    0.008650
    12  C   -0.138568
    13  C    0.159092
    14  C    0.074961
    18  C    0.026869
    22  C    0.005004
    26  C    0.028447
 Electronic spatial extent (au):  <R**2>=           3208.2976
 Charge=              0.0000 electrons
 Dipole moment (field-independent basis, Debye):
    X=             -4.2863    Y=              8.2197    Z=              0.1854  Tot=              9.2720
 Quadrupole moment (field-independent basis, Debye-Ang):
   XX=            -99.3560   YY=            -77.7334   ZZ=            -84.8943
   XY=            -12.8756   XZ=             -4.1377   YZ=             -2.4879
 Traceless Quadrupole moment (field-independent basis, Debye-Ang):
   XX=            -12.0281   YY=              9.5945   ZZ=              2.4336
   XY=            -12.8756   XZ=             -4.1377   YZ=             -2.4879
 Octapole moment (field-independent basis, Debye-Ang**2):
  XXX=           -117.1704  YYY=             69.7889  ZZZ=              1.1498  XYY=             35.8046
  XXY=             35.3831  XXZ=             -4.3690  XZZ=             -0.6925  YZZ=             -0.7236
  YYZ=              4.9667  XYZ=              5.5272
 Hexadecapole moment (field-independent basis, Debye-Ang**3):
 XXXX=          -3087.0719 YYYY=          -1290.3822 ZZZZ=           -142.6928 XXXY=            -37.0027
 XXXZ=            -44.9730 YYYX=            -92.0541 YYYZ=            -20.7016 ZZZX=              3.4844
 ZZZY=              1.6561 XXYY=           -693.3221 XXZZ=           -479.4151 YYZZ=           -245.2326
 XXYZ=            -10.7915 YYXZ=            -10.5554 ZZXY=             -0.5470
 N-N= 8.987702232196D+02 E-N=-3.273442255340D+03  KE= 6.306063282071D+02
 Leave Link  601 at Sat Jan 24 15:33:51 2026, MaxMem=  2147483648 cpu:               0.7 elap:               0.1
 (Enter /data/home/wyx/g16/l9999.exe)
 Electronic transition elements 
                 1             2             3             4             5 
      1  -0.633214D+03 -0.633178D+03 -0.633172D+03 -0.633143D+03 -0.633128D+03
      2   0.141808D+01  0.101379D-01  0.937129D-01 -0.282513D+00  0.424995D+00
      3   0.376841D+00 -0.359590D-01 -0.554075D-01  0.120722D+01 -0.148973D+01
      4   0.319827D+00 -0.319500D-01 -0.350044D-02 -0.295657D-01  0.964271D-01
      5  -0.147687D+00 -0.104857D-02 -0.120671D-01  0.416617D-01 -0.795136D-01
      6  -0.425747D-01  0.535628D-02  0.638797D-02 -0.207837D+00  0.284519D+00
      7  -0.336988D-01  0.127524D-02 -0.239556D-02  0.632790D-02 -0.174541D-01
      8  -0.334761D+00 -0.736326D+00  0.439701D+00  0.215235D-01 -0.184211D+00
      9   0.823789D-01 -0.153686D+00 -0.833140D+00 -0.320436D-01  0.635942D-01
     10   0.143465D+01 -0.247554D+00  0.333733D+00 -0.603006D-02  0.207159D+00
     11  -0.174098D+00  0.202868D-01 -0.299275D-01  0.950643D+00 -0.624461D+00
     12   0.241701D+00 -0.160164D-01  0.389202D-01 -0.625802D-01  0.312942D+00
     13  -0.752284D-02  0.201684D-02  0.931200D-03  0.453778D-01 -0.106838D-01
     14   0.406387D+00  0.143905D-01  0.548257D-01  0.395313D+00 -0.161454D+00
     15  -0.193486D-01  0.221081D-01  0.475046D-01  0.244877D+00 -0.187219D+00
     16   0.104475D+00 -0.667385D-01  0.370477D-01  0.824951D-01 -0.612257D-01
                 6 
      1  -0.633110D+03
      2   0.397585D-01
      3  -0.206932D+00
      4   0.750388D-01
      5  -0.247531D-02
      6   0.420855D-01
      7  -0.351008D-01
      8   0.126409D+00
      9   0.216373D-01
     10  -0.231517D-01
     11   0.103004D+00
     12   0.136190D+00
     13  -0.132069D+00
     14  -0.651090D-01
     15   0.209550D-01
     16   0.143646D+00
 1\1\GINC-CN012\SP\RCAM-B3LYP TD-FC\TZVP\C11H15N1O2\WYX\24-Jan-2026\0\\
 #p CAM-B3LYP TZVP em=gd3bj td(nstates=6,root=1) scrf=(Solvent=Water)\\
 Title Card Required\\0,1\O,0,2.712851,-1.559613,0.883249\O,0,-3.315314
 ,-1.665408,-0.874337\N,0,-0.679219,1.516753,-0.080517\H,0,-0.987645,2.
 478065,-0.150077\C,0,-1.25331,-0.764568,-0.176973\C,0,0.644287,1.33937
 2,0.192064\C,0,-1.629445,0.579666,-0.299513\C,0,-2.167058,-1.852857,-0
 .452815\C,0,0.123602,-1.077451,0.259392\H,0,0.091772,-1.529689,1.26837
 6\H,0,0.539325,-1.901117,-0.331821\C,0,1.106781,0.026943,0.306498\C,0,
 2.477968,-0.396554,0.522494\C,0,-2.984978,1.105106,-0.625749\H,0,-3.00
 737,2.19107,-0.544849\H,0,-3.284356,0.829656,-1.634121\H,0,-3.736338,0
 .692372,0.042023\C,0,-1.694251,-3.272072,-0.251194\H,0,-2.561012,-3.92
 2619,-0.181563\H,0,-1.099459,-3.596362,-1.106613\H,0,-1.081859,-3.4019
 98,0.637142\C,0,3.64983,0.521608,0.275676\H,0,3.472211,1.243224,-0.516
 983\H,0,3.90604,1.069681,1.185031\H,0,4.505025,-0.097319,0.011168\C,0,
 1.415004,2.605383,0.372519\H,0,2.123567,2.525312,1.191761\H,0,1.971513
 ,2.882941,-0.523947\H,0,0.741838,3.430474,0.603681\\Version=ES64L-G16R
 evA.03\State=1-A\HF=-633.3234384\RMSD=4.325e-09\PG=C01 [X(C11H15N1O2)]
 \\@


 THE RARE EARTHS PERPLEX US IN OUR RESEARCHES,
 BAFFLE US IN OUR SPECULATIONS, AND HAUNT US IN OUR
 VERY DREAMS.  THEY STRETCH LIKE AN UNKNOWN BEFORE US,
 MOCKING, MYSTIFYING, AND MURMURING STRANGE REVELATIONS
 AND POSSIBILITIES.  -- SIR WILLIAM CROOKE, 1832-1919
 Job cpu time:       0 days  0 hours 49 minutes  7.6 seconds.
 Elapsed time:       0 days  0 hours  3 minutes  5.6 seconds.
 File lengths (MBytes):  RWF=    831 Int=      0 D2E=      0 Chk=     34 Scr=      1
 Normal termination of Gaussian 16 at Sat Jan 24 15:33:53 2026.
