 Entering Gaussian System, Link 0=g16
 Input=DDL-S1-cLR-14.gjf
 Output=DDL-S1-cLR-14.log
 Initial command:
 /data/home/wyx/g16/l1.exe "/scr/tmp/wyx/13117/Gau-2028680.inp" -scrdir="/scr/tmp/wyx/13117/"
 Entering Link 1 = /data/home/wyx/g16/l1.exe PID=   2028681.
  
 Copyright (c) 1988,1990,1992,1993,1995,1998,2003,2009,2016,
            Gaussian, Inc.  All Rights Reserved.
  
 This is part of the Gaussian(R) 16 program.  It is based on
 the Gaussian(R) 09 system (copyright 2009, Gaussian, Inc.),
 the Gaussian(R) 03 system (copyright 2003, Gaussian, Inc.),
 the Gaussian(R) 98 system (copyright 1998, Gaussian, Inc.),
 the Gaussian(R) 94 system (copyright 1995, Gaussian, Inc.),
 the Gaussian 92(TM) system (copyright 1992, Gaussian, Inc.),
 the Gaussian 90(TM) system (copyright 1990, Gaussian, Inc.),
 the Gaussian 88(TM) system (copyright 1988, Gaussian, Inc.),
 the Gaussian 86(TM) system (copyright 1986, Carnegie Mellon
 University), and the Gaussian 82(TM) system (copyright 1983,
 Carnegie Mellon University). Gaussian is a federally registered
 trademark of Gaussian, Inc.
  
 This software contains proprietary and confidential information,
 including trade secrets, belonging to Gaussian, Inc.
  
 This software is provided under written license and may be
 used, copied, transmitted, or stored only in accord with that
 written license.
  
 The following legend is applicable only to US Government
 contracts under FAR:
  
                    RESTRICTED RIGHTS LEGEND
  
 Use, reproduction and disclosure by the US Government is
 subject to restrictions as set forth in subparagraphs (a)
 and (c) of the Commercial Computer Software - Restricted
 Rights clause in FAR 52.227-19.
  
 Gaussian, Inc.
 340 Quinnipiac St., Bldg. 40, Wallingford CT 06492
  
  
 ---------------------------------------------------------------
 Warning -- This program may not be used in any manner that
 competes with the business of Gaussian, Inc. or will provide
 assistance to any competitor of Gaussian, Inc.  The licensee
 of this program is prohibited from giving any competitor of
 Gaussian, Inc. access to this program.  By using this program,
 the user acknowledges that Gaussian, Inc. is engaged in the
 business of creating and licensing software in the field of
 computational chemistry and represents and warrants to the
 licensee that it is not a competitor of Gaussian, Inc. and that
 it will not use this program in any manner prohibited above.
 ---------------------------------------------------------------
  

 Cite this work as:
 Gaussian 16, Revision A.03,
 M. J. Frisch, G. W. Trucks, H. B. Schlegel, G. E. Scuseria, 
 M. A. Robb, J. R. Cheeseman, G. Scalmani, V. Barone, 
 G. A. Petersson, H. Nakatsuji, X. Li, M. Caricato, A. V. Marenich, 
 J. Bloino, B. G. Janesko, R. Gomperts, B. Mennucci, H. P. Hratchian, 
 J. V. Ortiz, A. F. Izmaylov, J. L. Sonnenberg, D. Williams-Young, 
 F. Ding, F. Lipparini, F. Egidi, J. Goings, B. Peng, A. Petrone, 
 T. Henderson, D. Ranasinghe, V. G. Zakrzewski, J. Gao, N. Rega, 
 G. Zheng, W. Liang, M. Hada, M. Ehara, K. Toyota, R. Fukuda, 
 J. Hasegawa, M. Ishida, T. Nakajima, Y. Honda, O. Kitao, H. Nakai, 
 T. Vreven, K. Throssell, J. A. Montgomery, Jr., J. E. Peralta, 
 F. Ogliaro, M. J. Bearpark, J. J. Heyd, E. N. Brothers, K. N. Kudin, 
 V. N. Staroverov, T. A. Keith, R. Kobayashi, J. Normand, 
 K. Raghavachari, A. P. Rendell, J. C. Burant, S. S. Iyengar, 
 J. Tomasi, M. Cossi, J. M. Millam, M. Klene, C. Adamo, R. Cammi, 
 J. W. Ochterski, R. L. Martin, K. Morokuma, O. Farkas, 
 J. B. Foresman, and D. J. Fox, Gaussian, Inc., Wallingford CT, 2016.
 
 ******************************************
 Gaussian 16:  ES64L-G16RevA.03 25-Dec-2016
                24-Jan-2026 
 ******************************************
 %nprocshared=16
 Will use up to   16 processors via shared memory.
 %mem=16GB
 %oldchk=DDL-LR-14.chk
 %chk=DDL-S1-cLR-14.chk
 Copying data from "DDL-LR-14.chk" to current chk file "DDL-S1-cLR-14.chk"
 IOpt=  2 FromEx=T IUOpen= 4 IOptOp= 5 NList=   0 IFRang= 0 IUIn= 4 IUOut= 2.
 ----------------------------------------------------------------------
 #p CAM-B3LYP TZVP em=gd3bj td(nstates=6,root=1) scrf=(Solvent=Water,Co
 rrectedLR,NonEquilibrium=Save) Geom=Check Guess=Read
 ----------------------------------------------------------------------
 1/29=2,30=1,38=1,172=1/1;
 2/12=2,40=1/2;
 3/5=19,7=101,11=9,14=-4,25=1,30=1,70=9002201,71=1,72=1,74=-40,116=-2,124=41/1,2,3,8;
 4/5=1/1;
 5/5=2,38=6,53=1/2;
 8/6=1,10=1,107=1,108=6/1;
 9/8=1,15=1,41=6,42=1,70=2,73=22/14;
 10/5=4,13=10,28=1,74=20/2;
 6/7=2,8=2,9=2,10=2,22=-1/1;
 99/5=1,9=1/99;
 Leave Link    1 at Sat Jan 24 21:53:59 2026, MaxMem=  2147483648 cpu:               0.8 elap:               0.2
 (Enter /data/home/wyx/g16/l101.exe)
 -------------------
 Title Card Required
 -------------------
 Structure from the checkpoint file:  "DDL-S1-cLR-14.chk"
 Charge =  0 Multiplicity = 1
 Z-Matrix found in chk file.
 O,0,2.74408,-1.558299,0.749034
 O,0,-3.230656,-1.641882,-1.096703
 N,0,-0.708613,1.513486,0.113102
 H,0,-1.016805,2.471204,0.055253
 C,0,-1.248516,-0.758707,-0.15312
 C,0,0.641061,1.302995,0.278281
 C,0,-1.620382,0.546537,-0.230096
 C,0,-2.151921,-1.835866,-0.543762
 C,0,0.098154,-1.104499,0.425558
 H,0,-0.00759,-1.433582,1.468704
 H,0,0.525473,-1.963788,-0.088273
 C,0,1.094001,0.024796,0.35723
 C,0,2.491045,-0.390769,0.459368
 C,0,-2.945089,1.084984,-0.656635
 H,0,-3.0387,2.13535,-0.386148
 H,0,-3.065811,0.997733,-1.734698
 H,0,-3.759662,0.527107,-0.20838
 C,0,-1.7223,-3.250288,-0.252087
 H,0,-2.559188,-3.921853,-0.415316
 H,0,-0.908283,-3.542521,-0.91586
 H,0,-1.357325,-3.363233,0.766948
 C,0,3.647078,0.538279,0.181779
 H,0,3.449182,1.236989,-0.626618
 H,0,3.894563,1.112951,1.076002
 H,0,4.510429,-0.073281,-0.070063
 C,0,1.418371,2.580018,0.350038
 H,0,2.251852,2.5179,1.038412
 H,0,1.803165,2.859635,-0.631042
 H,0,0.772387,3.388601,0.689092
 Recover connectivity data from disk.
 ITRead=  0  0  0  0  0  0  0  0  0  0  0  0  0  0  0  0  0  0  0  0
 ITRead=  0  0  0  0  0  0  0  0  0
 MicOpt= -1 -1 -1 -1 -1 -1 -1 -1 -1 -1 -1 -1 -1 -1 -1 -1 -1 -1 -1 -1
 MicOpt= -1 -1 -1 -1 -1 -1 -1 -1 -1
 NAtoms=     29 NQM=       29 NQMF=       0 NMMI=      0 NMMIF=      0
                NMic=       0 NMicF=      0.
                    Isotopes and Nuclear Properties:
 (Nuclear quadrupole moments (NQMom) in fm**2, nuclear magnetic moments (NMagM)
  in nuclear magnetons)

  Atom         1           2           3           4           5           6           7           8           9          10
 IAtWgt=          16          16          14           1          12          12          12          12          12           1
 AtmWgt=  15.9949146  15.9949146  14.0030740   1.0078250  12.0000000  12.0000000  12.0000000  12.0000000  12.0000000   1.0078250
 NucSpn=           0           0           2           1           0           0           0           0           0           1
 AtZEff=   5.6000000   5.6000000   4.5500000   1.0000000   3.6000000   3.6000000   3.6000000   3.6000000   3.6000000   1.0000000
 NQMom=    0.0000000   0.0000000   2.0440000   0.0000000   0.0000000   0.0000000   0.0000000   0.0000000   0.0000000   0.0000000
 NMagM=    0.0000000   0.0000000   0.4037610   2.7928460   0.0000000   0.0000000   0.0000000   0.0000000   0.0000000   2.7928460
 AtZNuc=   8.0000000   8.0000000   7.0000000   1.0000000   6.0000000   6.0000000   6.0000000   6.0000000   6.0000000   1.0000000

  Atom        11          12          13          14          15          16          17          18          19          20
 IAtWgt=           1          12          12          12           1           1           1          12           1           1
 AtmWgt=   1.0078250  12.0000000  12.0000000  12.0000000   1.0078250   1.0078250   1.0078250  12.0000000   1.0078250   1.0078250
 NucSpn=           1           0           0           0           1           1           1           0           1           1
 AtZEff=   1.0000000   3.6000000   3.6000000   3.6000000   1.0000000   1.0000000   1.0000000   3.6000000   1.0000000   1.0000000
 NQMom=    0.0000000   0.0000000   0.0000000   0.0000000   0.0000000   0.0000000   0.0000000   0.0000000   0.0000000   0.0000000
 NMagM=    2.7928460   0.0000000   0.0000000   0.0000000   2.7928460   2.7928460   2.7928460   0.0000000   2.7928460   2.7928460
 AtZNuc=   1.0000000   6.0000000   6.0000000   6.0000000   1.0000000   1.0000000   1.0000000   6.0000000   1.0000000   1.0000000

  Atom        21          22          23          24          25          26          27          28          29
 IAtWgt=           1          12           1           1           1          12           1           1           1
 AtmWgt=   1.0078250  12.0000000   1.0078250   1.0078250   1.0078250  12.0000000   1.0078250   1.0078250   1.0078250
 NucSpn=           1           0           1           1           1           0           1           1           1
 AtZEff=   1.0000000   3.6000000   1.0000000   1.0000000   1.0000000   3.6000000   1.0000000   1.0000000   1.0000000
 NQMom=    0.0000000   0.0000000   0.0000000   0.0000000   0.0000000   0.0000000   0.0000000   0.0000000   0.0000000
 NMagM=    2.7928460   0.0000000   2.7928460   2.7928460   2.7928460   0.0000000   2.7928460   2.7928460   2.7928460
 AtZNuc=   1.0000000   6.0000000   1.0000000   1.0000000   1.0000000   6.0000000   1.0000000   1.0000000   1.0000000
 Leave Link  101 at Sat Jan 24 21:54:02 2026, MaxMem=  2147483648 cpu:               0.9 elap:               0.1
 (Enter /data/home/wyx/g16/l202.exe)
                          Input orientation:                          
 ---------------------------------------------------------------------
 Center     Atomic      Atomic             Coordinates (Angstroms)
 Number     Number       Type             X           Y           Z
 ---------------------------------------------------------------------
      1          8           0        2.744080   -1.558299    0.749034
      2          8           0       -3.230656   -1.641882   -1.096703
      3          7           0       -0.708613    1.513486    0.113102
      4          1           0       -1.016805    2.471204    0.055253
      5          6           0       -1.248516   -0.758707   -0.153120
      6          6           0        0.641061    1.302995    0.278281
      7          6           0       -1.620382    0.546537   -0.230096
      8          6           0       -2.151921   -1.835866   -0.543762
      9          6           0        0.098154   -1.104499    0.425558
     10          1           0       -0.007590   -1.433582    1.468704
     11          1           0        0.525473   -1.963788   -0.088273
     12          6           0        1.094001    0.024796    0.357230
     13          6           0        2.491045   -0.390769    0.459368
     14          6           0       -2.945089    1.084984   -0.656635
     15          1           0       -3.038700    2.135350   -0.386148
     16          1           0       -3.065811    0.997733   -1.734698
     17          1           0       -3.759662    0.527107   -0.208380
     18          6           0       -1.722300   -3.250288   -0.252087
     19          1           0       -2.559188   -3.921853   -0.415316
     20          1           0       -0.908283   -3.542521   -0.915860
     21          1           0       -1.357325   -3.363233    0.766948
     22          6           0        3.647078    0.538279    0.181779
     23          1           0        3.449182    1.236989   -0.626618
     24          1           0        3.894563    1.112951    1.076002
     25          1           0        4.510429   -0.073281   -0.070063
     26          6           0        1.418371    2.580018    0.350038
     27          1           0        2.251852    2.517900    1.038412
     28          1           0        1.803165    2.859635   -0.631042
     29          1           0        0.772387    3.388601    0.689092
 ---------------------------------------------------------------------
                    Distance matrix (angstroms):
                    1          2          3          4          5
     1  O    0.000000
     2  O    6.253895   0.000000
     3  N    4.664907   4.216714   0.000000
     4  H    5.555401   4.810989   1.007746   0.000000
     5  C    4.170618   2.366268   2.350581   3.244909   0.000000
     6  C    3.582080   5.055005   1.375940   2.040337   2.829704
     7  C    4.943436   2.851871   1.372624   2.037173   1.359364
     8  C    5.071409   1.227617   3.705775   4.494236   1.459114
     9  C    2.703978   3.699599   2.757235   3.763763   1.505975
    10  H    2.846958   4.124664   3.318780   4.273606   2.150736
    11  H    2.405768   3.902443   3.695261   4.697699   2.145568
    12  C    2.320013   4.857406   2.350577   3.245243   2.522245
    13  C    1.229252   6.060075   3.739505   4.545240   3.807208
    14  C    6.428802   2.776870   2.403733   2.479248   2.555599
    15  H    6.955014   3.848275   2.462777   2.096591   3.410957
    16  H    6.815941   2.720621   3.039202   3.094102   2.981448
    17  H    6.896682   2.402806   3.222607   3.372281   2.821742
    18  C    4.879920   2.361246   4.884104   5.773011   2.538157
    19  H    5.921718   2.472534   5.766001   6.593296   3.433963
    20  H    4.477585   3.006418   5.163510   6.092596   2.906398
    21  H    4.481030   3.153667   4.962936   5.887539   2.764402
    22  C    2.352195   7.327404   4.464055   5.050150   5.075546
    23  H    3.194248   7.288972   4.232127   4.683297   5.125951
    24  H    2.926789   7.942197   4.719834   5.196953   5.609377
    25  H    2.448711   7.964854   5.458001   6.086084   5.800186
    26  C    4.363756   6.444451   2.391169   2.455366   4.302620
    27  H    4.115996   7.205581   3.260276   3.413635   4.940494
    28  H    4.723142   6.769036   2.945318   2.928158   4.757475
    29  H    5.325691   6.672269   2.457882   2.108217   4.689726
                    6          7          8          9         10
     6  C    0.000000
     7  C    2.438196   0.000000
     8  C    4.281232   2.461049   0.000000
     9  C    2.472340   2.471673   2.556818   0.000000
    10  H    3.053966   3.067229   2.968166   1.098923   0.000000
    11  H    3.289315   3.305532   2.718873   1.088578   1.729003
    12  C    1.358374   2.825781   3.848358   1.507212   2.139099
    13  C    2.514770   4.272907   4.965049   2.497295   2.889532
    14  C    3.712421   1.492216   3.028732   3.902090   4.414651
    15  H    3.830786   2.135487   4.072073   4.582067   5.036405
    16  H    4.229204   2.134636   3.206682   4.369984   5.052306
    17  H    4.495020   2.139478   2.877665   4.236362   4.553565
    18  C    5.157437   3.798256   1.506731   2.894420   3.033442
    19  H    6.166174   4.569702   2.129250   3.963082   4.031337
    20  H    5.225463   4.206870   2.144240   2.959099   3.308325
    21  H    5.099610   4.043464   2.163838   2.708661   2.457193
    22  C    3.103263   5.283545   6.308040   3.918292   4.347529
    23  H    2.951058   5.131709   6.389183   4.221259   4.844749
    24  H    3.355257   5.695730   6.919474   4.444422   4.676093
    25  H    4.121588   6.164141   6.907822   4.558204   4.962934
    26  C    1.496712   3.702110   5.748556   3.914632   4.403835
    27  H    2.156024   4.526542   6.391539   4.258612   4.572137
    28  H    2.144873   4.151127   6.139874   4.442727   5.110722
    29  H    2.129733   3.827215   6.112819   4.551043   4.946676
                   11         12         13         14         15
    11  H    0.000000
    12  C    2.115695   0.000000
    13  C    2.576388   1.461115   0.000000
    14  C    4.654336   4.297228   5.742374   0.000000
    15  H    5.440128   4.699603   6.137936   1.088667   0.000000
    16  H    4.937473   4.756764   6.133556   1.088304   1.764510
    17  H    4.957960   4.912258   6.352930   1.084292   1.771393
    18  C    2.595072   4.362223   5.141526   4.522550   5.545807
    19  H    3.668257   5.433107   6.224024   5.027482   6.076223
    20  H    2.287565   4.284349   4.835310   5.062566   6.087486
    21  H    2.496954   4.201858   4.872381   4.932972   5.864390
    22  C    4.009699   2.610105   1.508840   6.667720   6.897304
    23  H    4.368394   2.825641   2.178758   6.396148   6.554196
    24  H    4.708782   3.089314   2.147388   7.055753   7.159142
    25  H    4.410694   3.444442   2.111636   7.567720   7.871932
    26  C    4.651404   2.575738   3.160405   4.721049   4.539293
    27  H    4.933085   2.831995   2.975376   5.651073   5.492327
    28  H    5.019214   3.084786   3.496755   5.069118   4.901859
    29  H    5.414179   3.395402   4.158148   4.575725   4.153452
                   16         17         18         19         20
    16  H    0.000000
    17  H    1.741426   0.000000
    18  C    4.695619   4.292024   0.000000
    19  H    5.118570   4.612722   1.085368   0.000000
    20  H    5.093067   5.019239   1.090238   1.766331   0.000000
    21  H    5.309914   4.675172   1.088299   1.776029   1.750893
    22  C    6.996203   7.417017   6.585719   7.665966   6.213618
    23  H    6.612883   7.255776   6.857124   7.922046   6.474170
    24  H    7.507337   7.783316   7.235387   8.320107   6.979131
    25  H    7.830549   8.293009   6.998101   8.056686   6.489487
    26  C    5.192075   5.598062   6.649725   7.660357   6.670929
    27  H    6.186969   6.454150   7.122588   8.168834   7.108751
    28  H    5.328383   6.046848   7.064253   8.066303   6.958496
    29  H    5.130572   5.434434   7.154308   8.109368   7.310333
                   21         22         23         24         25
    21  H    0.000000
    22  C    6.372462   0.000000
    23  H    6.797542   1.086676   0.000000
    24  H    6.907537   1.091390   1.764275   0.000000
    25  H    6.779005   1.087568   1.775614   1.760654   0.000000
    26  C    6.572711   3.027234   2.623314   2.968305   4.096011
    27  H    6.905619   2.568925   2.417986   2.161896   3.611662
    28  H    7.118087   3.073985   2.311357   3.215408   4.030629
    29  H    7.080183   4.079896   3.677738   3.882817   5.151107
                   26         27         28         29
    26  C    0.000000
    27  H    1.082778   0.000000
    28  H    1.090307   1.762152   0.000000
    29  H    1.089064   1.751845   1.756434   0.000000
 Stoichiometry    C11H15NO2
 Framework group  C1[X(C11H15NO2)]
 Deg. of freedom    81
 Full point group                 C1      NOp   1
 RotChk:  IX=0 Diff= 4.00D-16
 Largest Abelian subgroup         C1      NOp   1
 Largest concise Abelian subgroup C1      NOp   1
                         Standard orientation:                         
 ---------------------------------------------------------------------
 Center     Atomic      Atomic             Coordinates (Angstroms)
 Number     Number       Type             X           Y           Z
 ---------------------------------------------------------------------
      1          8           0       -2.286449   -2.281171   -0.188026
      2          8           0        3.592296   -0.248108    0.458670
      3          7           0       -0.026987    1.799700   -0.239863
      4          1           0       -0.057103    2.806987   -0.244108
      5          6           0        1.291071   -0.140124   -0.081636
      6          6           0       -1.231081    1.141558   -0.138776
      7          6           0        1.205251    1.216528   -0.079870
      8          6           0        2.561675   -0.826567    0.126632
      9          6           0        0.060049   -0.952253   -0.386577
     10          1           0        0.078534   -1.296542   -1.430012
     11          1           0        0.051392   -1.868271    0.201503
     12          6           0       -1.229606   -0.216762   -0.126712
     13          6           0       -2.396273   -1.079340    0.045640
     14          6           0        2.322795    2.192370    0.079933
     15          1           0        2.003193    3.193399   -0.204656
     16          1           0        2.660961    2.222731    1.113919
     17          1           0        3.181761    1.908593   -0.517844
     18          6           0        2.591997   -2.319523   -0.074362
     19          1           0        3.621972   -2.661825   -0.076600
     20          1           0        2.061496   -2.820761    0.735544
     21          1           0        2.107205   -2.615509   -1.002675
     22          6           0       -3.727493   -0.571479    0.542160
     23          1           0       -3.634201    0.205788    1.295829
     24          1           0       -4.314436   -0.173208   -0.287303
     25          1           0       -4.270467   -1.417115    0.957954
     26          6           0       -2.394854    2.079331   -0.059027
     27          1           0       -3.268708    1.697435   -0.571806
     28          1           0       -2.665377    2.280081    0.977934
     29          1           0       -2.135264    3.032124   -0.518219
 ---------------------------------------------------------------------
 Rotational constants (GHZ):           1.0785988           0.4908285           0.3468335
 Leave Link  202 at Sat Jan 24 21:54:02 2026, MaxMem=  2147483648 cpu:               0.0 elap:               0.0
 (Enter /data/home/wyx/g16/l301.exe)
 Standard basis: TZVP (5D, 7F)
 Ernie: Thresh=  0.10000D-02 Tol=  0.10000D-05 Strict=F.
 There are   370 symmetry adapted cartesian basis functions of A   symmetry.
 There are   356 symmetry adapted basis functions of A   symmetry.
   356 basis functions,   610 primitive gaussians,   370 cartesian basis functions
    52 alpha electrons       52 beta electrons
       nuclear repulsion energy       900.8334184365 Hartrees.
 IExCor=20419 DFT=T Ex+Corr=CAM-B3LYP ExCW=0 ScaHFX=  1.000000
 ScaDFX=  1.000000  1.000000  1.000000  0.810000 ScalE2=  1.000000  1.000000
 IRadAn=      5 IRanWt=     -1 IRanGd=            0 ICorTp=0 IEmpDi=141
 HFx  wShort=  0.000000 wLong=  0.330000 cFull=  0.190000 cShort=  0.000000 cLong=  0.460000
 DFx  wShort=  0.000000 wLong=  0.330000 cFull=  0.190000 cShort=  0.000000 cLong=  0.460000
 NAtoms=   29 NActive=   29 NUniq=   29 SFac= 1.00D+00 NAtFMM=   60 NAOKFM=F Big=F
 Integral buffers will be    131072 words long.
 Raffenetti 1 integral format.
 Two-electron integral symmetry is turned on.
 R6Disp:  Grimme-D3(BJ) Dispersion energy=       -0.0262121042 Hartrees.
 Nuclear repulsion after empirical dispersion term =      900.8072063323 Hartrees.
 ------------------------------------------------------------------------------
 Polarizable Continuum Model (PCM)
 =================================
 Model                : PCM.
 Atomic radii         : UFF (Universal Force Field).
 Polarization charges : Total charges.
 Charge compensation  : None.
 Solution method      : On-the-fly selection.
 Cavity type          : Scaled VdW (van der Waals Surface) (Alpha=1.100).
 Cavity algorithm     : GePol (No added spheres)
                        Default sphere list used, NSphG=   29.
                        Lebedev-Laikov grids with approx.  5.0 points / Ang**2.
                        Smoothing algorithm: York/Karplus (Gamma=1.0000).
                        Polarization charges: spherical gaussians, with
                                              point-specific exponents (IZeta= 3).
                        Self-potential: point-specific (ISelfS= 7).
                        Self-field    : sphere-specific E.n sum rule (ISelfD= 2).
 1st derivatives      : Analytical E(r).r(x)/FMM algorithm (CHGder, D1EAlg=3).
                        Cavity 1st derivative terms included.
 Solvent              : Water, Eps=  78.355300 Eps(inf)=   1.777849
 ------------------------------------------------------------------------------
 GePol: Number of generator spheres                  =      29
 GePol: Total number of spheres                      =      29
 GePol: Number of exposed spheres                    =      29 (100.00%)
 GePol: Number of points                             =    2100
 GePol: Average weight of points                     =       0.13
 GePol: Minimum weight of points                     =   0.29D-09
 GePol: Maximum weight of points                     =    0.20577
 GePol: Number of points with low weight             =     150
 GePol: Fraction of low-weight points (<1% of avg)   =       7.14%
 GePol: Cavity surface area                          =    268.569 Ang**2
 GePol: Cavity volume                                =    286.670 Ang**3
 Leave Link  301 at Sat Jan 24 21:54:02 2026, MaxMem=  2147483648 cpu:               0.6 elap:               0.0
 (Enter /data/home/wyx/g16/l302.exe)
 NPDir=0 NMtPBC=     1 NCelOv=     1 NCel=       1 NClECP=     1 NCelD=      1
         NCelK=      1 NCelE2=     1 NClLst=     1 CellRange=     0.0.
 One-electron integrals computed using PRISM.
 One-electron integral symmetry used in STVInt
 NBasis=   356 RedAO= T EigKep=  4.71D-05  NBF=   356
 NBsUse=   356 1.00D-06 EigRej= -1.00D+00 NBFU=   356
 Precomputing XC quadrature grid using
 IXCGrd= 4 IRadAn=           5 IRanWt=          -1 IRanGd=           0 AccXCQ= 0.00D+00.
 Generated NRdTot=       0 NPtTot=           0 NUsed=           0 NTot=          32
 NSgBfM=   366   366   366   366   366 MxSgAt=    29 MxSgA2=    29.
 Leave Link  302 at Sat Jan 24 21:54:02 2026, MaxMem=  2147483648 cpu:               3.1 elap:               0.2
 (Enter /data/home/wyx/g16/l303.exe)
 DipDrv:  MaxL=1.
 Leave Link  303 at Sat Jan 24 21:54:02 2026, MaxMem=  2147483648 cpu:               0.6 elap:               0.0
 (Enter /data/home/wyx/g16/l308.exe)
 Leave Link  308 at Sat Jan 24 21:54:02 2026, MaxMem=  2147483648 cpu:               0.7 elap:               0.1
 (Enter /data/home/wyx/g16/l401.exe)
 Initial guess from the checkpoint file:  "DDL-S1-cLR-14.chk"
 B after Tr=    -0.000000    0.000000   -0.000000
         Rot=    1.000000   -0.000000   -0.000000    0.000000 Ang=   0.00 deg.
 Guess basis will be translated and rotated to current coordinates.
 JPrj=2 DoOrth=T DoCkMO=T.
 Leave Link  401 at Sat Jan 24 21:54:03 2026, MaxMem=  2147483648 cpu:               2.2 elap:               0.2
 (Enter /data/home/wyx/g16/l502.exe)
 Integral symmetry usage will be decided dynamically.
 Closed shell SCF:
 Using DIIS extrapolation, IDIIS=  1040.
 NGot=  2147483648 LenX=  2147200095 LenY=  2147062754
 Requested convergence on RMS density matrix=1.00D-08 within 128 cycles.
 Requested convergence on MAX density matrix=1.00D-06.
 Requested convergence on             energy=1.00D-06.
 No special actions if energy rises.
 Fock matrices will be formed incrementally for  20 cycles.

 Cycle   1  Pass 1  IDiag  1:
 FoFJK:  IHMeth= 1 ICntrl=       0 DoSepK=T KAlg= 0 I1Cent=           0 FoldK=F
 IRaf=         1 NMat=       1 IRICut=       1 DoRegI=T DoRafI=F ISym2E= 0 IDoP0=0 IntGTp=1.
 FoFCou: FMM=F IPFlag=           0 FMFlag=      100000 FMFlg1=           0
         NFxFlg=           0 DoJE=T BraDBF=F KetDBF=F FulRan=T
         wScrn=  0.000000 ICntrl=       500 IOpCl=  0 I1Cent=           0 NGrid=           0
         NMat0=    1 NMatS0=      1 NMatT0=    0 NMatD0=    1 NMtDS0=    0 NMtDT0=    0
 Symmetry not used in FoFCou.
 Inv3:  Mode=1 IEnd=    13230000.
 Iteration    1 A*A^-1 deviation from unit magnitude is 3.33D-15 for   1920.
 Iteration    1 A*A^-1 deviation from orthogonality  is 2.89D-15 for   2023   1557.
 Iteration    1 A^-1*A deviation from unit magnitude is 2.89D-15 for     65.
 Iteration    1 A^-1*A deviation from orthogonality  is 2.00D-15 for   2090   1872.
 E= -633.332243288448    
 DIIS: error= 1.40D-08 at cycle   1 NSaved=   1.
 NSaved= 1 IEnMin= 1 EnMin= -633.332243288448     IErMin= 1 ErrMin= 1.40D-08
 ErrMax= 1.40D-08  0.00D+00 EMaxC= 1.00D-01 BMatC= 5.41D-14 BMatP= 5.41D-14
 IDIUse=1 WtCom= 1.00D+00 WtEn= 0.00D+00
 Coeff-Com:  0.100D+01
 Coeff:      0.100D+01
 Gap=     0.237 Goal=   None    Shift=    0.000
 RMSDP=2.54D-09 MaxDP=7.33D-08              OVMax= 3.06D-07

 Error on total polarization charges =  0.01548
 SCF Done:  E(RCAM-B3LYP) =  -633.332243288     A.U. after    1 cycles
            NFock=  1  Conv=0.25D-08     -V/T= 2.0041
 KE= 6.307205355828D+02 PE=-3.277697893465D+03 EE= 1.112837908261D+03
 Leave Link  502 at Sat Jan 24 21:54:08 2026, MaxMem=  2147483648 cpu:              86.5 elap:               5.7
 (Enter /data/home/wyx/g16/l801.exe)
 DoSCS=F DFT=T ScalE2(SS,OS)=  1.000000  1.000000
 ExpMin= 9.52D-02 ExpMax= 2.70D+04 ExpMxC= 9.22D+02 IAcc=3 IRadAn=         5 AccDes= 0.00D+00
 HarFok:  IExCor=  205 AccDes= 0.00D+00 IRadAn=         5 IDoV=-2 UseB2=F ITyADJ=14
 ICtDFT= 12500011 ScaDFX=  1.000000  1.000000  1.000000  1.000000
 Largest valence mixing into a core orbital is  5.64D-05
 Largest core mixing into a valence orbital is  1.20D-05
 Range of M.O.s used for correlation:    15   356
 NBasis=   356 NAE=    52 NBE=    52 NFC=    14 NFV=     0
 NROrb=    342 NOA=    38 NOB=    38 NVA=   304 NVB=   304

 **** Warning!!: The largest alpha MO coefficient is  0.53859962D+02

 Leave Link  801 at Sat Jan 24 21:54:09 2026, MaxMem=  2147483648 cpu:               1.0 elap:               0.1
 (Enter /data/home/wyx/g16/l914.exe)
 RHF ground state
 Two-electron integrals replicated using symmetry.
 MDV=  2147483648 DFT=T DoStab=F Mixed=T DoRPA=T DoScal=F NonHer=T
 NEqPCM:  Using equilibrium solvation (IEInf=0, Eps=  78.3553, EpsInf=   1.7778)
 Making orbital integer symmetry assigments:
 Orbital symmetries:
       Occupied  (A) (A) (A) (A) (A) (A) (A) (A) (A) (A) (A) (A)
                 (A) (A) (A) (A) (A) (A) (A) (A) (A) (A) (A) (A)
                 (A) (A) (A) (A) (A) (A) (A) (A) (A) (A) (A) (A)
                 (A) (A) (A) (A) (A) (A) (A) (A) (A) (A) (A) (A)
                 (A) (A) (A) (A)
       Virtual   (A) (A) (A) (A) (A) (A) (A) (A) (A) (A) (A) (A)
                 (A) (A) (A) (A) (A) (A) (A) (A) (A) (A) (A) (A)
                 (A) (A) (A) (A) (A) (A) (A) (A) (A) (A) (A) (A)
                 (A) (A) (A) (A) (A) (A) (A) (A) (A) (A) (A) (A)
                 (A) (A) (A) (A) (A) (A) (A) (A) (A) (A) (A) (A)
                 (A) (A) (A) (A) (A) (A) (A) (A) (A) (A) (A) (A)
                 (A) (A) (A) (A) (A) (A) (A) (A) (A) (A) (A) (A)
                 (A) (A) (A) (A) (A) (A) (A) (A) (A) (A) (A) (A)
                 (A) (A) (A) (A) (A) (A) (A) (A) (A) (A) (A) (A)
                 (A) (A) (A) (A) (A) (A) (A) (A) (A) (A) (A) (A)
                 (A) (A) (A) (A) (A) (A) (A) (A) (A) (A) (A) (A)
                 (A) (A) (A) (A) (A) (A) (A) (A) (A) (A) (A) (A)
                 (A) (A) (A) (A) (A) (A) (A) (A) (A) (A) (A) (A)
                 (A) (A) (A) (A) (A) (A) (A) (A) (A) (A) (A) (A)
                 (A) (A) (A) (A) (A) (A) (A) (A) (A) (A) (A) (A)
                 (A) (A) (A) (A) (A) (A) (A) (A) (A) (A) (A) (A)
                 (A) (A) (A) (A) (A) (A) (A) (A) (A) (A) (A) (A)
                 (A) (A) (A) (A) (A) (A) (A) (A) (A) (A) (A) (A)
                 (A) (A) (A) (A) (A) (A) (A) (A) (A) (A) (A) (A)
                 (A) (A) (A) (A) (A) (A) (A) (A) (A) (A) (A) (A)
                 (A) (A) (A) (A) (A) (A) (A) (A) (A) (A) (A) (A)
                 (A) (A) (A) (A) (A) (A) (A) (A) (A) (A) (A) (A)
                 (A) (A) (A) (A) (A) (A) (A) (A) (A) (A) (A) (A)
                 (A) (A) (A) (A) (A) (A) (A) (A) (A) (A) (A) (A)
                 (A) (A) (A) (A) (A) (A) (A) (A) (A) (A) (A) (A)
                 (A) (A) (A) (A)
 PCM Corrected Linear-Response:
 Compute the excitation energies in the ground state reaction field.
    24 initial guesses have been made.
 Convergence on wavefunction:    0.000001000000000
 Davidson Disk Diagonalization:  ConvIn= 1.00D-06 SkipCon=T Conv= 1.00D-06.
 Max sub-space:  2000 roots to seek:    24 dimension of matrix:        23104
 Iteration     1 Dimension    24 NMult     0 NNew     24
 CISAX will form    24 AO SS matrices at one time.
 NMat=    24 NSing=    24 JSym2X= 0.
 FoFJK:  IHMeth= 1 ICntrl=       0 DoSepK=T KAlg= 0 I1Cent=           0 FoldK=F
 IRaf=         1 NMat=      48 IRICut=       1 DoRegI=T DoRafI=F ISym2E= 0 IDoP0=3 IntGTp=3.
 FoFCou: FMM=F IPFlag=           0 FMFlag=      100000 FMFlg1=           0
         NFxFlg=           0 DoJE=F BraDBF=F KetDBF=F FulRan=T
         wScrn=  0.000000 ICntrl=       500 IOpCl=  0 I1Cent=           0 NGrid=           0
         NMat0=   24 NMatS0=     24 NMatT0=    0 NMatD0=   24 NMtDS0=    0 NMtDT0=    0
 Symmetry not used in FoFCou.
 New state      2 was old state      3
 New state      3 was old state      4
 New state      4 was old state      2
 New state      5 was old state      6
 New state      6 was old state      5
 Excitation Energies [eV] at current iteration:
 Root      1 :     3.998854694096996
 Root      2 :     4.360759491036101
 Root      3 :     4.547603984546549
 Root      4 :     5.549616044127691
 Root      5 :     6.244531120877244
 Root      6 :     6.575092908124603
 Root      7 :     6.821987886416618
 Root      8 :     6.870860473711027
 Root      9 :     7.037799394362941
 Root     10 :     7.130562818889613
 Root     11 :     7.285498409547849
 Root     12 :     7.439095195438417
 Root     13 :     7.604522733580858
 Root     14 :     7.655144126762623
 Root     15 :     7.832615929120168
 Root     16 :     8.044255268568810
 Root     17 :     8.174505528440633
 Root     18 :     8.301590469753815
 Root     19 :     8.335681715184972
 Root     20 :     8.667045316067165
 Root     21 :     8.828905665878256
 Root     22 :     8.988868451525184
 Root     23 :     9.129127995125549
 Root     24 :     9.241206242817819
 Iteration     2 Dimension    36 NMult    24 NNew     12
 CISAX will form    12 AO SS matrices at one time.
 NMat=    12 NSing=    12 JSym2X= 0.
 Root      1 not converged, maximum delta is    0.051443163375003
 Root      2 not converged, maximum delta is    0.073025670619671
 Root      3 not converged, maximum delta is    0.086686067626073
 Root      4 not converged, maximum delta is    0.211863801828303
 New state      5 was old state      6
 Root      5 not converged, maximum delta is    0.266244354416460
 New state      6 was old state      5
 Root      6 not converged, maximum delta is    0.147948143908234
 Excitation Energies [eV] at current iteration:
 Root      1 :     3.541449199761214   Change is   -0.457405494335783
 Root      2 :     4.122314793351237   Change is   -0.238444697684865
 Root      3 :     4.277092493194705   Change is   -0.270511491351843
 Root      4 :     5.229142168302915   Change is   -0.320473875824777
 Root      5 :     5.698103451073476   Change is   -0.876989457051126
 Root      6 :     6.117044986095264   Change is   -0.127486134781981
 Iteration     3 Dimension    48 NMult    36 NNew     12
 CISAX will form    12 AO SS matrices at one time.
 NMat=    12 NSing=    12 JSym2X= 0.
 Root      1 not converged, maximum delta is    0.009576885060343
 Root      2 not converged, maximum delta is    0.011355580094891
 Root      3 not converged, maximum delta is    0.012732627127036
 Root      4 not converged, maximum delta is    0.021819164561763
 Root      5 not converged, maximum delta is    0.023845342473817
 Root      6 not converged, maximum delta is    0.018363933724751
 Excitation Energies [eV] at current iteration:
 Root      1 :     3.521224735922227   Change is   -0.020224463838987
 Root      2 :     4.108790407342764   Change is   -0.013524386008473
 Root      3 :     4.262980823481213   Change is   -0.014111669713492
 Root      4 :     5.207748170594386   Change is   -0.021393997708529
 Root      5 :     5.663249863959486   Change is   -0.034853587113991
 Root      6 :     6.105873695062527   Change is   -0.011171291032738
 Iteration     4 Dimension    60 NMult    48 NNew     12
 CISAX will form    12 AO SS matrices at one time.
 NMat=    12 NSing=    12 JSym2X= 0.
 Root      1 not converged, maximum delta is    0.002181776923712
 Root      2 not converged, maximum delta is    0.002040217247377
 Root      3 not converged, maximum delta is    0.002005886544064
 Root      4 not converged, maximum delta is    0.002291278872777
 Root      5 not converged, maximum delta is    0.003169792297586
 Root      6 not converged, maximum delta is    0.003623492371540
 Excitation Energies [eV] at current iteration:
 Root      1 :     3.519572999350456   Change is   -0.001651736571770
 Root      2 :     4.107967864362398   Change is   -0.000822542980365
 Root      3 :     4.262150841698622   Change is   -0.000829981782590
 Root      4 :     5.206024261145894   Change is   -0.001723909448492
 Root      5 :     5.660297996346511   Change is   -0.002951867612975
 Root      6 :     6.105014915873170   Change is   -0.000858779189357
 Iteration     5 Dimension    72 NMult    60 NNew     12
 CISAX will form    12 AO SS matrices at one time.
 NMat=    12 NSing=    12 JSym2X= 0.
 Root      1 not converged, maximum delta is    0.000754889434592
 Root      2 not converged, maximum delta is    0.000280368495142
 Root      3 not converged, maximum delta is    0.000559501268922
 Root      4 not converged, maximum delta is    0.000981903138577
 Root      5 not converged, maximum delta is    0.001070110214825
 Root      6 not converged, maximum delta is    0.001131351023059
 Excitation Energies [eV] at current iteration:
 Root      1 :     3.519468717899224   Change is   -0.000104281451232
 Root      2 :     4.107915469598145   Change is   -0.000052394764253
 Root      3 :     4.262100469658395   Change is   -0.000050372040227
 Root      4 :     5.205884111704283   Change is   -0.000140149441610
 Root      5 :     5.660017104796567   Change is   -0.000280891549944
 Root      6 :     6.104944085750892   Change is   -0.000070830122277
 Iteration     6 Dimension    84 NMult    72 NNew     12
 CISAX will form    12 AO SS matrices at one time.
 NMat=    12 NSing=    12 JSym2X= 0.
 Root      1 not converged, maximum delta is    0.000218276827056
 Root      2 not converged, maximum delta is    0.000090896942106
 Root      3 not converged, maximum delta is    0.000158359575677
 Root      4 not converged, maximum delta is    0.000581421567106
 Root      5 not converged, maximum delta is    0.000221234937155
 Root      6 not converged, maximum delta is    0.000194619950301
 Excitation Energies [eV] at current iteration:
 Root      1 :     3.519462959242932   Change is   -0.000005758656293
 Root      2 :     4.107911646562836   Change is   -0.000003823035309
 Root      3 :     4.262097305819049   Change is   -0.000003163839346
 Root      4 :     5.205869882389377   Change is   -0.000014229314906
 Root      5 :     5.659995234223873   Change is   -0.000021870572694
 Root      6 :     6.104938397125184   Change is   -0.000005688625709
 Iteration     7 Dimension    96 NMult    84 NNew     12
 CISAX will form    12 AO SS matrices at one time.
 NMat=    12 NSing=    12 JSym2X= 0.
 Root      1 not converged, maximum delta is    0.000017777272358
 Root      2 not converged, maximum delta is    0.000016441381387
 Root      3 not converged, maximum delta is    0.000039077059875
 Root      4 not converged, maximum delta is    0.000178965015379
 Root      5 not converged, maximum delta is    0.000085823209494
 Root      6 not converged, maximum delta is    0.000111199781767
 Excitation Energies [eV] at current iteration:
 Root      1 :     3.519462641885538   Change is   -0.000000317357393
 Root      2 :     4.107911449850083   Change is   -0.000000196712753
 Root      3 :     4.262097118711296   Change is   -0.000000187107754
 Root      4 :     5.205868522166162   Change is   -0.000001360223214
 Root      5 :     5.659993583423038   Change is   -0.000001650800835
 Root      6 :     6.104937790754715   Change is   -0.000000606370469
 Iteration     8 Dimension   108 NMult    96 NNew     12
 CISAX will form    12 AO SS matrices at one time.
 NMat=    12 NSing=    12 JSym2X= 0.
 Root      1 not converged, maximum delta is    0.000003522022938
 Root      2 not converged, maximum delta is    0.000003925201118
 Root      3 not converged, maximum delta is    0.000004684161445
 Root      4 not converged, maximum delta is    0.000026621074785
 Root      5 not converged, maximum delta is    0.000016811512917
 Root      6 not converged, maximum delta is    0.000025309279428
 Excitation Energies [eV] at current iteration:
 Root      1 :     3.519462629927307   Change is   -0.000000011958231
 Root      2 :     4.107911439153191   Change is   -0.000000010696893
 Root      3 :     4.262097109091075   Change is   -0.000000009620220
 Root      4 :     5.205868422284619   Change is   -0.000000099881545
 Root      5 :     5.659993469163131   Change is   -0.000000114259907
 Root      6 :     6.104937734607446   Change is   -0.000000056147269
 Iteration     9 Dimension   120 NMult   108 NNew     12
 CISAX will form    12 AO SS matrices at one time.
 NMat=    12 NSing=    12 JSym2X= 0.
 Root      1 has converged.
 Root      2 has converged.
 Root      3 has converged.
 Root      4 not converged, maximum delta is    0.000002636937566
 Root      5 not converged, maximum delta is    0.000003324817737
 Root      6 not converged, maximum delta is    0.000006271744095
 Excitation Energies [eV] at current iteration:
 Root      1 :     3.519462629430389   Change is   -0.000000000496918
 Root      2 :     4.107911438776163   Change is   -0.000000000377027
 Root      3 :     4.262097108759417   Change is   -0.000000000331658
 Root      4 :     5.205868417899370   Change is   -0.000000004385249
 Root      5 :     5.659993463388162   Change is   -0.000000005774968
 Root      6 :     6.104937731004297   Change is   -0.000000003603149
 Iteration    10 Dimension   126 NMult   120 NNew      6
 CISAX will form     6 AO SS matrices at one time.
 NMat=     6 NSing=     6 JSym2X= 0.
 Root      1 has converged.
 Root      2 has converged.
 Root      3 has converged.
 Root      4 has converged.
 Root      5 not converged, maximum delta is    0.000001165626618
 Root      6 not converged, maximum delta is    0.000001689990940
 Excitation Energies [eV] at current iteration:
 Root      1 :     3.519462629427820   Change is   -0.000000000002569
 Root      2 :     4.107911438772462   Change is   -0.000000000003702
 Root      3 :     4.262097108755695   Change is   -0.000000000003723
 Root      4 :     5.205868417705894   Change is   -0.000000000193475
 Root      5 :     5.659993463075599   Change is   -0.000000000312563
 Root      6 :     6.104937730743774   Change is   -0.000000000260522
 Iteration    11 Dimension   130 NMult   126 NNew      4
 CISAX will form     4 AO SS matrices at one time.
 NMat=     4 NSing=     4 JSym2X= 0.
 Root      1 has converged.
 Root      2 has converged.
 Root      3 has converged.
 Root      4 has converged.
 Root      5 has converged.
 Root      6 has converged.
 Excitation Energies [eV] at current iteration:
 Root      1 :     3.519462629427423   Change is   -0.000000000000397
 Root      2 :     4.107911438772222   Change is   -0.000000000000240
 Root      3 :     4.262097108755463   Change is   -0.000000000000232
 Root      4 :     5.205868417702972   Change is   -0.000000000002921
 Root      5 :     5.659993463058126   Change is   -0.000000000017473
 Root      6 :     6.104937730724222   Change is   -0.000000000019552
 Convergence achieved on expansion vectors.
 PCM Corrected Linear-Response:
 The state of interest is root number   1
 Excitation energy =    3.5195 eV, Total energy =  -633.202905417    
 Recompute the excitation energies using the linear response reaction field.
 Convergence on wavefunction:    0.000001000000000
 Davidson Disk Diagonalization:  ConvIn= 1.00D-06 SkipCon=T Conv= 1.00D-06.
 Max sub-space:  2000 roots to seek:     6 dimension of matrix:        23104
 Iteration     1 Dimension     6 NMult     0 NNew      6
 CISAX will form     6 AO SS matrices at one time.
 NMat=     6 NSing=     6 JSym2X= 0.
 Excitation Energies [eV] at current iteration:
 Root      1 :     3.590104079864009
 Root      2 :     4.134628382084305
 Root      3 :     4.287981056099857
 Root      4 :     5.267435677102957
 Root      5 :     5.791831099334212
 Root      6 :     6.066444917729949
 Iteration     2 Dimension    18 NMult     6 NNew     12
 CISAX will form    12 AO SS matrices at one time.
 NMat=    12 NSing=    12 JSym2X= 0.
 Root      1 not converged, maximum delta is    0.017001911973402
 Root      2 not converged, maximum delta is    0.023473407948542
 Root      3 not converged, maximum delta is    0.010625935099163
 Root      4 not converged, maximum delta is    0.225596297682282
 Root      5 not converged, maximum delta is    0.274981781127727
 Root      6 not converged, maximum delta is    0.060634771489973
 Excitation Energies [eV] at current iteration:
 Root      1 :     3.376666618286986   Change is   -0.213437461577023
 Root      2 :     4.101324557205779   Change is   -0.033303824878525
 Root      3 :     4.255203281611260   Change is   -0.032777774488596
 Root      4 :     5.033634364895033   Change is   -0.233801312207924
 Root      5 :     5.516844916315335   Change is   -0.274986183018878
 Root      6 :     6.041613138849604   Change is   -0.024831778880345
 Iteration     3 Dimension    30 NMult    18 NNew     12
 CISAX will form    12 AO SS matrices at one time.
 NMat=    12 NSing=    12 JSym2X= 0.
 Root      1 not converged, maximum delta is    0.003137801797974
 Root      2 not converged, maximum delta is    0.001082986542216
 Root      3 not converged, maximum delta is    0.001457582193897
 Root      4 not converged, maximum delta is    0.012645501842028
 Root      5 not converged, maximum delta is    0.011203428922925
 Root      6 not converged, maximum delta is    0.008980610936779
 Excitation Energies [eV] at current iteration:
 Root      1 :     3.373179959581788   Change is   -0.003486658705198
 Root      2 :     4.100962663161633   Change is   -0.000361894044146
 Root      3 :     4.254808934420768   Change is   -0.000394347190492
 Root      4 :     5.023166291482264   Change is   -0.010468073412769
 Root      5 :     5.508711700035025   Change is   -0.008133216280309
 Root      6 :     6.039406456180009   Change is   -0.002206682669595
 Iteration     4 Dimension    42 NMult    30 NNew     12
 CISAX will form    12 AO SS matrices at one time.
 NMat=    12 NSing=    12 JSym2X= 0.
 Root      1 not converged, maximum delta is    0.001623557157073
 Root      2 not converged, maximum delta is    0.000195430023622
 Root      3 not converged, maximum delta is    0.000227191958780
 Root      4 not converged, maximum delta is    0.002693846406993
 Root      5 not converged, maximum delta is    0.002807104846173
 Root      6 not converged, maximum delta is    0.008967347433582
 Excitation Energies [eV] at current iteration:
 Root      1 :     3.372720615340556   Change is   -0.000459344241232
 Root      2 :     4.100944071427391   Change is   -0.000018591734242
 Root      3 :     4.254785227571345   Change is   -0.000023706849424
 Root      4 :     5.021439131976836   Change is   -0.001727159505428
 Root      5 :     5.507471061385313   Change is   -0.001240638649713
 Root      6 :     6.038719448252810   Change is   -0.000687007927199
 Iteration     5 Dimension    54 NMult    42 NNew     12
 CISAX will form    12 AO SS matrices at one time.
 NMat=    12 NSing=    12 JSym2X= 0.
 Root      1 not converged, maximum delta is    0.000548194697844
 Root      2 not converged, maximum delta is    0.000082071075819
 Root      3 not converged, maximum delta is    0.000072163906433
 Root      4 not converged, maximum delta is    0.000784765963543
 Root      5 not converged, maximum delta is    0.000873380911144
 Root      6 not converged, maximum delta is    0.003911314855127
 Excitation Energies [eV] at current iteration:
 Root      1 :     3.372689127676483   Change is   -0.000031487664073
 Root      2 :     4.100942825469632   Change is   -0.000001245957759
 Root      3 :     4.254783393692465   Change is   -0.000001833878880
 Root      4 :     5.021285408874170   Change is   -0.000153723102666
 Root      5 :     5.507344922401836   Change is   -0.000126138983477
 Root      6 :     6.038573986373819   Change is   -0.000145461878990
 Iteration     6 Dimension    66 NMult    54 NNew     12
 CISAX will form    12 AO SS matrices at one time.
 NMat=    12 NSing=    12 JSym2X= 0.
 Root      1 not converged, maximum delta is    0.000080538142270
 Root      2 not converged, maximum delta is    0.000024446632092
 Root      3 not converged, maximum delta is    0.000029141567505
 Root      4 not converged, maximum delta is    0.000314009846540
 Root      5 not converged, maximum delta is    0.000484497703466
 Root      6 not converged, maximum delta is    0.001113618669122
 Excitation Energies [eV] at current iteration:
 Root      1 :     3.372687121752410   Change is   -0.000002005924073
 Root      2 :     4.100942692722205   Change is   -0.000000132747427
 Root      3 :     4.254783210809973   Change is   -0.000000182882493
 Root      4 :     5.021270926533681   Change is   -0.000014482340489
 Root      5 :     5.507329336734891   Change is   -0.000015585666945
 Root      6 :     6.038551191192170   Change is   -0.000022795181650
 Iteration     7 Dimension    78 NMult    66 NNew     12
 CISAX will form    12 AO SS matrices at one time.
 NMat=    12 NSing=    12 JSym2X= 0.
 Root      1 not converged, maximum delta is    0.000011438740832
 Root      2 not converged, maximum delta is    0.000006175272223
 Root      3 not converged, maximum delta is    0.000008170024383
 Root      4 not converged, maximum delta is    0.000109053283171
 Root      5 not converged, maximum delta is    0.000150228056660
 Root      6 not converged, maximum delta is    0.000149713470898
 Excitation Energies [eV] at current iteration:
 Root      1 :     3.372687043105009   Change is   -0.000000078647400
 Root      2 :     4.100942686801999   Change is   -0.000000005920206
 Root      3 :     4.254783200537953   Change is   -0.000000010272019
 Root      4 :     5.021269720879016   Change is   -0.000001205654665
 Root      5 :     5.507327910317369   Change is   -0.000001426417522
 Root      6 :     6.038549065757818   Change is   -0.000002125434351
 Iteration     8 Dimension    90 NMult    78 NNew     12
 CISAX will form    12 AO SS matrices at one time.
 NMat=    12 NSing=    12 JSym2X= 0.
 Root      1 not converged, maximum delta is    0.000002727322435
 Root      2 not converged, maximum delta is    0.000001652598416
 Root      3 not converged, maximum delta is    0.000001301171413
 Root      4 not converged, maximum delta is    0.000026410780065
 Root      5 not converged, maximum delta is    0.000049229057088
 Root      6 not converged, maximum delta is    0.000031953356892
 Excitation Energies [eV] at current iteration:
 Root      1 :     3.372687039410788   Change is   -0.000000003694222
 Root      2 :     4.100942686569886   Change is   -0.000000000232113
 Root      3 :     4.254783200058962   Change is   -0.000000000478992
 Root      4 :     5.021269635460499   Change is   -0.000000085418517
 Root      5 :     5.507327786278762   Change is   -0.000000124038607
 Root      6 :     6.038548855170105   Change is   -0.000000210587714
 Iteration     9 Dimension   102 NMult    90 NNew     12
 CISAX will form    12 AO SS matrices at one time.
 NMat=    12 NSing=    12 JSym2X= 0.
 Root      1 has converged.
 Root      2 has converged.
 Root      3 has converged.
 Root      4 not converged, maximum delta is    0.000007012450353
 Root      5 not converged, maximum delta is    0.000010460850627
 Root      6 not converged, maximum delta is    0.000021051651817
 Excitation Energies [eV] at current iteration:
 Root      1 :     3.372687039218692   Change is   -0.000000000192095
 Root      2 :     4.100942686558660   Change is   -0.000000000011226
 Root      3 :     4.254783200026502   Change is   -0.000000000032460
 Root      4 :     5.021269629080123   Change is   -0.000000006380375
 Root      5 :     5.507327774249012   Change is   -0.000000012029750
 Root      6 :     6.038548832932610   Change is   -0.000000022237494
 Iteration    10 Dimension   108 NMult   102 NNew      6
 CISAX will form     6 AO SS matrices at one time.
 NMat=     6 NSing=     6 JSym2X= 0.
 Root      1 has converged.
 Root      2 has converged.
 Root      3 has converged.
 Root      4 not converged, maximum delta is    0.000001526244875
 Root      5 not converged, maximum delta is    0.000002861751756
 Root      6 not converged, maximum delta is    0.000008138770821
 Excitation Energies [eV] at current iteration:
 Root      1 :     3.372687039217669   Change is   -0.000000000001024
 Root      2 :     4.100942686558500   Change is   -0.000000000000160
 Root      3 :     4.254783200025768   Change is   -0.000000000000734
 Root      4 :     5.021269628738852   Change is   -0.000000000341271
 Root      5 :     5.507327773386996   Change is   -0.000000000862016
 Root      6 :     6.038548830050804   Change is   -0.000000002881807
 Iteration    11 Dimension   114 NMult   108 NNew      6
 CISAX will form     6 AO SS matrices at one time.
 NMat=     6 NSing=     6 JSym2X= 0.
 Root      1 has converged.
 Root      2 has converged.
 Root      3 has converged.
 Root      4 has converged.
 Root      5 has converged.
 Root      6 not converged, maximum delta is    0.000001499846934
 Excitation Energies [eV] at current iteration:
 Root      1 :     3.372687039217523   Change is   -0.000000000000146
 Root      2 :     4.100942686558439   Change is   -0.000000000000060
 Root      3 :     4.254783200025633   Change is   -0.000000000000135
 Root      4 :     5.021269628719337   Change is   -0.000000000019515
 Root      5 :     5.507327773328333   Change is   -0.000000000058663
 Root      6 :     6.038548829769515   Change is   -0.000000000281288
 Iteration    12 Dimension   116 NMult   114 NNew      2
 CISAX will form     2 AO SS matrices at one time.
 NMat=     2 NSing=     2 JSym2X= 0.
 Root      1 has converged.
 Root      2 has converged.
 Root      3 has converged.
 Root      4 has converged.
 Root      5 has converged.
 Root      6 has converged.
 Excitation Energies [eV] at current iteration:
 Root      1 :     3.372687039217449   Change is   -0.000000000000073
 Root      2 :     4.100942686558439   Change is    0.000000000000000
 Root      3 :     4.254783200025613   Change is   -0.000000000000020
 Root      4 :     5.021269628719272   Change is   -0.000000000000065
 Root      5 :     5.507327773328154   Change is   -0.000000000000179
 Root      6 :     6.038548829748577   Change is   -0.000000000020938
 Convergence achieved on expansion vectors.
 ***********************************************************************
 Excited states from <AA,BB:AA,BB> singles matrix:
 ***********************************************************************
 
 1PDM for each excited state written to RWF  633
 Ground to excited state transition densities written to RWF  633
 Ground to excited state transition electric dipole moments (Au):
       state          X           Y           Z        Dip. S.      Osc.
         1         1.7011      0.2177      0.0581      2.9446      0.2433
         2         0.1567     -0.0051      0.0461      0.0267      0.0027
         3         0.0055      0.1752     -0.0395      0.0323      0.0034
         4         0.2018     -1.9838      0.1458      3.9973      0.4917
         5         0.0706     -1.4224      0.0171      2.0284      0.2737
         6        -0.0273      0.2779      0.0567      0.0812      0.0120
 Ground to excited state transition velocity dipole moments (Au):
       state          X           Y           Z        Dip. S.      Osc.
         1        -0.2027     -0.0225     -0.0079      0.0416      0.2240
         2        -0.0228      0.0010     -0.0040      0.0005      0.0024
         3        -0.0009     -0.0258      0.0027      0.0007      0.0029
         4        -0.0394      0.3516     -0.0222      0.1257      0.4541
         5        -0.0142      0.2832     -0.0046      0.0805      0.2650
         6         0.0068     -0.0575     -0.0321      0.0044      0.0132
 Ground to excited state transition magnetic dipole moments (Au):
       state          X           Y           Z
         1        -0.0762     -0.0065      1.4307
         2         0.8093      0.1457      0.3682
         3         0.1540      0.9998      0.1878
         4         0.0855      0.1299     -0.1260
         5         0.1964      0.1056     -0.2672
         6         0.0504      0.0228     -0.0343
 Ground to excited state transition velocity quadrupole moments (Au):
       state          XX          YY          ZZ          XY          XZ          YZ
         1        -0.1942      0.1127     -0.0006      0.5585     -0.0644      0.0121
         2         0.0019     -0.0081      0.0039      0.0619     -0.0189      0.0897
         3         0.0201     -0.0118      0.0303      0.0561     -0.0682      0.0086
         4        -1.3765      0.3219     -0.0001     -0.1292     -0.1020     -0.0529
         5        -0.4129      0.2460      0.0501     -0.2127     -0.0666      0.0443
         6        -0.3334     -0.2569      0.2137     -0.0219     -0.0433      0.1077
 <0|del|b> * <b|rxdel|0> + <0|del|b> * <b|delr+rdel|0>
 Rotatory Strengths (R) in cgs (10**-40 erg-esu-cm/Gauss)
       state          XX          YY          ZZ    R(velocity)    E-M Angle
         1       -48.5885     17.3698     55.6338      8.1384       89.16
         2        -3.6491    -50.9272    -38.1736    -30.9166      161.36
         3       -60.8945      0.4578    -54.7242    -38.3870      162.24
         4       167.1127     -2.5973      8.3939     57.6364       50.53
         5        89.0945     -5.5454     15.4829     33.0106       73.32
         6        -3.1779      2.3481      1.2595      0.1433       88.21
 1/2[<0|r|b>*<b|rxdel|0> + (<0|rxdel|b>*<b|r|0>)*]
 Rotatory Strengths (R) in cgs (10**-40 erg-esu-cm/Gauss)
       state          XX          YY          ZZ     R(length)
         1        91.6981      1.0008    -58.7322     11.3223
         2       -89.6578      0.5208    -12.0067    -33.7145
         3        -0.6004   -123.8666      5.2436    -39.7411
         4       -12.2011    182.2850     12.9972     61.0271
         5        -9.8145    106.2006      3.2370     33.2077
         6         0.9742     -4.4743      1.3753     -0.7083
  1/2[<0|del|b>*<b|r|0> + (<0|r|b>*<b|del|0>)*] (Au)
       state          X           Y           Z        Dip. S.   Osc.(frdel)
         1        -0.3448     -0.0049     -0.0005      0.3501      0.2334
         2        -0.0036     -0.0000     -0.0002      0.0038      0.0025
         3        -0.0000     -0.0045     -0.0001      0.0046      0.0031
         4        -0.0080     -0.6976     -0.0032      0.7088      0.4725
         5        -0.0010     -0.4029     -0.0001      0.4040      0.2693
         6        -0.0002     -0.0160     -0.0018      0.0180      0.0120

 Excitation energies and oscillator strengths:
 
 Excited State   1:      Singlet-A      3.3727 eV  367.61 nm  f=0.2433  <S**2>=0.000
      52 -> 53         0.69875
 This state for optimization and/or second-order correction.
 Total Energy, E(TD-HF/TD-DFT) =  -633.208299320    
 Copying the excited state density for this state as the 1-particle RhoCI density.
 
 Excited State   2:      Singlet-A      4.1009 eV  302.33 nm  f=0.0027  <S**2>=0.000
      50 -> 53         0.11658
      50 -> 54         0.19992
      51 -> 53         0.55991
      51 -> 54         0.31933
 
 Excited State   3:      Singlet-A      4.2548 eV  291.40 nm  f=0.0034  <S**2>=0.000
      49 -> 53         0.26599
      49 -> 54        -0.17836
      50 -> 53         0.50290
      50 -> 54        -0.24104
      50 -> 58         0.10674
      51 -> 53        -0.10599
      51 -> 54         0.21417
 
 Excited State   4:      Singlet-A      5.0213 eV  246.92 nm  f=0.4917  <S**2>=0.000
      49 -> 53         0.13346
      52 -> 54         0.68374
 
 Excited State   5:      Singlet-A      5.5073 eV  225.13 nm  f=0.2737  <S**2>=0.000
      49 -> 53         0.58645
      50 -> 53        -0.30710
      51 -> 53         0.15294
      52 -> 54        -0.13753
 
 Excited State   6:      Singlet-A      6.0385 eV  205.32 nm  f=0.0120  <S**2>=0.000
      52 -> 55         0.66332
      52 -> 56        -0.14219
 SavETr:  write IOETrn=   770 NScale= 10 NData=  16 NLR=1 NState=    6 LETran=     118.
 The selected state is a singlet.
 CISGrd: IGrad=1 NXY=2 DFT=T
 CISAX will form     1 AO SS matrices at one time.
 NMat=     1 NSing=     1 JSym2X= 0.
 Leave Link  914 at Sat Jan 24 22:02:14 2026, MaxMem=  2147483648 cpu:            7734.8 elap:             485.0
 (Enter /data/home/wyx/g16/l1002.exe)
 Minotr:  Closed shell wavefunction.
          Computing CIS/TDA/TD derivatives.
          Using Z-Vector for PSCF gradient.
          Skipping F1 and S1 gradient terms here.
 NEqPCM:  Using equilibrium solvation (IEInf=0, Eps=  78.3553, EpsInf=   1.7778)
          Frozen-core window.
          Direct CPHF calculation.
          Differentiating once with respect to electric field.
                with respect to dipole field.
          Electric field/nuclear overlap derivatives assumed to be zero.
          Requested convergence is 1.0D-10 RMS, and 1.0D-09 maximum.
          NewPWx=F KeepS1=T KeepF1=T KeepIn=T MapXYZ=F SortEE=F KeepMc=T.
 Two-electron integral symmetry used by symmetrizing perturbed Fock matrices.
          MDV=    2147483648 using IRadAn=       5.
          Solving linear equations separately, MaxMat=     384.
          There are     1 degrees of freedom in the 1st order CPHF.  IDoFFX=0 NUNeed=     1.
 FoFJK:  IHMeth= 1 ICntrl=       0 DoSepK=T KAlg= 0 I1Cent=           0 FoldK=F
 IRaf=         1 NMat=       1 IRICut=       1 DoRegI=T DoRafI=F ISym2E=-1 IDoP0=0 IntGTp=1.
 FoFCou: FMM=F IPFlag=           0 FMFlag=      100000 FMFlg1=           0
         NFxFlg=           0 DoJE=T BraDBF=F KetDBF=F FulRan=T
         wScrn=  0.000000 ICntrl=       500 IOpCl=  0 I1Cent=           0 NGrid=           0
         NMat0=    1 NMatS0=      1 NMatT0=    0 NMatD0=    1 NMtDS0=    0 NMtDT0=    0
 Petite list used in FoFCou.
 LinEq1:  Iter=  0 NonCon=     1 RMS=3.50D-03 Max=1.57D-01 NDo=     1
 AX will form     1 AO Fock derivatives at one time.
 LinEq1:  Iter=  1 NonCon=     1 RMS=1.36D-03 Max=7.15D-02 NDo=     1
 LinEq1:  Iter=  2 NonCon=     1 RMS=6.59D-04 Max=3.01D-02 NDo=     1
 LinEq1:  Iter=  3 NonCon=     1 RMS=3.56D-04 Max=1.67D-02 NDo=     1
 LinEq1:  Iter=  4 NonCon=     1 RMS=1.62D-04 Max=5.38D-03 NDo=     1
 LinEq1:  Iter=  5 NonCon=     1 RMS=7.98D-05 Max=2.89D-03 NDo=     1
 LinEq1:  Iter=  6 NonCon=     1 RMS=5.28D-05 Max=2.05D-03 NDo=     1
 LinEq1:  Iter=  7 NonCon=     1 RMS=2.20D-05 Max=1.27D-03 NDo=     1
 LinEq1:  Iter=  8 NonCon=     1 RMS=9.85D-06 Max=3.52D-04 NDo=     1
 LinEq1:  Iter=  9 NonCon=     1 RMS=4.76D-06 Max=2.00D-04 NDo=     1
 LinEq1:  Iter= 10 NonCon=     1 RMS=2.07D-06 Max=4.51D-05 NDo=     1
 LinEq1:  Iter= 11 NonCon=     1 RMS=1.31D-06 Max=3.82D-05 NDo=     1
 LinEq1:  Iter= 12 NonCon=     1 RMS=7.04D-07 Max=1.34D-05 NDo=     1
 LinEq1:  Iter= 13 NonCon=     1 RMS=2.65D-07 Max=5.26D-06 NDo=     1
 LinEq1:  Iter= 14 NonCon=     1 RMS=1.07D-07 Max=3.33D-06 NDo=     1
 LinEq1:  Iter= 15 NonCon=     1 RMS=6.23D-08 Max=1.98D-06 NDo=     1
 LinEq1:  Iter= 16 NonCon=     1 RMS=2.00D-08 Max=7.75D-07 NDo=     1
 LinEq1:  Iter= 17 NonCon=     1 RMS=6.77D-09 Max=2.55D-07 NDo=     1
 LinEq1:  Iter= 18 NonCon=     1 RMS=3.48D-09 Max=7.55D-08 NDo=     1
 LinEq1:  Iter= 19 NonCon=     1 RMS=1.21D-09 Max=3.29D-08 NDo=     1
 LinEq1:  Iter= 20 NonCon=     1 RMS=3.73D-10 Max=9.68D-09 NDo=     1
 LinEq1:  Iter= 21 NonCon=     1 RMS=1.67D-10 Max=4.74D-09 NDo=     1
 LinEq1:  Iter= 22 NonCon=     1 RMS=5.03D-11 Max=1.87D-09 NDo=     1
 LinEq1:  Iter= 23 NonCon=     0 RMS=1.34D-11 Max=4.09D-10 NDo=     1
 Linear equations converged to 1.000D-10 1.000D-09 after    23 iterations.
 PCM Corrected Linear-Response - Equilibrium solvation:
 Corrected transition energy               =    3.4923          eV
 Total energy after correction             = -633.203904216     a.u.
 NEqPCM:  Using non-equilibrium solvation (IEInf=1, Eps=  78.3553, EpsInf=   1.7778)
 Inv3:  Mode=1 IEnd=    13230000.
 Iteration    1 A*A^-1 deviation from unit magnitude is 3.11D-15 for   1857.
 Iteration    1 A*A^-1 deviation from orthogonality  is 3.75D-15 for   1375     45.
 Iteration    1 A^-1*A deviation from unit magnitude is 3.11D-15 for    114.
 Iteration    1 A^-1*A deviation from orthogonality  is 2.40D-15 for   1324    399.
 NEqSol: Computing the dynamic-inertial partition of the PCM polarization charges.
 End of Minotr F.D. properties file   721 does not exist.
 End of Minotr F.D. properties file   722 does not exist.
 End of Minotr F.D. properties file   788 does not exist.
 Leave Link 1002 at Sat Jan 24 22:04:14 2026, MaxMem=  2147483648 cpu:            1896.8 elap:             119.4
 (Enter /data/home/wyx/g16/l601.exe)
 Copying SCF densities to generalized density rwf, IOpCl= 0 IROHF=0.

 **********************************************************************

            Population analysis using the CI density.

 **********************************************************************

 Orbital symmetries:
       Occupied  (A) (A) (A) (A) (A) (A) (A) (A) (A) (A) (A) (A)
                 (A) (A) (A) (A) (A) (A) (A) (A) (A) (A) (A) (A)
                 (A) (A) (A) (A) (A) (A) (A) (A) (A) (A) (A) (A)
                 (A) (A) (A) (A) (A) (A) (A) (A) (A) (A) (A) (A)
                 (A) (A) (A) (A)
       Virtual   (A) (A) (A) (A) (A) (A) (A) (A) (A) (A) (A) (A)
                 (A) (A) (A) (A) (A) (A) (A) (A) (A) (A) (A) (A)
                 (A) (A) (A) (A) (A) (A) (A) (A) (A) (A) (A) (A)
                 (A) (A) (A) (A) (A) (A) (A) (A) (A) (A) (A) (A)
                 (A) (A) (A) (A) (A) (A) (A) (A) (A) (A) (A) (A)
                 (A) (A) (A) (A) (A) (A) (A) (A) (A) (A) (A) (A)
                 (A) (A) (A) (A) (A) (A) (A) (A) (A) (A) (A) (A)
                 (A) (A) (A) (A) (A) (A) (A) (A) (A) (A) (A) (A)
                 (A) (A) (A) (A) (A) (A) (A) (A) (A) (A) (A) (A)
                 (A) (A) (A) (A) (A) (A) (A) (A) (A) (A) (A) (A)
                 (A) (A) (A) (A) (A) (A) (A) (A) (A) (A) (A) (A)
                 (A) (A) (A) (A) (A) (A) (A) (A) (A) (A) (A) (A)
                 (A) (A) (A) (A) (A) (A) (A) (A) (A) (A) (A) (A)
                 (A) (A) (A) (A) (A) (A) (A) (A) (A) (A) (A) (A)
                 (A) (A) (A) (A) (A) (A) (A) (A) (A) (A) (A) (A)
                 (A) (A) (A) (A) (A) (A) (A) (A) (A) (A) (A) (A)
                 (A) (A) (A) (A) (A) (A) (A) (A) (A) (A) (A) (A)
                 (A) (A) (A) (A) (A) (A) (A) (A) (A) (A) (A) (A)
                 (A) (A) (A) (A) (A) (A) (A) (A) (A) (A) (A) (A)
                 (A) (A) (A) (A) (A) (A) (A) (A) (A) (A) (A) (A)
                 (A) (A) (A) (A) (A) (A) (A) (A) (A) (A) (A) (A)
                 (A) (A) (A) (A) (A) (A) (A) (A) (A) (A) (A) (A)
                 (A) (A) (A) (A) (A) (A) (A) (A) (A) (A) (A) (A)
                 (A) (A) (A) (A) (A) (A) (A) (A) (A) (A) (A) (A)
                 (A) (A) (A) (A) (A) (A) (A) (A) (A) (A) (A) (A)
                 (A) (A) (A) (A)
 The electronic state is 1-A.
 Alpha  occ. eigenvalues --  -19.17979 -19.17525 -14.44083 -10.33518 -10.33192
 Alpha  occ. eigenvalues --  -10.32057 -10.31567 -10.25600 -10.25045 -10.24838
 Alpha  occ. eigenvalues --  -10.24730 -10.24563 -10.24179 -10.23810  -1.12035
 Alpha  occ. eigenvalues --   -1.11671  -1.07552  -0.91207  -0.90304  -0.83875
 Alpha  occ. eigenvalues --   -0.82520  -0.81518  -0.78517  -0.73961  -0.71201
 Alpha  occ. eigenvalues --   -0.68637  -0.61611  -0.58197  -0.56825  -0.55179
 Alpha  occ. eigenvalues --   -0.54487  -0.54021  -0.52595  -0.51908  -0.50722
 Alpha  occ. eigenvalues --   -0.50091  -0.49536  -0.49110  -0.48486  -0.48151
 Alpha  occ. eigenvalues --   -0.46845  -0.45468  -0.45009  -0.43394  -0.43069
 Alpha  occ. eigenvalues --   -0.42460  -0.42107  -0.42084  -0.32821  -0.32356
 Alpha  occ. eigenvalues --   -0.31436  -0.26099
 Alpha virt. eigenvalues --   -0.02423   0.02433   0.06529   0.08249   0.08811
 Alpha virt. eigenvalues --    0.10108   0.10753   0.11994   0.12730   0.13621
 Alpha virt. eigenvalues --    0.14205   0.15087   0.15741   0.16218   0.16988
 Alpha virt. eigenvalues --    0.17505   0.17799   0.18028   0.18243   0.19206
 Alpha virt. eigenvalues --    0.20038   0.22148   0.22856   0.23419   0.23608
 Alpha virt. eigenvalues --    0.24210   0.24858   0.25691   0.25818   0.26543
 Alpha virt. eigenvalues --    0.26860   0.27358   0.28734   0.29184   0.30230
 Alpha virt. eigenvalues --    0.31632   0.32022   0.32704   0.33627   0.34431
 Alpha virt. eigenvalues --    0.35358   0.35918   0.36763   0.38127   0.38860
 Alpha virt. eigenvalues --    0.39939   0.40940   0.41797   0.42258   0.42695
 Alpha virt. eigenvalues --    0.44080   0.44241   0.45381   0.46048   0.46144
 Alpha virt. eigenvalues --    0.47329   0.47813   0.48055   0.48285   0.48993
 Alpha virt. eigenvalues --    0.49557   0.50171   0.50757   0.51356   0.51596
 Alpha virt. eigenvalues --    0.52780   0.53182   0.53442   0.54194   0.54391
 Alpha virt. eigenvalues --    0.54677   0.55940   0.56165   0.56576   0.58268
 Alpha virt. eigenvalues --    0.58606   0.59160   0.60693   0.60981   0.62591
 Alpha virt. eigenvalues --    0.63176   0.65596   0.66023   0.66399   0.67886
 Alpha virt. eigenvalues --    0.68749   0.70218   0.71316   0.72319   0.73136
 Alpha virt. eigenvalues --    0.73436   0.73825   0.74821   0.76195   0.77649
 Alpha virt. eigenvalues --    0.78147   0.79630   0.81964   0.84206   0.84787
 Alpha virt. eigenvalues --    0.89166   0.93033   0.98865   0.99760   1.24709
 Alpha virt. eigenvalues --    1.25681   1.27279   1.27647   1.29393   1.31531
 Alpha virt. eigenvalues --    1.32467   1.32984   1.34127   1.35106   1.36026
 Alpha virt. eigenvalues --    1.36498   1.37113   1.38282   1.39267   1.39857
 Alpha virt. eigenvalues --    1.40111   1.40401   1.41138   1.41597   1.41772
 Alpha virt. eigenvalues --    1.43326   1.44160   1.44600   1.45170   1.47021
 Alpha virt. eigenvalues --    1.48064   1.49042   1.49653   1.50498   1.51114
 Alpha virt. eigenvalues --    1.52120   1.52417   1.53801   1.54338   1.57630
 Alpha virt. eigenvalues --    1.58146   1.60396   1.60720   1.61250   1.62208
 Alpha virt. eigenvalues --    1.62691   1.63321   1.64248   1.65382   1.65700
 Alpha virt. eigenvalues --    1.67164   1.67505   1.67974   1.68147   1.68808
 Alpha virt. eigenvalues --    1.68867   1.69985   1.70630   1.72168   1.72324
 Alpha virt. eigenvalues --    1.73368   1.75154   1.76133   1.76697   1.78745
 Alpha virt. eigenvalues --    1.79997   1.83408   1.84587   1.86223   1.86628
 Alpha virt. eigenvalues --    1.87033   1.87297   1.88490   1.89353   1.90964
 Alpha virt. eigenvalues --    1.91438   1.94529   1.95413   1.98220   1.99622
 Alpha virt. eigenvalues --    2.00955   2.03814   2.04572   2.06559   2.09518
 Alpha virt. eigenvalues --    2.11315   2.12905   2.14644   2.16754   2.19595
 Alpha virt. eigenvalues --    2.20524   2.21344   2.21827   2.22865   2.25915
 Alpha virt. eigenvalues --    2.26976   2.27687   2.29036   2.30630   2.31577
 Alpha virt. eigenvalues --    2.33024   2.34597   2.36155   2.36788   2.37868
 Alpha virt. eigenvalues --    2.39503   2.40156   2.41619   2.43941   2.44876
 Alpha virt. eigenvalues --    2.45904   2.47591   2.50001   2.50563   2.51903
 Alpha virt. eigenvalues --    2.52975   2.53389   2.54889   2.56883   2.58765
 Alpha virt. eigenvalues --    2.59021   2.60072   2.61082   2.61805   2.62608
 Alpha virt. eigenvalues --    2.64453   2.65586   2.67122   2.67600   2.69166
 Alpha virt. eigenvalues --    2.70700   2.72070   2.72995   2.73631   2.74849
 Alpha virt. eigenvalues --    2.76318   2.76571   2.77373   2.77999   2.79289
 Alpha virt. eigenvalues --    2.80660   2.81381   2.82929   2.83444   2.84460
 Alpha virt. eigenvalues --    2.85549   2.86094   2.87815   2.90301   2.91739
 Alpha virt. eigenvalues --    2.97559   2.99672   3.01012   3.04240   3.10276
 Alpha virt. eigenvalues --    3.12302   3.15334   3.16908   3.17221   3.19776
 Alpha virt. eigenvalues --    3.20723   3.22111   3.24895   3.26174   3.27004
 Alpha virt. eigenvalues --    3.27304   3.29438   3.33373   3.34512   3.36590
 Alpha virt. eigenvalues --    3.37121   3.38880   3.39833   3.40393   3.41550
 Alpha virt. eigenvalues --    3.42750   3.44956   3.45432   3.46399   3.47928
 Alpha virt. eigenvalues --    3.48673   3.49794   3.55258   3.58235   3.59511
 Alpha virt. eigenvalues --    3.60199   3.89907   3.99648   4.33962   4.35704
 Alpha virt. eigenvalues --   21.63634  21.79258  22.08232  22.11017  22.11764
 Alpha virt. eigenvalues --   22.14534  22.15457  22.18078  22.21029  22.24745
 Alpha virt. eigenvalues --   22.30195  31.93140  43.62794  43.65132
          Condensed to atoms (all electrons):
               1          2          3          4          5          6
     1  O    8.017453  -0.000000  -0.000299   0.000018   0.021245   0.024022
     2  O   -0.000000   8.021458   0.000144   0.000030  -0.215593   0.000825
     3  N   -0.000299   0.000144   6.194449   0.367058  -0.083281   0.357386
     4  H    0.000018   0.000030   0.367058   0.391863   0.016528  -0.041984
     5  C    0.021245  -0.215593  -0.083281   0.016528   7.224372   0.007382
     6  C    0.024022   0.000825   0.357386  -0.041984   0.007382   6.002400
     7  C   -0.000618  -0.021554   0.409477  -0.037500   0.072965  -0.197212
     8  C   -0.000073   0.694078   0.004186  -0.000452  -0.283457   0.029707
     9  C   -0.034829   0.018290   0.004587  -0.001096  -0.471547  -0.182392
    10  H    0.002067   0.000045   0.000984   0.000047  -0.015431  -0.008445
    11  H    0.019571  -0.000187  -0.001379   0.000021  -0.083952   0.018073
    12  C   -0.243286  -0.001683  -0.050923   0.014706   0.039911  -0.377688
    13  C    0.691309  -0.000019  -0.000241   0.000572   0.084541   0.149121
    14  C   -0.000004  -0.017275  -0.040563  -0.009566  -0.075542   0.013174
    15  H   -0.000000   0.004380   0.004315   0.001386   0.019088   0.006136
    16  H    0.000000   0.000245  -0.002715   0.000892  -0.010463  -0.001043
    17  H   -0.000000   0.000075   0.001103   0.000766   0.000099  -0.000709
    18  C   -0.000074  -0.107120  -0.000657   0.000018  -0.295413  -0.000247
    19  H   -0.000001   0.010323   0.000006  -0.000001   0.028193   0.000022
    20  H   -0.000137   0.002342   0.000009  -0.000001   0.006152   0.000253
    21  H    0.000106   0.003711   0.000107   0.000001   0.042451  -0.001077
    22  C   -0.111519   0.000000   0.000410   0.000118   0.004698  -0.006618
    23  H    0.005034  -0.000000  -0.000161  -0.000056  -0.000728  -0.033478
    24  H    0.002164   0.000000   0.000044  -0.000015  -0.000120   0.015684
    25  H    0.009925  -0.000000   0.000010  -0.000003  -0.000136  -0.002013
    26  C    0.000783   0.000001  -0.037540  -0.007365  -0.001787   0.178701
    27  H   -0.000359  -0.000000   0.002198   0.000800  -0.000180  -0.058315
    28  H   -0.000070   0.000000  -0.002478   0.000543   0.000727  -0.052171
    29  H    0.000018   0.000000   0.002005   0.001210  -0.000626  -0.053962
               7          8          9         10         11         12
     1  O   -0.000618  -0.000073  -0.034829   0.002067   0.019571  -0.243286
     2  O   -0.021554   0.694078   0.018290   0.000045  -0.000187  -0.001683
     3  N    0.409477   0.004186   0.004587   0.000984  -0.001379  -0.050923
     4  H   -0.037500  -0.000452  -0.001096   0.000047   0.000021   0.014706
     5  C    0.072965  -0.283457  -0.471547  -0.015431  -0.083952   0.039911
     6  C   -0.197212   0.029707  -0.182392  -0.008445   0.018073  -0.377688
     7  C    5.891594  -0.222728  -0.178801  -0.003499   0.016390   0.017505
     8  C   -0.222728   5.479528   0.112738  -0.001303  -0.004996  -0.037442
     9  C   -0.178801   0.112738   6.470665   0.345142   0.494647   0.021212
    10  H   -0.003499  -0.001303   0.345142   0.478994  -0.021978   0.008939
    11  H    0.016390  -0.004996   0.494647  -0.021978   0.462202  -0.108918
    12  C    0.017505  -0.037442   0.021212   0.008939  -0.108918   7.467957
    13  C    0.010840  -0.006929  -0.281945  -0.000064   0.008205  -0.395211
    14  C    0.260494  -0.040343   0.009883  -0.000673   0.000328  -0.003140
    15  H   -0.074655   0.006698  -0.000232   0.000040   0.000003  -0.001381
    16  H   -0.038923   0.000835   0.001264  -0.000049   0.000070   0.000100
    17  H   -0.038243  -0.007939  -0.000798   0.000156  -0.000059   0.000092
    18  C    0.006000   0.302605  -0.008475  -0.006939   0.005319  -0.004234
    19  H    0.001600  -0.051428  -0.001185  -0.000072   0.000543  -0.000490
    20  H   -0.000304  -0.038581  -0.009550   0.000990  -0.002904  -0.001221
    21  H    0.001664  -0.064939  -0.007492  -0.000307  -0.003678   0.006371
    22  C   -0.000302  -0.000038  -0.001231   0.001067   0.001707  -0.282368
    23  H    0.000076  -0.000012   0.003814  -0.000110  -0.000177   0.070457
    24  H   -0.000014   0.000003  -0.003354   0.000054  -0.000125  -0.013746
    25  H    0.000029   0.000007   0.001545  -0.000015  -0.000137   0.028232
    26  C    0.006176   0.000281   0.020347  -0.000483  -0.000076  -0.074004
    27  H   -0.000508   0.000007   0.001056   0.000028   0.000013   0.001053
    28  H    0.000008  -0.000041  -0.001669  -0.000025   0.000015  -0.017193
    29  H    0.003883   0.000011  -0.000690   0.000041   0.000002   0.023331
              13         14         15         16         17         18
     1  O    0.691309  -0.000004  -0.000000   0.000000  -0.000000  -0.000074
     2  O   -0.000019  -0.017275   0.004380   0.000245   0.000075  -0.107120
     3  N   -0.000241  -0.040563   0.004315  -0.002715   0.001103  -0.000657
     4  H    0.000572  -0.009566   0.001386   0.000892   0.000766   0.000018
     5  C    0.084541  -0.075542   0.019088  -0.010463   0.000099  -0.295413
     6  C    0.149121   0.013174   0.006136  -0.001043  -0.000709  -0.000247
     7  C    0.010840   0.260494  -0.074655  -0.038923  -0.038243   0.006000
     8  C   -0.006929  -0.040343   0.006698   0.000835  -0.007939   0.302605
     9  C   -0.281945   0.009883  -0.000232   0.001264  -0.000798  -0.008475
    10  H   -0.000064  -0.000673   0.000040  -0.000049   0.000156  -0.006939
    11  H    0.008205   0.000328   0.000003   0.000070  -0.000059   0.005319
    12  C   -0.395211  -0.003140  -0.001381   0.000100   0.000092  -0.004234
    13  C    5.529871  -0.000115  -0.000018  -0.000057   0.000008   0.000593
    14  C   -0.000115   5.063777   0.383785   0.418911   0.426308   0.001470
    15  H   -0.000018   0.383785   0.575408  -0.025740  -0.027096   0.000341
    16  H   -0.000057   0.418911  -0.025740   0.531095  -0.031500  -0.000238
    17  H    0.000008   0.426308  -0.027096  -0.031500   0.518913  -0.000032
    18  C    0.000593   0.001470   0.000341  -0.000238  -0.000032   5.411432
    19  H   -0.000027   0.000049  -0.000008   0.000004   0.000011   0.379388
    20  H    0.000222  -0.000364  -0.000007  -0.000046   0.000045   0.400061
    21  H    0.000396   0.000140  -0.000022   0.000013  -0.000072   0.376896
    22  C    0.296678  -0.000015   0.000002   0.000000  -0.000000   0.000018
    23  H   -0.093561  -0.000001   0.000000   0.000000   0.000000   0.000003
    24  H   -0.029209  -0.000001   0.000000  -0.000000   0.000000  -0.000002
    25  H   -0.042298   0.000001   0.000000   0.000000  -0.000000   0.000000
    26  C   -0.050156   0.000785   0.000241  -0.000179   0.000054   0.000026
    27  H   -0.004172   0.000094  -0.000009   0.000007  -0.000003   0.000000
    28  H    0.006732  -0.000338   0.000008  -0.000054   0.000008  -0.000000
    29  H   -0.000101   0.000080   0.000064   0.000012  -0.000008   0.000000
              19         20         21         22         23         24
     1  O   -0.000001  -0.000137   0.000106  -0.111519   0.005034   0.002164
     2  O    0.010323   0.002342   0.003711   0.000000  -0.000000   0.000000
     3  N    0.000006   0.000009   0.000107   0.000410  -0.000161   0.000044
     4  H   -0.000001  -0.000001   0.000001   0.000118  -0.000056  -0.000015
     5  C    0.028193   0.006152   0.042451   0.004698  -0.000728  -0.000120
     6  C    0.000022   0.000253  -0.001077  -0.006618  -0.033478   0.015684
     7  C    0.001600  -0.000304   0.001664  -0.000302   0.000076  -0.000014
     8  C   -0.051428  -0.038581  -0.064939  -0.000038  -0.000012   0.000003
     9  C   -0.001185  -0.009550  -0.007492  -0.001231   0.003814  -0.003354
    10  H   -0.000072   0.000990  -0.000307   0.001067  -0.000110   0.000054
    11  H    0.000543  -0.002904  -0.003678   0.001707  -0.000177  -0.000125
    12  C   -0.000490  -0.001221   0.006371  -0.282368   0.070457  -0.013746
    13  C   -0.000027   0.000222   0.000396   0.296678  -0.093561  -0.029209
    14  C    0.000049  -0.000364   0.000140  -0.000015  -0.000001  -0.000001
    15  H   -0.000008  -0.000007  -0.000022   0.000002   0.000000   0.000000
    16  H    0.000004  -0.000046   0.000013   0.000000   0.000000  -0.000000
    17  H    0.000011   0.000045  -0.000072  -0.000000   0.000000   0.000000
    18  C    0.379388   0.400061   0.376896   0.000018   0.000003  -0.000002
    19  H    0.515539  -0.012235  -0.018254  -0.000001   0.000000  -0.000000
    20  H   -0.012235   0.516841  -0.028892  -0.000002  -0.000000   0.000001
    21  H   -0.018254  -0.028892   0.542647   0.000011  -0.000000  -0.000000
    22  C   -0.000001  -0.000002   0.000011   5.456250   0.393751   0.404026
    23  H    0.000000  -0.000000  -0.000000   0.393751   0.543794  -0.026598
    24  H   -0.000000   0.000001  -0.000000   0.404026  -0.026598   0.506285
    25  H    0.000000  -0.000002   0.000000   0.368450  -0.020623  -0.013131
    26  C    0.000001   0.000005  -0.000014  -0.031297   0.014833  -0.014350
    27  H    0.000000  -0.000000   0.000000   0.008444  -0.009937  -0.003964
    28  H   -0.000000   0.000001  -0.000000  -0.011939  -0.002122   0.002515
    29  H    0.000000  -0.000000   0.000000   0.001854   0.000808   0.000005
              25         26         27         28         29
     1  O    0.009925   0.000783  -0.000359  -0.000070   0.000018
     2  O   -0.000000   0.000001  -0.000000   0.000000   0.000000
     3  N    0.000010  -0.037540   0.002198  -0.002478   0.002005
     4  H   -0.000003  -0.007365   0.000800   0.000543   0.001210
     5  C   -0.000136  -0.001787  -0.000180   0.000727  -0.000626
     6  C   -0.002013   0.178701  -0.058315  -0.052171  -0.053962
     7  C    0.000029   0.006176  -0.000508   0.000008   0.003883
     8  C    0.000007   0.000281   0.000007  -0.000041   0.000011
     9  C    0.001545   0.020347   0.001056  -0.001669  -0.000690
    10  H   -0.000015  -0.000483   0.000028  -0.000025   0.000041
    11  H   -0.000137  -0.000076   0.000013   0.000015   0.000002
    12  C    0.028232  -0.074004   0.001053  -0.017193   0.023331
    13  C   -0.042298  -0.050156  -0.004172   0.006732  -0.000101
    14  C    0.000001   0.000785   0.000094  -0.000338   0.000080
    15  H    0.000000   0.000241  -0.000009   0.000008   0.000064
    16  H    0.000000  -0.000179   0.000007  -0.000054   0.000012
    17  H   -0.000000   0.000054  -0.000003   0.000008  -0.000008
    18  C    0.000000   0.000026   0.000000  -0.000000   0.000000
    19  H    0.000000   0.000001   0.000000  -0.000000   0.000000
    20  H   -0.000002   0.000005  -0.000000   0.000001  -0.000000
    21  H    0.000000  -0.000014   0.000000  -0.000000   0.000000
    22  C    0.368450  -0.031297   0.008444  -0.011939   0.001854
    23  H   -0.020623   0.014833  -0.009937  -0.002122   0.000808
    24  H   -0.013131  -0.014350  -0.003964   0.002515   0.000005
    25  H    0.516904   0.001752   0.001492  -0.000379  -0.000030
    26  C    0.001752   5.238469   0.427401   0.436683   0.392952
    27  H    0.001492   0.427401   0.523665  -0.034477  -0.022622
    28  H   -0.000379   0.436683  -0.034477   0.507878  -0.020824
    29  H   -0.000030   0.392952  -0.022622  -0.020824   0.520810
 Mulliken charges:
               1
     1  O   -0.402447
     2  O   -0.392518
     3  N   -0.128244
     4  H    0.301462
     5  C   -0.030095
     6  C    0.214466
     7  C    0.116159
     8  C    0.130017
     9  C   -0.319904
    10  H    0.220797
    11  H    0.201457
    12  C   -0.086937
    13  C    0.125036
    14  C   -0.391337
    15  H    0.127275
    16  H    0.157556
    17  H    0.158822
    18  C   -0.460739
    19  H    0.148025
    20  H    0.167322
    21  H    0.150234
    22  C   -0.492154
    23  H    0.154994
    24  H    0.173849
    25  H    0.150418
    26  C   -0.502240
    27  H    0.168285
    28  H    0.188662
    29  H    0.151777
 Sum of Mulliken charges =  -0.00000
 Mulliken charges with hydrogens summed into heavy atoms:
               1
     1  O   -0.402447
     2  O   -0.392518
     3  N    0.173219
     5  C   -0.030095
     6  C    0.214466
     7  C    0.116159
     8  C    0.130017
     9  C    0.102351
    12  C   -0.086937
    13  C    0.125036
    14  C    0.052317
    18  C    0.004842
    22  C   -0.012893
    26  C    0.006484
 Electronic spatial extent (au):  <R**2>=           3189.7915
 Charge=             -0.0000 electrons
 Dipole moment (field-independent basis, Debye):
    X=             -3.6272    Y=              8.0931    Z=             -0.9298  Tot=              8.9174
 Quadrupole moment (field-independent basis, Debye-Ang):
   XX=           -105.2669   YY=            -79.1013   ZZ=            -84.7123
   XY=            -13.3186   XZ=             -5.9216   YZ=             -1.3393
 Traceless Quadrupole moment (field-independent basis, Debye-Ang):
   XX=            -15.5734   YY=             10.5922   ZZ=              4.9812
   XY=            -13.3186   XZ=             -5.9216   YZ=             -1.3393
 Octapole moment (field-independent basis, Debye-Ang**2):
  XXX=           -105.5214  YYY=             71.4036  ZZZ=              0.0384  XYY=             36.5943
  XXY=             33.8004  XXZ=            -12.0861  XZZ=             -2.3829  YZZ=             -1.3275
  YYZ=              1.2131  XYZ=              5.3874
 Hexadecapole moment (field-independent basis, Debye-Ang**3):
 XXXX=          -3116.0960 YYYY=          -1279.8074 ZZZZ=           -156.4904 XXXY=            -43.8888
 XXXZ=            -68.1372 YYYX=            -91.0539 YYYZ=            -23.4220 ZZZX=              2.1693
 ZZZY=              7.0839 XXYY=           -716.8537 XXZZ=           -495.4859 YYZZ=           -243.0647
 XXYZ=             -6.6467 YYXZ=             -7.2549 ZZXY=              0.9402
 N-N= 9.008072063323D+02 E-N=-3.277236409149D+03  KE= 6.307982650520D+02
 No NMR shielding tensors so no spin-rotation constants.
 Leave Link  601 at Sat Jan 24 22:04:15 2026, MaxMem=  2147483648 cpu:               1.8 elap:               0.1
 (Enter /data/home/wyx/g16/l9999.exe)
 Electronic transition elements 
                 1             2             3             4             5 
      1  -0.633208D+03 -0.633182D+03 -0.633176D+03 -0.633148D+03 -0.633130D+03
      2  -0.163074D+01 -0.133875D+00 -0.710716D-01  0.502298D+00  0.411408D+00
      3  -0.372698D+00 -0.579683D-01  0.162970D+00 -0.193462D+01 -0.136192D+01
      4  -0.382646D+00 -0.735423D-01  0.259773D-01 -0.469711D-01  0.656210D-01
      5   0.192926D+00  0.199133D-01  0.998084D-02 -0.849573D-01 -0.820111D-01
      6   0.476705D-01  0.867069D-02 -0.239833D-01  0.344169D+00  0.271267D+00
      7   0.463270D-01  0.801974D-02 -0.737923D-03  0.540820D-02 -0.118599D-01
      8   0.351170D+00 -0.723554D+00 -0.438194D+00 -0.146686D+00 -0.268436D+00
      9   0.183279D-01 -0.137978D+00  0.887938D+00  0.933269D-01  0.329071D-01
     10  -0.138892D+01 -0.518918D+00 -0.279377D+00  0.992596D-01  0.219094D+00
     11   0.211595D+00  0.340698D-01  0.748285D-01 -0.117211D+01 -0.434761D+00
     12  -0.279351D+00 -0.466654D-01 -0.439922D-01  0.208834D+00  0.305789D+00
     13  -0.143397D-01  0.102669D-01  0.784759D-02 -0.914022D-01  0.121455D-01
     14  -0.511308D+00 -0.259562D-01 -0.263672D-01 -0.437346D+00 -0.332930D-01
     15  -0.138177D-01  0.186555D-01 -0.523152D-01 -0.346175D+00 -0.143922D+00
     16  -0.135189D+00 -0.976495D-01 -0.370326D-01 -0.715806D-01 -0.723927D-01
                 6 
      1  -0.633110D+03
      2  -0.562392D-01
      3   0.270635D+00
      4  -0.692073D-01
      5   0.661912D-02
      6  -0.563763D-01
      7   0.340936D-01
      8  -0.608068D-01
      9   0.432682D-02
     10   0.229160D-01
     11  -0.315992D+00
     12  -0.252005D+00
     13   0.191357D+00
     14   0.150555D-01
     15  -0.109379D+00
     16  -0.114752D+00
 1\1\GINC-CN012\SP\RCAM-B3LYP TD-FC\TZVP\C11H15N1O2\WYX\24-Jan-2026\0\\
 #p CAM-B3LYP TZVP em=gd3bj td(nstates=6,root=1) scrf=(Solvent=Water,Co
 rrectedLR,NonEquilibrium=Save) Geom=Check Guess=Read\\Title Card Requi
 red\\0,1\O,0,2.74408,-1.558299,0.749034\O,0,-3.230656,-1.641882,-1.096
 703\N,0,-0.708613,1.513486,0.113102\H,0,-1.016805,2.471204,0.055253\C,
 0,-1.248516,-0.758707,-0.15312\C,0,0.641061,1.302995,0.278281\C,0,-1.6
 20382,0.546537,-0.230096\C,0,-2.151921,-1.835866,-0.543762\C,0,0.09815
 4,-1.104499,0.425558\H,0,-0.00759,-1.433582,1.468704\H,0,0.525473,-1.9
 63788,-0.088273\C,0,1.094001,0.024796,0.35723\C,0,2.491045,-0.390769,0
 .459368\C,0,-2.945089,1.084984,-0.656635\H,0,-3.0387,2.13535,-0.386148
 \H,0,-3.065811,0.997733,-1.734698\H,0,-3.759662,0.527107,-0.20838\C,0,
 -1.7223,-3.250288,-0.252087\H,0,-2.559188,-3.921853,-0.415316\H,0,-0.9
 08283,-3.542521,-0.91586\H,0,-1.357325,-3.363233,0.766948\C,0,3.647078
 ,0.538279,0.181779\H,0,3.449182,1.236989,-0.626618\H,0,3.894563,1.1129
 51,1.076002\H,0,4.510429,-0.073281,-0.070063\C,0,1.418371,2.580018,0.3
 50038\H,0,2.251852,2.5179,1.038412\H,0,1.803165,2.859635,-0.631042\H,0
 ,0.772387,3.388601,0.689092\\Version=ES64L-G16RevA.03\State=1-A\HF=-63
 3.3322433\RMSD=2.543e-09\Dipole=0.1860511,3.4798024,0.4063552\Quadrupo
 le=-13.2133725,11.955607,1.2577655,1.4886794,-7.8402692,-0.2813148\PG=
 C01 [X(C11H15N1O2)]\\@


 IT IS A QUALITY OF REVOLUTIONS NOT TO GO BY OLD LINES OR OLD LAWS,
 BUT TO BREAK UP BOTH, AND MAKE NEW ONES.
                                              -- A. LINCOLN (1848)
 Job cpu time:       0 days  2 hours 42 minutes 10.3 seconds.
 Elapsed time:       0 days  0 hours 10 minutes 11.1 seconds.
 File lengths (MBytes):  RWF=    734 Int=      0 D2E=      0 Chk=     67 Scr=      1
 Normal termination of Gaussian 16 at Sat Jan 24 22:04:17 2026.
