 Entering Gaussian System, Link 0=g16
 Input=DDL-LR-Eq-12.gjf
 Output=DDL-LR-Eq-12.log
 Initial command:
 /data/home/wyx/g16/l1.exe "/scr/tmp/wyx/13117/Gau-2014045.inp" -scrdir="/scr/tmp/wyx/13117/"
 Entering Link 1 = /data/home/wyx/g16/l1.exe PID=   2014046.
  
 Copyright (c) 1988,1990,1992,1993,1995,1998,2003,2009,2016,
            Gaussian, Inc.  All Rights Reserved.
  
 This is part of the Gaussian(R) 16 program.  It is based on
 the Gaussian(R) 09 system (copyright 2009, Gaussian, Inc.),
 the Gaussian(R) 03 system (copyright 2003, Gaussian, Inc.),
 the Gaussian(R) 98 system (copyright 1998, Gaussian, Inc.),
 the Gaussian(R) 94 system (copyright 1995, Gaussian, Inc.),
 the Gaussian 92(TM) system (copyright 1992, Gaussian, Inc.),
 the Gaussian 90(TM) system (copyright 1990, Gaussian, Inc.),
 the Gaussian 88(TM) system (copyright 1988, Gaussian, Inc.),
 the Gaussian 86(TM) system (copyright 1986, Carnegie Mellon
 University), and the Gaussian 82(TM) system (copyright 1983,
 Carnegie Mellon University). Gaussian is a federally registered
 trademark of Gaussian, Inc.
  
 This software contains proprietary and confidential information,
 including trade secrets, belonging to Gaussian, Inc.
  
 This software is provided under written license and may be
 used, copied, transmitted, or stored only in accord with that
 written license.
  
 The following legend is applicable only to US Government
 contracts under FAR:
  
                    RESTRICTED RIGHTS LEGEND
  
 Use, reproduction and disclosure by the US Government is
 subject to restrictions as set forth in subparagraphs (a)
 and (c) of the Commercial Computer Software - Restricted
 Rights clause in FAR 52.227-19.
  
 Gaussian, Inc.
 340 Quinnipiac St., Bldg. 40, Wallingford CT 06492
  
  
 ---------------------------------------------------------------
 Warning -- This program may not be used in any manner that
 competes with the business of Gaussian, Inc. or will provide
 assistance to any competitor of Gaussian, Inc.  The licensee
 of this program is prohibited from giving any competitor of
 Gaussian, Inc. access to this program.  By using this program,
 the user acknowledges that Gaussian, Inc. is engaged in the
 business of creating and licensing software in the field of
 computational chemistry and represents and warrants to the
 licensee that it is not a competitor of Gaussian, Inc. and that
 it will not use this program in any manner prohibited above.
 ---------------------------------------------------------------
  

 Cite this work as:
 Gaussian 16, Revision A.03,
 M. J. Frisch, G. W. Trucks, H. B. Schlegel, G. E. Scuseria, 
 M. A. Robb, J. R. Cheeseman, G. Scalmani, V. Barone, 
 G. A. Petersson, H. Nakatsuji, X. Li, M. Caricato, A. V. Marenich, 
 J. Bloino, B. G. Janesko, R. Gomperts, B. Mennucci, H. P. Hratchian, 
 J. V. Ortiz, A. F. Izmaylov, J. L. Sonnenberg, D. Williams-Young, 
 F. Ding, F. Lipparini, F. Egidi, J. Goings, B. Peng, A. Petrone, 
 T. Henderson, D. Ranasinghe, V. G. Zakrzewski, J. Gao, N. Rega, 
 G. Zheng, W. Liang, M. Hada, M. Ehara, K. Toyota, R. Fukuda, 
 J. Hasegawa, M. Ishida, T. Nakajima, Y. Honda, O. Kitao, H. Nakai, 
 T. Vreven, K. Throssell, J. A. Montgomery, Jr., J. E. Peralta, 
 F. Ogliaro, M. J. Bearpark, J. J. Heyd, E. N. Brothers, K. N. Kudin, 
 V. N. Staroverov, T. A. Keith, R. Kobayashi, J. Normand, 
 K. Raghavachari, A. P. Rendell, J. C. Burant, S. S. Iyengar, 
 J. Tomasi, M. Cossi, J. M. Millam, M. Klene, C. Adamo, R. Cammi, 
 J. W. Ochterski, R. L. Martin, K. Morokuma, O. Farkas, 
 J. B. Foresman, and D. J. Fox, Gaussian, Inc., Wallingford CT, 2016.
 
 ******************************************
 Gaussian 16:  ES64L-G16RevA.03 25-Dec-2016
                24-Jan-2026 
 ******************************************
 %nprocshared=16
 Will use up to   16 processors via shared memory.
 %mem=16GB
 %oldchk=DDL-LR-12.chk
 %chk=DDL-LR-Eq-12.chk
 Copying data from "DDL-LR-12.chk" to current chk file "DDL-LR-Eq-12.chk"
 IOpt=  2 FromEx=T IUOpen= 4 IOptOp= 5 NList=   0 IFRang= 0 IUIn= 4 IUOut= 2.
 ----------------------------------------------------------------------
 #p CAM-B3LYP TZVP em=gd3bj td(Eqsolv,nstates=6,root=1) scrf=(Solvent=W
 ater) Geom=Check Guess=Read
 ----------------------------------------------------------------------
 1/29=2,38=1,172=1/1;
 2/12=2,40=1/2;
 3/5=19,7=101,11=9,14=-4,25=1,30=1,70=2201,72=1,74=-40,116=-2,124=41/1,2,3,8;
 4/5=1/1;
 5/5=2,38=6,53=1/2;
 8/6=1,10=1,107=1,108=6/1;
 9/8=1,41=6,42=1,70=2,73=2/14;
 6/7=2,8=2,9=2,10=2/1;
 99/5=1,9=1/99;
 Leave Link    1 at Sat Jan 24 16:29:32 2026, MaxMem=  2147483648 cpu:               0.8 elap:               0.2
 (Enter /data/home/wyx/g16/l101.exe)
 -------------------
 Title Card Required
 -------------------
 Structure from the checkpoint file:  "DDL-LR-Eq-12.chk"
 Charge =  0 Multiplicity = 1
 Z-Matrix found in chk file.
 O,0,2.739089,-1.55862,0.771511
 O,0,-3.245355,-1.645769,-1.059826
 N,0,-0.703705,1.514226,0.080834
 H,0,-1.011972,2.472492,0.020982
 C,0,-1.249387,-0.759555,-0.157148
 C,0,0.641581,1.308914,0.263892
 C,0,-1.621687,0.551929,-0.241609
 C,0,-2.154488,-1.838532,-0.528575
 C,0,0.10247,-1.099823,0.397526
 H,0,0.008954,-1.449804,1.435936
 H,0,0.527941,-1.953591,-0.129178
 C,0,1.096136,0.025281,0.348733
 C,0,2.489041,-0.391686,0.469907
 C,0,-2.950424,1.088404,-0.650903
 H,0,-3.033347,2.146532,-0.412091
 H,0,-3.102525,0.969311,-1.720644
 H,0,-3.757771,0.553276,-0.16516
 C,0,-1.718625,-3.25257,-0.252146
 H,0,-2.561654,-3.923218,-0.376604
 H,0,-0.937936,-3.552174,-0.94991
 H,0,-1.310311,-3.369913,0.74819
 C,0,3.647592,0.535486,0.197444
 H,0,3.453072,1.238051,-0.60837
 H,0,3.89654,1.105737,1.094232
 H,0,4.509567,-0.077312,-0.056519
 C,0,1.417259,2.583987,0.353938
 H,0,2.231353,2.519066,1.064883
 H,0,1.831768,2.863832,-0.614382
 H,0,0.766824,3.396041,0.675055
 Recover connectivity data from disk.
 ITRead=  0  0  0  0  0  0  0  0  0  0  0  0  0  0  0  0  0  0  0  0
 ITRead=  0  0  0  0  0  0  0  0  0
 MicOpt= -1 -1 -1 -1 -1 -1 -1 -1 -1 -1 -1 -1 -1 -1 -1 -1 -1 -1 -1 -1
 MicOpt= -1 -1 -1 -1 -1 -1 -1 -1 -1
 NAtoms=     29 NQM=       29 NQMF=       0 NMMI=      0 NMMIF=      0
                NMic=       0 NMicF=      0.
                    Isotopes and Nuclear Properties:
 (Nuclear quadrupole moments (NQMom) in fm**2, nuclear magnetic moments (NMagM)
  in nuclear magnetons)

  Atom         1           2           3           4           5           6           7           8           9          10
 IAtWgt=          16          16          14           1          12          12          12          12          12           1
 AtmWgt=  15.9949146  15.9949146  14.0030740   1.0078250  12.0000000  12.0000000  12.0000000  12.0000000  12.0000000   1.0078250
 NucSpn=           0           0           2           1           0           0           0           0           0           1
 AtZEff=   5.6000000   5.6000000   4.5500000   1.0000000   3.6000000   3.6000000   3.6000000   3.6000000   3.6000000   1.0000000
 NQMom=    0.0000000   0.0000000   2.0440000   0.0000000   0.0000000   0.0000000   0.0000000   0.0000000   0.0000000   0.0000000
 NMagM=    0.0000000   0.0000000   0.4037610   2.7928460   0.0000000   0.0000000   0.0000000   0.0000000   0.0000000   2.7928460
 AtZNuc=   8.0000000   8.0000000   7.0000000   1.0000000   6.0000000   6.0000000   6.0000000   6.0000000   6.0000000   1.0000000

  Atom        11          12          13          14          15          16          17          18          19          20
 IAtWgt=           1          12          12          12           1           1           1          12           1           1
 AtmWgt=   1.0078250  12.0000000  12.0000000  12.0000000   1.0078250   1.0078250   1.0078250  12.0000000   1.0078250   1.0078250
 NucSpn=           1           0           0           0           1           1           1           0           1           1
 AtZEff=   1.0000000   3.6000000   3.6000000   3.6000000   1.0000000   1.0000000   1.0000000   3.6000000   1.0000000   1.0000000
 NQMom=    0.0000000   0.0000000   0.0000000   0.0000000   0.0000000   0.0000000   0.0000000   0.0000000   0.0000000   0.0000000
 NMagM=    2.7928460   0.0000000   0.0000000   0.0000000   2.7928460   2.7928460   2.7928460   0.0000000   2.7928460   2.7928460
 AtZNuc=   1.0000000   6.0000000   6.0000000   6.0000000   1.0000000   1.0000000   1.0000000   6.0000000   1.0000000   1.0000000

  Atom        21          22          23          24          25          26          27          28          29
 IAtWgt=           1          12           1           1           1          12           1           1           1
 AtmWgt=   1.0078250  12.0000000   1.0078250   1.0078250   1.0078250  12.0000000   1.0078250   1.0078250   1.0078250
 NucSpn=           1           0           1           1           1           0           1           1           1
 AtZEff=   1.0000000   3.6000000   1.0000000   1.0000000   1.0000000   3.6000000   1.0000000   1.0000000   1.0000000
 NQMom=    0.0000000   0.0000000   0.0000000   0.0000000   0.0000000   0.0000000   0.0000000   0.0000000   0.0000000
 NMagM=    2.7928460   0.0000000   2.7928460   2.7928460   2.7928460   0.0000000   2.7928460   2.7928460   2.7928460
 AtZNuc=   1.0000000   6.0000000   1.0000000   1.0000000   1.0000000   6.0000000   1.0000000   1.0000000   1.0000000
 Leave Link  101 at Sat Jan 24 16:29:34 2026, MaxMem=  2147483648 cpu:               0.9 elap:               0.1
 (Enter /data/home/wyx/g16/l202.exe)
                          Input orientation:                          
 ---------------------------------------------------------------------
 Center     Atomic      Atomic             Coordinates (Angstroms)
 Number     Number       Type             X           Y           Z
 ---------------------------------------------------------------------
      1          8           0        2.739089   -1.558620    0.771511
      2          8           0       -3.245355   -1.645769   -1.059826
      3          7           0       -0.703705    1.514226    0.080834
      4          1           0       -1.011972    2.472492    0.020982
      5          6           0       -1.249387   -0.759555   -0.157148
      6          6           0        0.641581    1.308914    0.263892
      7          6           0       -1.621687    0.551929   -0.241609
      8          6           0       -2.154488   -1.838532   -0.528575
      9          6           0        0.102470   -1.099823    0.397526
     10          1           0        0.008954   -1.449804    1.435936
     11          1           0        0.527941   -1.953591   -0.129178
     12          6           0        1.096136    0.025281    0.348733
     13          6           0        2.489041   -0.391686    0.469907
     14          6           0       -2.950424    1.088404   -0.650903
     15          1           0       -3.033347    2.146532   -0.412091
     16          1           0       -3.102525    0.969311   -1.720644
     17          1           0       -3.757771    0.553276   -0.165160
     18          6           0       -1.718625   -3.252570   -0.252146
     19          1           0       -2.561654   -3.923218   -0.376604
     20          1           0       -0.937936   -3.552174   -0.949910
     21          1           0       -1.310311   -3.369913    0.748190
     22          6           0        3.647592    0.535486    0.197444
     23          1           0        3.453072    1.238051   -0.608370
     24          1           0        3.896540    1.105737    1.094232
     25          1           0        4.509567   -0.077312   -0.056519
     26          6           0        1.417259    2.583987    0.353938
     27          1           0        2.231353    2.519066    1.064883
     28          1           0        1.831768    2.863832   -0.614382
     29          1           0        0.766824    3.396041    0.675055
 ---------------------------------------------------------------------
                    Distance matrix (angstroms):
                    1          2          3          4          5
     1  O    0.000000
     2  O    6.258990   0.000000
     3  N    4.666074   4.212678   0.000000
     4  H    5.557303   4.807933   1.008407   0.000000
     5  C    4.172392   2.363068   2.350422   3.245647   0.000000
     6  C    3.588867   5.058720   1.373120   2.036457   2.834008
     7  C    4.949464   2.852307   1.368458   2.032060   1.365918
     8  C    5.071062   1.228567   3.703665   4.493582   1.456488
     9  C    2.702243   3.691865   2.753809   3.761011   1.500321
    10  H    2.811928   4.105820   3.336114   4.292877   2.144244
    11  H    2.420004   3.898541   3.686029   4.688720   2.141355
    12  C    2.320943   4.860555   2.351203   3.246595   2.524552
    13  C    1.230944   6.065979   3.738650   4.545563   3.808460
    14  C    6.434326   2.780271   2.400939   2.474818   2.559741
    15  H    6.960609   3.853058   2.463741   2.092787   3.419481
    16  H    6.835622   2.701060   3.049031   3.108573   2.977855
    17  H    6.895408   2.428744   3.211115   3.355213   2.831180
    18  C    4.877351   2.359038   4.885006   5.774971   2.538569
    19  H    5.916702   2.474068   5.764288   6.592776   3.432050
    20  H    4.523059   2.995103   5.175491   6.102845   2.919622
    21  H    4.436098   3.160062   4.966704   5.895043   2.763570
    22  C    2.353765   7.338346   4.461537   5.049224   5.077723
    23  H    3.199252   7.306788   4.222567   4.675099   5.129050
    24  H    2.922779   7.950938   4.728223   5.207050   5.614787
    25  H    2.452448   7.975305   5.452528   6.082343   5.800098
    26  C    4.368386   6.452095   2.391122   2.454476   4.307143
    27  H    4.119634   7.201012   3.254631   3.407500   4.935409
    28  H    4.722501   6.805299   2.955230   2.940016   4.778233
    29  H    5.333648   6.672873   2.461053   2.108286   4.693255
                    6          7          8          9         10
     6  C    0.000000
     7  C    2.439455   0.000000
     8  C    4.283973   2.465873   0.000000
     9  C    2.471945   2.471739   2.548963   0.000000
    10  H    3.063402   3.078974   2.948032   1.099785   0.000000
    11  H    3.288063   3.303206   2.714440   1.089662   1.724161
    12  C    1.364380   2.830622   3.848379   1.501869   2.130693
    13  C    2.519443   4.277236   4.965148   2.490465   2.864203
    14  C    3.713216   1.490258   3.035693   3.899705   4.422139
    15  H    3.829315   2.136494   4.082487   4.585591   5.060082
    16  H    4.251123   2.134159   3.194336   4.363479   5.049497
    17  H    4.484347   2.137452   2.902298   4.236840   4.556759
    18  C    5.161783   3.805748   1.505288   2.893576   3.013987
    19  H    6.168157   4.574790   2.129506   3.958332   4.001388
    20  H    5.253415   4.220529   2.143383   2.985306   3.317954
    21  H    5.092725   4.056785   2.165154   2.696706   2.429048
    22  C    3.104627   5.287565   6.310879   3.909240   4.326075
    23  H    2.944545   5.134049   6.396597   4.207614   4.823453
    24  H    3.365339   5.704560   6.922222   4.443519   4.664855
    25  H    4.121359   6.166237   6.909006   4.546888   4.936261
    26  C    1.495191   3.703934   5.752815   3.911653   4.407438
    27  H    2.152540   4.519122   6.384620   4.251337   4.563843
    28  H    2.146085   4.172554   6.165211   4.441283   5.112134
    29  H    2.130925   3.825471   6.114208   4.553151   4.963418
                   11         12         13         14         15
    11  H    0.000000
    12  C    2.113570   0.000000
    13  C    2.577666   1.459016   0.000000
    14  C    4.650264   4.301645   5.747579   0.000000
    15  H    5.438182   4.704380   6.141436   1.087907   0.000000
    16  H    4.925079   4.775172   6.157632   1.087044   1.761518
    17  H    4.965179   4.909509   6.349718   1.083567   1.767549
    18  C    2.597985   4.362137   5.139112   4.529944   5.559171
    19  H    3.672363   5.431039   6.220757   5.034157   6.088154
    20  H    2.319022   4.315334   4.873267   5.066999   6.095510
    21  H    2.480910   4.180657   4.835530   4.952173   5.894597
    22  C    4.004299   2.606362   1.508683   6.675270   6.899417
    23  H    4.355754   2.818156   2.179009   6.405386   6.552671
    24  H    4.712078   3.092801   2.147815   7.065884   7.167677
    25  H    4.402164   3.438934   2.111511   7.573880   7.871942
    26  C    4.649075   2.578783   3.164932   4.724736   4.537186
    27  H    4.932753   2.832058   2.982093   5.642830   5.480630
    28  H    5.014275   3.086441   3.493721   5.101259   4.921868
    29  H    5.415018   3.402493   4.165932   4.571792   4.145414
                   16         17         18         19         20
    16  H    0.000000
    17  H    1.738379   0.000000
    18  C    4.679310   4.318582   0.000000
    19  H    5.102531   4.638362   1.084415   0.000000
    20  H    5.071815   5.042026   1.089088   1.761481   0.000000
    21  H    5.304341   4.713351   1.086813   1.771205   1.747978
    22  C    7.030743   7.414256   6.583903   7.665788   6.249196
    23  H    6.654715   7.256832   6.858500   7.929019   6.507216
    24  H    7.545134   7.776873   7.234477   8.316370   7.017607
    25  H    7.861849   8.292064   6.993633   8.055781   6.522891
    26  C    5.228720   5.583385   6.653308   7.662190   6.700704
    27  H    6.213788   6.422378   7.116788   8.158053   7.138889
    28  H    5.400025   6.064933   7.081446   8.088433   6.996354
    29  H    5.157543   5.409181   7.158295   8.109026   7.336512
                   21         22         23         24         25
    21  H    0.000000
    22  C    6.335319   0.000000
    23  H    6.764865   1.086633   0.000000
    24  H    6.874772   1.091508   1.764376   0.000000
    25  H    6.734965   1.087667   1.775078   1.760578   0.000000
    26  C    6.560792   3.032364   2.623379   2.979948   4.100409
    27  H    6.879226   2.587039   2.435851   2.184309   3.631664
    28  H    7.112583   3.062266   2.296046   3.205237   4.016484
    29  H    7.077992   4.087751   3.676959   3.900811   5.158246
                   26         27         28         29
    26  C    0.000000
    27  H    1.082777   0.000000
    28  H    1.089851   1.760245   0.000000
    29  H    1.088859   1.750970   1.754993   0.000000
 Stoichiometry    C11H15NO2
 Framework group  C1[X(C11H15NO2)]
 Deg. of freedom    81
 Full point group                 C1      NOp   1
 RotChk:  IX=0 Diff= 1.37D-15
 Largest Abelian subgroup         C1      NOp   1
 Largest concise Abelian subgroup C1      NOp   1
                         Standard orientation:                         
 ---------------------------------------------------------------------
 Center     Atomic      Atomic             Coordinates (Angstroms)
 Number     Number       Type             X           Y           Z
 ---------------------------------------------------------------------
      1          8           0       -2.287139   -2.281933   -0.203336
      2          8           0        3.599485   -0.249892    0.423906
      3          7           0       -0.025806    1.799557   -0.211459
      4          1           0       -0.055336    2.807516   -0.217003
      5          6           0        1.292247   -0.141742   -0.075141
      6          6           0       -1.231138    1.147214   -0.127305
      7          6           0        1.206526    1.221476   -0.070541
      8          6           0        2.561191   -0.830428    0.116823
      9          6           0        0.058832   -0.949279   -0.353589
     10          1           0        0.074412   -1.320303   -1.388783
     11          1           0        0.051746   -1.856693    0.249663
     12          6           0       -1.230843   -0.217121   -0.116325
     13          6           0       -2.397063   -1.080037    0.038711
     14          6           0        2.325553    2.195729    0.069024
     15          1           0        1.999714    3.201923   -0.185820
     16          1           0        2.701429    2.209167    1.088926
     17          1           0        3.163515    1.926128   -0.562839
     18          6           0        2.588011   -2.324672   -0.063196
     19          1           0        3.616159   -2.667138   -0.103025
     20          1           0        2.096379   -2.816627    0.774891
     21          1           0        2.068510   -2.640679   -0.963985
     22          6           0       -3.730995   -0.573106    0.528375
     23          1           0       -3.642733    0.208868    1.277707
     24          1           0       -4.317693   -0.182128   -0.304878
     25          1           0       -4.272391   -1.417784    0.948412
     26          6           0       -2.395810    2.083048   -0.069419
     27          1           0       -3.254797    1.702011   -0.607340
     28          1           0       -2.696636    2.276672    0.960041
     29          1           0       -2.129461    3.040277   -0.514822
 ---------------------------------------------------------------------
 Rotational constants (GHZ):           1.0786643           0.4907898           0.3461667
 Leave Link  202 at Sat Jan 24 16:29:34 2026, MaxMem=  2147483648 cpu:               0.0 elap:               0.0
 (Enter /data/home/wyx/g16/l301.exe)
 Standard basis: TZVP (5D, 7F)
 Ernie: Thresh=  0.10000D-02 Tol=  0.10000D-05 Strict=F.
 There are   370 symmetry adapted cartesian basis functions of A   symmetry.
 There are   356 symmetry adapted basis functions of A   symmetry.
   356 basis functions,   610 primitive gaussians,   370 cartesian basis functions
    52 alpha electrons       52 beta electrons
       nuclear repulsion energy       900.7854429471 Hartrees.
 IExCor=20419 DFT=T Ex+Corr=CAM-B3LYP ExCW=0 ScaHFX=  1.000000
 ScaDFX=  1.000000  1.000000  1.000000  0.810000 ScalE2=  1.000000  1.000000
 IRadAn=      5 IRanWt=     -1 IRanGd=            0 ICorTp=0 IEmpDi=141
 HFx  wShort=  0.000000 wLong=  0.330000 cFull=  0.190000 cShort=  0.000000 cLong=  0.460000
 DFx  wShort=  0.000000 wLong=  0.330000 cFull=  0.190000 cShort=  0.000000 cLong=  0.460000
 NAtoms=   29 NActive=   29 NUniq=   29 SFac= 1.00D+00 NAtFMM=   60 NAOKFM=F Big=F
 Integral buffers will be    131072 words long.
 Raffenetti 1 integral format.
 Two-electron integral symmetry is turned on.
 R6Disp:  Grimme-D3(BJ) Dispersion energy=       -0.0262018423 Hartrees.
 Nuclear repulsion after empirical dispersion term =      900.7592411048 Hartrees.
 ------------------------------------------------------------------------------
 Polarizable Continuum Model (PCM)
 =================================
 Model                : PCM.
 Atomic radii         : UFF (Universal Force Field).
 Polarization charges : Total charges.
 Charge compensation  : None.
 Solution method      : On-the-fly selection.
 Cavity type          : Scaled VdW (van der Waals Surface) (Alpha=1.100).
 Cavity algorithm     : GePol (No added spheres)
                        Default sphere list used, NSphG=   29.
                        Lebedev-Laikov grids with approx.  5.0 points / Ang**2.
                        Smoothing algorithm: York/Karplus (Gamma=1.0000).
                        Polarization charges: spherical gaussians, with
                                              point-specific exponents (IZeta= 3).
                        Self-potential: point-specific (ISelfS= 7).
                        Self-field    : sphere-specific E.n sum rule (ISelfD= 2).
 Solvent              : Water, Eps=  78.355300 Eps(inf)=   1.777849
 ------------------------------------------------------------------------------
 GePol: Number of generator spheres                  =      29
 GePol: Total number of spheres                      =      29
 GePol: Number of exposed spheres                    =      29 (100.00%)
 GePol: Number of points                             =    2111
 GePol: Average weight of points                     =       0.13
 GePol: Minimum weight of points                     =   0.25D-11
 GePol: Maximum weight of points                     =    0.20577
 GePol: Number of points with low weight             =     158
 GePol: Fraction of low-weight points (<1% of avg)   =       7.48%
 GePol: Cavity surface area                          =    268.533 Ang**2
 GePol: Cavity volume                                =    286.631 Ang**3
 Leave Link  301 at Sat Jan 24 16:29:34 2026, MaxMem=  2147483648 cpu:               0.6 elap:               0.0
 (Enter /data/home/wyx/g16/l302.exe)
 NPDir=0 NMtPBC=     1 NCelOv=     1 NCel=       1 NClECP=     1 NCelD=      1
         NCelK=      1 NCelE2=     1 NClLst=     1 CellRange=     0.0.
 One-electron integrals computed using PRISM.
 One-electron integral symmetry used in STVInt
 NBasis=   356 RedAO= T EigKep=  4.69D-05  NBF=   356
 NBsUse=   356 1.00D-06 EigRej= -1.00D+00 NBFU=   356
 Precomputing XC quadrature grid using
 IXCGrd= 4 IRadAn=           5 IRanWt=          -1 IRanGd=           0 AccXCQ= 0.00D+00.
 Generated NRdTot=       0 NPtTot=           0 NUsed=           0 NTot=          32
 NSgBfM=   366   366   366   366   366 MxSgAt=    29 MxSgA2=    29.
 Leave Link  302 at Sat Jan 24 16:29:35 2026, MaxMem=  2147483648 cpu:               3.1 elap:               0.2
 (Enter /data/home/wyx/g16/l303.exe)
 DipDrv:  MaxL=1.
 Leave Link  303 at Sat Jan 24 16:29:35 2026, MaxMem=  2147483648 cpu:               0.6 elap:               0.0
 (Enter /data/home/wyx/g16/l308.exe)
 Leave Link  308 at Sat Jan 24 16:29:35 2026, MaxMem=  2147483648 cpu:               0.7 elap:               0.1
 (Enter /data/home/wyx/g16/l401.exe)
 Initial guess from the checkpoint file:  "DDL-LR-Eq-12.chk"
 B after Tr=     0.000000    0.000000   -0.000000
         Rot=    1.000000    0.000000   -0.000000   -0.000000 Ang=   0.00 deg.
 Guess basis will be translated and rotated to current coordinates.
 JPrj=2 DoOrth=T DoCkMO=T.
 Leave Link  401 at Sat Jan 24 16:29:35 2026, MaxMem=  2147483648 cpu:               2.2 elap:               0.2
 (Enter /data/home/wyx/g16/l502.exe)
 Integral symmetry usage will be decided dynamically.
 Closed shell SCF:
 Using DIIS extrapolation, IDIIS=  1040.
 NGot=  2147483648 LenX=  2147200095 LenY=  2147062754
 Requested convergence on RMS density matrix=1.00D-08 within 128 cycles.
 Requested convergence on MAX density matrix=1.00D-06.
 Requested convergence on             energy=1.00D-06.
 No special actions if energy rises.
 Fock matrices will be formed incrementally for  20 cycles.

 Cycle   1  Pass 1  IDiag  1:
 FoFJK:  IHMeth= 1 ICntrl=       0 DoSepK=T KAlg= 0 I1Cent=           0 FoldK=F
 IRaf=         1 NMat=       1 IRICut=       1 DoRegI=T DoRafI=F ISym2E= 0 IDoP0=0 IntGTp=1.
 FoFCou: FMM=F IPFlag=           0 FMFlag=      100000 FMFlg1=           0
         NFxFlg=           0 DoJE=T BraDBF=F KetDBF=F FulRan=T
         wScrn=  0.000000 ICntrl=       500 IOpCl=  0 I1Cent=           0 NGrid=           0
         NMat0=    1 NMatS0=      1 NMatT0=    0 NMatD0=    1 NMtDS0=    0 NMtDT0=    0
 Symmetry not used in FoFCou.
 Inv3:  Mode=1 IEnd=    13368963.
 Iteration    1 A*A^-1 deviation from unit magnitude is 3.22D-15 for   1651.
 Iteration    1 A*A^-1 deviation from orthogonality  is 2.22D-15 for   1946    312.
 Iteration    1 A^-1*A deviation from unit magnitude is 3.22D-15 for   1651.
 Iteration    1 A^-1*A deviation from orthogonality  is 1.55D-15 for   1966    295.
 E= -633.331595613011    
 DIIS: error= 1.39D-08 at cycle   1 NSaved=   1.
 NSaved= 1 IEnMin= 1 EnMin= -633.331595613011     IErMin= 1 ErrMin= 1.39D-08
 ErrMax= 1.39D-08  0.00D+00 EMaxC= 1.00D-01 BMatC= 5.39D-14 BMatP= 5.39D-14
 IDIUse=1 WtCom= 1.00D+00 WtEn= 0.00D+00
 Coeff-Com:  0.100D+01
 Coeff:      0.100D+01
 Gap=     0.233 Goal=   None    Shift=    0.000
 RMSDP=2.58D-09 MaxDP=7.50D-08              OVMax= 3.00D-07

 Error on total polarization charges =  0.01548
 SCF Done:  E(RCAM-B3LYP) =  -633.331595613     A.U. after    1 cycles
            NFock=  1  Conv=0.26D-08     -V/T= 2.0041
 KE= 6.307309672420D+02 PE=-3.277595897285D+03 EE= 1.112774093326D+03
 Leave Link  502 at Sat Jan 24 16:29:41 2026, MaxMem=  2147483648 cpu:              85.2 elap:               5.6
 (Enter /data/home/wyx/g16/l801.exe)
 DoSCS=F DFT=T ScalE2(SS,OS)=  1.000000  1.000000
 ExpMin= 9.52D-02 ExpMax= 2.70D+04 ExpMxC= 9.22D+02 IAcc=3 IRadAn=         5 AccDes= 0.00D+00
 HarFok:  IExCor=  205 AccDes= 0.00D+00 IRadAn=         5 IDoV=-2 UseB2=F ITyADJ=14
 ICtDFT= 12500011 ScaDFX=  1.000000  1.000000  1.000000  1.000000
 Largest valence mixing into a core orbital is  5.63D-05
 Largest core mixing into a valence orbital is  1.19D-05
 Range of M.O.s used for correlation:    15   356
 NBasis=   356 NAE=    52 NBE=    52 NFC=    14 NFV=     0
 NROrb=    342 NOA=    38 NOB=    38 NVA=   304 NVB=   304

 **** Warning!!: The largest alpha MO coefficient is  0.56311034D+02

 Leave Link  801 at Sat Jan 24 16:29:42 2026, MaxMem=  2147483648 cpu:               1.0 elap:               0.1
 (Enter /data/home/wyx/g16/l914.exe)
 RHF ground state
 Two-electron integrals replicated using symmetry.
 MDV=  2147483648 DFT=T DoStab=F Mixed=T DoRPA=T DoScal=F NonHer=T
 NEqPCM:  Using equilibrium solvation (IEInf=0, Eps=  78.3553, EpsInf=   1.7778)
 Making orbital integer symmetry assigments:
 Orbital symmetries:
       Occupied  (A) (A) (A) (A) (A) (A) (A) (A) (A) (A) (A) (A)
                 (A) (A) (A) (A) (A) (A) (A) (A) (A) (A) (A) (A)
                 (A) (A) (A) (A) (A) (A) (A) (A) (A) (A) (A) (A)
                 (A) (A) (A) (A) (A) (A) (A) (A) (A) (A) (A) (A)
                 (A) (A) (A) (A)
       Virtual   (A) (A) (A) (A) (A) (A) (A) (A) (A) (A) (A) (A)
                 (A) (A) (A) (A) (A) (A) (A) (A) (A) (A) (A) (A)
                 (A) (A) (A) (A) (A) (A) (A) (A) (A) (A) (A) (A)
                 (A) (A) (A) (A) (A) (A) (A) (A) (A) (A) (A) (A)
                 (A) (A) (A) (A) (A) (A) (A) (A) (A) (A) (A) (A)
                 (A) (A) (A) (A) (A) (A) (A) (A) (A) (A) (A) (A)
                 (A) (A) (A) (A) (A) (A) (A) (A) (A) (A) (A) (A)
                 (A) (A) (A) (A) (A) (A) (A) (A) (A) (A) (A) (A)
                 (A) (A) (A) (A) (A) (A) (A) (A) (A) (A) (A) (A)
                 (A) (A) (A) (A) (A) (A) (A) (A) (A) (A) (A) (A)
                 (A) (A) (A) (A) (A) (A) (A) (A) (A) (A) (A) (A)
                 (A) (A) (A) (A) (A) (A) (A) (A) (A) (A) (A) (A)
                 (A) (A) (A) (A) (A) (A) (A) (A) (A) (A) (A) (A)
                 (A) (A) (A) (A) (A) (A) (A) (A) (A) (A) (A) (A)
                 (A) (A) (A) (A) (A) (A) (A) (A) (A) (A) (A) (A)
                 (A) (A) (A) (A) (A) (A) (A) (A) (A) (A) (A) (A)
                 (A) (A) (A) (A) (A) (A) (A) (A) (A) (A) (A) (A)
                 (A) (A) (A) (A) (A) (A) (A) (A) (A) (A) (A) (A)
                 (A) (A) (A) (A) (A) (A) (A) (A) (A) (A) (A) (A)
                 (A) (A) (A) (A) (A) (A) (A) (A) (A) (A) (A) (A)
                 (A) (A) (A) (A) (A) (A) (A) (A) (A) (A) (A) (A)
                 (A) (A) (A) (A) (A) (A) (A) (A) (A) (A) (A) (A)
                 (A) (A) (A) (A) (A) (A) (A) (A) (A) (A) (A) (A)
                 (A) (A) (A) (A) (A) (A) (A) (A) (A) (A) (A) (A)
                 (A) (A) (A) (A) (A) (A) (A) (A) (A) (A) (A) (A)
                 (A) (A) (A) (A)
    24 initial guesses have been made.
 Convergence on wavefunction:    0.001000000000000
 Davidson Disk Diagonalization:  ConvIn= 1.00D-03 SkipCon=T Conv= 1.00D-03.
 Max sub-space:  2000 roots to seek:    24 dimension of matrix:        23104
 Iteration     1 Dimension    24 NMult     0 NNew     24
 CISAX will form    24 AO SS matrices at one time.
 NMat=    24 NSing=    24 JSym2X= 0.
 FoFJK:  IHMeth= 1 ICntrl=       0 DoSepK=T KAlg= 0 I1Cent=           0 FoldK=F
 IRaf=         1 NMat=      48 IRICut=       1 DoRegI=T DoRafI=F ISym2E= 0 IDoP0=3 IntGTp=3.
 FoFCou: FMM=F IPFlag=           0 FMFlag=      100000 FMFlg1=           0
         NFxFlg=           0 DoJE=F BraDBF=F KetDBF=F FulRan=T
         wScrn=  0.000000 ICntrl=       500 IOpCl=  0 I1Cent=           0 NGrid=           0
         NMat0=   24 NMatS0=     24 NMatT0=    0 NMatD0=   24 NMtDS0=    0 NMtDT0=    0
 Symmetry not used in FoFCou.
 New state      2 was old state      3
 New state      3 was old state      4
 New state      4 was old state      2
 New state      5 was old state      6
 New state      6 was old state      5
 Excitation Energies [eV] at current iteration:
 Root      1 :     3.726625445015443
 Root      2 :     4.319641508745112
 Root      3 :     4.515096363717732
 Root      4 :     5.448441391076811
 Root      5 :     6.078258731621518
 Root      6 :     6.187715956002374
 Root      7 :     6.755037944185148
 Root      8 :     6.809599571141336
 Root      9 :     7.013190840914977
 Root     10 :     7.058789380637070
 Root     11 :     7.192038458033892
 Root     12 :     7.366908985128834
 Root     13 :     7.529272125775408
 Root     14 :     7.599024438136178
 Root     15 :     7.842408343222186
 Root     16 :     7.870336437178095
 Root     17 :     8.157728535318670
 Root     18 :     8.241439604760965
 Root     19 :     8.328219422475334
 Root     20 :     8.408519483913294
 Root     21 :     8.619780406995460
 Root     22 :     8.793959115410743
 Root     23 :     8.868556575526499
 Root     24 :     8.987810684775972
 Iteration     2 Dimension    36 NMult    24 NNew     12
 CISAX will form    12 AO SS matrices at one time.
 NMat=    12 NSing=    12 JSym2X= 0.
 Root      1 not converged, maximum delta is    0.044455341760136
 Root      2 not converged, maximum delta is    0.074197638293708
 Root      3 not converged, maximum delta is    0.087540784116423
 Root      4 not converged, maximum delta is    0.354593204281380
 Root      5 not converged, maximum delta is    0.466495924687425
 Root      6 not converged, maximum delta is    0.323133654695463
 Excitation Energies [eV] at current iteration:
 Root      1 :     3.300377624378797   Change is   -0.426247820636645
 Root      2 :     4.091039571893914   Change is   -0.228601936851198
 Root      3 :     4.248439055178438   Change is   -0.266657308539294
 Root      4 :     5.004917902936288   Change is   -0.443523488140523
 Root      5 :     5.478867343058161   Change is   -0.599391388563357
 Root      6 :     5.994780565138559   Change is   -0.192935390863815
 Iteration     3 Dimension    48 NMult    36 NNew     12
 CISAX will form    12 AO SS matrices at one time.
 NMat=    12 NSing=    12 JSym2X= 0.
 Root      1 not converged, maximum delta is    0.006314335958166
 Root      2 not converged, maximum delta is    0.012785160845774
 Root      3 not converged, maximum delta is    0.012259334001135
 Root      4 not converged, maximum delta is    0.010530714237664
 Root      5 not converged, maximum delta is    0.011163737510163
 Root      6 not converged, maximum delta is    0.007369954669394
 Excitation Energies [eV] at current iteration:
 Root      1 :     3.286021113194581   Change is   -0.014356511184216
 Root      2 :     4.078118442141004   Change is   -0.012921129752909
 Root      3 :     4.235058458560109   Change is   -0.013380596618329
 Root      4 :     4.985007938897192   Change is   -0.019909964039096
 Root      5 :     5.463838159769563   Change is   -0.015029183288598
 Root      6 :     5.988855744925255   Change is   -0.005924820213304
 Iteration     4 Dimension    60 NMult    48 NNew     12
 CISAX will form    12 AO SS matrices at one time.
 NMat=    12 NSing=    12 JSym2X= 0.
 Root      1 not converged, maximum delta is    0.001699529174660
 Root      2 not converged, maximum delta is    0.002199282062342
 Root      3 not converged, maximum delta is    0.002073049775154
 Root      4 not converged, maximum delta is    0.003084311518681
 Root      5 not converged, maximum delta is    0.002274685414370
 Root      6 not converged, maximum delta is    0.001837461523264
 Excitation Energies [eV] at current iteration:
 Root      1 :     3.284918256521928   Change is   -0.001102856672653
 Root      2 :     4.077279611846167   Change is   -0.000838830294836
 Root      3 :     4.234202557668757   Change is   -0.000855900891353
 Root      4 :     4.983260982268892   Change is   -0.001746956628299
 Root      5 :     5.462299349054013   Change is   -0.001538810715550
 Root      6 :     5.988446736678698   Change is   -0.000409008246556
 Iteration     5 Dimension    72 NMult    60 NNew     12
 CISAX will form    12 AO SS matrices at one time.
 NMat=    12 NSing=    12 JSym2X= 0.
 Root      1 has converged.
 Root      2 has converged.
 Root      3 has converged.
 Root      4 has converged.
 Root      5 not converged, maximum delta is    0.001026939244927
 Root      6 has converged.
 Excitation Energies [eV] at current iteration:
 Root      1 :     3.284867265027863   Change is   -0.000050991494066
 Root      2 :     4.077239780492358   Change is   -0.000039831353809
 Root      3 :     4.234160968676228   Change is   -0.000041588992529
 Root      4 :     4.983135562769808   Change is   -0.000125419499085
 Root      5 :     5.462180530327866   Change is   -0.000118818726147
 Root      6 :     5.988419629191259   Change is   -0.000027107487439
 Iteration     6 Dimension    74 NMult    72 NNew      2
 CISAX will form     2 AO SS matrices at one time.
 NMat=     2 NSing=     2 JSym2X= 0.
 Root      1 has converged.
 Root      2 has converged.
 Root      3 has converged.
 Root      4 has converged.
 Root      5 has converged.
 Root      6 has converged.
 Excitation Energies [eV] at current iteration:
 Root      1 :     3.284867248856778   Change is   -0.000000016171084
 Root      2 :     4.077239696999758   Change is   -0.000000083492601
 Root      3 :     4.234160855578032   Change is   -0.000000113098196
 Root      4 :     4.983133631337917   Change is   -0.000001931431891
 Root      5 :     5.462170288433669   Change is   -0.000010241894196
 Root      6 :     5.988419540353647   Change is   -0.000000088837612
 Convergence achieved on expansion vectors.
 ***********************************************************************
 Excited states from <AA,BB:AA,BB> singles matrix:
 ***********************************************************************
 
 1PDM for each excited state written to RWF  633
 Ground to excited state transition densities written to RWF  633
 Ground to excited state transition electric dipole moments (Au):
       state          X           Y           Z        Dip. S.      Osc.
         1         1.7081      0.2163      0.0575      2.9677      0.2388
         2         0.1289     -0.0125      0.0440      0.0187      0.0019
         3        -0.0164     -0.1709      0.0368      0.0308      0.0032
         4         0.2027     -1.9793      0.1292      3.9754      0.4853
         5         0.0704     -1.4366      0.0124      2.0688      0.2769
         6        -0.0277      0.2754      0.0517      0.0793      0.0116
 Ground to excited state transition velocity dipole moments (Au):
       state          X           Y           Z        Dip. S.      Osc.
         1        -0.1981     -0.0216     -0.0076      0.0398      0.2197
         2        -0.0186      0.0022     -0.0036      0.0004      0.0016
         3         0.0025      0.0249     -0.0022      0.0006      0.0027
         4        -0.0397      0.3481     -0.0192      0.1231      0.4481
         5        -0.0141      0.2837     -0.0037      0.0807      0.2679
         6         0.0069     -0.0567     -0.0312      0.0042      0.0128
 Ground to excited state transition magnetic dipole moments (Au):
       state          X           Y           Z
         1        -0.0645     -0.0164      1.4404
         2         0.8068      0.1367      0.3192
         3        -0.1632     -0.9947     -0.1964
         4         0.0760      0.1241     -0.1202
         5         0.1819      0.1050     -0.2669
         6         0.0727      0.0245     -0.0379
 Ground to excited state transition velocity quadrupole moments (Au):
       state          XX          YY          ZZ          XY          XZ          YZ
         1        -0.1917      0.1097      0.0010      0.5469     -0.0581      0.0138
         2         0.0067     -0.0080      0.0015      0.0519     -0.0155      0.0885
         3        -0.0154      0.0096     -0.0282     -0.0595      0.0677     -0.0092
         4        -1.3860      0.3158      0.0026     -0.1257     -0.0987     -0.0477
         5        -0.3947      0.2502      0.0460     -0.2162     -0.0643      0.0376
         6        -0.3116     -0.2438      0.2038     -0.0225     -0.0426      0.1264
 <0|del|b> * <b|rxdel|0> + <0|del|b> * <b|delr+rdel|0>
 Rotatory Strengths (R) in cgs (10**-40 erg-esu-cm/Gauss)
       state          XX          YY          ZZ    R(velocity)    E-M Angle
         1       -46.7685      9.5782     50.2027      4.3375       89.56
         2        -2.3458    -41.5667    -30.9304    -24.9476      161.20
         3       -58.7796     -0.2735    -53.2916    -37.4482      163.46
         4       158.8289     -2.3766      7.5636     54.6719       50.11
         5        87.7191     -5.1206     16.7865     33.1283       73.00
         6        -3.0782      2.9670      1.0543      0.3144       86.98
 1/2[<0|r|b>*<b|rxdel|0> + (<0|rxdel|b>*<b|r|0>)*]
 Rotatory Strengths (R) in cgs (10**-40 erg-esu-cm/Gauss)
       state          XX          YY          ZZ     R(length)
         1        77.9468      2.5037    -58.5950      7.2852
         2       -73.5331      1.2094     -9.9314    -27.4184
         3        -1.8923   -120.1961      5.1161    -38.9908
         4       -10.9031    173.6827     10.9824     57.9207
         5        -9.0540    106.6994      2.3401     33.3285
         6         1.4255     -4.7722      1.3882     -0.6528
  1/2[<0|del|b>*<b|r|0> + (<0|r|b>*<b|del|0>)*] (Au)
       state          X           Y           Z        Dip. S.   Osc.(frdel)
         1        -0.3384     -0.0047     -0.0004      0.3435      0.2290
         2        -0.0024     -0.0000     -0.0002      0.0026      0.0017
         3        -0.0000     -0.0043     -0.0001      0.0044      0.0029
         4        -0.0081     -0.6889     -0.0025      0.6994      0.4663
         5        -0.0010     -0.4075     -0.0000      0.4085      0.2723
         6        -0.0002     -0.0156     -0.0016      0.0174      0.0116

 Excitation energies and oscillator strengths:
 
 Excited State   1:      Singlet-A      3.2849 eV  377.44 nm  f=0.2388  <S**2>=0.000
      52 -> 53         0.69947
 This state for optimization and/or second-order correction.
 Total Energy, E(TD-HF/TD-DFT) =  -633.210878963    
 Copying the excited state density for this state as the 1-particle RhoCI density.
 
 Excited State   2:      Singlet-A      4.0772 eV  304.09 nm  f=0.0019  <S**2>=0.000
      50 -> 53        -0.10653
      50 -> 54        -0.19522
      51 -> 53         0.56603
      51 -> 54         0.31657
 
 Excited State   3:      Singlet-A      4.2342 eV  292.82 nm  f=0.0032  <S**2>=0.000
      49 -> 53        -0.27647
      49 -> 54         0.17916
      50 -> 53         0.50321
      50 -> 54        -0.23573
      50 -> 58         0.10656
      51 -> 54        -0.21221
 
 Excited State   4:      Singlet-A      4.9831 eV  248.81 nm  f=0.4853  <S**2>=0.000
      49 -> 53         0.13132
      52 -> 54         0.68449
 
 Excited State   5:      Singlet-A      5.4622 eV  226.99 nm  f=0.2769  <S**2>=0.000
      49 -> 53         0.58295
      50 -> 53         0.32000
      51 -> 53         0.14370
      52 -> 54        -0.13723
 
 Excited State   6:      Singlet-A      5.9884 eV  207.04 nm  f=0.0116  <S**2>=0.000
      52 -> 55         0.66166
      52 -> 56        -0.15007
 SavETr:  write IOETrn=   770 NScale= 10 NData=  16 NLR=1 NState=    6 LETran=     118.
 Leave Link  914 at Sat Jan 24 16:31:50 2026, MaxMem=  2147483648 cpu:            2043.1 elap:             128.1
 (Enter /data/home/wyx/g16/l601.exe)
 Copying SCF densities to generalized density rwf, IOpCl= 0 IROHF=0.

 **********************************************************************

            Population analysis using the SCF density.

 **********************************************************************

 Orbital symmetries:
       Occupied  (A) (A) (A) (A) (A) (A) (A) (A) (A) (A) (A) (A)
                 (A) (A) (A) (A) (A) (A) (A) (A) (A) (A) (A) (A)
                 (A) (A) (A) (A) (A) (A) (A) (A) (A) (A) (A) (A)
                 (A) (A) (A) (A) (A) (A) (A) (A) (A) (A) (A) (A)
                 (A) (A) (A) (A)
       Virtual   (A) (A) (A) (A) (A) (A) (A) (A) (A) (A) (A) (A)
                 (A) (A) (A) (A) (A) (A) (A) (A) (A) (A) (A) (A)
                 (A) (A) (A) (A) (A) (A) (A) (A) (A) (A) (A) (A)
                 (A) (A) (A) (A) (A) (A) (A) (A) (A) (A) (A) (A)
                 (A) (A) (A) (A) (A) (A) (A) (A) (A) (A) (A) (A)
                 (A) (A) (A) (A) (A) (A) (A) (A) (A) (A) (A) (A)
                 (A) (A) (A) (A) (A) (A) (A) (A) (A) (A) (A) (A)
                 (A) (A) (A) (A) (A) (A) (A) (A) (A) (A) (A) (A)
                 (A) (A) (A) (A) (A) (A) (A) (A) (A) (A) (A) (A)
                 (A) (A) (A) (A) (A) (A) (A) (A) (A) (A) (A) (A)
                 (A) (A) (A) (A) (A) (A) (A) (A) (A) (A) (A) (A)
                 (A) (A) (A) (A) (A) (A) (A) (A) (A) (A) (A) (A)
                 (A) (A) (A) (A) (A) (A) (A) (A) (A) (A) (A) (A)
                 (A) (A) (A) (A) (A) (A) (A) (A) (A) (A) (A) (A)
                 (A) (A) (A) (A) (A) (A) (A) (A) (A) (A) (A) (A)
                 (A) (A) (A) (A) (A) (A) (A) (A) (A) (A) (A) (A)
                 (A) (A) (A) (A) (A) (A) (A) (A) (A) (A) (A) (A)
                 (A) (A) (A) (A) (A) (A) (A) (A) (A) (A) (A) (A)
                 (A) (A) (A) (A) (A) (A) (A) (A) (A) (A) (A) (A)
                 (A) (A) (A) (A) (A) (A) (A) (A) (A) (A) (A) (A)
                 (A) (A) (A) (A) (A) (A) (A) (A) (A) (A) (A) (A)
                 (A) (A) (A) (A) (A) (A) (A) (A) (A) (A) (A) (A)
                 (A) (A) (A) (A) (A) (A) (A) (A) (A) (A) (A) (A)
                 (A) (A) (A) (A) (A) (A) (A) (A) (A) (A) (A) (A)
                 (A) (A) (A) (A) (A) (A) (A) (A) (A) (A) (A) (A)
                 (A) (A) (A) (A)
 The electronic state is 1-A.
 Alpha  occ. eigenvalues --  -19.17958 -19.17433 -14.44192 -10.33489 -10.33126
 Alpha  occ. eigenvalues --  -10.32186 -10.31688 -10.25627 -10.25084 -10.24769
 Alpha  occ. eigenvalues --  -10.24737 -10.24580 -10.24165 -10.23752  -1.11925
 Alpha  occ. eigenvalues --   -1.11566  -1.07745  -0.91262  -0.90368  -0.83917
 Alpha  occ. eigenvalues --   -0.82554  -0.81560  -0.78550  -0.73945  -0.71398
 Alpha  occ. eigenvalues --   -0.68672  -0.61645  -0.58230  -0.56873  -0.55184
 Alpha  occ. eigenvalues --   -0.54519  -0.54036  -0.52602  -0.51895  -0.50763
 Alpha  occ. eigenvalues --   -0.50045  -0.49553  -0.49158  -0.48484  -0.48154
 Alpha  occ. eigenvalues --   -0.46893  -0.45445  -0.45048  -0.43491  -0.43089
 Alpha  occ. eigenvalues --   -0.42438  -0.42152  -0.42010  -0.32797  -0.32342
 Alpha  occ. eigenvalues --   -0.31421  -0.25922
 Alpha virt. eigenvalues --   -0.02596   0.02461   0.06523   0.08241   0.08787
 Alpha virt. eigenvalues --    0.10068   0.10757   0.11944   0.12712   0.13631
 Alpha virt. eigenvalues --    0.14121   0.15097   0.15741   0.16245   0.16996
 Alpha virt. eigenvalues --    0.17518   0.17875   0.18017   0.18265   0.19211
 Alpha virt. eigenvalues --    0.20063   0.22151   0.22943   0.23422   0.23679
 Alpha virt. eigenvalues --    0.24219   0.24839   0.25731   0.25919   0.26620
 Alpha virt. eigenvalues --    0.26904   0.27525   0.28817   0.29105   0.30227
 Alpha virt. eigenvalues --    0.31698   0.32025   0.32619   0.33630   0.34496
 Alpha virt. eigenvalues --    0.35277   0.35979   0.36703   0.38159   0.38742
 Alpha virt. eigenvalues --    0.39829   0.40978   0.41716   0.42193   0.42662
 Alpha virt. eigenvalues --    0.44129   0.44369   0.45421   0.46130   0.46184
 Alpha virt. eigenvalues --    0.47356   0.47854   0.48092   0.48269   0.49079
 Alpha virt. eigenvalues --    0.49584   0.50301   0.50820   0.51406   0.51627
 Alpha virt. eigenvalues --    0.52763   0.53172   0.53486   0.54118   0.54367
 Alpha virt. eigenvalues --    0.54676   0.55927   0.56122   0.56552   0.58398
 Alpha virt. eigenvalues --    0.58748   0.59106   0.60795   0.61006   0.62770
 Alpha virt. eigenvalues --    0.63308   0.65738   0.66110   0.66347   0.67895
 Alpha virt. eigenvalues --    0.68725   0.70183   0.71333   0.72202   0.73045
 Alpha virt. eigenvalues --    0.73262   0.73963   0.74753   0.76086   0.77807
 Alpha virt. eigenvalues --    0.78235   0.79687   0.82178   0.84769   0.85401
 Alpha virt. eigenvalues --    0.89398   0.93371   0.99672   1.00461   1.24263
 Alpha virt. eigenvalues --    1.25517   1.27232   1.27771   1.29463   1.31410
 Alpha virt. eigenvalues --    1.32558   1.32995   1.34100   1.34962   1.36110
 Alpha virt. eigenvalues --    1.36503   1.37244   1.38398   1.39230   1.39862
 Alpha virt. eigenvalues --    1.40123   1.40527   1.41039   1.41539   1.41779
 Alpha virt. eigenvalues --    1.43401   1.44204   1.44411   1.45141   1.47153
 Alpha virt. eigenvalues --    1.48077   1.49258   1.49713   1.50416   1.51137
 Alpha virt. eigenvalues --    1.51904   1.52409   1.53429   1.54435   1.57755
 Alpha virt. eigenvalues --    1.58207   1.60467   1.60747   1.61319   1.62310
 Alpha virt. eigenvalues --    1.62751   1.63340   1.64262   1.65383   1.65658
 Alpha virt. eigenvalues --    1.67112   1.67416   1.67935   1.68279   1.68730
 Alpha virt. eigenvalues --    1.68855   1.69990   1.70490   1.71921   1.72337
 Alpha virt. eigenvalues --    1.73582   1.75167   1.76217   1.76605   1.78745
 Alpha virt. eigenvalues --    1.80327   1.83321   1.84534   1.86272   1.86660
 Alpha virt. eigenvalues --    1.87006   1.87462   1.88510   1.89326   1.90868
 Alpha virt. eigenvalues --    1.91397   1.94619   1.95407   1.98500   1.99709
 Alpha virt. eigenvalues --    2.01126   2.03873   2.04836   2.06755   2.09616
 Alpha virt. eigenvalues --    2.11240   2.12814   2.14884   2.17067   2.19715
 Alpha virt. eigenvalues --    2.20428   2.21448   2.21920   2.23026   2.25978
 Alpha virt. eigenvalues --    2.27131   2.27815   2.29228   2.30938   2.31859
 Alpha virt. eigenvalues --    2.33354   2.34556   2.36474   2.37285   2.38060
 Alpha virt. eigenvalues --    2.39552   2.40243   2.41649   2.43727   2.44956
 Alpha virt. eigenvalues --    2.46055   2.47675   2.50154   2.50618   2.51889
 Alpha virt. eigenvalues --    2.52659   2.53616   2.54948   2.56945   2.58573
 Alpha virt. eigenvalues --    2.59110   2.60279   2.61308   2.62281   2.62824
 Alpha virt. eigenvalues --    2.64528   2.65761   2.67089   2.67559   2.69060
 Alpha virt. eigenvalues --    2.71220   2.72171   2.72991   2.73796   2.75110
 Alpha virt. eigenvalues --    2.76175   2.76704   2.77404   2.77973   2.79343
 Alpha virt. eigenvalues --    2.80663   2.81586   2.83191   2.83524   2.84438
 Alpha virt. eigenvalues --    2.85539   2.86314   2.88071   2.90093   2.91783
 Alpha virt. eigenvalues --    2.97539   2.99617   3.00871   3.04835   3.10533
 Alpha virt. eigenvalues --    3.12478   3.15640   3.17061   3.17542   3.20240
 Alpha virt. eigenvalues --    3.21209   3.22215   3.24685   3.26050   3.27012
 Alpha virt. eigenvalues --    3.27311   3.29608   3.33413   3.34466   3.36736
 Alpha virt. eigenvalues --    3.37217   3.38974   3.39901   3.40525   3.41740
 Alpha virt. eigenvalues --    3.42721   3.45024   3.45556   3.46714   3.47994
 Alpha virt. eigenvalues --    3.49093   3.49911   3.55297   3.58369   3.59662
 Alpha virt. eigenvalues --    3.60366   3.90231   4.00001   4.33771   4.35859
 Alpha virt. eigenvalues --   21.64445  21.79674  22.08306  22.11029  22.11887
 Alpha virt. eigenvalues --   22.14848  22.15490  22.18430  22.20807  22.24627
 Alpha virt. eigenvalues --   22.29728  31.92828  43.63021  43.65481
          Condensed to atoms (all electrons):
               1          2          3          4          5          6
     1  O    7.955349   0.000000  -0.000235   0.000018   0.017449   0.014345
     2  O    0.000000   7.983610   0.000380   0.000024  -0.203586   0.001028
     3  N   -0.000235   0.000380   6.385583   0.372620  -0.113954   0.332517
     4  H    0.000018   0.000024   0.372620   0.402640   0.016731  -0.045386
     5  C    0.017449  -0.203586  -0.113954   0.016731   7.020942  -0.064935
     6  C    0.014345   0.001028   0.332517  -0.045386  -0.064935   5.594224
     7  C   -0.000377  -0.034615   0.382063  -0.038698   0.392460  -0.099130
     8  C   -0.000294   0.715753   0.004550  -0.000682  -0.277373   0.028413
     9  C   -0.024487   0.019827   0.013566  -0.000220  -0.515440  -0.107811
    10  H    0.004516   0.000091   0.003915   0.000020  -0.030923  -0.017550
    11  H    0.015638   0.000007  -0.001371   0.000018  -0.112590   0.025623
    12  C   -0.223472  -0.002377  -0.091919   0.014820   0.150379  -0.132371
    13  C    0.711821  -0.000030   0.000506   0.000413   0.077384   0.161398
    14  C   -0.000006  -0.012452  -0.034902  -0.009120  -0.072481   0.009575
    15  H   -0.000000   0.004159   0.004353   0.001350   0.016992   0.006285
    16  H   -0.000000   0.002092  -0.003181   0.000903  -0.004631  -0.001842
    17  H   -0.000000   0.002348   0.001259   0.000775  -0.007729  -0.000876
    18  C   -0.000008  -0.106154  -0.000560   0.000018  -0.269618   0.000454
    19  H   -0.000004   0.009105   0.000004  -0.000001   0.026312   0.000023
    20  H    0.000008   0.001017   0.000012  -0.000000   0.003132   0.000240
    21  H    0.000082   0.003737   0.000123   0.000001   0.042426  -0.001125
    22  C   -0.106475   0.000000   0.000017   0.000110   0.004033  -0.014735
    23  H    0.004846  -0.000000  -0.000023  -0.000053  -0.000633  -0.031947
    24  H    0.001277  -0.000000  -0.000026  -0.000015  -0.000075   0.010956
    25  H    0.007279   0.000000   0.000031  -0.000002  -0.000144  -0.001178
    26  C    0.000893   0.000004  -0.028676  -0.006201  -0.000180   0.181681
    27  H   -0.000240  -0.000000   0.002614   0.000850   0.000070  -0.045550
    28  H   -0.000049  -0.000000  -0.002490   0.000452   0.000402  -0.034161
    29  H    0.000025  -0.000000   0.000781   0.001123  -0.000501  -0.048505
               7          8          9         10         11         12
     1  O   -0.000377  -0.000294  -0.024487   0.004516   0.015638  -0.223472
     2  O   -0.034615   0.715753   0.019827   0.000091   0.000007  -0.002377
     3  N    0.382063   0.004550   0.013566   0.003915  -0.001371  -0.091919
     4  H   -0.038698  -0.000682  -0.000220   0.000020   0.000018   0.014820
     5  C    0.392460  -0.277373  -0.515440  -0.030923  -0.112590   0.150379
     6  C   -0.099130   0.028413  -0.107811  -0.017550   0.025623  -0.132371
     7  C    5.410163  -0.190316  -0.178463  -0.005055   0.018092   0.002842
     8  C   -0.190316   5.366591   0.106465  -0.004851  -0.008149  -0.033903
     9  C   -0.178463   0.106465   6.294683   0.395422   0.530700  -0.003982
    10  H   -0.005055  -0.004851   0.395422   0.560836  -0.039040  -0.021004
    11  H    0.018092  -0.008149   0.530700  -0.039040   0.513237  -0.108275
    12  C    0.002842  -0.033903  -0.003982  -0.021004  -0.108275   7.245278
    13  C    0.013128  -0.006695  -0.263852   0.000947  -0.000847  -0.394663
    14  C    0.261751  -0.039943   0.009561  -0.001306   0.000557  -0.003372
    15  H   -0.073929   0.005457   0.000033   0.000069  -0.000003  -0.001187
    16  H   -0.023661  -0.000988   0.000655  -0.000067   0.000053   0.000744
    17  H   -0.030544  -0.007952  -0.000470   0.000199  -0.000058  -0.000014
    18  C    0.002242   0.322229  -0.000810  -0.009751   0.008378  -0.003044
    19  H    0.000413  -0.054163  -0.000510  -0.000019   0.000514  -0.000204
    20  H    0.000843  -0.025030  -0.009368   0.000947  -0.001982  -0.003408
    21  H    0.000944  -0.064445  -0.008810   0.002406  -0.005613   0.006710
    22  C    0.000090  -0.000064   0.005075   0.001821   0.000675  -0.248600
    23  H    0.000018  -0.000007   0.003504  -0.000138  -0.000058   0.063911
    24  H    0.000023   0.000003  -0.002089   0.000148  -0.000114  -0.012480
    25  H    0.000004   0.000004   0.000189  -0.000048  -0.000125   0.023951
    26  C    0.002599   0.000516   0.020437  -0.000743   0.000039  -0.079349
    27  H   -0.000790   0.000004  -0.000764  -0.000087   0.000004  -0.007501
    28  H   -0.000858  -0.000011  -0.000251  -0.000022   0.000047  -0.019331
    29  H    0.003630  -0.000007  -0.000521   0.000096  -0.000010   0.023489
              13         14         15         16         17         18
     1  O    0.711821  -0.000006  -0.000000  -0.000000  -0.000000  -0.000008
     2  O   -0.000030  -0.012452   0.004159   0.002092   0.002348  -0.106154
     3  N    0.000506  -0.034902   0.004353  -0.003181   0.001259  -0.000560
     4  H    0.000413  -0.009120   0.001350   0.000903   0.000775   0.000018
     5  C    0.077384  -0.072481   0.016992  -0.004631  -0.007729  -0.269618
     6  C    0.161398   0.009575   0.006285  -0.001842  -0.000876   0.000454
     7  C    0.013128   0.261751  -0.073929  -0.023661  -0.030544   0.002242
     8  C   -0.006695  -0.039943   0.005457  -0.000988  -0.007952   0.322229
     9  C   -0.263852   0.009561   0.000033   0.000655  -0.000470  -0.000810
    10  H    0.000947  -0.001306   0.000069  -0.000067   0.000199  -0.009751
    11  H   -0.000847   0.000557  -0.000003   0.000053  -0.000058   0.008378
    12  C   -0.394663  -0.003372  -0.001187   0.000744  -0.000014  -0.003044
    13  C    5.455916  -0.000021  -0.000022  -0.000019  -0.000001   0.000577
    14  C   -0.000021   5.068908   0.388284   0.407545   0.423680   0.001348
    15  H   -0.000022   0.388284   0.568139  -0.024815  -0.027354   0.000267
    16  H   -0.000019   0.407545  -0.024815   0.510488  -0.027735  -0.000001
    17  H   -0.000001   0.423680  -0.027354  -0.027735   0.511679  -0.000206
    18  C    0.000577   0.001348   0.000267  -0.000001  -0.000206   5.346195
    19  H   -0.000011   0.000074  -0.000005  -0.000024   0.000032   0.391041
    20  H   -0.000086  -0.000265  -0.000006  -0.000007   0.000024   0.398279
    21  H    0.000547   0.000078  -0.000016   0.000003  -0.000040   0.380519
    22  C    0.289147  -0.000021   0.000002   0.000000  -0.000000   0.000028
    23  H   -0.091905   0.000000   0.000000   0.000000   0.000000   0.000003
    24  H   -0.021911  -0.000001   0.000000   0.000000  -0.000000  -0.000002
    25  H   -0.041140   0.000000   0.000000  -0.000000   0.000000  -0.000001
    26  C   -0.055487   0.001298   0.000070  -0.000166   0.000053   0.000022
    27  H   -0.004989   0.000089  -0.000012   0.000001  -0.000001  -0.000000
    28  H    0.006533  -0.000115   0.000002  -0.000011   0.000004  -0.000001
    29  H   -0.000530  -0.000225   0.000123   0.000002  -0.000004   0.000000
              19         20         21         22         23         24
     1  O   -0.000004   0.000008   0.000082  -0.106475   0.004846   0.001277
     2  O    0.009105   0.001017   0.003737   0.000000  -0.000000  -0.000000
     3  N    0.000004   0.000012   0.000123   0.000017  -0.000023  -0.000026
     4  H   -0.000001  -0.000000   0.000001   0.000110  -0.000053  -0.000015
     5  C    0.026312   0.003132   0.042426   0.004033  -0.000633  -0.000075
     6  C    0.000023   0.000240  -0.001125  -0.014735  -0.031947   0.010956
     7  C    0.000413   0.000843   0.000944   0.000090   0.000018   0.000023
     8  C   -0.054163  -0.025030  -0.064445  -0.000064  -0.000007   0.000003
     9  C   -0.000510  -0.009368  -0.008810   0.005075   0.003504  -0.002089
    10  H   -0.000019   0.000947   0.002406   0.001821  -0.000138   0.000148
    11  H    0.000514  -0.001982  -0.005613   0.000675  -0.000058  -0.000114
    12  C   -0.000204  -0.003408   0.006710  -0.248600   0.063911  -0.012480
    13  C   -0.000011  -0.000086   0.000547   0.289147  -0.091905  -0.021911
    14  C    0.000074  -0.000265   0.000078  -0.000021   0.000000  -0.000001
    15  H   -0.000005  -0.000006  -0.000016   0.000002   0.000000   0.000000
    16  H   -0.000024  -0.000007   0.000003   0.000000   0.000000   0.000000
    17  H    0.000032   0.000024  -0.000040  -0.000000   0.000000  -0.000000
    18  C    0.391041   0.398279   0.380519   0.000028   0.000003  -0.000002
    19  H    0.507346  -0.009812  -0.021823  -0.000000   0.000000   0.000000
    20  H   -0.009812   0.496565  -0.025609  -0.000013  -0.000000   0.000000
    21  H   -0.021823  -0.025609   0.535980   0.000017  -0.000000  -0.000000
    22  C   -0.000000  -0.000013   0.000017   5.410679   0.399312   0.401820
    23  H    0.000000  -0.000000  -0.000000   0.399312   0.536585  -0.026048
    24  H    0.000000   0.000000  -0.000000   0.401820  -0.026048   0.489169
    25  H   -0.000000   0.000000  -0.000000   0.383360  -0.022088  -0.008310
    26  C    0.000000   0.000005  -0.000015  -0.029292   0.015983  -0.013755
    27  H   -0.000000   0.000000  -0.000000   0.008144  -0.009645  -0.000663
    28  H    0.000000  -0.000000  -0.000000  -0.011281  -0.001353   0.001060
    29  H    0.000000  -0.000000   0.000000   0.001925   0.000694   0.000191
              25         26         27         28         29
     1  O    0.007279   0.000893  -0.000240  -0.000049   0.000025
     2  O    0.000000   0.000004  -0.000000  -0.000000  -0.000000
     3  N    0.000031  -0.028676   0.002614  -0.002490   0.000781
     4  H   -0.000002  -0.006201   0.000850   0.000452   0.001123
     5  C   -0.000144  -0.000180   0.000070   0.000402  -0.000501
     6  C   -0.001178   0.181681  -0.045550  -0.034161  -0.048505
     7  C    0.000004   0.002599  -0.000790  -0.000858   0.003630
     8  C    0.000004   0.000516   0.000004  -0.000011  -0.000007
     9  C    0.000189   0.020437  -0.000764  -0.000251  -0.000521
    10  H   -0.000048  -0.000743  -0.000087  -0.000022   0.000096
    11  H   -0.000125   0.000039   0.000004   0.000047  -0.000010
    12  C    0.023951  -0.079349  -0.007501  -0.019331   0.023489
    13  C   -0.041140  -0.055487  -0.004989   0.006533  -0.000530
    14  C    0.000000   0.001298   0.000089  -0.000115  -0.000225
    15  H    0.000000   0.000070  -0.000012   0.000002   0.000123
    16  H   -0.000000  -0.000166   0.000001  -0.000011   0.000002
    17  H    0.000000   0.000053  -0.000001   0.000004  -0.000004
    18  C   -0.000001   0.000022  -0.000000  -0.000001   0.000000
    19  H   -0.000000   0.000000  -0.000000   0.000000   0.000000
    20  H    0.000000   0.000005   0.000000  -0.000000  -0.000000
    21  H   -0.000000  -0.000015  -0.000000  -0.000000   0.000000
    22  C    0.383360  -0.029292   0.008144  -0.011281   0.001925
    23  H   -0.022088   0.015983  -0.009645  -0.001353   0.000694
    24  H   -0.008310  -0.013755  -0.000663   0.001060   0.000191
    25  H    0.497162   0.001976   0.000802   0.000108  -0.000042
    26  C    0.001976   5.252629   0.427772   0.429296   0.389166
    27  H    0.000802   0.427772   0.507920  -0.025603  -0.025961
    28  H    0.000108   0.429296  -0.025603   0.475984  -0.017420
    29  H   -0.000042   0.389166  -0.025961  -0.017420   0.514663
 Mulliken charges:
               1
     1  O   -0.377901
     2  O   -0.383972
     3  N   -0.227555
     4  H    0.287494
     5  C   -0.093917
     6  C    0.280338
     7  C    0.185131
     8  C    0.164890
     9  C   -0.282269
    10  H    0.159169
    11  H    0.164654
    12  C   -0.141667
    13  C    0.163893
    14  C   -0.398518
    15  H    0.131764
    16  H    0.164661
    17  H    0.162934
    18  C   -0.461443
    19  H    0.151713
    20  H    0.174513
    21  H    0.153925
    22  C   -0.495773
    23  H    0.159042
    24  H    0.180842
    25  H    0.158211
    26  C   -0.510577
    27  H    0.173536
    28  H    0.199068
    29  H    0.157817
 Sum of Mulliken charges =  -0.00000
 Mulliken charges with hydrogens summed into heavy atoms:
               1
     1  O   -0.377901
     2  O   -0.383972
     3  N    0.059939
     5  C   -0.093917
     6  C    0.280338
     7  C    0.185131
     8  C    0.164890
     9  C    0.041554
    12  C   -0.141667
    13  C    0.163893
    14  C    0.060840
    18  C    0.018707
    22  C    0.002322
    26  C    0.019844
 Electronic spatial extent (au):  <R**2>=           3187.1134
 Charge=             -0.0000 electrons
 Dipole moment (field-independent basis, Debye):
    X=             -4.0769    Y=              7.6628    Z=             -0.2927  Tot=              8.6847
 Quadrupole moment (field-independent basis, Debye-Ang):
   XX=            -98.1473   YY=            -78.2832   ZZ=            -84.9465
   XY=            -12.8692   XZ=             -5.5272   YZ=             -1.7422
 Traceless Quadrupole moment (field-independent basis, Debye-Ang):
   XX=            -11.0216   YY=              8.8425   ZZ=              2.1791
   XY=            -12.8692   XZ=             -5.5272   YZ=             -1.7422
 Octapole moment (field-independent basis, Debye-Ang**2):
  XXX=           -110.7124  YYY=             66.2868  ZZZ=              1.8670  XYY=             35.0363
  XXY=             32.1433  XXZ=             -9.9283  XZZ=             -2.3654  YZZ=             -0.9996
  YYZ=              3.4051  XYZ=              5.2522
 Hexadecapole moment (field-independent basis, Debye-Ang**3):
 XXXX=          -3034.2907 YYYY=          -1273.6271 ZZZZ=           -154.5736 XXXY=            -39.6301
 XXXZ=            -64.1098 YYYX=            -89.8576 YYYZ=            -22.1968 ZZZX=              2.5352
 ZZZY=              4.9874 XXYY=           -690.5447 XXZZ=           -484.7934 YYZZ=           -242.7208
 XXYZ=             -6.8415 YYXZ=             -7.4170 ZZXY=              0.8024
 N-N= 9.007592411048D+02 E-N=-3.277595896740D+03  KE= 6.307309672420D+02
 Leave Link  601 at Sat Jan 24 16:31:51 2026, MaxMem=  2147483648 cpu:               0.7 elap:               0.1
 (Enter /data/home/wyx/g16/l9999.exe)
 Electronic transition elements 
                 1             2             3             4             5 
      1  -0.633211D+03 -0.633182D+03 -0.633176D+03 -0.633148D+03 -0.633131D+03
      2  -0.163695D+01 -0.106204D+00  0.790261D-01  0.494851D+00  0.414120D+00
      3  -0.375945D+00 -0.556559D-01 -0.155335D+00 -0.193130D+01 -0.137535D+01
      4  -0.383137D+00 -0.657792D-01 -0.211571D-01 -0.248773D-01  0.757302D-01
      5   0.188554D+00  0.157641D-01 -0.109777D-01 -0.825513D-01 -0.818311D-01
      6   0.468640D-01  0.835676D-02  0.225822D-01  0.340991D+00  0.271637D+00
      7   0.450896D-01  0.673846D-02 -0.219467D-05  0.166079D-02 -0.137116D-01
      8   0.346395D+00 -0.727580D+00  0.442267D+00 -0.134845D+00 -0.254886D+00
      9   0.447584D-03 -0.146290D+00 -0.879644D+00  0.914493D-01  0.382336D-01
     10  -0.139974D+01 -0.469800D+00  0.292106D+00  0.953404D-01  0.221168D+00
     11   0.202954D+00  0.307874D-01 -0.727739D-01 -0.118089D+01 -0.420992D+00
     12  -0.274156D+00 -0.401604D-01  0.449617D-01  0.200441D+00  0.313503D+00
     13  -0.980566D-02  0.961963D-02 -0.617414D-02 -0.871701D-01  0.901210D-02
     14  -0.501276D+00 -0.173148D-01  0.312803D-01 -0.440044D+00 -0.273120D-01
     15  -0.765204D-02  0.212395D-01  0.515498D-01 -0.342896D+00 -0.140660D+00
     16  -0.132060D+00 -0.934933D-01  0.381789D-01 -0.768562D-01 -0.649041D-01
                 6 
      1  -0.633112D+03
      2  -0.556559D-01
      3   0.268231D+00
      4  -0.649995D-01
      5   0.637327D-02
      6  -0.555160D-01
      7   0.333194D-01
      8  -0.826151D-01
      9  -0.143046D-02
     10   0.222273D-01
     11  -0.299286D+00
     12  -0.238306D+00
     13   0.185997D+00
     14   0.215116D-01
     15  -0.976313D-01
     16  -0.129766D+00
 1\1\GINC-CN012\SP\RCAM-B3LYP TD-FC\TZVP\C11H15N1O2\WYX\24-Jan-2026\0\\
 #p CAM-B3LYP TZVP em=gd3bj td(Eqsolv,nstates=6,root=1) scrf=(Solvent=W
 ater) Geom=Check Guess=Read\\Title Card Required\\0,1\O,0,2.739089,-1.
 55862,0.771511\O,0,-3.245355,-1.645769,-1.059826\N,0,-0.703705,1.51422
 6,0.080834\H,0,-1.011972,2.472492,0.020982\C,0,-1.249387,-0.759555,-0.
 157148\C,0,0.641581,1.308914,0.263892\C,0,-1.621687,0.551929,-0.241609
 \C,0,-2.154488,-1.838532,-0.528575\C,0,0.10247,-1.099823,0.397526\H,0,
 0.008954,-1.449804,1.435936\H,0,0.527941,-1.953591,-0.129178\C,0,1.096
 136,0.025281,0.348733\C,0,2.489041,-0.391686,0.469907\C,0,-2.950424,1.
 088404,-0.650903\H,0,-3.033347,2.146532,-0.412091\H,0,-3.102525,0.9693
 11,-1.720644\H,0,-3.757771,0.553276,-0.16516\C,0,-1.718625,-3.25257,-0
 .252146\H,0,-2.561654,-3.923218,-0.376604\H,0,-0.937936,-3.552174,-0.9
 4991\H,0,-1.310311,-3.369913,0.74819\C,0,3.647592,0.535486,0.197444\H,
 0,3.453072,1.238051,-0.60837\H,0,3.89654,1.105737,1.094232\H,0,4.50956
 7,-0.077312,-0.056519\C,0,1.417259,2.583987,0.353938\H,0,2.231353,2.51
 9066,1.064883\H,0,1.831768,2.863832,-0.614382\H,0,0.766824,3.396041,0.
 675055\\Version=ES64L-G16RevA.03\State=1-A\HF=-633.3315956\RMSD=2.575e
 -09\PG=C01 [X(C11H15N1O2)]\\@


 WORK FAITHFULLY FOR EIGHT HOURS A DAY AND DON'T WORRY.
 IN TIME YOU MAY BECOME BOSS AND WORK TWELVE HOURS A DAY
 AND HAVE ALL THE WORRY.
 Job cpu time:       0 days  0 hours 35 minutes 39.3 seconds.
 Elapsed time:       0 days  0 hours  2 minutes 14.6 seconds.
 File lengths (MBytes):  RWF=    735 Int=      0 D2E=      0 Chk=     67 Scr=      1
 Normal termination of Gaussian 16 at Sat Jan 24 16:31:53 2026.
