 Entering Gaussian System, Link 0=g16
 Input=DDL-S2-cLR-gs-4.gjf
 Output=DDL-S2-cLR-gs-4.log
 Initial command:
 /data/home/wyx/g16/l1.exe "/scr/tmp/wyx/13117/Gau-2032177.inp" -scrdir="/scr/tmp/wyx/13117/"
 Entering Link 1 = /data/home/wyx/g16/l1.exe PID=   2032178.
  
 Copyright (c) 1988,1990,1992,1993,1995,1998,2003,2009,2016,
            Gaussian, Inc.  All Rights Reserved.
  
 This is part of the Gaussian(R) 16 program.  It is based on
 the Gaussian(R) 09 system (copyright 2009, Gaussian, Inc.),
 the Gaussian(R) 03 system (copyright 2003, Gaussian, Inc.),
 the Gaussian(R) 98 system (copyright 1998, Gaussian, Inc.),
 the Gaussian(R) 94 system (copyright 1995, Gaussian, Inc.),
 the Gaussian 92(TM) system (copyright 1992, Gaussian, Inc.),
 the Gaussian 90(TM) system (copyright 1990, Gaussian, Inc.),
 the Gaussian 88(TM) system (copyright 1988, Gaussian, Inc.),
 the Gaussian 86(TM) system (copyright 1986, Carnegie Mellon
 University), and the Gaussian 82(TM) system (copyright 1983,
 Carnegie Mellon University). Gaussian is a federally registered
 trademark of Gaussian, Inc.
  
 This software contains proprietary and confidential information,
 including trade secrets, belonging to Gaussian, Inc.
  
 This software is provided under written license and may be
 used, copied, transmitted, or stored only in accord with that
 written license.
  
 The following legend is applicable only to US Government
 contracts under FAR:
  
                    RESTRICTED RIGHTS LEGEND
  
 Use, reproduction and disclosure by the US Government is
 subject to restrictions as set forth in subparagraphs (a)
 and (c) of the Commercial Computer Software - Restricted
 Rights clause in FAR 52.227-19.
  
 Gaussian, Inc.
 340 Quinnipiac St., Bldg. 40, Wallingford CT 06492
  
  
 ---------------------------------------------------------------
 Warning -- This program may not be used in any manner that
 competes with the business of Gaussian, Inc. or will provide
 assistance to any competitor of Gaussian, Inc.  The licensee
 of this program is prohibited from giving any competitor of
 Gaussian, Inc. access to this program.  By using this program,
 the user acknowledges that Gaussian, Inc. is engaged in the
 business of creating and licensing software in the field of
 computational chemistry and represents and warrants to the
 licensee that it is not a competitor of Gaussian, Inc. and that
 it will not use this program in any manner prohibited above.
 ---------------------------------------------------------------
  

 Cite this work as:
 Gaussian 16, Revision A.03,
 M. J. Frisch, G. W. Trucks, H. B. Schlegel, G. E. Scuseria, 
 M. A. Robb, J. R. Cheeseman, G. Scalmani, V. Barone, 
 G. A. Petersson, H. Nakatsuji, X. Li, M. Caricato, A. V. Marenich, 
 J. Bloino, B. G. Janesko, R. Gomperts, B. Mennucci, H. P. Hratchian, 
 J. V. Ortiz, A. F. Izmaylov, J. L. Sonnenberg, D. Williams-Young, 
 F. Ding, F. Lipparini, F. Egidi, J. Goings, B. Peng, A. Petrone, 
 T. Henderson, D. Ranasinghe, V. G. Zakrzewski, J. Gao, N. Rega, 
 G. Zheng, W. Liang, M. Hada, M. Ehara, K. Toyota, R. Fukuda, 
 J. Hasegawa, M. Ishida, T. Nakajima, Y. Honda, O. Kitao, H. Nakai, 
 T. Vreven, K. Throssell, J. A. Montgomery, Jr., J. E. Peralta, 
 F. Ogliaro, M. J. Bearpark, J. J. Heyd, E. N. Brothers, K. N. Kudin, 
 V. N. Staroverov, T. A. Keith, R. Kobayashi, J. Normand, 
 K. Raghavachari, A. P. Rendell, J. C. Burant, S. S. Iyengar, 
 J. Tomasi, M. Cossi, J. M. Millam, M. Klene, C. Adamo, R. Cammi, 
 J. W. Ochterski, R. L. Martin, K. Morokuma, O. Farkas, 
 J. B. Foresman, and D. J. Fox, Gaussian, Inc., Wallingford CT, 2016.
 
 ******************************************
 Gaussian 16:  ES64L-G16RevA.03 25-Dec-2016
                24-Jan-2026 
 ******************************************
 %nprocshared=16
 Will use up to   16 processors via shared memory.
 %mem=16GB
 %oldchk=DDL-S2-cLR-4.chk
 %chk=DDL-S2-cLR-gs-4.chk
 Copying data from "DDL-S2-cLR-4.chk" to current chk file "DDL-S2-cLR-gs-4.chk"
 IOpt=  2 FromEx=T IUOpen= 4 IOptOp= 5 NList=   0 IFRang= 0 IUIn= 4 IUOut= 2.
 ----------------------------------------------------------------------
 #p CAM-B3LYP TZVP em=gd3bj scrf=(Solvent=Water,NonEquilibrium=Read) Ge
 om=Check Guess=Read
 ----------------------------------------------------------------------
 1/29=2,38=1,172=1/1;
 2/12=2,40=1/2;
 3/5=19,7=101,11=2,14=-4,25=1,30=1,70=6002201,72=1,74=-40,116=-2,124=41/1,2,3;
 4/5=1/1;
 5/5=2,38=6,53=1/2;
 6/7=2,8=2,9=2,10=2,28=1/1;
 99/5=1,9=1/99;
 Leave Link    1 at Sat Jan 24 22:53:54 2026, MaxMem=  2147483648 cpu:               0.8 elap:               0.1
 (Enter /data/home/wyx/g16/l101.exe)
 -------------------
 Title Card Required
 -------------------
 Structure from the checkpoint file:  "DDL-S2-cLR-gs-4.chk"
 Charge =  0 Multiplicity = 1
 Z-Matrix found in chk file.
 O,0,2.718277,-1.559497,0.860925
 O,0,-3.301746,-1.66144,-0.911702
 N,0,-0.684117,1.516403,-0.04816
 H,0,-0.992546,2.477061,-0.115788
 C,0,-1.252593,-0.763454,-0.17304
 C,0,0.64373,1.333143,0.20647
 C,0,-1.627723,0.573989,-0.287871
 C,0,-2.164575,-1.849851,-0.468011
 C,0,0.119411,-1.081788,0.286854
 H,0,0.075146,-1.513853,1.302495
 H,0,0.537181,-1.911825,-0.291428
 C,0,1.104649,0.026718,0.314956
 C,0,2.480332,-0.395539,0.511975
 C,0,-2.976931,1.101821,-0.630508
 H,0,-3.012381,2.183685,-0.518062
 H,0,-3.248368,0.857054,-1.653579
 H,0,-3.742106,0.66359,0.001949
 C,0,-1.699932,-3.267048,-0.251406
 H,0,-2.562912,-3.923689,-0.220564
 H,0,-1.065681,-3.588076,-1.077334
 H,0,-1.126364,-3.395774,0.661491
 C,0,3.649423,0.524387,0.260009
 H,0,3.468415,1.242209,-0.535322
 H,0,3.904173,1.076921,1.166879
 H,0,4.505969,-0.093316,-0.002387
 C,0,1.414994,2.600889,0.368861
 H,0,2.1458,2.523987,1.167131
 H,0,1.944021,2.879357,-0.542969
 H,0,0.746455,3.423934,0.618134
 Recover connectivity data from disk.
 ITRead=  0  0  0  0  0  0  0  0  0  0  0  0  0  0  0  0  0  0  0  0
 ITRead=  0  0  0  0  0  0  0  0  0
 MicOpt= -1 -1 -1 -1 -1 -1 -1 -1 -1 -1 -1 -1 -1 -1 -1 -1 -1 -1 -1 -1
 MicOpt= -1 -1 -1 -1 -1 -1 -1 -1 -1
 NAtoms=     29 NQM=       29 NQMF=       0 NMMI=      0 NMMIF=      0
                NMic=       0 NMicF=      0.
                    Isotopes and Nuclear Properties:
 (Nuclear quadrupole moments (NQMom) in fm**2, nuclear magnetic moments (NMagM)
  in nuclear magnetons)

  Atom         1           2           3           4           5           6           7           8           9          10
 IAtWgt=          16          16          14           1          12          12          12          12          12           1
 AtmWgt=  15.9949146  15.9949146  14.0030740   1.0078250  12.0000000  12.0000000  12.0000000  12.0000000  12.0000000   1.0078250
 NucSpn=           0           0           2           1           0           0           0           0           0           1
 AtZEff=   5.6000000   5.6000000   4.5500000   1.0000000   3.6000000   3.6000000   3.6000000   3.6000000   3.6000000   1.0000000
 NQMom=    0.0000000   0.0000000   2.0440000   0.0000000   0.0000000   0.0000000   0.0000000   0.0000000   0.0000000   0.0000000
 NMagM=    0.0000000   0.0000000   0.4037610   2.7928460   0.0000000   0.0000000   0.0000000   0.0000000   0.0000000   2.7928460
 AtZNuc=   8.0000000   8.0000000   7.0000000   1.0000000   6.0000000   6.0000000   6.0000000   6.0000000   6.0000000   1.0000000

  Atom        11          12          13          14          15          16          17          18          19          20
 IAtWgt=           1          12          12          12           1           1           1          12           1           1
 AtmWgt=   1.0078250  12.0000000  12.0000000  12.0000000   1.0078250   1.0078250   1.0078250  12.0000000   1.0078250   1.0078250
 NucSpn=           1           0           0           0           1           1           1           0           1           1
 AtZEff=   1.0000000   3.6000000   3.6000000   3.6000000   1.0000000   1.0000000   1.0000000   3.6000000   1.0000000   1.0000000
 NQMom=    0.0000000   0.0000000   0.0000000   0.0000000   0.0000000   0.0000000   0.0000000   0.0000000   0.0000000   0.0000000
 NMagM=    2.7928460   0.0000000   0.0000000   0.0000000   2.7928460   2.7928460   2.7928460   0.0000000   2.7928460   2.7928460
 AtZNuc=   1.0000000   6.0000000   6.0000000   6.0000000   1.0000000   1.0000000   1.0000000   6.0000000   1.0000000   1.0000000

  Atom        21          22          23          24          25          26          27          28          29
 IAtWgt=           1          12           1           1           1          12           1           1           1
 AtmWgt=   1.0078250  12.0000000   1.0078250   1.0078250   1.0078250  12.0000000   1.0078250   1.0078250   1.0078250
 NucSpn=           1           0           1           1           1           0           1           1           1
 AtZEff=   1.0000000   3.6000000   1.0000000   1.0000000   1.0000000   3.6000000   1.0000000   1.0000000   1.0000000
 NQMom=    0.0000000   0.0000000   0.0000000   0.0000000   0.0000000   0.0000000   0.0000000   0.0000000   0.0000000
 NMagM=    2.7928460   0.0000000   2.7928460   2.7928460   2.7928460   0.0000000   2.7928460   2.7928460   2.7928460
 AtZNuc=   1.0000000   6.0000000   1.0000000   1.0000000   1.0000000   6.0000000   1.0000000   1.0000000   1.0000000
 Leave Link  101 at Sat Jan 24 22:53:57 2026, MaxMem=  2147483648 cpu:               0.9 elap:               0.1
 (Enter /data/home/wyx/g16/l202.exe)
                          Input orientation:                          
 ---------------------------------------------------------------------
 Center     Atomic      Atomic             Coordinates (Angstroms)
 Number     Number       Type             X           Y           Z
 ---------------------------------------------------------------------
      1          8           0        2.718277   -1.559497    0.860925
      2          8           0       -3.301746   -1.661440   -0.911702
      3          7           0       -0.684117    1.516403   -0.048160
      4          1           0       -0.992546    2.477061   -0.115788
      5          6           0       -1.252593   -0.763454   -0.173040
      6          6           0        0.643730    1.333143    0.206470
      7          6           0       -1.627723    0.573989   -0.287871
      8          6           0       -2.164575   -1.849851   -0.468011
      9          6           0        0.119411   -1.081788    0.286854
     10          1           0        0.075146   -1.513853    1.302495
     11          1           0        0.537181   -1.911825   -0.291428
     12          6           0        1.104649    0.026718    0.314956
     13          6           0        2.480332   -0.395539    0.511975
     14          6           0       -2.976931    1.101821   -0.630508
     15          1           0       -3.012381    2.183685   -0.518062
     16          1           0       -3.248368    0.857054   -1.653579
     17          1           0       -3.742106    0.663590    0.001949
     18          6           0       -1.699932   -3.267048   -0.251406
     19          1           0       -2.562912   -3.923689   -0.220564
     20          1           0       -1.065681   -3.588076   -1.077334
     21          1           0       -1.126364   -3.395774    0.661491
     22          6           0        3.649423    0.524387    0.260009
     23          1           0        3.468415    1.242209   -0.535322
     24          1           0        3.904173    1.076921    1.166879
     25          1           0        4.505969   -0.093316   -0.002387
     26          6           0        1.414994    2.600889    0.368861
     27          1           0        2.145800    2.523987    1.167131
     28          1           0        1.944021    2.879357   -0.542969
     29          1           0        0.746455    3.423934    0.618134
 ---------------------------------------------------------------------
                    Distance matrix (angstroms):
                    1          2          3          4          5
     1  O    0.000000
     2  O    6.276406   0.000000
     3  N    4.675883   4.206706   0.000000
     4  H    5.569378   4.805525   1.011220   0.000000
     5  C    4.179782   2.356062   2.352979   3.251437   0.000000
     6  C    3.619312   5.077856   1.364404   2.022325   2.852330
     7  C    4.975863   2.861584   1.354990   2.013640   1.393794
     8  C    5.068789   1.235119   3.701310   4.496652   1.448785
     9  C    2.704047   3.671083   2.740162   3.750197   1.481632
    10  H    2.680151   4.040773   3.403410   4.367939   2.122073
    11  H    2.491833   3.896767   3.647396   4.651154   2.129803
    12  C    2.327650   4.875539   2.355992   3.253913   2.533595
    13  C    1.238217   6.087839   3.739386   4.550472   3.813048
    14  C    6.460834   2.796460   2.401667   2.468604   2.581060
    15  H    6.982368   3.876038   2.467162   2.080295   3.449858
    16  H    6.911100   2.626032   3.096368   3.174580   2.966675
    17  H    6.885964   2.536620   3.175074   3.295849   2.874848
    18  C    4.865550   2.362155   4.894343   5.789091   2.544452
    19  H    5.886423   2.478168   5.757968   6.591406   3.421444
    20  H    4.710660   2.956239   5.221158   6.141320   2.971729
    21  H    4.265320   3.196113   4.982838   5.925560   2.764323
    22  C    2.360234   7.380345   4.456303   5.049954   5.086829
    23  H    3.218970   7.376172   4.189992   4.647692   5.142164
    24  H    2.907001   7.984008   4.766746   5.251998   5.636896
    25  H    2.467962   8.015378   5.434177   6.070697   5.799935
    26  C    4.387424   6.484977   2.399226   2.458956   4.327641
    27  H    4.134771   7.177402   3.240461   3.390767   4.914509
    28  H    4.719514   6.947868   3.001598   2.994620   4.860582
    29  H    5.364850   6.677526   2.475714   2.111714   4.707055
                    6          7          8          9         10
     6  C    0.000000
     7  C    2.445442   0.000000
     8  C    4.298017   2.489108   0.000000
     9  C    2.472502   2.474749   2.525140   0.000000
    10  H    3.103215   3.128596   2.874706   1.104611   0.000000
    11  H    3.284672   3.296376   2.708230   1.094488   1.706590
    12  C    1.389591   2.851099   3.849984   1.483330   2.099635
    13  C    2.540626   4.296028   4.964933   2.468920   2.767755
    14  C    3.723336   1.488747   3.065729   3.898337   4.460205
    15  H    3.823024   2.135740   4.121977   4.595577   5.149664
    16  H    4.339916   2.138171   3.147620   4.343538   5.040369
    17  H    4.441361   2.136034   3.004472   4.247214   4.583022
    18  C    5.183065   3.841889   1.507069   2.893975   2.939252
    19  H    6.172454   4.594368   2.126195   3.940651   3.884117
    20  H    5.365504   4.273398   2.144824   3.089811   3.356706
    21  H    5.069806   4.112380   2.177966   2.654588   2.322959
    22  C    3.113060   5.305742   6.322151   3.878338   4.244603
    23  H    2.921878   5.145714   6.426192   4.158457   4.742122
    24  H    3.408596   5.742048   6.933149   4.445098   4.625143
    25  H    4.122535   6.176486   6.913637   4.505844   4.832477
    26  C    1.492782   3.714532   5.772587   3.904788   4.426959
    27  H    2.144107   4.489877   6.354800   4.228800   4.539833
    28  H    2.154807   4.258774   6.265109   4.439423   5.118469
    29  H    2.133407   3.818344   6.120998   4.561191   5.029985
                   11         12         13         14         15
    11  H    0.000000
    12  C    2.108950   0.000000
    13  C    2.592376   1.452454   0.000000
    14  C    4.641769   4.325395   5.773134   0.000000
    15  H    5.424385   4.721902   6.154939   1.088270   0.000000
    16  H    4.883905   4.849056   6.251129   1.086399   1.762112
    17  H    5.003112   4.898430   6.332505   1.085146   1.764539
    18  C    2.615895   4.362950   5.128637   4.567435   5.612853
    19  H    3.696376   5.416964   6.198287   5.059172   6.131113
    20  H    2.448802   4.440218   5.029155   5.084060   6.116833
    21  H    2.424364   4.100117   4.693828   5.032119   6.006560
    22  C    3.990647   2.593563   1.508816   6.710814   6.909291
    23  H    4.312719   2.790660   2.180678   6.447577   6.548847
    24  H    4.732430   3.109025   2.150433   7.112019   7.204351
    25  H    4.375134   3.418200   2.111661   7.603728   7.872499
    26  C    4.644473   2.593372   3.183396   4.747099   4.534572
    27  H    4.938773   2.836644   3.010776   5.612168   5.437142
    28  H    4.999790   3.094855   3.482166   5.232883   5.005048
    29  H    5.416772   3.429475   4.195947   4.562337   4.118010
                   16         17         18         19         20
    16  H    0.000000
    17  H    1.738384   0.000000
    18  C    4.622982   4.436731   0.000000
    19  H    5.037746   4.741639   1.084833   0.000000
    20  H    4.985515   5.138557   1.089720   1.757382   0.000000
    21  H    5.286681   4.873965   1.085786   1.766461   1.750478
    22  C    7.166031   7.397342   6.576635   7.655680   6.397894
    23  H    6.820119   7.253625   6.864825   7.947483   6.647064
    24  H    7.691695   7.745546   7.231016   8.291820   7.176220
    25  H    7.984947   8.282733   6.974797   8.042912   6.664244
    26  C    5.373841   5.521180   6.672344   7.664286   6.822647
    27  H    6.311269   6.283802   7.094927   8.103715   7.260065
    28  H    5.681907   6.126875   7.151342   8.166874   7.153429
    29  H    5.263854   5.305315   7.177057   8.102030   7.438194
                   21         22         23         24         25
    21  H    0.000000
    22  C    6.191687   0.000000
    23  H    6.637412   1.086547   0.000000
    24  H    6.750313   1.092064   1.764849   0.000000
    25  H    6.562784   1.088154   1.773179   1.760340   0.000000
    26  C    6.519517   3.052275   2.622994   3.025776   4.117122
    27  H    6.782794   2.661231   2.508109   2.277252   3.713280
    28  H    7.089094   3.016464   2.236982   3.164578   3.961388
    29  H    7.072323   4.118598   3.674160   3.972502   5.185561
                   26         27         28         29
    26  C    0.000000
    27  H    1.085001   0.000000
    28  H    1.090343   1.758250   0.000000
    29  H    1.089259   1.751990   1.754676   0.000000
 Stoichiometry    C11H15NO2
 Framework group  C1[X(C11H15NO2)]
 Deg. of freedom    81
 Full point group                 C1      NOp   1
 RotChk:  IX=0 Diff= 3.58D-16
 Largest Abelian subgroup         C1      NOp   1
 Largest concise Abelian subgroup C1      NOp   1
                         Standard orientation:                         
 ---------------------------------------------------------------------
 Center     Atomic      Atomic             Coordinates (Angstroms)
 Number     Number       Type             X           Y           Z
 ---------------------------------------------------------------------
      1          8           0       -2.288470   -2.285655   -0.264503
      2          8           0        3.626315   -0.259194    0.285084
      3          7           0       -0.021568    1.800575   -0.097887
      4          1           0       -0.049229    2.811357   -0.108819
      5          6           0        1.296751   -0.147802   -0.049203
      6          6           0       -1.232054    1.171235   -0.081973
      7          6           0        1.211843    1.243314   -0.033432
      8          6           0        2.559592   -0.846373    0.078103
      9          6           0        0.054114   -0.935662   -0.223462
     10          1           0        0.057862   -1.411426   -1.220357
     11          1           0        0.053129   -1.806176    0.439943
     12          6           0       -1.235730   -0.218333   -0.075099
     13          6           0       -2.399217   -1.083517    0.010782
     14          6           0        2.341452    2.211156    0.026856
     15          1           0        1.988191    3.231531   -0.108686
     16          1           0        2.859455    2.154288    0.980115
     17          1           0        3.082293    1.997840   -0.736814
     18          6           0        2.570421   -2.350312   -0.018382
     19          1           0        3.583953   -2.687440   -0.208014
     20          1           0        2.242076   -2.792510    0.921905
     21          1           0        1.919478   -2.734992   -0.797629
     22          6           0       -3.744616   -0.580904    0.473174
     23          1           0       -3.676622    0.219541    1.204782
     24          1           0       -4.330285   -0.219377   -0.374702
     25          1           0       -4.279647   -1.421700    0.910074
     26          6           0       -2.402308    2.097576   -0.110210
     27          1           0       -3.195332    1.719493   -0.746913
     28          1           0       -2.820624    2.261114    0.883327
     29          1           0       -2.107983    3.070958   -0.500575
 ---------------------------------------------------------------------
 Rotational constants (GHZ):           1.0744364           0.4899802           0.3433974
 Leave Link  202 at Sat Jan 24 22:53:57 2026, MaxMem=  2147483648 cpu:               0.0 elap:               0.0
 (Enter /data/home/wyx/g16/l301.exe)
 Standard basis: TZVP (5D, 7F)
 Ernie: Thresh=  0.10000D-02 Tol=  0.10000D-05 Strict=F.
 There are   370 symmetry adapted cartesian basis functions of A   symmetry.
 There are   356 symmetry adapted basis functions of A   symmetry.
   356 basis functions,   610 primitive gaussians,   370 cartesian basis functions
    52 alpha electrons       52 beta electrons
       nuclear repulsion energy       899.4300338985 Hartrees.
 IExCor=20419 DFT=T Ex+Corr=CAM-B3LYP ExCW=0 ScaHFX=  1.000000
 ScaDFX=  1.000000  1.000000  1.000000  0.810000 ScalE2=  1.000000  1.000000
 IRadAn=      5 IRanWt=     -1 IRanGd=            0 ICorTp=0 IEmpDi=141
 HFx  wShort=  0.000000 wLong=  0.330000 cFull=  0.190000 cShort=  0.000000 cLong=  0.460000
 DFx  wShort=  0.000000 wLong=  0.330000 cFull=  0.190000 cShort=  0.000000 cLong=  0.460000
 NAtoms=   29 NActive=   29 NUniq=   29 SFac= 1.00D+00 NAtFMM=   60 NAOKFM=F Big=F
 Integral buffers will be    131072 words long.
 Raffenetti 2 integral format.
 Two-electron integral symmetry is turned on.
 R6Disp:  Grimme-D3(BJ) Dispersion energy=       -0.0261398595 Hartrees.
 Nuclear repulsion after empirical dispersion term =      899.4038940390 Hartrees.
 ------------------------------------------------------------------------------
 Polarizable Continuum Model (PCM)
 =================================
 Model                : PCM.
 Atomic radii         : UFF (Universal Force Field).
 Polarization charges : Total charges.
 Charge compensation  : None.
 Solution method      : On-the-fly selection.
 Cavity type          : Scaled VdW (van der Waals Surface) (Alpha=1.100).
 Cavity algorithm     : GePol (No added spheres)
                        Default sphere list used, NSphG=   29.
                        Lebedev-Laikov grids with approx.  5.0 points / Ang**2.
                        Smoothing algorithm: York/Karplus (Gamma=1.0000).
                        Polarization charges: spherical gaussians, with
                                              point-specific exponents (IZeta= 3).
                        Self-potential: point-specific (ISelfS= 7).
                        Self-field    : sphere-specific E.n sum rule (ISelfD= 2).
 Solvent              : Water, Eps=  78.355300 Eps(inf)=   1.777849
 ------------------------------------------------------------------------------
 GePol: Number of generator spheres                  =      29
 GePol: Total number of spheres                      =      29
 GePol: Number of exposed spheres                    =      29 (100.00%)
 GePol: Number of points                             =    2104
 GePol: Average weight of points                     =       0.13
 GePol: Minimum weight of points                     =   0.47D-11
 GePol: Maximum weight of points                     =    0.20577
 GePol: Number of points with low weight             =     127
 GePol: Fraction of low-weight points (<1% of avg)   =       6.04%
 GePol: Cavity surface area                          =    269.253 Ang**2
 GePol: Cavity volume                                =    287.235 Ang**3
 Leave Link  301 at Sat Jan 24 22:53:58 2026, MaxMem=  2147483648 cpu:               0.6 elap:               0.0
 (Enter /data/home/wyx/g16/l302.exe)
 NPDir=0 NMtPBC=     1 NCelOv=     1 NCel=       1 NClECP=     1 NCelD=      1
         NCelK=      1 NCelE2=     1 NClLst=     1 CellRange=     0.0.
 One-electron integrals computed using PRISM.
 One-electron integral symmetry used in STVInt
 NBasis=   356 RedAO= T EigKep=  4.26D-05  NBF=   356
 NBsUse=   356 1.00D-06 EigRej= -1.00D+00 NBFU=   356
 Precomputing XC quadrature grid using
 IXCGrd= 4 IRadAn=           5 IRanWt=          -1 IRanGd=           0 AccXCQ= 0.00D+00.
 Generated NRdTot=       0 NPtTot=           0 NUsed=           0 NTot=          32
 NSgBfM=   366   366   366   366   366 MxSgAt=    29 MxSgA2=    29.
 Leave Link  302 at Sat Jan 24 22:53:58 2026, MaxMem=  2147483648 cpu:               3.1 elap:               0.2
 (Enter /data/home/wyx/g16/l303.exe)
 DipDrv:  MaxL=1.
 Leave Link  303 at Sat Jan 24 22:53:59 2026, MaxMem=  2147483648 cpu:               0.6 elap:               0.0
 (Enter /data/home/wyx/g16/l401.exe)
 Initial guess from the checkpoint file:  "DDL-S2-cLR-gs-4.chk"
 B after Tr=    -0.000000    0.000000   -0.000000
         Rot=    1.000000    0.000000   -0.000000   -0.000000 Ang=   0.00 deg.
 Guess basis will be translated and rotated to current coordinates.
 JPrj=2 DoOrth=T DoCkMO=T.
 Leave Link  401 at Sat Jan 24 22:54:00 2026, MaxMem=  2147483648 cpu:               2.2 elap:               0.2
 (Enter /data/home/wyx/g16/l502.exe)
 Integral symmetry usage will be decided dynamically.
 Closed shell SCF:
 Using DIIS extrapolation, IDIIS=  1040.
 NGot=  2147483648 LenX=  2147200095 LenY=  2147062754
 Requested convergence on RMS density matrix=1.00D-08 within 128 cycles.
 Requested convergence on MAX density matrix=1.00D-06.
 Requested convergence on             energy=1.00D-06.
 No special actions if energy rises.
 Fock matrices will be formed incrementally for  20 cycles.

 Cycle   1  Pass 1  IDiag  1:
 FoFJK:  IHMeth= 1 ICntrl=       0 DoSepK=T KAlg= 0 I1Cent=           0 FoldK=F
 IRaf=         1 NMat=       1 IRICut=       1 DoRegI=T DoRafI=F ISym2E= 0 IDoP0=0 IntGTp=1.
 FoFCou: FMM=F IPFlag=           0 FMFlag=      100000 FMFlg1=           0
         NFxFlg=           0 DoJE=T BraDBF=F KetDBF=F FulRan=T
         wScrn=  0.000000 ICntrl=       500 IOpCl=  0 I1Cent=           0 NGrid=           0
         NMat0=    1 NMatS0=      1 NMatT0=    0 NMatD0=    1 NMtDS0=    0 NMtDT0=    0
 Symmetry not used in FoFCou.
 Inv3:  Mode=1 IEnd=    13280448.
 Iteration    1 A*A^-1 deviation from unit magnitude is 3.11D-15 for    339.
 Iteration    1 A*A^-1 deviation from orthogonality  is 2.11D-15 for   1768    165.
 Iteration    1 A^-1*A deviation from unit magnitude is 2.89D-15 for    339.
 Iteration    1 A^-1*A deviation from orthogonality  is 1.74D-15 for   1779    252.
 NEqPCM:  Using non-equilibrium solvation (IEInf=1, Eps=  78.3553, EpsInf=   1.7778)
 Inv3:  Mode=1 IEnd=    13280448.
 Iteration    1 A*A^-1 deviation from unit magnitude is 3.11D-15 for    498.
 Iteration    1 A*A^-1 deviation from orthogonality  is 1.88D-15 for   1918    106.
 Iteration    1 A^-1*A deviation from unit magnitude is 3.33D-15 for    498.
 Iteration    1 A^-1*A deviation from orthogonality  is 2.56D-15 for   1535   1120.
 E= -633.323035426386    
 DIIS: error= 8.44D-04 at cycle   1 NSaved=   1.
 NSaved= 1 IEnMin= 1 EnMin= -633.323035426386     IErMin= 1 ErrMin= 8.44D-04
 ErrMax= 8.44D-04  0.00D+00 EMaxC= 1.00D-01 BMatC= 1.41D-04 BMatP= 1.41D-04
 IDIUse=3 WtCom= 9.92D-01 WtEn= 8.44D-03
 Coeff-Com:  0.100D+01
 Coeff-En:   0.100D+01
 Coeff:      0.100D+01
 Gap=     0.220 Goal=   None    Shift=    0.000
 RMSDP=5.18D-04 MaxDP=3.61D-02              OVMax= 1.47D-02

 Cycle   2  Pass 1  IDiag  1:
 RMSU=  5.14D-04    CP:  1.01D+00
 E= -633.323293657136     Delta-E=       -0.000258230750 Rises=F Damp=F
 DIIS: error= 5.56D-04 at cycle   2 NSaved=   2.
 NSaved= 2 IEnMin= 2 EnMin= -633.323293657136     IErMin= 2 ErrMin= 5.56D-04
 ErrMax= 5.56D-04  0.00D+00 EMaxC= 1.00D-01 BMatC= 1.44D-04 BMatP= 1.41D-04
 IDIUse=3 WtCom= 9.94D-01 WtEn= 5.56D-03
 Coeff-Com:  0.504D+00 0.496D+00
 Coeff-En:   0.000D+00 0.100D+01
 Coeff:      0.501D+00 0.499D+00
 Gap=     0.220 Goal=   None    Shift=    0.000
 RMSDP=1.47D-04 MaxDP=8.31D-03 DE=-2.58D-04 OVMax= 3.05D-03

 Cycle   3  Pass 1  IDiag  1:
 RMSU=  1.34D-04    CP:  1.00D+00  9.65D-01
 E= -633.323407694383     Delta-E=       -0.000114037248 Rises=F Damp=F
 DIIS: error= 2.13D-04 at cycle   3 NSaved=   3.
 NSaved= 3 IEnMin= 3 EnMin= -633.323407694383     IErMin= 3 ErrMin= 2.13D-04
 ErrMax= 2.13D-04  0.00D+00 EMaxC= 1.00D-01 BMatC= 1.73D-05 BMatP= 1.41D-04
 IDIUse=3 WtCom= 9.98D-01 WtEn= 2.13D-03
 Coeff-Com:  0.717D-01 0.234D+00 0.695D+00
 Coeff-En:   0.000D+00 0.000D+00 0.100D+01
 Coeff:      0.716D-01 0.233D+00 0.695D+00
 Gap=     0.220 Goal=   None    Shift=    0.000
 RMSDP=3.79D-05 MaxDP=1.85D-03 DE=-1.14D-04 OVMax= 2.11D-03

 Cycle   4  Pass 1  IDiag  1:
 RMSU=  2.85D-05    CP:  1.00D+00  9.82D-01  1.18D+00
 E= -633.323423172533     Delta-E=       -0.000015478149 Rises=F Damp=F
 DIIS: error= 1.11D-04 at cycle   4 NSaved=   4.
 NSaved= 4 IEnMin= 4 EnMin= -633.323423172533     IErMin= 4 ErrMin= 1.11D-04
 ErrMax= 1.11D-04  0.00D+00 EMaxC= 1.00D-01 BMatC= 1.58D-06 BMatP= 1.73D-05
 IDIUse=3 WtCom= 9.99D-01 WtEn= 1.11D-03
 Coeff-Com: -0.115D-01 0.152D-01 0.217D+00 0.779D+00
 Coeff-En:   0.000D+00 0.000D+00 0.000D+00 0.100D+01
 Coeff:     -0.115D-01 0.152D-01 0.217D+00 0.779D+00
 Gap=     0.220 Goal=   None    Shift=    0.000
 RMSDP=2.67D-05 MaxDP=1.44D-03 DE=-1.55D-05 OVMax= 1.34D-03

 Cycle   5  Pass 1  IDiag  1:
 RMSU=  1.29D-05    CP:  1.00D+00  9.90D-01  1.33D+00  1.04D+00
 E= -633.323425552202     Delta-E=       -0.000002379669 Rises=F Damp=F
 DIIS: error= 3.84D-05 at cycle   5 NSaved=   5.
 NSaved= 5 IEnMin= 5 EnMin= -633.323425552202     IErMin= 5 ErrMin= 3.84D-05
 ErrMax= 3.84D-05  0.00D+00 EMaxC= 1.00D-01 BMatC= 4.49D-07 BMatP= 1.58D-06
 IDIUse=1 WtCom= 1.00D+00 WtEn= 0.00D+00
 Coeff-Com: -0.139D-01-0.348D-01-0.727D-02 0.361D+00 0.695D+00
 Coeff:     -0.139D-01-0.348D-01-0.727D-02 0.361D+00 0.695D+00
 Gap=     0.220 Goal=   None    Shift=    0.000
 RMSDP=1.09D-05 MaxDP=5.08D-04 DE=-2.38D-06 OVMax= 5.38D-04

 Cycle   6  Pass 1  IDiag  1:
 RMSU=  4.35D-06    CP:  1.00D+00  9.89D-01  1.40D+00  1.23D+00  1.07D+00
 E= -633.323426301212     Delta-E=       -0.000000749010 Rises=F Damp=F
 DIIS: error= 3.03D-05 at cycle   6 NSaved=   6.
 NSaved= 6 IEnMin= 6 EnMin= -633.323426301212     IErMin= 6 ErrMin= 3.03D-05
 ErrMax= 3.03D-05  0.00D+00 EMaxC= 1.00D-01 BMatC= 5.10D-08 BMatP= 4.49D-07
 IDIUse=1 WtCom= 1.00D+00 WtEn= 0.00D+00
 Coeff-Com: -0.881D-03-0.173D-01-0.279D-01-0.483D-03 0.177D+00 0.869D+00
 Coeff:     -0.881D-03-0.173D-01-0.279D-01-0.483D-03 0.177D+00 0.869D+00
 Gap=     0.220 Goal=   None    Shift=    0.000
 RMSDP=5.00D-06 MaxDP=2.07D-04 DE=-7.49D-07 OVMax= 4.38D-04

 Cycle   7  Pass 1  IDiag  1:
 RMSU=  1.95D-06    CP:  1.00D+00  9.86D-01  1.42D+00  1.31D+00  1.17D+00
                    CP:  1.29D+00
 E= -633.323426465428     Delta-E=       -0.000000164216 Rises=F Damp=F
 DIIS: error= 1.22D-05 at cycle   7 NSaved=   7.
 NSaved= 7 IEnMin= 7 EnMin= -633.323426465428     IErMin= 7 ErrMin= 1.22D-05
 ErrMax= 1.22D-05  0.00D+00 EMaxC= 1.00D-01 BMatC= 2.73D-08 BMatP= 5.10D-08
 IDIUse=1 WtCom= 1.00D+00 WtEn= 0.00D+00
 Coeff-Com:  0.266D-02-0.340D-02-0.869D-02-0.767D-01-0.109D+00 0.461D+00
 Coeff-Com:  0.734D+00
 Coeff:      0.266D-02-0.340D-02-0.869D-02-0.767D-01-0.109D+00 0.461D+00
 Coeff:      0.734D+00
 Gap=     0.220 Goal=   None    Shift=    0.000
 RMSDP=2.35D-06 MaxDP=8.78D-05 DE=-1.64D-07 OVMax= 2.31D-04

 Cycle   8  Pass 1  IDiag  1:
 RMSU=  7.57D-07    CP:  1.00D+00  9.85D-01  1.43D+00  1.35D+00  1.22D+00
                    CP:  1.55D+00  1.13D+00
 E= -633.323426519349     Delta-E=       -0.000000053921 Rises=F Damp=F
 DIIS: error= 3.99D-06 at cycle   8 NSaved=   8.
 NSaved= 8 IEnMin= 8 EnMin= -633.323426519349     IErMin= 8 ErrMin= 3.99D-06
 ErrMax= 3.99D-06  0.00D+00 EMaxC= 1.00D-01 BMatC= 2.65D-09 BMatP= 2.73D-08
 IDIUse=1 WtCom= 1.00D+00 WtEn= 0.00D+00
 Coeff-Com:  0.113D-02 0.789D-03 0.251D-02-0.246D-01-0.858D-01 0.188D-01
 Coeff-Com:  0.248D+00 0.839D+00
 Coeff:      0.113D-02 0.789D-03 0.251D-02-0.246D-01-0.858D-01 0.188D-01
 Coeff:      0.248D+00 0.839D+00
 Gap=     0.220 Goal=   None    Shift=    0.000
 RMSDP=9.56D-07 MaxDP=3.54D-05 DE=-5.39D-08 OVMax= 9.07D-05

 Cycle   9  Pass 1  IDiag  1:
 RMSU=  2.64D-07    CP:  1.00D+00  9.84D-01  1.43D+00  1.36D+00  1.22D+00
                    CP:  1.68D+00  1.33D+00  1.15D+00
 E= -633.323426525873     Delta-E=       -0.000000006523 Rises=F Damp=F
 DIIS: error= 1.34D-06 at cycle   9 NSaved=   9.
 NSaved= 9 IEnMin= 9 EnMin= -633.323426525873     IErMin= 9 ErrMin= 1.34D-06
 ErrMax= 1.34D-06  0.00D+00 EMaxC= 1.00D-01 BMatC= 3.30D-10 BMatP= 2.65D-09
 IDIUse=1 WtCom= 1.00D+00 WtEn= 0.00D+00
 Coeff-Com:  0.378D-04 0.676D-03 0.221D-02 0.415D-02-0.190D-01-0.596D-01
 Coeff-Com: -0.201D-02 0.333D+00 0.741D+00
 Coeff:      0.378D-04 0.676D-03 0.221D-02 0.415D-02-0.190D-01-0.596D-01
 Coeff:     -0.201D-02 0.333D+00 0.741D+00
 Gap=     0.220 Goal=   None    Shift=    0.000
 RMSDP=3.15D-07 MaxDP=1.76D-05 DE=-6.52D-09 OVMax= 2.69D-05

 Cycle  10  Pass 1  IDiag  1:
 RMSU=  1.18D-07    CP:  1.00D+00  9.84D-01  1.43D+00  1.37D+00  1.21D+00
                    CP:  1.71D+00  1.39D+00  1.26D+00  1.00D+00
 E= -633.323426526510     Delta-E=       -0.000000000637 Rises=F Damp=F
 DIIS: error= 4.02D-07 at cycle  10 NSaved=  10.
 NSaved=10 IEnMin=10 EnMin= -633.323426526510     IErMin=10 ErrMin= 4.02D-07
 ErrMax= 4.02D-07  0.00D+00 EMaxC= 1.00D-01 BMatC= 6.85D-11 BMatP= 3.30D-10
 IDIUse=1 WtCom= 1.00D+00 WtEn= 0.00D+00
 Coeff-Com: -0.972D-04 0.331D-03 0.254D-03 0.435D-02 0.215D-02-0.260D-01
 Coeff-Com: -0.272D-01 0.111D-01 0.299D+00 0.736D+00
 Coeff:     -0.972D-04 0.331D-03 0.254D-03 0.435D-02 0.215D-02-0.260D-01
 Coeff:     -0.272D-01 0.111D-01 0.299D+00 0.736D+00
 Gap=     0.220 Goal=   None    Shift=    0.000
 RMSDP=1.13D-07 MaxDP=7.14D-06 DE=-6.37D-10 OVMax= 7.45D-06

 Cycle  11  Pass 1  IDiag  1:
 RMSU=  3.44D-08    CP:  1.00D+00  9.84D-01  1.43D+00  1.37D+00  1.21D+00
                    CP:  1.72D+00  1.42D+00  1.29D+00  1.14D+00  1.12D+00
 E= -633.323426526605     Delta-E=       -0.000000000096 Rises=F Damp=F
 DIIS: error= 1.71D-07 at cycle  11 NSaved=  11.
 NSaved=11 IEnMin=11 EnMin= -633.323426526605     IErMin=11 ErrMin= 1.71D-07
 ErrMax= 1.71D-07  0.00D+00 EMaxC= 1.00D-01 BMatC= 1.15D-11 BMatP= 6.85D-11
 IDIUse=1 WtCom= 1.00D+00 WtEn= 0.00D+00
 Coeff-Com: -0.591D-04 0.962D-04-0.327D-03 0.154D-02 0.446D-02-0.142D-02
 Coeff-Com: -0.104D-01-0.573D-01 0.200D-01 0.317D+00 0.726D+00
 Coeff:     -0.591D-04 0.962D-04-0.327D-03 0.154D-02 0.446D-02-0.142D-02
 Coeff:     -0.104D-01-0.573D-01 0.200D-01 0.317D+00 0.726D+00
 Gap=     0.220 Goal=   None    Shift=    0.000
 RMSDP=5.41D-08 MaxDP=4.54D-06 DE=-9.58D-11 OVMax= 2.40D-06

 Cycle  12  Pass 1  IDiag  1:
 RMSU=  1.89D-08    CP:  1.00D+00  9.84D-01  1.43D+00  1.37D+00  1.21D+00
                    CP:  1.72D+00  1.42D+00  1.30D+00  1.17D+00  1.27D+00
                    CP:  1.02D+00
 E= -633.323426526610     Delta-E=       -0.000000000004 Rises=F Damp=F
 DIIS: error= 7.26D-08 at cycle  12 NSaved=  12.
 NSaved=12 IEnMin=12 EnMin= -633.323426526610     IErMin=12 ErrMin= 7.26D-08
 ErrMax= 7.26D-08  0.00D+00 EMaxC= 1.00D-01 BMatC= 1.79D-12 BMatP= 1.15D-11
 IDIUse=1 WtCom= 1.00D+00 WtEn= 0.00D+00
 Coeff-Com: -0.140D-04 0.228D-04-0.181D-03 0.112D-03 0.159D-02 0.254D-02
 Coeff-Com: -0.240D-03-0.262D-01-0.244D-01 0.317D-01 0.337D+00 0.678D+00
 Coeff:     -0.140D-04 0.228D-04-0.181D-03 0.112D-03 0.159D-02 0.254D-02
 Coeff:     -0.240D-03-0.262D-01-0.244D-01 0.317D-01 0.337D+00 0.678D+00
 Gap=     0.220 Goal=   None    Shift=    0.000
 RMSDP=1.19D-08 MaxDP=7.31D-07 DE=-4.43D-12 OVMax= 8.63D-07

 Cycle  13  Pass 1  IDiag  1:
 RMSU=  7.10D-09    CP:  1.00D+00  9.84D-01  1.43D+00  1.37D+00  1.21D+00
                    CP:  1.72D+00  1.42D+00  1.30D+00  1.19D+00  1.29D+00
                    CP:  1.14D+00  8.76D-01
 E= -633.323426526607     Delta-E=        0.000000000003 Rises=F Damp=F
 DIIS: error= 2.35D-08 at cycle  13 NSaved=  13.
 NSaved=13 IEnMin=12 EnMin= -633.323426526610     IErMin=13 ErrMin= 2.35D-08
 ErrMax= 2.35D-08  0.00D+00 EMaxC= 1.00D-01 BMatC= 3.55D-13 BMatP= 1.79D-12
 IDIUse=1 WtCom= 1.00D+00 WtEn= 0.00D+00
 Coeff-Com: -0.255D-06 0.733D-07-0.435D-04-0.195D-03 0.156D-03 0.130D-02
 Coeff-Com:  0.143D-02-0.567D-02-0.181D-01-0.421D-01 0.519D-01 0.366D+00
 Coeff-Com:  0.645D+00
 Coeff:     -0.255D-06 0.733D-07-0.435D-04-0.195D-03 0.156D-03 0.130D-02
 Coeff:      0.143D-02-0.567D-02-0.181D-01-0.421D-01 0.519D-01 0.366D+00
 Coeff:      0.645D+00
 Gap=     0.220 Goal=   None    Shift=    0.000
 RMSDP=9.06D-09 MaxDP=5.26D-07 DE= 2.61D-12 OVMax= 4.18D-07

 Error on total polarization charges =  0.00830
 SCF Done:  E(RCAM-B3LYP) =  -633.323426527     A.U. after   13 cycles
            NFock= 13  Conv=0.91D-08     -V/T= 2.0042
 KE= 6.306622961184D+02 PE=-3.274890287457D+03 EE= 1.111500670773D+03
 Leave Link  502 at Sat Jan 24 22:54:52 2026, MaxMem=  2147483648 cpu:             812.0 elap:              51.5
 (Enter /data/home/wyx/g16/l601.exe)
 Copying SCF densities to generalized density rwf, IOpCl= 0 IROHF=0.

 **********************************************************************

            Population analysis using the SCF density.

 **********************************************************************

 Orbital symmetries:
       Occupied  (A) (A) (A) (A) (A) (A) (A) (A) (A) (A) (A) (A)
                 (A) (A) (A) (A) (A) (A) (A) (A) (A) (A) (A) (A)
                 (A) (A) (A) (A) (A) (A) (A) (A) (A) (A) (A) (A)
                 (A) (A) (A) (A) (A) (A) (A) (A) (A) (A) (A) (A)
                 (A) (A) (A) (A)
       Virtual   (A) (A) (A) (A) (A) (A) (A) (A) (A) (A) (A) (A)
                 (A) (A) (A) (A) (A) (A) (A) (A) (A) (A) (A) (A)
                 (A) (A) (A) (A) (A) (A) (A) (A) (A) (A) (A) (A)
                 (A) (A) (A) (A) (A) (A) (A) (A) (A) (A) (A) (A)
                 (A) (A) (A) (A) (A) (A) (A) (A) (A) (A) (A) (A)
                 (A) (A) (A) (A) (A) (A) (A) (A) (A) (A) (A) (A)
                 (A) (A) (A) (A) (A) (A) (A) (A) (A) (A) (A) (A)
                 (A) (A) (A) (A) (A) (A) (A) (A) (A) (A) (A) (A)
                 (A) (A) (A) (A) (A) (A) (A) (A) (A) (A) (A) (A)
                 (A) (A) (A) (A) (A) (A) (A) (A) (A) (A) (A) (A)
                 (A) (A) (A) (A) (A) (A) (A) (A) (A) (A) (A) (A)
                 (A) (A) (A) (A) (A) (A) (A) (A) (A) (A) (A) (A)
                 (A) (A) (A) (A) (A) (A) (A) (A) (A) (A) (A) (A)
                 (A) (A) (A) (A) (A) (A) (A) (A) (A) (A) (A) (A)
                 (A) (A) (A) (A) (A) (A) (A) (A) (A) (A) (A) (A)
                 (A) (A) (A) (A) (A) (A) (A) (A) (A) (A) (A) (A)
                 (A) (A) (A) (A) (A) (A) (A) (A) (A) (A) (A) (A)
                 (A) (A) (A) (A) (A) (A) (A) (A) (A) (A) (A) (A)
                 (A) (A) (A) (A) (A) (A) (A) (A) (A) (A) (A) (A)
                 (A) (A) (A) (A) (A) (A) (A) (A) (A) (A) (A) (A)
                 (A) (A) (A) (A) (A) (A) (A) (A) (A) (A) (A) (A)
                 (A) (A) (A) (A) (A) (A) (A) (A) (A) (A) (A) (A)
                 (A) (A) (A) (A) (A) (A) (A) (A) (A) (A) (A) (A)
                 (A) (A) (A) (A) (A) (A) (A) (A) (A) (A) (A) (A)
                 (A) (A) (A) (A) (A) (A) (A) (A) (A) (A) (A) (A)
                 (A) (A) (A) (A)
 The electronic state is 1-A.
 Alpha  occ. eigenvalues --  -19.18343 -19.16686 -14.44966 -10.33870 -10.33192
 Alpha  occ. eigenvalues --  -10.32585 -10.32238 -10.26392 -10.25699 -10.24923
 Alpha  occ. eigenvalues --  -10.24859 -10.24821 -10.24630 -10.23193  -1.11921
 Alpha  occ. eigenvalues --   -1.10523  -1.08698  -0.91716  -0.90749  -0.84145
 Alpha  occ. eigenvalues --   -0.82772  -0.81843  -0.78581  -0.74133  -0.72291
 Alpha  occ. eigenvalues --   -0.68925  -0.61778  -0.58480  -0.57264  -0.55448
 Alpha  occ. eigenvalues --   -0.54840  -0.54064  -0.52613  -0.51940  -0.51113
 Alpha  occ. eigenvalues --   -0.50151  -0.49478  -0.49210  -0.48769  -0.48217
 Alpha  occ. eigenvalues --   -0.47250  -0.45451  -0.44812  -0.44166  -0.43543
 Alpha  occ. eigenvalues --   -0.42457  -0.42295  -0.41428  -0.33025  -0.32579
 Alpha  occ. eigenvalues --   -0.30871  -0.25511
 Alpha virt. eigenvalues --   -0.03502   0.02344   0.06092   0.08038   0.08378
 Alpha virt. eigenvalues --    0.09545   0.10830   0.11557   0.12383   0.13274
 Alpha virt. eigenvalues --    0.13742   0.14776   0.15483   0.16352   0.16976
 Alpha virt. eigenvalues --    0.17600   0.17856   0.17939   0.18313   0.19282
 Alpha virt. eigenvalues --    0.19820   0.21991   0.22594   0.23235   0.23578
 Alpha virt. eigenvalues --    0.23758   0.24672   0.25530   0.26272   0.26676
 Alpha virt. eigenvalues --    0.27061   0.27902   0.28279   0.29128   0.30214
 Alpha virt. eigenvalues --    0.31460   0.31714   0.32180   0.33256   0.34207
 Alpha virt. eigenvalues --    0.34661   0.35806   0.36661   0.37589   0.38262
 Alpha virt. eigenvalues --    0.39507   0.40672   0.41236   0.41615   0.42180
 Alpha virt. eigenvalues --    0.43923   0.44614   0.45320   0.46007   0.46483
 Alpha virt. eigenvalues --    0.47081   0.47653   0.47856   0.48336   0.48892
 Alpha virt. eigenvalues --    0.49361   0.50539   0.51278   0.51407   0.51555
 Alpha virt. eigenvalues --    0.52573   0.52766   0.53182   0.53733   0.54176
 Alpha virt. eigenvalues --    0.54288   0.55169   0.55734   0.56503   0.58073
 Alpha virt. eigenvalues --    0.58268   0.59620   0.60833   0.61354   0.62944
 Alpha virt. eigenvalues --    0.63726   0.65080   0.66190   0.66779   0.67364
 Alpha virt. eigenvalues --    0.68508   0.69424   0.70626   0.71135   0.71863
 Alpha virt. eigenvalues --    0.72982   0.74297   0.74777   0.75581   0.77231
 Alpha virt. eigenvalues --    0.78702   0.80063   0.82849   0.86052   0.87245
 Alpha virt. eigenvalues --    0.90595   0.95297   1.01411   1.03964   1.22346
 Alpha virt. eigenvalues --    1.24326   1.26918   1.28501   1.29052   1.30294
 Alpha virt. eigenvalues --    1.31768   1.32982   1.34238   1.35046   1.36073
 Alpha virt. eigenvalues --    1.36610   1.37974   1.38269   1.38644   1.39450
 Alpha virt. eigenvalues --    1.39824   1.40279   1.40685   1.41157   1.41832
 Alpha virt. eigenvalues --    1.43255   1.43408   1.44231   1.45276   1.47227
 Alpha virt. eigenvalues --    1.47877   1.49322   1.49782   1.50154   1.50222
 Alpha virt. eigenvalues --    1.50972   1.52049   1.52503   1.55066   1.58276
 Alpha virt. eigenvalues --    1.59030   1.59985   1.60776   1.61366   1.62351
 Alpha virt. eigenvalues --    1.62433   1.62962   1.63974   1.64409   1.65859
 Alpha virt. eigenvalues --    1.66382   1.66958   1.67392   1.67836   1.68505
 Alpha virt. eigenvalues --    1.69010   1.69698   1.70098   1.70842   1.72060
 Alpha virt. eigenvalues --    1.74048   1.74631   1.75678   1.76644   1.78361
 Alpha virt. eigenvalues --    1.81231   1.82723   1.83762   1.85585   1.86591
 Alpha virt. eigenvalues --    1.86781   1.88077   1.88673   1.88998   1.90160
 Alpha virt. eigenvalues --    1.91048   1.94372   1.95006   1.98990   1.99653
 Alpha virt. eigenvalues --    2.01414   2.03621   2.05353   2.06764   2.09341
 Alpha virt. eigenvalues --    2.10356   2.11665   2.15538   2.17509   2.19567
 Alpha virt. eigenvalues --    2.20432   2.21010   2.21924   2.22741   2.26478
 Alpha virt. eigenvalues --    2.27111   2.27286   2.29110   2.31129   2.31992
 Alpha virt. eigenvalues --    2.33762   2.34131   2.36574   2.37826   2.38970
 Alpha virt. eigenvalues --    2.39369   2.40139   2.41200   2.42675   2.44859
 Alpha virt. eigenvalues --    2.45855   2.47571   2.49022   2.49925   2.51025
 Alpha virt. eigenvalues --    2.52290   2.54041   2.54597   2.56470   2.57393
 Alpha virt. eigenvalues --    2.58532   2.61129   2.61518   2.62418   2.63310
 Alpha virt. eigenvalues --    2.64734   2.65602   2.66383   2.67432   2.68346
 Alpha virt. eigenvalues --    2.71742   2.71773   2.73725   2.74718   2.75290
 Alpha virt. eigenvalues --    2.76335   2.76878   2.77071   2.77908   2.78787
 Alpha virt. eigenvalues --    2.80847   2.81753   2.82939   2.83723   2.84674
 Alpha virt. eigenvalues --    2.85456   2.86306   2.88689   2.88976   2.91997
 Alpha virt. eigenvalues --    2.96872   2.98903   3.00727   3.06734   3.10562
 Alpha virt. eigenvalues --    3.12011   3.14903   3.17515   3.18862   3.21269
 Alpha virt. eigenvalues --    3.21866   3.23101   3.24514   3.25169   3.26723
 Alpha virt. eigenvalues --    3.28043   3.30260   3.32540   3.34612   3.36293
 Alpha virt. eigenvalues --    3.37784   3.38613   3.39719   3.39980   3.41859
 Alpha virt. eigenvalues --    3.41974   3.44085   3.45008   3.47655   3.48458
 Alpha virt. eigenvalues --    3.49359   3.49872   3.55376   3.58047   3.59799
 Alpha virt. eigenvalues --    3.60841   3.90712   4.00520   4.32367   4.36271
 Alpha virt. eigenvalues --   21.67244  21.80380  22.07851  22.10237  22.11872
 Alpha virt. eigenvalues --   22.14754  22.15186  22.18163  22.19140  22.24466
 Alpha virt. eigenvalues --   22.27623  31.91351  43.63524  43.66847
          Condensed to atoms (all electrons):
               1          2          3          4          5          6
     1  O    7.952462   0.000000  -0.000198   0.000019   0.019330   0.008388
     2  O    0.000000   7.959668   0.000491   0.000016  -0.190488   0.001231
     3  N   -0.000198   0.000491   6.376226   0.369528  -0.123186   0.333808
     4  H    0.000019   0.000016   0.369528   0.404283   0.015335  -0.045657
     5  C    0.019330  -0.190488  -0.123186   0.015335   7.142321  -0.085971
     6  C    0.008388   0.001231   0.333808  -0.045657  -0.085971   5.573609
     7  C   -0.000052  -0.047041   0.387736  -0.035629   0.458363  -0.124288
     8  C   -0.000716   0.698611   0.004431  -0.000808  -0.306558   0.031701
     9  C   -0.007920   0.026194   0.014360   0.000090  -0.717558  -0.041713
    10  H    0.008004   0.000113   0.003572   0.000034  -0.048628  -0.021520
    11  H    0.009821  -0.000005  -0.001277   0.000022  -0.117056   0.029237
    12  C   -0.234811  -0.003039  -0.093436   0.014547   0.205946  -0.082701
    13  C    0.716369  -0.000013   0.001613   0.000540   0.084571   0.124471
    14  C   -0.000007   0.001262  -0.033236  -0.009821  -0.085662   0.012235
    15  H   -0.000000   0.004057   0.004998   0.001776   0.020432   0.006407
    16  H   -0.000000   0.002520  -0.002293   0.000936  -0.009018  -0.001409
    17  H    0.000000   0.001599   0.000137   0.000813  -0.007420  -0.001283
    18  C    0.000257  -0.101034  -0.000457   0.000020  -0.253568  -0.000203
    19  H   -0.000001   0.007386   0.000005  -0.000001   0.021019   0.000022
    20  H   -0.000006   0.000749   0.000011  -0.000001   0.002560   0.000215
    21  H    0.000130   0.004209   0.000115   0.000001   0.044762  -0.001246
    22  C   -0.105310   0.000000  -0.000197   0.000111   0.003819  -0.027295
    23  H    0.005212  -0.000000   0.000162  -0.000057  -0.000764  -0.025680
    24  H    0.001453   0.000000   0.000006  -0.000011  -0.000012   0.008689
    25  H    0.006224   0.000000   0.000026  -0.000002  -0.000143  -0.000779
    26  C    0.000792   0.000009  -0.025625  -0.006551   0.000239   0.192317
    27  H   -0.000252  -0.000000   0.001437   0.000758   0.000090  -0.048263
    28  H   -0.000055  -0.000000  -0.002600   0.000489   0.000398  -0.031033
    29  H    0.000023   0.000000   0.001633   0.001769  -0.000369  -0.047995
               7          8          9         10         11         12
     1  O   -0.000052  -0.000716  -0.007920   0.008004   0.009821  -0.234811
     2  O   -0.047041   0.698611   0.026194   0.000113  -0.000005  -0.003039
     3  N    0.387736   0.004431   0.014360   0.003572  -0.001277  -0.093436
     4  H   -0.035629  -0.000808   0.000090   0.000034   0.000022   0.014547
     5  C    0.458363  -0.306558  -0.717558  -0.048628  -0.117056   0.205946
     6  C   -0.124288   0.031701  -0.041713  -0.021520   0.029237  -0.082701
     7  C    5.426473  -0.218844  -0.226135  -0.005079   0.016085   0.026942
     8  C   -0.218844   5.358541   0.201867  -0.004332  -0.007043  -0.052045
     9  C   -0.226135   0.201867   6.491133   0.416092   0.537057  -0.167226
    10  H   -0.005079  -0.004332   0.416092   0.584039  -0.048934  -0.021815
    11  H    0.016085  -0.007043   0.537057  -0.048934   0.533390  -0.110308
    12  C    0.026942  -0.052045  -0.167226  -0.021815  -0.110308   7.411995
    13  C    0.018156  -0.008840  -0.256970  -0.005328  -0.000357  -0.487962
    14  C    0.278414  -0.022335   0.008271  -0.000868   0.000469  -0.001768
    15  H   -0.088649   0.005153   0.000741   0.000049  -0.000006  -0.001509
    16  H   -0.014990  -0.001645   0.000875  -0.000065   0.000062   0.000331
    17  H   -0.021747  -0.007291  -0.000573   0.000191  -0.000058   0.000242
    18  C    0.000199   0.321183   0.001019  -0.011857   0.004873  -0.000593
    19  H    0.000113  -0.048298  -0.001992   0.000139   0.000519  -0.000189
    20  H   -0.000317  -0.024070  -0.010008   0.000751  -0.000418  -0.002890
    21  H    0.003402  -0.072347  -0.006866   0.002131  -0.006871   0.008007
    22  C    0.000363  -0.000091   0.010316   0.003169  -0.001089  -0.245209
    23  H   -0.000011   0.000007   0.003094  -0.000219   0.000070   0.064115
    24  H   -0.000007   0.000001  -0.002117   0.000182  -0.000126  -0.012348
    25  H    0.000005   0.000003   0.000183  -0.000100  -0.000040   0.021403
    26  C    0.002093   0.000817   0.022932  -0.000726   0.000106  -0.084923
    27  H   -0.000753   0.000003  -0.000284  -0.000112   0.000015  -0.008580
    28  H   -0.000828  -0.000014  -0.000551  -0.000006   0.000037  -0.017353
    29  H    0.003058  -0.000006  -0.000438   0.000088  -0.000014   0.023140
              13         14         15         16         17         18
     1  O    0.716369  -0.000007  -0.000000  -0.000000   0.000000   0.000257
     2  O   -0.000013   0.001262   0.004057   0.002520   0.001599  -0.101034
     3  N    0.001613  -0.033236   0.004998  -0.002293   0.000137  -0.000457
     4  H    0.000540  -0.009821   0.001776   0.000936   0.000813   0.000020
     5  C    0.084571  -0.085662   0.020432  -0.009018  -0.007420  -0.253568
     6  C    0.124471   0.012235   0.006407  -0.001409  -0.001283  -0.000203
     7  C    0.018156   0.278414  -0.088649  -0.014990  -0.021747   0.000199
     8  C   -0.008840  -0.022335   0.005153  -0.001645  -0.007291   0.321183
     9  C   -0.256970   0.008271   0.000741   0.000875  -0.000573   0.001019
    10  H   -0.005328  -0.000868   0.000049  -0.000065   0.000191  -0.011857
    11  H   -0.000357   0.000469  -0.000006   0.000062  -0.000058   0.004873
    12  C   -0.487962  -0.001768  -0.001509   0.000331   0.000242  -0.000593
    13  C    5.584733   0.000056  -0.000038  -0.000008  -0.000003   0.001413
    14  C    0.000056   5.017385   0.396469   0.404476   0.416130   0.001786
    15  H   -0.000038   0.396469   0.575748  -0.026302  -0.028615   0.000237
    16  H   -0.000008   0.404476  -0.026302   0.502390  -0.024010   0.000032
    17  H   -0.000003   0.416130  -0.028615  -0.024010   0.505459  -0.000221
    18  C    0.001413   0.001786   0.000237   0.000032  -0.000221   5.312735
    19  H   -0.000015  -0.000023  -0.000004  -0.000029   0.000043   0.397363
    20  H   -0.000165  -0.000231  -0.000005  -0.000006   0.000014   0.400320
    21  H    0.000855   0.000063  -0.000015   0.000001  -0.000028   0.379201
    22  C    0.281865  -0.000009   0.000002  -0.000000  -0.000000   0.000043
    23  H   -0.099409   0.000003   0.000000   0.000000   0.000000   0.000001
    24  H   -0.021379  -0.000001   0.000000   0.000000  -0.000000  -0.000001
    25  H   -0.036163   0.000000   0.000000  -0.000000  -0.000000  -0.000001
    26  C   -0.056497   0.000822   0.000249  -0.000082   0.000013   0.000006
    27  H   -0.002417   0.000057  -0.000009   0.000001  -0.000002  -0.000000
    28  H    0.006923  -0.000105  -0.000003  -0.000006   0.000004  -0.000000
    29  H   -0.001168  -0.000142   0.000106  -0.000001  -0.000001  -0.000000
              19         20         21         22         23         24
     1  O   -0.000001  -0.000006   0.000130  -0.105310   0.005212   0.001453
     2  O    0.007386   0.000749   0.004209   0.000000  -0.000000   0.000000
     3  N    0.000005   0.000011   0.000115  -0.000197   0.000162   0.000006
     4  H   -0.000001  -0.000001   0.000001   0.000111  -0.000057  -0.000011
     5  C    0.021019   0.002560   0.044762   0.003819  -0.000764  -0.000012
     6  C    0.000022   0.000215  -0.001246  -0.027295  -0.025680   0.008689
     7  C    0.000113  -0.000317   0.003402   0.000363  -0.000011  -0.000007
     8  C   -0.048298  -0.024070  -0.072347  -0.000091   0.000007   0.000001
     9  C   -0.001992  -0.010008  -0.006866   0.010316   0.003094  -0.002117
    10  H    0.000139   0.000751   0.002131   0.003169  -0.000219   0.000182
    11  H    0.000519  -0.000418  -0.006871  -0.001089   0.000070  -0.000126
    12  C   -0.000189  -0.002890   0.008007  -0.245209   0.064115  -0.012348
    13  C   -0.000015  -0.000165   0.000855   0.281865  -0.099409  -0.021379
    14  C   -0.000023  -0.000231   0.000063  -0.000009   0.000003  -0.000001
    15  H   -0.000004  -0.000005  -0.000015   0.000002   0.000000   0.000000
    16  H   -0.000029  -0.000006   0.000001  -0.000000   0.000000   0.000000
    17  H    0.000043   0.000014  -0.000028  -0.000000   0.000000  -0.000000
    18  C    0.397363   0.400320   0.379201   0.000043   0.000001  -0.000001
    19  H    0.493642  -0.007977  -0.024985  -0.000000   0.000000   0.000000
    20  H   -0.007977   0.493335  -0.025077  -0.000013   0.000000   0.000000
    21  H   -0.024985  -0.025077   0.546359   0.000029  -0.000000  -0.000000
    22  C   -0.000000  -0.000013   0.000029   5.423622   0.398294   0.401112
    23  H    0.000000   0.000000  -0.000000   0.398294   0.543143  -0.026228
    24  H    0.000000   0.000000  -0.000000   0.401112  -0.026228   0.489953
    25  H   -0.000000   0.000000  -0.000000   0.381761  -0.022569  -0.008509
    26  C    0.000000   0.000003  -0.000018  -0.033646   0.016239  -0.010085
    27  H   -0.000000   0.000000  -0.000000   0.004225  -0.007610  -0.000130
    28  H    0.000000  -0.000000   0.000000  -0.010954  -0.001651   0.000841
    29  H    0.000000  -0.000000   0.000000   0.002032   0.000602   0.000159
              25         26         27         28         29
     1  O    0.006224   0.000792  -0.000252  -0.000055   0.000023
     2  O    0.000000   0.000009  -0.000000  -0.000000   0.000000
     3  N    0.000026  -0.025625   0.001437  -0.002600   0.001633
     4  H   -0.000002  -0.006551   0.000758   0.000489   0.001769
     5  C   -0.000143   0.000239   0.000090   0.000398  -0.000369
     6  C   -0.000779   0.192317  -0.048263  -0.031033  -0.047995
     7  C    0.000005   0.002093  -0.000753  -0.000828   0.003058
     8  C    0.000003   0.000817   0.000003  -0.000014  -0.000006
     9  C    0.000183   0.022932  -0.000284  -0.000551  -0.000438
    10  H   -0.000100  -0.000726  -0.000112  -0.000006   0.000088
    11  H   -0.000040   0.000106   0.000015   0.000037  -0.000014
    12  C    0.021403  -0.084923  -0.008580  -0.017353   0.023140
    13  C   -0.036163  -0.056497  -0.002417   0.006923  -0.001168
    14  C    0.000000   0.000822   0.000057  -0.000105  -0.000142
    15  H    0.000000   0.000249  -0.000009  -0.000003   0.000106
    16  H   -0.000000  -0.000082   0.000001  -0.000006  -0.000001
    17  H   -0.000000   0.000013  -0.000002   0.000004  -0.000001
    18  C   -0.000001   0.000006  -0.000000  -0.000000  -0.000000
    19  H   -0.000000   0.000000  -0.000000   0.000000   0.000000
    20  H    0.000000   0.000003   0.000000  -0.000000  -0.000000
    21  H   -0.000000  -0.000018  -0.000000   0.000000   0.000000
    22  C    0.381761  -0.033646   0.004225  -0.010954   0.002032
    23  H   -0.022569   0.016239  -0.007610  -0.001651   0.000602
    24  H   -0.008509  -0.010085  -0.000130   0.000841   0.000159
    25  H    0.495599   0.002041   0.000609   0.000122  -0.000036
    26  C    0.002041   5.240756   0.433242   0.424714   0.388613
    27  H    0.000609   0.433242   0.504934  -0.027364  -0.025088
    28  H    0.000122   0.424714  -0.027364   0.476897  -0.015841
    29  H   -0.000036   0.388613  -0.025088  -0.015841   0.510563
 Mulliken charges:
               1
     1  O   -0.379155
     2  O   -0.366496
     3  N   -0.217790
     4  H    0.287449
     5  C   -0.072783
     6  C    0.264709
     7  C    0.162968
     8  C    0.152962
     9  C   -0.293873
    10  H    0.151035
    11  H    0.161840
    12  C   -0.147961
    13  C    0.155169
    14  C   -0.383693
    15  H    0.128731
    16  H    0.168240
    17  H    0.166606
    18  C   -0.452751
    19  H    0.163260
    20  H    0.173225
    21  H    0.148188
    22  C   -0.486950
    23  H    0.153255
    24  H    0.178556
    25  H    0.160367
    26  C   -0.507854
    27  H    0.175493
    28  H    0.197939
    29  H    0.159313
 Sum of Mulliken charges =  -0.00000
 Mulliken charges with hydrogens summed into heavy atoms:
               1
     1  O   -0.379155
     2  O   -0.366496
     3  N    0.069659
     5  C   -0.072783
     6  C    0.264709
     7  C    0.162968
     8  C    0.152962
     9  C    0.019002
    12  C   -0.147961
    13  C    0.155169
    14  C    0.079885
    18  C    0.031922
    22  C    0.005229
    26  C    0.024891
 Electronic spatial extent (au):  <R**2>=           3201.7825
 Charge=             -0.0000 electrons
 Dipole moment (field-independent basis, Debye):
    X=             -3.5466    Y=              7.8560    Z=              0.1533  Tot=              8.6208
 Quadrupole moment (field-independent basis, Debye-Ang):
   XX=            -96.8658   YY=            -77.9789   ZZ=            -84.9698
   XY=            -13.2927   XZ=             -4.2508   YZ=             -2.3321
 Traceless Quadrupole moment (field-independent basis, Debye-Ang):
   XX=            -10.2609   YY=              8.6259   ZZ=              1.6350
   XY=            -13.2927   XZ=             -4.2508   YZ=             -2.3321
 Octapole moment (field-independent basis, Debye-Ang**2):
  XXX=           -104.1189  YYY=             67.2095  ZZZ=              1.4599  XYY=             37.0941
  XXY=             32.7270  XXZ=             -4.7784  XZZ=             -0.4672  YZZ=             -0.9565
  YYZ=              4.7899  XYZ=              5.4976
 Hexadecapole moment (field-independent basis, Debye-Ang**3):
 XXXX=          -3031.8207 YYYY=          -1287.8017 ZZZZ=           -144.6979 XXXY=            -44.1836
 XXXZ=            -46.7020 YYYX=            -94.9532 YYYZ=            -20.8464 ZZZX=              3.7225
 ZZZY=              2.3460 XXYY=           -687.1295 XXZZ=           -478.8617 YYZZ=           -244.8737
 XXYZ=            -10.0663 YYXZ=             -9.7288 ZZXY=             -0.3671
 N-N= 8.994038940390D+02 E-N=-3.274890285302D+03  KE= 6.306622961184D+02
 No NMR shielding tensors so no spin-rotation constants.
 Leave Link  601 at Sat Jan 24 22:54:52 2026, MaxMem=  2147483648 cpu:               1.8 elap:               0.1
 (Enter /data/home/wyx/g16/l9999.exe)
 1\1\GINC-CN012\SP\RCAM-B3LYP\TZVP\C11H15N1O2\WYX\24-Jan-2026\0\\#p CAM
 -B3LYP TZVP em=gd3bj scrf=(Solvent=Water,NonEquilibrium=Read) Geom=Che
 ck Guess=Read\\Title Card Required\\0,1\O,0,2.718277,-1.559497,0.86092
 5\O,0,-3.301746,-1.66144,-0.911702\N,0,-0.684117,1.516403,-0.04816\H,0
 ,-0.992546,2.477061,-0.115788\C,0,-1.252593,-0.763454,-0.17304\C,0,0.6
 4373,1.333143,0.20647\C,0,-1.627723,0.573989,-0.287871\C,0,-2.164575,-
 1.849851,-0.468011\C,0,0.119411,-1.081788,0.286854\H,0,0.075146,-1.513
 853,1.302495\H,0,0.537181,-1.911825,-0.291428\C,0,1.104649,0.026718,0.
 314956\C,0,2.480332,-0.395539,0.511975\C,0,-2.976931,1.101821,-0.63050
 8\H,0,-3.012381,2.183685,-0.518062\H,0,-3.248368,0.857054,-1.653579\H,
 0,-3.742106,0.66359,0.001949\C,0,-1.699932,-3.267048,-0.251406\H,0,-2.
 562912,-3.923689,-0.220564\H,0,-1.065681,-3.588076,-1.077334\H,0,-1.12
 6364,-3.395774,0.661491\C,0,3.649423,0.524387,0.260009\H,0,3.468415,1.
 242209,-0.535322\H,0,3.904173,1.076921,1.166879\H,0,4.505969,-0.093316
 ,-0.002387\C,0,1.414994,2.600889,0.368861\H,0,2.1458,2.523987,1.167131
 \H,0,1.944021,2.879357,-0.542969\H,0,0.746455,3.423934,0.618134\\Versi
 on=ES64L-G16RevA.03\State=1-A\HF=-633.3234265\RMSD=9.063e-09\Dipole=0.
 2861169,3.3790301,-0.0622325\Quadrupole=-10.3849923,11.1134555,-0.7284
 632,2.9554731,-5.9488549,0.9993479\PG=C01 [X(C11H15N1O2)]\\@


 It takes a long time to grow an old friend.
                            -- John Leonard
 Job cpu time:       0 days  0 hours 13 minutes 42.3 seconds.
 Elapsed time:       0 days  0 hours  0 minutes 52.2 seconds.
 File lengths (MBytes):  RWF=    340 Int=      0 D2E=      0 Chk=     67 Scr=      1
 Normal termination of Gaussian 16 at Sat Jan 24 22:54:53 2026.
