 Entering Gaussian System, Link 0=g16
 Input=DDL-S2-cLR-10.gjf
 Output=DDL-S2-cLR-10.log
 Initial command:
 /data/home/wyx/g16/l1.exe "/scr/tmp/wyx/13117/Gau-2025337.inp" -scrdir="/scr/tmp/wyx/13117/"
 Entering Link 1 = /data/home/wyx/g16/l1.exe PID=   2025338.
  
 Copyright (c) 1988,1990,1992,1993,1995,1998,2003,2009,2016,
            Gaussian, Inc.  All Rights Reserved.
  
 This is part of the Gaussian(R) 16 program.  It is based on
 the Gaussian(R) 09 system (copyright 2009, Gaussian, Inc.),
 the Gaussian(R) 03 system (copyright 2003, Gaussian, Inc.),
 the Gaussian(R) 98 system (copyright 1998, Gaussian, Inc.),
 the Gaussian(R) 94 system (copyright 1995, Gaussian, Inc.),
 the Gaussian 92(TM) system (copyright 1992, Gaussian, Inc.),
 the Gaussian 90(TM) system (copyright 1990, Gaussian, Inc.),
 the Gaussian 88(TM) system (copyright 1988, Gaussian, Inc.),
 the Gaussian 86(TM) system (copyright 1986, Carnegie Mellon
 University), and the Gaussian 82(TM) system (copyright 1983,
 Carnegie Mellon University). Gaussian is a federally registered
 trademark of Gaussian, Inc.
  
 This software contains proprietary and confidential information,
 including trade secrets, belonging to Gaussian, Inc.
  
 This software is provided under written license and may be
 used, copied, transmitted, or stored only in accord with that
 written license.
  
 The following legend is applicable only to US Government
 contracts under FAR:
  
                    RESTRICTED RIGHTS LEGEND
  
 Use, reproduction and disclosure by the US Government is
 subject to restrictions as set forth in subparagraphs (a)
 and (c) of the Commercial Computer Software - Restricted
 Rights clause in FAR 52.227-19.
  
 Gaussian, Inc.
 340 Quinnipiac St., Bldg. 40, Wallingford CT 06492
  
  
 ---------------------------------------------------------------
 Warning -- This program may not be used in any manner that
 competes with the business of Gaussian, Inc. or will provide
 assistance to any competitor of Gaussian, Inc.  The licensee
 of this program is prohibited from giving any competitor of
 Gaussian, Inc. access to this program.  By using this program,
 the user acknowledges that Gaussian, Inc. is engaged in the
 business of creating and licensing software in the field of
 computational chemistry and represents and warrants to the
 licensee that it is not a competitor of Gaussian, Inc. and that
 it will not use this program in any manner prohibited above.
 ---------------------------------------------------------------
  

 Cite this work as:
 Gaussian 16, Revision A.03,
 M. J. Frisch, G. W. Trucks, H. B. Schlegel, G. E. Scuseria, 
 M. A. Robb, J. R. Cheeseman, G. Scalmani, V. Barone, 
 G. A. Petersson, H. Nakatsuji, X. Li, M. Caricato, A. V. Marenich, 
 J. Bloino, B. G. Janesko, R. Gomperts, B. Mennucci, H. P. Hratchian, 
 J. V. Ortiz, A. F. Izmaylov, J. L. Sonnenberg, D. Williams-Young, 
 F. Ding, F. Lipparini, F. Egidi, J. Goings, B. Peng, A. Petrone, 
 T. Henderson, D. Ranasinghe, V. G. Zakrzewski, J. Gao, N. Rega, 
 G. Zheng, W. Liang, M. Hada, M. Ehara, K. Toyota, R. Fukuda, 
 J. Hasegawa, M. Ishida, T. Nakajima, Y. Honda, O. Kitao, H. Nakai, 
 T. Vreven, K. Throssell, J. A. Montgomery, Jr., J. E. Peralta, 
 F. Ogliaro, M. J. Bearpark, J. J. Heyd, E. N. Brothers, K. N. Kudin, 
 V. N. Staroverov, T. A. Keith, R. Kobayashi, J. Normand, 
 K. Raghavachari, A. P. Rendell, J. C. Burant, S. S. Iyengar, 
 J. Tomasi, M. Cossi, J. M. Millam, M. Klene, C. Adamo, R. Cammi, 
 J. W. Ochterski, R. L. Martin, K. Morokuma, O. Farkas, 
 J. B. Foresman, and D. J. Fox, Gaussian, Inc., Wallingford CT, 2016.
 
 ******************************************
 Gaussian 16:  ES64L-G16RevA.03 25-Dec-2016
                24-Jan-2026 
 ******************************************
 %nprocshared=16
 Will use up to   16 processors via shared memory.
 %mem=16GB
 %oldchk=DDL-LR-10.chk
 %chk=DDL-S2-cLR-10.chk
 Copying data from "DDL-LR-10.chk" to current chk file "DDL-S2-cLR-10.chk"
 IOpt=  2 FromEx=T IUOpen= 4 IOptOp= 5 NList=   0 IFRang= 0 IUIn= 4 IUOut= 2.
 ----------------------------------------------------------------------
 #p CAM-B3LYP TZVP em=gd3bj td(nstates=6,root=2) scrf=(Solvent=Water,Co
 rrectedLR,NonEquilibrium=Save) Geom=Check Guess=Read
 ----------------------------------------------------------------------
 1/29=2,30=1,38=1,172=1/1;
 2/12=2,40=1/2;
 3/5=19,7=101,11=9,14=-4,25=1,30=1,70=9002201,71=1,72=1,74=-40,116=-2,124=41/1,2,3,8;
 4/5=1/1;
 5/5=2,38=6,53=1/2;
 8/6=1,10=1,107=2,108=6/1;
 9/8=2,15=1,41=6,42=1,70=2,73=22/14;
 10/5=4,13=10,28=2,74=20/2;
 6/7=2,8=2,9=2,10=2,22=-1/1;
 99/5=1,9=1/99;
 Leave Link    1 at Sat Jan 24 20:20:57 2026, MaxMem=  2147483648 cpu:               0.9 elap:               0.1
 (Enter /data/home/wyx/g16/l101.exe)
 -------------------
 Title Card Required
 -------------------
 Structure from the checkpoint file:  "DDL-S2-cLR-10.chk"
 Charge =  0 Multiplicity = 1
 Z-Matrix found in chk file.
 O,0,2.734014,-1.5589,0.793923
 O,0,-3.259804,-1.649664,-1.022918
 N,0,-0.698803,1.514889,0.048595
 H,0,-1.007133,2.47372,-0.013227
 C,0,-1.250234,-0.760451,-0.161152
 C,0,0.642107,1.314882,0.24953
 C,0,-1.62307,0.557362,-0.253139
 C,0,-2.157038,-1.841258,-0.513425
 C,0,0.106747,-1.095213,0.369667
 H,0,0.025487,-1.465938,1.402961
 H,0,0.530347,-1.9433,-0.169918
 C,0,1.098267,0.025718,0.34027
 C,0,2.48697,-0.39262,0.480434
 C,0,-2.956238,1.091804,-0.645477
 H,0,-3.028011,2.156977,-0.438305
 H,0,-3.139188,0.940961,-1.705527
 H,0,-3.755054,0.580038,-0.122441
 C,0,-1.714567,-3.255362,-0.252065
 H,0,-2.563296,-3.924083,-0.337708
 H,0,-0.968567,-3.561565,-0.983194
 H,0,-1.263597,-3.376512,0.728249
 C,0,3.648083,0.532705,0.213092
 H,0,3.456938,1.239105,-0.590126
 H,0,3.898485,1.098535,1.112426
 H,0,4.508692,-0.081325,-0.042984
 C,0,1.416357,2.588057,0.357753
 H,0,2.21049,2.520251,1.091003
 H,0,1.860168,2.8679,-0.597243
 H,0,0.761446,3.403289,0.660945
 Recover connectivity data from disk.
 ITRead=  0  0  0  0  0  0  0  0  0  0  0  0  0  0  0  0  0  0  0  0
 ITRead=  0  0  0  0  0  0  0  0  0
 MicOpt= -1 -1 -1 -1 -1 -1 -1 -1 -1 -1 -1 -1 -1 -1 -1 -1 -1 -1 -1 -1
 MicOpt= -1 -1 -1 -1 -1 -1 -1 -1 -1
 NAtoms=     29 NQM=       29 NQMF=       0 NMMI=      0 NMMIF=      0
                NMic=       0 NMicF=      0.
                    Isotopes and Nuclear Properties:
 (Nuclear quadrupole moments (NQMom) in fm**2, nuclear magnetic moments (NMagM)
  in nuclear magnetons)

  Atom         1           2           3           4           5           6           7           8           9          10
 IAtWgt=          16          16          14           1          12          12          12          12          12           1
 AtmWgt=  15.9949146  15.9949146  14.0030740   1.0078250  12.0000000  12.0000000  12.0000000  12.0000000  12.0000000   1.0078250
 NucSpn=           0           0           2           1           0           0           0           0           0           1
 AtZEff=   5.6000000   5.6000000   4.5500000   1.0000000   3.6000000   3.6000000   3.6000000   3.6000000   3.6000000   1.0000000
 NQMom=    0.0000000   0.0000000   2.0440000   0.0000000   0.0000000   0.0000000   0.0000000   0.0000000   0.0000000   0.0000000
 NMagM=    0.0000000   0.0000000   0.4037610   2.7928460   0.0000000   0.0000000   0.0000000   0.0000000   0.0000000   2.7928460
 AtZNuc=   8.0000000   8.0000000   7.0000000   1.0000000   6.0000000   6.0000000   6.0000000   6.0000000   6.0000000   1.0000000

  Atom        11          12          13          14          15          16          17          18          19          20
 IAtWgt=           1          12          12          12           1           1           1          12           1           1
 AtmWgt=   1.0078250  12.0000000  12.0000000  12.0000000   1.0078250   1.0078250   1.0078250  12.0000000   1.0078250   1.0078250
 NucSpn=           1           0           0           0           1           1           1           0           1           1
 AtZEff=   1.0000000   3.6000000   3.6000000   3.6000000   1.0000000   1.0000000   1.0000000   3.6000000   1.0000000   1.0000000
 NQMom=    0.0000000   0.0000000   0.0000000   0.0000000   0.0000000   0.0000000   0.0000000   0.0000000   0.0000000   0.0000000
 NMagM=    2.7928460   0.0000000   0.0000000   0.0000000   2.7928460   2.7928460   2.7928460   0.0000000   2.7928460   2.7928460
 AtZNuc=   1.0000000   6.0000000   6.0000000   6.0000000   1.0000000   1.0000000   1.0000000   6.0000000   1.0000000   1.0000000

  Atom        21          22          23          24          25          26          27          28          29
 IAtWgt=           1          12           1           1           1          12           1           1           1
 AtmWgt=   1.0078250  12.0000000   1.0078250   1.0078250   1.0078250  12.0000000   1.0078250   1.0078250   1.0078250
 NucSpn=           1           0           1           1           1           0           1           1           1
 AtZEff=   1.0000000   3.6000000   1.0000000   1.0000000   1.0000000   3.6000000   1.0000000   1.0000000   1.0000000
 NQMom=    0.0000000   0.0000000   0.0000000   0.0000000   0.0000000   0.0000000   0.0000000   0.0000000   0.0000000
 NMagM=    2.7928460   0.0000000   2.7928460   2.7928460   2.7928460   0.0000000   2.7928460   2.7928460   2.7928460
 AtZNuc=   1.0000000   6.0000000   1.0000000   1.0000000   1.0000000   6.0000000   1.0000000   1.0000000   1.0000000
 Leave Link  101 at Sat Jan 24 20:21:00 2026, MaxMem=  2147483648 cpu:               0.9 elap:               0.1
 (Enter /data/home/wyx/g16/l202.exe)
                          Input orientation:                          
 ---------------------------------------------------------------------
 Center     Atomic      Atomic             Coordinates (Angstroms)
 Number     Number       Type             X           Y           Z
 ---------------------------------------------------------------------
      1          8           0        2.734014   -1.558900    0.793923
      2          8           0       -3.259804   -1.649664   -1.022918
      3          7           0       -0.698803    1.514889    0.048595
      4          1           0       -1.007133    2.473720   -0.013227
      5          6           0       -1.250234   -0.760451   -0.161152
      6          6           0        0.642107    1.314882    0.249530
      7          6           0       -1.623070    0.557362   -0.253139
      8          6           0       -2.157038   -1.841258   -0.513425
      9          6           0        0.106747   -1.095213    0.369667
     10          1           0        0.025487   -1.465938    1.402961
     11          1           0        0.530347   -1.943300   -0.169918
     12          6           0        1.098267    0.025718    0.340270
     13          6           0        2.486970   -0.392620    0.480434
     14          6           0       -2.956238    1.091804   -0.645477
     15          1           0       -3.028011    2.156977   -0.438305
     16          1           0       -3.139188    0.940961   -1.705527
     17          1           0       -3.755054    0.580038   -0.122441
     18          6           0       -1.714567   -3.255362   -0.252065
     19          1           0       -2.563296   -3.924083   -0.337708
     20          1           0       -0.968567   -3.561565   -0.983194
     21          1           0       -1.263597   -3.376512    0.728249
     22          6           0        3.648083    0.532705    0.213092
     23          1           0        3.456938    1.239105   -0.590126
     24          1           0        3.898485    1.098535    1.112426
     25          1           0        4.508692   -0.081325   -0.042984
     26          6           0        1.416357    2.588057    0.357753
     27          1           0        2.210490    2.520251    1.091003
     28          1           0        1.860168    2.867900   -0.597243
     29          1           0        0.761446    3.403289    0.660945
 ---------------------------------------------------------------------
                    Distance matrix (angstroms):
                    1          2          3          4          5
     1  O    0.000000
     2  O    6.263785   0.000000
     3  N    4.667754   4.209663   0.000000
     4  H    5.559649   4.805861   1.009082   0.000000
     5  C    4.174197   2.360447   2.350583   3.246666   0.000000
     6  C    3.595979   5.062861   1.370554   2.032717   2.838419
     7  C    4.955712   2.853493   1.364614   2.027157   1.372625
     8  C    5.070629   1.229790   3.702167   4.493497   1.454144
     9  C    2.701394   3.685156   2.750387   3.758273   1.495069
    10  H    2.777713   4.088005   3.353242   4.311937   2.138136
    11  H    2.435755   3.896033   3.676633   4.679579   2.137680
    12  C    2.322172   4.863946   2.352056   3.248135   2.526844
    13  C    1.232686   6.071708   3.738211   4.546247   3.809675
    14  C    6.440270   2.783929   2.399323   2.471526   2.564346
    15  H    6.966137   3.858240   2.464662   2.089250   3.427636
    16  H    6.855002   2.681761   3.059709   3.123922   2.974566
    17  H    6.893677   2.455138   3.200605   3.339016   2.841220
    18  C    4.874623   2.358016   4.886458   5.777533   2.539380
    19  H    5.910683   2.475403   5.762637   6.592330   3.429850
    20  H    4.569236   2.984411   5.187268   6.112854   2.932802
    21  H    4.391915   3.167559   4.970586   5.902607   2.763148
    22  C    2.355355   7.349106   4.459503   5.048742   5.079943
    23  H    3.204223   7.324406   4.213574   4.667442   5.132223
    24  H    2.918801   7.959484   4.737103   5.217597   5.620244
    25  H    2.456242   7.985580   5.447411   6.078936   5.800035
    26  C    4.373067   6.459955   2.391897   2.454384   4.311899
    27  H    4.123325   7.195899   3.249824   3.402144   4.930265
    28  H    4.721812   6.841323   2.965818   2.952604   4.798928
    29  H    5.341538   6.673693   2.464418   2.108667   4.696747
                    6          7          8          9         10
     6  C    0.000000
     7  C    2.440807   0.000000
     8  C    4.287019   2.471082   0.000000
     9  C    2.471761   2.472076   2.541881   0.000000
    10  H    3.073041   3.090979   2.928620   1.100789   0.000000
    11  H    3.286971   3.301127   2.711171   1.090798   1.719508
    12  C    1.370496   2.835570   3.848559   1.496817   2.122547
    13  C    2.524361   4.281708   4.965191   2.484224   2.839360
    14  C    3.714685   1.488924   3.042862   3.898133   4.430443
    15  H    3.827794   2.137034   4.092691   4.588711   5.083269
    16  H    4.273202   2.134290   3.182211   4.357583   5.046883
    17  H    4.473632   2.136107   2.927319   4.238177   4.561289
    18  C    5.166492   3.813822   1.504586   2.893092   2.994818
    19  H    6.169782   4.579795   2.129338   3.953734   3.971675
    20  H    5.281441   4.234019   2.143036   3.011549   3.327692
    21  H    5.086262   4.070345   2.167255   2.685284   2.401513
    22  C    3.106287   5.291789   6.313712   3.900730   4.305063
    23  H    2.938373   5.136615   6.404002   4.194523   4.802552
    24  H    3.375706   5.713598   6.924964   4.443141   4.654143
    25  H    4.121339   6.168516   6.910183   4.536008   4.909892
    26  C    1.494038   3.706080   5.757337   3.909181   4.411559
    27  H    2.149608   4.511744   6.377480   4.244719   4.556452
    28  H    2.147688   4.194036   6.190407   4.440233   5.113611
    29  H    2.131888   3.823711   6.115715   4.555216   4.980120
                   11         12         13         14         15
    11  H    0.000000
    12  C    2.111837   0.000000
    13  C    2.579911   1.457103   0.000000
    14  C    4.646965   4.306652   5.753234   0.000000
    15  H    5.435643   4.708993   6.144879   1.087504   0.000000
    16  H    4.913506   4.793640   6.181466   1.086246   1.759803
    17  H    4.973344   4.906740   6.346053   1.083318   1.764964
    18  C    2.601518   4.362153   5.136610   4.538102   5.572543
    19  H    3.677266   5.428409   6.216573   5.040659   6.099621
    20  H    2.350945   4.346488   4.911736   5.071364   6.102453
    21  H    2.465570   4.159819   4.799143   4.971720   5.923977
    22  C    3.999697   2.602839   1.508602   6.683322   6.901653
    23  H    4.343871   2.810920   2.179326   6.415106   6.551344
    24  H    4.716092   3.096511   2.148332   7.076545   7.176448
    25  H    4.394348   3.433561   2.111452   7.580528   7.871986
    26  C    4.647219   2.582067   3.169495   4.729147   4.535631
    27  H    4.933162   2.832549   2.988989   5.634794   5.469245
    28  H    5.009858   3.088272   3.490739   5.133674   4.942162
    29  H    5.415695   3.409438   4.173601   4.568465   4.137829
                   16         17         18         19         20
    16  H    0.000000
    17  H    1.736582   0.000000
    18  C    4.663821   4.346341   0.000000
    19  H    5.086377   4.664090   1.083911   0.000000
    20  H    5.050357   5.065400   1.088497   1.758190   0.000000
    21  H    5.299215   4.752401   1.085848   1.767856   1.746518
    22  C    7.065042   7.410888   6.582085   7.664696   6.285507
    23  H    6.696409   7.257129   6.859955   7.935077   6.541103
    24  H    7.582515   7.769839   7.233575   8.311690   7.056653
    25  H    7.892983   8.290550   6.989076   8.053984   6.557166
    26  C    5.265267   5.568323   6.657335   7.663503   6.730814
    27  H    6.239695   6.389412   7.111091   8.146146   7.169183
    28  H    5.471284   6.081979   7.098747   8.109588   7.034822
    29  H    5.184418   5.383606   7.162532   8.108119   7.362427
                   21         22         23         24         25
    21  H    0.000000
    22  C    6.298568   0.000000
    23  H    6.732420   1.086599   0.000000
    24  H    6.842567   1.091635   1.764485   0.000000
    25  H    6.691216   1.087776   1.774566   1.760510   0.000000
    26  C    6.549466   3.037433   2.623379   2.991516   4.104720
    27  H    6.853662   2.605329   2.453806   2.207048   3.651829
    28  H    7.106864   3.050642   2.280942   3.195052   4.002476
    29  H    7.076089   4.095546   3.676214   3.918768   5.165259
                   26         27         28         29
    26  C    0.000000
    27  H    1.083005   0.000000
    28  H    1.089632   1.758909   0.000000
    29  H    1.088778   1.750553   1.754100   0.000000
 Stoichiometry    C11H15NO2
 Framework group  C1[X(C11H15NO2)]
 Deg. of freedom    81
 Full point group                 C1      NOp   1
 RotChk:  IX=0 Diff= 1.27D-15
 Largest Abelian subgroup         C1      NOp   1
 Largest concise Abelian subgroup C1      NOp   1
                         Standard orientation:                         
 ---------------------------------------------------------------------
 Center     Atomic      Atomic             Coordinates (Angstroms)
 Number     Number       Type             X           Y           Z
 ---------------------------------------------------------------------
      1          8           0       -2.287683   -2.282763   -0.218620
      2          8           0        3.606477   -0.251891    0.389190
      3          7           0       -0.024675    1.799571   -0.183084
      4          1           0       -0.053666    2.808213   -0.189956
      5          6           0        1.293406   -0.143316   -0.068656
      6          6           0       -1.231262    1.153002   -0.115903
      7          6           0        1.207822    1.226618   -0.061239
      8          6           0        2.560744   -0.834334    0.107078
      9          6           0        0.057632   -0.946132   -0.320812
     10          1           0        0.070288   -1.343671   -1.347232
     11          1           0        0.052094   -1.844700    0.297561
     12          6           0       -1.232075   -0.217458   -0.105982
     13          6           0       -2.397754   -1.080804    0.031767
     14          6           0        2.328771    2.199282    0.058315
     15          1           0        1.996453    3.210009   -0.166763
     16          1           0        2.741586    2.195497    1.063054
     17          1           0        3.144409    1.943828   -0.607310
     18          6           0        2.583861   -2.330301   -0.052069
     19          1           0        3.609472   -2.672350   -0.129451
     20          1           0        2.131964   -2.811706    0.813300
     21          1           0        2.030293   -2.665262   -0.924095
     22          6           0       -3.734457   -0.574859    0.514596
     23          1           0       -3.651235    0.211786    1.259553
     24          1           0       -4.320903   -0.191198   -0.322394
     25          1           0       -4.274271   -1.418573    0.938863
     26          6           0       -2.397021    2.086730   -0.079718
     27          1           0       -3.240496    1.706493   -0.642631
     28          1           0       -2.727800    2.273070    0.941634
     29          1           0       -2.123827    3.048229   -0.511368
 ---------------------------------------------------------------------
 Rotational constants (GHZ):           1.0782815           0.4906857           0.3454908
 Leave Link  202 at Sat Jan 24 20:21:00 2026, MaxMem=  2147483648 cpu:               0.0 elap:               0.0
 (Enter /data/home/wyx/g16/l301.exe)
 Standard basis: TZVP (5D, 7F)
 Ernie: Thresh=  0.10000D-02 Tol=  0.10000D-05 Strict=F.
 There are   370 symmetry adapted cartesian basis functions of A   symmetry.
 There are   356 symmetry adapted basis functions of A   symmetry.
   356 basis functions,   610 primitive gaussians,   370 cartesian basis functions
    52 alpha electrons       52 beta electrons
       nuclear repulsion energy       900.6214957222 Hartrees.
 IExCor=20419 DFT=T Ex+Corr=CAM-B3LYP ExCW=0 ScaHFX=  1.000000
 ScaDFX=  1.000000  1.000000  1.000000  0.810000 ScalE2=  1.000000  1.000000
 IRadAn=      5 IRanWt=     -1 IRanGd=            0 ICorTp=0 IEmpDi=141
 HFx  wShort=  0.000000 wLong=  0.330000 cFull=  0.190000 cShort=  0.000000 cLong=  0.460000
 DFx  wShort=  0.000000 wLong=  0.330000 cFull=  0.190000 cShort=  0.000000 cLong=  0.460000
 NAtoms=   29 NActive=   29 NUniq=   29 SFac= 1.00D+00 NAtFMM=   60 NAOKFM=F Big=F
 Integral buffers will be    131072 words long.
 Raffenetti 1 integral format.
 Two-electron integral symmetry is turned on.
 R6Disp:  Grimme-D3(BJ) Dispersion energy=       -0.0261895184 Hartrees.
 Nuclear repulsion after empirical dispersion term =      900.5953062037 Hartrees.
 ------------------------------------------------------------------------------
 Polarizable Continuum Model (PCM)
 =================================
 Model                : PCM.
 Atomic radii         : UFF (Universal Force Field).
 Polarization charges : Total charges.
 Charge compensation  : None.
 Solution method      : On-the-fly selection.
 Cavity type          : Scaled VdW (van der Waals Surface) (Alpha=1.100).
 Cavity algorithm     : GePol (No added spheres)
                        Default sphere list used, NSphG=   29.
                        Lebedev-Laikov grids with approx.  5.0 points / Ang**2.
                        Smoothing algorithm: York/Karplus (Gamma=1.0000).
                        Polarization charges: spherical gaussians, with
                                              point-specific exponents (IZeta= 3).
                        Self-potential: point-specific (ISelfS= 7).
                        Self-field    : sphere-specific E.n sum rule (ISelfD= 2).
 1st derivatives      : Analytical E(r).r(x)/FMM algorithm (CHGder, D1EAlg=3).
                        Cavity 1st derivative terms included.
 Solvent              : Water, Eps=  78.355300 Eps(inf)=   1.777849
 ------------------------------------------------------------------------------
 GePol: Number of generator spheres                  =      29
 GePol: Total number of spheres                      =      29
 GePol: Number of exposed spheres                    =      29 (100.00%)
 GePol: Number of points                             =    2104
 GePol: Average weight of points                     =       0.13
 GePol: Minimum weight of points                     =   0.41D-11
 GePol: Maximum weight of points                     =    0.20577
 GePol: Number of points with low weight             =     135
 GePol: Fraction of low-weight points (<1% of avg)   =       6.42%
 GePol: Cavity surface area                          =    268.579 Ang**2
 GePol: Cavity volume                                =    286.653 Ang**3
 Leave Link  301 at Sat Jan 24 20:21:00 2026, MaxMem=  2147483648 cpu:               0.6 elap:               0.0
 (Enter /data/home/wyx/g16/l302.exe)
 NPDir=0 NMtPBC=     1 NCelOv=     1 NCel=       1 NClECP=     1 NCelD=      1
         NCelK=      1 NCelE2=     1 NClLst=     1 CellRange=     0.0.
 One-electron integrals computed using PRISM.
 One-electron integral symmetry used in STVInt
 NBasis=   356 RedAO= T EigKep=  4.67D-05  NBF=   356
 NBsUse=   356 1.00D-06 EigRej= -1.00D+00 NBFU=   356
 Precomputing XC quadrature grid using
 IXCGrd= 4 IRadAn=           5 IRanWt=          -1 IRanGd=           0 AccXCQ= 0.00D+00.
 Generated NRdTot=       0 NPtTot=           0 NUsed=           0 NTot=          32
 NSgBfM=   366   366   366   366   366 MxSgAt=    29 MxSgA2=    29.
 Leave Link  302 at Sat Jan 24 20:21:00 2026, MaxMem=  2147483648 cpu:               3.1 elap:               0.2
 (Enter /data/home/wyx/g16/l303.exe)
 DipDrv:  MaxL=1.
 Leave Link  303 at Sat Jan 24 20:21:01 2026, MaxMem=  2147483648 cpu:               0.6 elap:               0.0
 (Enter /data/home/wyx/g16/l308.exe)
 Leave Link  308 at Sat Jan 24 20:21:01 2026, MaxMem=  2147483648 cpu:               0.7 elap:               0.1
 (Enter /data/home/wyx/g16/l401.exe)
 Initial guess from the checkpoint file:  "DDL-S2-cLR-10.chk"
 B after Tr=    -0.000000    0.000000   -0.000000
         Rot=    1.000000    0.000000   -0.000000    0.000000 Ang=   0.00 deg.
 Guess basis will be translated and rotated to current coordinates.
 JPrj=2 DoOrth=T DoCkMO=T.
 Leave Link  401 at Sat Jan 24 20:21:01 2026, MaxMem=  2147483648 cpu:               2.2 elap:               0.2
 (Enter /data/home/wyx/g16/l502.exe)
 Integral symmetry usage will be decided dynamically.
 Closed shell SCF:
 Using DIIS extrapolation, IDIIS=  1040.
 NGot=  2147483648 LenX=  2147200095 LenY=  2147062754
 Requested convergence on RMS density matrix=1.00D-08 within 128 cycles.
 Requested convergence on MAX density matrix=1.00D-06.
 Requested convergence on             energy=1.00D-06.
 No special actions if energy rises.
 Fock matrices will be formed incrementally for  20 cycles.

 Cycle   1  Pass 1  IDiag  1:
 FoFJK:  IHMeth= 1 ICntrl=       0 DoSepK=T KAlg= 0 I1Cent=           0 FoldK=F
 IRaf=         1 NMat=       1 IRICut=       1 DoRegI=T DoRafI=F ISym2E= 0 IDoP0=0 IntGTp=1.
 FoFCou: FMM=F IPFlag=           0 FMFlag=      100000 FMFlg1=           0
         NFxFlg=           0 DoJE=T BraDBF=F KetDBF=F FulRan=T
         wScrn=  0.000000 ICntrl=       500 IOpCl=  0 I1Cent=           0 NGrid=           0
         NMat0=    1 NMatS0=      1 NMatT0=    0 NMatD0=    1 NMtDS0=    0 NMtDT0=    0
 Symmetry not used in FoFCou.
 Inv3:  Mode=1 IEnd=    13280448.
 Iteration    1 A*A^-1 deviation from unit magnitude is 2.78D-15 for   1430.
 Iteration    1 A*A^-1 deviation from orthogonality  is 1.78D-15 for    568    374.
 Iteration    1 A^-1*A deviation from unit magnitude is 3.00D-15 for   1430.
 Iteration    1 A^-1*A deviation from orthogonality  is 6.99D-15 for   1378   1347.
 E= -633.330586820850    
 DIIS: error= 1.35D-08 at cycle   1 NSaved=   1.
 NSaved= 1 IEnMin= 1 EnMin= -633.330586820850     IErMin= 1 ErrMin= 1.35D-08
 ErrMax= 1.35D-08  0.00D+00 EMaxC= 1.00D-01 BMatC= 5.30D-14 BMatP= 5.30D-14
 IDIUse=1 WtCom= 1.00D+00 WtEn= 0.00D+00
 Coeff-Com:  0.100D+01
 Coeff:      0.100D+01
 Gap=     0.230 Goal=   None    Shift=    0.000
 RMSDP=2.62D-09 MaxDP=7.39D-08              OVMax= 2.88D-07

 Error on total polarization charges =  0.01548
 SCF Done:  E(RCAM-B3LYP) =  -633.330586821     A.U. after    1 cycles
            NFock=  1  Conv=0.26D-08     -V/T= 2.0041
 KE= 6.307295370446D+02 PE=-3.277252142007D+03 EE= 1.112596711937D+03
 Leave Link  502 at Sat Jan 24 20:21:07 2026, MaxMem=  2147483648 cpu:              85.2 elap:               5.6
 (Enter /data/home/wyx/g16/l801.exe)
 DoSCS=F DFT=T ScalE2(SS,OS)=  1.000000  1.000000
 ExpMin= 9.52D-02 ExpMax= 2.70D+04 ExpMxC= 9.22D+02 IAcc=3 IRadAn=         5 AccDes= 0.00D+00
 HarFok:  IExCor=  205 AccDes= 0.00D+00 IRadAn=         5 IDoV=-2 UseB2=F ITyADJ=14
 ICtDFT= 12500011 ScaDFX=  1.000000  1.000000  1.000000  1.000000
 Largest valence mixing into a core orbital is  5.62D-05
 Largest core mixing into a valence orbital is  1.19D-05
 Range of M.O.s used for correlation:    15   356
 NBasis=   356 NAE=    52 NBE=    52 NFC=    14 NFV=     0
 NROrb=    342 NOA=    38 NOB=    38 NVA=   304 NVB=   304

 **** Warning!!: The largest alpha MO coefficient is  0.58268497D+02

 Leave Link  801 at Sat Jan 24 20:21:07 2026, MaxMem=  2147483648 cpu:               1.0 elap:               0.1
 (Enter /data/home/wyx/g16/l914.exe)
 RHF ground state
 Two-electron integrals replicated using symmetry.
 MDV=  2147483648 DFT=T DoStab=F Mixed=T DoRPA=T DoScal=F NonHer=T
 NEqPCM:  Using equilibrium solvation (IEInf=0, Eps=  78.3553, EpsInf=   1.7778)
 Making orbital integer symmetry assigments:
 Orbital symmetries:
       Occupied  (A) (A) (A) (A) (A) (A) (A) (A) (A) (A) (A) (A)
                 (A) (A) (A) (A) (A) (A) (A) (A) (A) (A) (A) (A)
                 (A) (A) (A) (A) (A) (A) (A) (A) (A) (A) (A) (A)
                 (A) (A) (A) (A) (A) (A) (A) (A) (A) (A) (A) (A)
                 (A) (A) (A) (A)
       Virtual   (A) (A) (A) (A) (A) (A) (A) (A) (A) (A) (A) (A)
                 (A) (A) (A) (A) (A) (A) (A) (A) (A) (A) (A) (A)
                 (A) (A) (A) (A) (A) (A) (A) (A) (A) (A) (A) (A)
                 (A) (A) (A) (A) (A) (A) (A) (A) (A) (A) (A) (A)
                 (A) (A) (A) (A) (A) (A) (A) (A) (A) (A) (A) (A)
                 (A) (A) (A) (A) (A) (A) (A) (A) (A) (A) (A) (A)
                 (A) (A) (A) (A) (A) (A) (A) (A) (A) (A) (A) (A)
                 (A) (A) (A) (A) (A) (A) (A) (A) (A) (A) (A) (A)
                 (A) (A) (A) (A) (A) (A) (A) (A) (A) (A) (A) (A)
                 (A) (A) (A) (A) (A) (A) (A) (A) (A) (A) (A) (A)
                 (A) (A) (A) (A) (A) (A) (A) (A) (A) (A) (A) (A)
                 (A) (A) (A) (A) (A) (A) (A) (A) (A) (A) (A) (A)
                 (A) (A) (A) (A) (A) (A) (A) (A) (A) (A) (A) (A)
                 (A) (A) (A) (A) (A) (A) (A) (A) (A) (A) (A) (A)
                 (A) (A) (A) (A) (A) (A) (A) (A) (A) (A) (A) (A)
                 (A) (A) (A) (A) (A) (A) (A) (A) (A) (A) (A) (A)
                 (A) (A) (A) (A) (A) (A) (A) (A) (A) (A) (A) (A)
                 (A) (A) (A) (A) (A) (A) (A) (A) (A) (A) (A) (A)
                 (A) (A) (A) (A) (A) (A) (A) (A) (A) (A) (A) (A)
                 (A) (A) (A) (A) (A) (A) (A) (A) (A) (A) (A) (A)
                 (A) (A) (A) (A) (A) (A) (A) (A) (A) (A) (A) (A)
                 (A) (A) (A) (A) (A) (A) (A) (A) (A) (A) (A) (A)
                 (A) (A) (A) (A) (A) (A) (A) (A) (A) (A) (A) (A)
                 (A) (A) (A) (A) (A) (A) (A) (A) (A) (A) (A) (A)
                 (A) (A) (A) (A) (A) (A) (A) (A) (A) (A) (A) (A)
                 (A) (A) (A) (A)
 PCM Corrected Linear-Response:
 Compute the excitation energies in the ground state reaction field.
    24 initial guesses have been made.
 Convergence on wavefunction:    0.000001000000000
 Davidson Disk Diagonalization:  ConvIn= 1.00D-06 SkipCon=T Conv= 1.00D-06.
 Max sub-space:  2000 roots to seek:    24 dimension of matrix:        23104
 Iteration     1 Dimension    24 NMult     0 NNew     24
 CISAX will form    24 AO SS matrices at one time.
 NMat=    24 NSing=    24 JSym2X= 0.
 FoFJK:  IHMeth= 1 ICntrl=       0 DoSepK=T KAlg= 0 I1Cent=           0 FoldK=F
 IRaf=         1 NMat=      48 IRICut=       1 DoRegI=T DoRafI=F ISym2E= 0 IDoP0=3 IntGTp=3.
 FoFCou: FMM=F IPFlag=           0 FMFlag=      100000 FMFlg1=           0
         NFxFlg=           0 DoJE=F BraDBF=F KetDBF=F FulRan=T
         wScrn=  0.000000 ICntrl=       500 IOpCl=  0 I1Cent=           0 NGrid=           0
         NMat0=   24 NMatS0=     24 NMatT0=    0 NMatD0=   24 NMtDS0=    0 NMtDT0=    0
 Symmetry not used in FoFCou.
 New state      2 was old state      3
 New state      3 was old state      4
 New state      4 was old state      2
 New state      5 was old state      6
 New state      6 was old state      5
 Excitation Energies [eV] at current iteration:
 Root      1 :     3.834929503944951
 Root      2 :     4.300593896748779
 Root      3 :     4.499985031571947
 Root      4 :     5.465135007201182
 Root      5 :     6.120821640642683
 Root      6 :     6.456254723746746
 Root      7 :     6.748450847377054
 Root      8 :     6.807724843704313
 Root      9 :     7.017794394808343
 Root     10 :     7.036687294871261
 Root     11 :     7.260187215378776
 Root     12 :     7.365172144307980
 Root     13 :     7.514835852886734
 Root     14 :     7.555405323539239
 Root     15 :     7.871303907635784
 Root     16 :     7.926201292797701
 Root     17 :     8.158087134853277
 Root     18 :     8.227504530939344
 Root     19 :     8.334096350886911
 Root     20 :     8.373884941046091
 Root     21 :     8.613465737609996
 Root     22 :     8.867175173203597
 Root     23 :     8.903927997242828
 Root     24 :     9.086980720091491
 Iteration     2 Dimension    36 NMult    24 NNew     12
 CISAX will form    12 AO SS matrices at one time.
 NMat=    12 NSing=    12 JSym2X= 0.
 Root      1 not converged, maximum delta is    0.039394290320668
 Root      2 not converged, maximum delta is    0.074221032402396
 Root      3 not converged, maximum delta is    0.085782562353468
 Root      4 not converged, maximum delta is    0.201970725710840
 New state      5 was old state      6
 Root      5 not converged, maximum delta is    0.192405588712952
 New state      6 was old state      5
 Root      6 not converged, maximum delta is    0.100499011771790
 Excitation Energies [eV] at current iteration:
 Root      1 :     3.368233893137899   Change is   -0.466695610807052
 Root      2 :     4.072486268405147   Change is   -0.228107628343631
 Root      3 :     4.234614395066530   Change is   -0.265370636505418
 Root      4 :     5.148332608520128   Change is   -0.316802398681054
 Root      5 :     5.613904002479262   Change is   -0.842350721267484
 Root      6 :     6.012461574344101   Change is   -0.108360066298582
 Iteration     3 Dimension    48 NMult    36 NNew     12
 CISAX will form    12 AO SS matrices at one time.
 NMat=    12 NSing=    12 JSym2X= 0.
 Root      1 not converged, maximum delta is    0.008878581179405
 Root      2 not converged, maximum delta is    0.013161549562523
 Root      3 not converged, maximum delta is    0.012454959640538
 Root      4 not converged, maximum delta is    0.021686595318604
 Root      5 not converged, maximum delta is    0.023996922129175
 Root      6 not converged, maximum delta is    0.007381372683012
 Excitation Energies [eV] at current iteration:
 Root      1 :     3.348086786722338   Change is   -0.020147106415561
 Root      2 :     4.059295471241016   Change is   -0.013190797164132
 Root      3 :     4.220758529535556   Change is   -0.013855865530974
 Root      4 :     5.127791643648029   Change is   -0.020540964872098
 Root      5 :     5.577256022836200   Change is   -0.036647979643062
 Root      6 :     6.006770440485931   Change is   -0.005691133858170
 Iteration     4 Dimension    60 NMult    48 NNew     12
 CISAX will form    12 AO SS matrices at one time.
 NMat=    12 NSing=    12 JSym2X= 0.
 Root      1 not converged, maximum delta is    0.002204564105546
 Root      2 not converged, maximum delta is    0.001977935101287
 Root      3 not converged, maximum delta is    0.002099230205357
 Root      4 not converged, maximum delta is    0.002418718255723
 Root      5 not converged, maximum delta is    0.003658052911873
 Root      6 not converged, maximum delta is    0.002107746971670
 Excitation Energies [eV] at current iteration:
 Root      1 :     3.346502649107444   Change is   -0.001584137614895
 Root      2 :     4.058523974956709   Change is   -0.000771496284307
 Root      3 :     4.219885011081163   Change is   -0.000873518454393
 Root      4 :     5.125968442181192   Change is   -0.001823201466838
 Root      5 :     5.573625976216869   Change is   -0.003630046619331
 Root      6 :     6.006391292901031   Change is   -0.000379147584900
 Iteration     5 Dimension    72 NMult    60 NNew     12
 CISAX will form    12 AO SS matrices at one time.
 NMat=    12 NSing=    12 JSym2X= 0.
 Root      1 not converged, maximum delta is    0.000742339621164
 Root      2 not converged, maximum delta is    0.000321267821680
 Root      3 not converged, maximum delta is    0.000526813436477
 Root      4 not converged, maximum delta is    0.000664079953313
 Root      5 not converged, maximum delta is    0.000893524235227
 Root      6 not converged, maximum delta is    0.000374328791131
 Excitation Energies [eV] at current iteration:
 Root      1 :     3.346409739978565   Change is   -0.000092909128879
 Root      2 :     4.058468400183520   Change is   -0.000055574773189
 Root      3 :     4.219835209415458   Change is   -0.000049801665705
 Root      4 :     5.125835982833984   Change is   -0.000132459347207
 Root      5 :     5.573341091757166   Change is   -0.000284884459703
 Root      6 :     6.006360041410505   Change is   -0.000031251490526
 Iteration     6 Dimension    84 NMult    72 NNew     12
 CISAX will form    12 AO SS matrices at one time.
 NMat=    12 NSing=    12 JSym2X= 0.
 Root      1 not converged, maximum delta is    0.000185812897748
 Root      2 not converged, maximum delta is    0.000101347800146
 Root      3 not converged, maximum delta is    0.000139814719277
 Root      4 not converged, maximum delta is    0.000398511485808
 Root      5 not converged, maximum delta is    0.000483703398368
 Root      6 not converged, maximum delta is    0.000190059776894
 Excitation Energies [eV] at current iteration:
 Root      1 :     3.346405002649079   Change is   -0.000004737329486
 Root      2 :     4.058464933435584   Change is   -0.000003466747936
 Root      3 :     4.219832472037573   Change is   -0.000002737377886
 Root      4 :     5.125824630387312   Change is   -0.000011352446672
 Root      5 :     5.573314824833643   Change is   -0.000026266923523
 Root      6 :     6.006357059770986   Change is   -0.000002981639519
 Iteration     7 Dimension    96 NMult    84 NNew     12
 CISAX will form    12 AO SS matrices at one time.
 NMat=    12 NSing=    12 JSym2X= 0.
 Root      1 not converged, maximum delta is    0.000018382237757
 Root      2 not converged, maximum delta is    0.000020895355451
 Root      3 not converged, maximum delta is    0.000031348727327
 Root      4 not converged, maximum delta is    0.000109684768053
 Root      5 not converged, maximum delta is    0.000165765870296
 Root      6 not converged, maximum delta is    0.000076317861938
 Excitation Energies [eV] at current iteration:
 Root      1 :     3.346404731234841   Change is   -0.000000271414239
 Root      2 :     4.058464753443135   Change is   -0.000000179992449
 Root      3 :     4.219832325941417   Change is   -0.000000146096155
 Root      4 :     5.125823661679859   Change is   -0.000000968707453
 Root      5 :     5.573311959137105   Change is   -0.000002865696538
 Root      6 :     6.006356785208546   Change is   -0.000000274562439
 Iteration     8 Dimension   108 NMult    96 NNew     12
 CISAX will form    12 AO SS matrices at one time.
 NMat=    12 NSing=    12 JSym2X= 0.
 Root      1 not converged, maximum delta is    0.000002535982877
 Root      2 not converged, maximum delta is    0.000003180122979
 Root      3 not converged, maximum delta is    0.000003066959484
 Root      4 not converged, maximum delta is    0.000017283647874
 Root      5 not converged, maximum delta is    0.000025373615047
 Root      6 not converged, maximum delta is    0.000018336455869
 Excitation Energies [eV] at current iteration:
 Root      1 :     3.346404721754066   Change is   -0.000000009480776
 Root      2 :     4.058464744457067   Change is   -0.000000008986068
 Root      3 :     4.219832316937214   Change is   -0.000000009004204
 Root      4 :     5.125823595861689   Change is   -0.000000065818170
 Root      5 :     5.573311747842969   Change is   -0.000000211294136
 Root      6 :     6.006356757477422   Change is   -0.000000027731125
 Iteration     9 Dimension   120 NMult   108 NNew     12
 CISAX will form    12 AO SS matrices at one time.
 NMat=    12 NSing=    12 JSym2X= 0.
 Root      1 has converged.
 Root      2 has converged.
 Root      3 has converged.
 Root      4 not converged, maximum delta is    0.000002771514960
 Root      5 not converged, maximum delta is    0.000006600887885
 Root      6 not converged, maximum delta is    0.000006261436011
 Excitation Energies [eV] at current iteration:
 Root      1 :     3.346404721432645   Change is   -0.000000000321420
 Root      2 :     4.058464744135020   Change is   -0.000000000322047
 Root      3 :     4.219832316614916   Change is   -0.000000000322298
 Root      4 :     5.125823592661131   Change is   -0.000000003200558
 Root      5 :     5.573311736118928   Change is   -0.000000011724042
 Root      6 :     6.006356754924664   Change is   -0.000000002552758
 Iteration    10 Dimension   126 NMult   120 NNew      6
 CISAX will form     6 AO SS matrices at one time.
 NMat=     6 NSing=     6 JSym2X= 0.
 Root      1 has converged.
 Root      2 has converged.
 Root      3 has converged.
 Root      4 has converged.
 Root      5 not converged, maximum delta is    0.000001233848019
 Root      6 not converged, maximum delta is    0.000001755166067
 Excitation Energies [eV] at current iteration:
 Root      1 :     3.346404721431441   Change is   -0.000000000001204
 Root      2 :     4.058464744131820   Change is   -0.000000000003200
 Root      3 :     4.219832316613202   Change is   -0.000000000001714
 Root      4 :     5.125823592530037   Change is   -0.000000000131094
 Root      5 :     5.573311735516264   Change is   -0.000000000602664
 Root      6 :     6.006356754720896   Change is   -0.000000000203768
 Iteration    11 Dimension   130 NMult   126 NNew      4
 CISAX will form     4 AO SS matrices at one time.
 NMat=     4 NSing=     4 JSym2X= 0.
 Root      1 has converged.
 Root      2 has converged.
 Root      3 has converged.
 Root      4 has converged.
 Root      5 has converged.
 Root      6 has converged.
 Excitation Energies [eV] at current iteration:
 Root      1 :     3.346404721431515   Change is    0.000000000000074
 Root      2 :     4.058464744131556   Change is   -0.000000000000264
 Root      3 :     4.219832316612968   Change is   -0.000000000000234
 Root      4 :     5.125823592528385   Change is   -0.000000000001652
 Root      5 :     5.573311735486587   Change is   -0.000000000029677
 Root      6 :     6.006356754705923   Change is   -0.000000000014973
 Convergence achieved on expansion vectors.
 PCM Corrected Linear-Response:
 The state of interest is root number   2
 Excitation energy =    4.0585 eV, Total energy =  -633.181440986    
 Recompute the excitation energies using the linear response reaction field.
 Convergence on wavefunction:    0.000001000000000
 Davidson Disk Diagonalization:  ConvIn= 1.00D-06 SkipCon=T Conv= 1.00D-06.
 Max sub-space:  2000 roots to seek:     6 dimension of matrix:        23104
 Iteration     1 Dimension     6 NMult     0 NNew      6
 CISAX will form     6 AO SS matrices at one time.
 NMat=     6 NSing=     6 JSym2X= 0.
 Excitation Energies [eV] at current iteration:
 Root      1 :     3.425313140209518
 Root      2 :     4.084234843185065
 Root      3 :     4.245412047348942
 Root      4 :     5.188229755589568
 Root      5 :     5.712165631964953
 Root      6 :     5.967001901475422
 Iteration     2 Dimension    18 NMult     6 NNew     12
 CISAX will form    12 AO SS matrices at one time.
 NMat=    12 NSing=    12 JSym2X= 0.
 Root      1 not converged, maximum delta is    0.017504658875158
 Root      2 not converged, maximum delta is    0.013974656732627
 Root      3 not converged, maximum delta is    0.010040175108310
 Root      4 not converged, maximum delta is    0.228072181553432
 Root      5 not converged, maximum delta is    0.283306217921840
 Root      6 not converged, maximum delta is    0.065062329607151
 Excitation Energies [eV] at current iteration:
 Root      1 :     3.202113605359495   Change is   -0.223199534850023
 Root      2 :     4.052752810229229   Change is   -0.031482032955837
 Root      3 :     4.213150812274036   Change is   -0.032261235074905
 Root      4 :     4.955616023476821   Change is   -0.232613732112747
 Root      5 :     5.425497999096637   Change is   -0.286667632868316
 Root      6 :     5.942556653983978   Change is   -0.024445247491445
 Iteration     3 Dimension    30 NMult    18 NNew     12
 CISAX will form    12 AO SS matrices at one time.
 NMat=    12 NSing=    12 JSym2X= 0.
 Root      1 not converged, maximum delta is    0.002918518134865
 Root      2 not converged, maximum delta is    0.001099751608233
 Root      3 not converged, maximum delta is    0.001457041465185
 Root      4 not converged, maximum delta is    0.012468005790843
 Root      5 not converged, maximum delta is    0.012900413618164
 Root      6 not converged, maximum delta is    0.008982722866714
 Excitation Energies [eV] at current iteration:
 Root      1 :     3.198646649688933   Change is   -0.003466955670562
 Root      2 :     4.052413967447828   Change is   -0.000338842781400
 Root      3 :     4.212763910723161   Change is   -0.000386901550876
 Root      4 :     4.945380245921270   Change is   -0.010235777555551
 Root      5 :     5.416965724168519   Change is   -0.008532274928117
 Root      6 :     5.940509731413389   Change is   -0.002046922570588
 Iteration     4 Dimension    42 NMult    30 NNew     12
 CISAX will form    12 AO SS matrices at one time.
 NMat=    12 NSing=    12 JSym2X= 0.
 Root      1 not converged, maximum delta is    0.001752421211539
 Root      2 not converged, maximum delta is    0.000193053903422
 Root      3 not converged, maximum delta is    0.000226236878733
 Root      4 not converged, maximum delta is    0.002688923043601
 Root      5 not converged, maximum delta is    0.003474351616096
 Root      6 not converged, maximum delta is    0.009049671247184
 Excitation Energies [eV] at current iteration:
 Root      1 :     3.198211303137800   Change is   -0.000435346551133
 Root      2 :     4.052397615702451   Change is   -0.000016351745378
 Root      3 :     4.212740364090565   Change is   -0.000023546632595
 Root      4 :     4.943666069411663   Change is   -0.001714176509608
 Root      5 :     5.415615236515624   Change is   -0.001350487652895
 Root      6 :     5.939880629253350   Change is   -0.000629102160039
 Iteration     5 Dimension    54 NMult    42 NNew     12
 CISAX will form    12 AO SS matrices at one time.
 NMat=    12 NSing=    12 JSym2X= 0.
 Root      1 not converged, maximum delta is    0.000463040772580
 Root      2 not converged, maximum delta is    0.000084320744754
 Root      3 not converged, maximum delta is    0.000078384412721
 Root      4 not converged, maximum delta is    0.000742613854133
 Root      5 not converged, maximum delta is    0.000640437106296
 Root      6 not converged, maximum delta is    0.003608910476424
 Excitation Energies [eV] at current iteration:
 Root      1 :     3.198181724851977   Change is   -0.000029578285822
 Root      2 :     4.052396523590129   Change is   -0.000001092112321
 Root      3 :     4.212738484630759   Change is   -0.000001879459806
 Root      4 :     4.943516088724639   Change is   -0.000149980687023
 Root      5 :     5.415486313603044   Change is   -0.000128922912581
 Root      6 :     5.939758172209791   Change is   -0.000122457043560
 Iteration     6 Dimension    66 NMult    54 NNew     12
 CISAX will form    12 AO SS matrices at one time.
 NMat=    12 NSing=    12 JSym2X= 0.
 Root      1 not converged, maximum delta is    0.000074336912431
 Root      2 not converged, maximum delta is    0.000025033470097
 Root      3 not converged, maximum delta is    0.000031950566264
 Root      4 not converged, maximum delta is    0.000297464792818
 Root      5 not converged, maximum delta is    0.000373990193384
 Root      6 not converged, maximum delta is    0.000951691208646
 Excitation Energies [eV] at current iteration:
 Root      1 :     3.198179960894346   Change is   -0.000001763957632
 Root      2 :     4.052396407927884   Change is   -0.000000115662245
 Root      3 :     4.212738305289869   Change is   -0.000000179340891
 Root      4 :     4.943502350683382   Change is   -0.000013738041257
 Root      5 :     5.415472474407337   Change is   -0.000013839195707
 Root      6 :     5.939740719589822   Change is   -0.000017452619968
 Iteration     7 Dimension    78 NMult    66 NNew     12
 CISAX will form    12 AO SS matrices at one time.
 NMat=    12 NSing=    12 JSym2X= 0.
 Root      1 not converged, maximum delta is    0.000010810180283
 Root      2 not converged, maximum delta is    0.000006353175746
 Root      3 not converged, maximum delta is    0.000007849927177
 Root      4 not converged, maximum delta is    0.000089941778338
 Root      5 not converged, maximum delta is    0.000111219204579
 Root      6 not converged, maximum delta is    0.000148224110667
 Excitation Energies [eV] at current iteration:
 Root      1 :     3.198179893732835   Change is   -0.000000067161510
 Root      2 :     4.052396402585729   Change is   -0.000000005342155
 Root      3 :     4.212738295833310   Change is   -0.000000009456559
 Root      4 :     4.943501229559971   Change is   -0.000001121123411
 Root      5 :     5.415471273191526   Change is   -0.000001201215811
 Root      6 :     5.939739016729951   Change is   -0.000001702859871
 Iteration     8 Dimension    90 NMult    78 NNew     12
 CISAX will form    12 AO SS matrices at one time.
 NMat=    12 NSing=    12 JSym2X= 0.
 Root      1 not converged, maximum delta is    0.000002611536331
 Root      2 not converged, maximum delta is    0.000001533956878
 Root      3 not converged, maximum delta is    0.000001256602491
 Root      4 not converged, maximum delta is    0.000028388073088
 Root      5 not converged, maximum delta is    0.000036037710518
 Root      6 not converged, maximum delta is    0.000037996897159
 Excitation Energies [eV] at current iteration:
 Root      1 :     3.198179890713306   Change is   -0.000000003019529
 Root      2 :     4.052396402401734   Change is   -0.000000000183995
 Root      3 :     4.212738295366183   Change is   -0.000000000467127
 Root      4 :     4.943501143429896   Change is   -0.000000086130075
 Root      5 :     5.415471154093644   Change is   -0.000000119097882
 Root      6 :     5.939738844557882   Change is   -0.000000172172069
 Iteration     9 Dimension   102 NMult    90 NNew     12
 CISAX will form    12 AO SS matrices at one time.
 NMat=    12 NSing=    12 JSym2X= 0.
 Root      1 has converged.
 Root      2 has converged.
 Root      3 has converged.
 Root      4 not converged, maximum delta is    0.000007260623065
 Root      5 not converged, maximum delta is    0.000011642406833
 Root      6 not converged, maximum delta is    0.000024160860488
 Excitation Energies [eV] at current iteration:
 Root      1 :     3.198179890566045   Change is   -0.000000000147261
 Root      2 :     4.052396402393193   Change is   -0.000000000008541
 Root      3 :     4.212738295333184   Change is   -0.000000000032998
 Root      4 :     4.943501137556056   Change is   -0.000000005873840
 Root      5 :     5.415471142679193   Change is   -0.000000011414451
 Root      6 :     5.939738826163792   Change is   -0.000000018394090
 Iteration    10 Dimension   108 NMult   102 NNew      6
 CISAX will form     6 AO SS matrices at one time.
 NMat=     6 NSing=     6 JSym2X= 0.
 Root      1 has converged.
 Root      2 has converged.
 Root      3 has converged.
 Root      4 not converged, maximum delta is    0.000001421087311
 Root      5 not converged, maximum delta is    0.000002690386912
 Root      6 not converged, maximum delta is    0.000009297750973
 Excitation Energies [eV] at current iteration:
 Root      1 :     3.198179890565299   Change is   -0.000000000000745
 Root      2 :     4.052396402393072   Change is   -0.000000000000122
 Root      3 :     4.212738295332599   Change is   -0.000000000000585
 Root      4 :     4.943501137238001   Change is   -0.000000000318055
 Root      5 :     5.415471141842799   Change is   -0.000000000836394
 Root      6 :     5.939738823998124   Change is   -0.000000002165668
 Iteration    11 Dimension   114 NMult   108 NNew      6
 CISAX will form     6 AO SS matrices at one time.
 NMat=     6 NSing=     6 JSym2X= 0.
 Root      1 has converged.
 Root      2 has converged.
 Root      3 has converged.
 Root      4 has converged.
 Root      5 has converged.
 Root      6 not converged, maximum delta is    0.000001700513128
 Excitation Energies [eV] at current iteration:
 Root      1 :     3.198179890565223   Change is   -0.000000000000077
 Root      2 :     4.052396402392930   Change is   -0.000000000000142
 Root      3 :     4.212738295332423   Change is   -0.000000000000175
 Root      4 :     4.943501137219044   Change is   -0.000000000018957
 Root      5 :     5.415471141785191   Change is   -0.000000000057609
 Root      6 :     5.939738823801025   Change is   -0.000000000197099
 Iteration    12 Dimension   116 NMult   114 NNew      2
 CISAX will form     2 AO SS matrices at one time.
 NMat=     2 NSing=     2 JSym2X= 0.
 Root      1 has converged.
 Root      2 has converged.
 Root      3 has converged.
 Root      4 has converged.
 Root      5 has converged.
 Root      6 has converged.
 Excitation Energies [eV] at current iteration:
 Root      1 :     3.198179890565094   Change is   -0.000000000000128
 Root      2 :     4.052396402392930   Change is    0.000000000000000
 Root      3 :     4.212738295332326   Change is   -0.000000000000097
 Root      4 :     4.943501137219027   Change is   -0.000000000000017
 Root      5 :     5.415471141785191   Change is    0.000000000000000
 Root      6 :     5.939738823786146   Change is   -0.000000000014878
 Convergence achieved on expansion vectors.
 ***********************************************************************
 Excited states from <AA,BB:AA,BB> singles matrix:
 ***********************************************************************
 
 1PDM for each excited state written to RWF  633
 Ground to excited state transition densities written to RWF  633
 Ground to excited state transition electric dipole moments (Au):
       state          X           Y           Z        Dip. S.      Osc.
         1         1.7144      0.2146      0.0572      2.9885      0.2342
         2         0.1028     -0.0197      0.0421      0.0127      0.0013
         3        -0.0265     -0.1648      0.0339      0.0290      0.0030
         4         0.2040     -1.9741      0.1126      3.9513      0.4786
         5         0.0708     -1.4487      0.0081      2.1037      0.2791
         6        -0.0277      0.2716      0.0475      0.0768      0.0112
 Ground to excited state transition velocity dipole moments (Au):
       state          X           Y           Z        Dip. S.      Osc.
         1        -0.1936     -0.0208     -0.0073      0.0380      0.2155
         2        -0.0147      0.0032     -0.0032      0.0002      0.0011
         3         0.0039      0.0236     -0.0018      0.0006      0.0025
         4        -0.0402      0.3443     -0.0164      0.1204      0.4418
         5        -0.0141      0.2835     -0.0028      0.0806      0.2699
         6         0.0069     -0.0557     -0.0302      0.0041      0.0124
 Ground to excited state transition magnetic dipole moments (Au):
       state          X           Y           Z
         1        -0.0539     -0.0258      1.4483
         2         0.8041      0.1297      0.2721
         3        -0.1706     -0.9892     -0.2039
         4         0.0663      0.1170     -0.1167
         5         0.1670      0.1047     -0.2662
         6         0.0928      0.0255     -0.0419
 Ground to excited state transition velocity quadrupole moments (Au):
       state          XX          YY          ZZ          XY          XZ          YZ
         1        -0.1896      0.1071      0.0025      0.5352     -0.0519      0.0153
         2         0.0103     -0.0087     -0.0008      0.0428     -0.0126      0.0873
         3        -0.0096      0.0069     -0.0264     -0.0626      0.0667     -0.0097
         4        -1.3959      0.3101      0.0056     -0.1234     -0.0954     -0.0425
         5        -0.3783      0.2548      0.0424     -0.2187     -0.0621      0.0307
         6        -0.2875     -0.2296      0.1923     -0.0234     -0.0413      0.1431
 <0|del|b> * <b|rxdel|0> + <0|del|b> * <b|delr+rdel|0>
 Rotatory Strengths (R) in cgs (10**-40 erg-esu-cm/Gauss)
       state          XX          YY          ZZ    R(velocity)    E-M Angle
         1       -45.2633      2.3760     45.1812      0.7646       89.92
         2        -1.2846    -32.8749    -24.1378    -19.4324      158.16
         3       -55.8928     -1.0242    -51.2121    -36.0430      164.23
         4       149.9981     -2.0803      5.9502     51.2893       50.22
         5        86.4913     -4.7017     18.0586     33.2827       72.61
         6        -2.8185      3.5615      0.8596      0.5342       85.76
 1/2[<0|r|b>*<b|rxdel|0> + (<0|rxdel|b>*<b|r|0>)*]
 Rotatory Strengths (R) in cgs (10**-40 erg-esu-cm/Gauss)
       state          XX          YY          ZZ     R(length)
         1        65.3153      3.9207    -58.6062      3.5433
         2       -58.4691      1.8056     -8.1004    -21.5880
         3        -3.1940   -115.3146      4.8945    -37.8713
         4        -9.5712    163.3373      9.2860     54.3507
         5        -8.3561    107.3101      1.5321     33.4954
         6         1.8172     -4.8879      1.4070     -0.5546
  1/2[<0|del|b>*<b|r|0> + (<0|r|b>*<b|del|0>)*] (Au)
       state          X           Y           Z        Dip. S.   Osc.(frdel)
         1        -0.3320     -0.0045     -0.0004      0.3369      0.2246
         2        -0.0015     -0.0001     -0.0001      0.0017      0.0011
         3        -0.0001     -0.0039     -0.0001      0.0041      0.0027
         4        -0.0082     -0.6796     -0.0018      0.6896      0.4598
         5        -0.0010     -0.4107     -0.0000      0.4117      0.2745
         6        -0.0002     -0.0151     -0.0014      0.0167      0.0112

 Excitation energies and oscillator strengths:
 
 Excited State   1:      Singlet-A      3.1982 eV  387.67 nm  f=0.2342  <S**2>=0.000
      52 -> 53         0.70004
 
 Excited State   2:      Singlet-A      4.0524 eV  305.95 nm  f=0.0013  <S**2>=0.000
      50 -> 54        -0.19006
      51 -> 53         0.57153
      51 -> 54         0.31386
 This state for optimization and/or second-order correction.
 Total Energy, E(TD-HF/TD-DFT) =  -633.181663993    
 Copying the excited state density for this state as the 1-particle RhoCI density.
 
 Excited State   3:      Singlet-A      4.2127 eV  294.31 nm  f=0.0030  <S**2>=0.000
      49 -> 53        -0.28928
      49 -> 54         0.18126
      50 -> 53         0.50127
      50 -> 54        -0.23010
      50 -> 58         0.10583
      51 -> 54        -0.20998
 
 Excited State   4:      Singlet-A      4.9435 eV  250.80 nm  f=0.4786  <S**2>=0.000
      49 -> 53         0.12865
      52 -> 54         0.68518
 
 Excited State   5:      Singlet-A      5.4155 eV  228.94 nm  f=0.2791  <S**2>=0.000
      49 -> 53         0.57752
      50 -> 53         0.33495
      51 -> 53         0.13527
      52 -> 54        -0.13705
 
 Excited State   6:      Singlet-A      5.9397 eV  208.74 nm  f=0.0112  <S**2>=0.000
      52 -> 55         0.66003
      52 -> 56        -0.15741
 SavETr:  write IOETrn=   770 NScale= 10 NData=  16 NLR=1 NState=    6 LETran=     118.
 The selected state is a singlet.
 CISGrd: IGrad=1 NXY=2 DFT=T
 CISAX will form     1 AO SS matrices at one time.
 NMat=     1 NSing=     1 JSym2X= 0.
 Leave Link  914 at Sat Jan 24 20:29:12 2026, MaxMem=  2147483648 cpu:            7725.1 elap:             484.5
 (Enter /data/home/wyx/g16/l1002.exe)
 Minotr:  Closed shell wavefunction.
          Computing CIS/TDA/TD derivatives.
          Using Z-Vector for PSCF gradient.
          Skipping F1 and S1 gradient terms here.
 NEqPCM:  Using equilibrium solvation (IEInf=0, Eps=  78.3553, EpsInf=   1.7778)
          Frozen-core window.
          Direct CPHF calculation.
          Differentiating once with respect to electric field.
                with respect to dipole field.
          Electric field/nuclear overlap derivatives assumed to be zero.
          Requested convergence is 1.0D-10 RMS, and 1.0D-09 maximum.
          NewPWx=F KeepS1=T KeepF1=T KeepIn=T MapXYZ=F SortEE=F KeepMc=T.
 Two-electron integral symmetry used by symmetrizing perturbed Fock matrices.
          MDV=    2147483648 using IRadAn=       5.
          Solving linear equations separately, MaxMat=     384.
          There are     1 degrees of freedom in the 1st order CPHF.  IDoFFX=0 NUNeed=     1.
 FoFJK:  IHMeth= 1 ICntrl=       0 DoSepK=T KAlg= 0 I1Cent=           0 FoldK=F
 IRaf=         1 NMat=       1 IRICut=       1 DoRegI=T DoRafI=F ISym2E=-1 IDoP0=0 IntGTp=1.
 FoFCou: FMM=F IPFlag=           0 FMFlag=      100000 FMFlg1=           0
         NFxFlg=           0 DoJE=T BraDBF=F KetDBF=F FulRan=T
         wScrn=  0.000000 ICntrl=       500 IOpCl=  0 I1Cent=           0 NGrid=           0
         NMat0=    1 NMatS0=      1 NMatT0=    0 NMatD0=    1 NMtDS0=    0 NMtDT0=    0
 Petite list used in FoFCou.
 LinEq1:  Iter=  0 NonCon=     1 RMS=7.77D-03 Max=3.20D-01 NDo=     1
 AX will form     1 AO Fock derivatives at one time.
 LinEq1:  Iter=  1 NonCon=     1 RMS=2.10D-03 Max=9.07D-02 NDo=     1
 LinEq1:  Iter=  2 NonCon=     1 RMS=1.49D-03 Max=8.81D-02 NDo=     1
 LinEq1:  Iter=  3 NonCon=     1 RMS=6.00D-04 Max=3.15D-02 NDo=     1
 LinEq1:  Iter=  4 NonCon=     1 RMS=3.18D-04 Max=1.38D-02 NDo=     1
 LinEq1:  Iter=  5 NonCon=     1 RMS=1.63D-04 Max=8.25D-03 NDo=     1
 LinEq1:  Iter=  6 NonCon=     1 RMS=8.18D-05 Max=2.63D-03 NDo=     1
 LinEq1:  Iter=  7 NonCon=     1 RMS=4.66D-05 Max=1.87D-03 NDo=     1
 LinEq1:  Iter=  8 NonCon=     1 RMS=2.05D-05 Max=7.43D-04 NDo=     1
 LinEq1:  Iter=  9 NonCon=     1 RMS=1.52D-05 Max=7.41D-04 NDo=     1
 LinEq1:  Iter= 10 NonCon=     1 RMS=5.89D-06 Max=1.08D-04 NDo=     1
 LinEq1:  Iter= 11 NonCon=     1 RMS=3.53D-06 Max=1.27D-04 NDo=     1
 LinEq1:  Iter= 12 NonCon=     1 RMS=1.13D-06 Max=3.38D-05 NDo=     1
 LinEq1:  Iter= 13 NonCon=     1 RMS=5.25D-07 Max=1.41D-05 NDo=     1
 LinEq1:  Iter= 14 NonCon=     1 RMS=1.96D-07 Max=4.66D-06 NDo=     1
 LinEq1:  Iter= 15 NonCon=     1 RMS=8.70D-08 Max=3.07D-06 NDo=     1
 LinEq1:  Iter= 16 NonCon=     1 RMS=3.52D-08 Max=1.65D-06 NDo=     1
 LinEq1:  Iter= 17 NonCon=     1 RMS=1.41D-08 Max=5.43D-07 NDo=     1
 LinEq1:  Iter= 18 NonCon=     1 RMS=5.89D-09 Max=1.47D-07 NDo=     1
 LinEq1:  Iter= 19 NonCon=     1 RMS=1.67D-09 Max=3.28D-08 NDo=     1
 LinEq1:  Iter= 20 NonCon=     1 RMS=4.45D-10 Max=1.26D-08 NDo=     1
 LinEq1:  Iter= 21 NonCon=     1 RMS=1.57D-10 Max=4.15D-09 NDo=     1
 LinEq1:  Iter= 22 NonCon=     1 RMS=6.62D-11 Max=1.78D-09 NDo=     1
 LinEq1:  Iter= 23 NonCon=     0 RMS=1.92D-11 Max=6.23D-10 NDo=     1
 Linear equations converged to 1.000D-10 1.000D-09 after    23 iterations.
 PCM Corrected Linear-Response - Equilibrium solvation:
 Corrected transition energy               =    3.9560          eV
 Total energy after correction             = -633.185205129     a.u.
 NEqPCM:  Using non-equilibrium solvation (IEInf=1, Eps=  78.3553, EpsInf=   1.7778)
 Inv3:  Mode=1 IEnd=    13280448.
 Iteration    1 A*A^-1 deviation from unit magnitude is 3.33D-15 for    206.
 Iteration    1 A*A^-1 deviation from orthogonality  is 1.67D-15 for   2014   1603.
 Iteration    1 A^-1*A deviation from unit magnitude is 3.33D-15 for    206.
 Iteration    1 A^-1*A deviation from orthogonality  is 1.98D-15 for   1536   1127.
 NEqSol: Computing the dynamic-inertial partition of the PCM polarization charges.
 End of Minotr F.D. properties file   721 does not exist.
 End of Minotr F.D. properties file   722 does not exist.
 End of Minotr F.D. properties file   788 does not exist.
 Leave Link 1002 at Sat Jan 24 20:31:12 2026, MaxMem=  2147483648 cpu:            1906.9 elap:             120.0
 (Enter /data/home/wyx/g16/l601.exe)
 Copying SCF densities to generalized density rwf, IOpCl= 0 IROHF=0.

 **********************************************************************

            Population analysis using the CI density.

 **********************************************************************

 Orbital symmetries:
       Occupied  (A) (A) (A) (A) (A) (A) (A) (A) (A) (A) (A) (A)
                 (A) (A) (A) (A) (A) (A) (A) (A) (A) (A) (A) (A)
                 (A) (A) (A) (A) (A) (A) (A) (A) (A) (A) (A) (A)
                 (A) (A) (A) (A) (A) (A) (A) (A) (A) (A) (A) (A)
                 (A) (A) (A) (A)
       Virtual   (A) (A) (A) (A) (A) (A) (A) (A) (A) (A) (A) (A)
                 (A) (A) (A) (A) (A) (A) (A) (A) (A) (A) (A) (A)
                 (A) (A) (A) (A) (A) (A) (A) (A) (A) (A) (A) (A)
                 (A) (A) (A) (A) (A) (A) (A) (A) (A) (A) (A) (A)
                 (A) (A) (A) (A) (A) (A) (A) (A) (A) (A) (A) (A)
                 (A) (A) (A) (A) (A) (A) (A) (A) (A) (A) (A) (A)
                 (A) (A) (A) (A) (A) (A) (A) (A) (A) (A) (A) (A)
                 (A) (A) (A) (A) (A) (A) (A) (A) (A) (A) (A) (A)
                 (A) (A) (A) (A) (A) (A) (A) (A) (A) (A) (A) (A)
                 (A) (A) (A) (A) (A) (A) (A) (A) (A) (A) (A) (A)
                 (A) (A) (A) (A) (A) (A) (A) (A) (A) (A) (A) (A)
                 (A) (A) (A) (A) (A) (A) (A) (A) (A) (A) (A) (A)
                 (A) (A) (A) (A) (A) (A) (A) (A) (A) (A) (A) (A)
                 (A) (A) (A) (A) (A) (A) (A) (A) (A) (A) (A) (A)
                 (A) (A) (A) (A) (A) (A) (A) (A) (A) (A) (A) (A)
                 (A) (A) (A) (A) (A) (A) (A) (A) (A) (A) (A) (A)
                 (A) (A) (A) (A) (A) (A) (A) (A) (A) (A) (A) (A)
                 (A) (A) (A) (A) (A) (A) (A) (A) (A) (A) (A) (A)
                 (A) (A) (A) (A) (A) (A) (A) (A) (A) (A) (A) (A)
                 (A) (A) (A) (A) (A) (A) (A) (A) (A) (A) (A) (A)
                 (A) (A) (A) (A) (A) (A) (A) (A) (A) (A) (A) (A)
                 (A) (A) (A) (A) (A) (A) (A) (A) (A) (A) (A) (A)
                 (A) (A) (A) (A) (A) (A) (A) (A) (A) (A) (A) (A)
                 (A) (A) (A) (A) (A) (A) (A) (A) (A) (A) (A) (A)
                 (A) (A) (A) (A) (A) (A) (A) (A) (A) (A) (A) (A)
                 (A) (A) (A) (A)
 The electronic state is 1-A.
 Alpha  occ. eigenvalues --  -19.17942 -19.17351 -14.44305 -10.33466 -10.33073
 Alpha  occ. eigenvalues --  -10.32319 -10.31816 -10.25664 -10.25130 -10.24763
 Alpha  occ. eigenvalues --  -10.24711 -10.24607 -10.24154 -10.23718  -1.11815
 Alpha  occ. eigenvalues --   -1.11451  -1.07926  -0.91307  -0.90427  -0.83951
 Alpha  occ. eigenvalues --   -0.82582  -0.81593  -0.78572  -0.73925  -0.71584
 Alpha  occ. eigenvalues --   -0.68702  -0.61666  -0.58256  -0.56918  -0.55184
 Alpha  occ. eigenvalues --   -0.54543  -0.54048  -0.52601  -0.51876  -0.50798
 Alpha  occ. eigenvalues --   -0.49994  -0.49562  -0.49202  -0.48486  -0.48148
 Alpha  occ. eigenvalues --   -0.46944  -0.45419  -0.45084  -0.43587  -0.43118
 Alpha  occ. eigenvalues --   -0.42408  -0.42188  -0.41924  -0.32772  -0.32328
 Alpha  occ. eigenvalues --   -0.31407  -0.25752
 Alpha virt. eigenvalues --   -0.02769   0.02477   0.06515   0.08232   0.08762
 Alpha virt. eigenvalues --    0.10024   0.10758   0.11882   0.12692   0.13623
 Alpha virt. eigenvalues --    0.14046   0.15104   0.15736   0.16268   0.16995
 Alpha virt. eigenvalues --    0.17515   0.17949   0.18011   0.18282   0.19213
 Alpha virt. eigenvalues --    0.20076   0.22132   0.22991   0.23442   0.23734
 Alpha virt. eigenvalues --    0.24216   0.24813   0.25743   0.26029   0.26676
 Alpha virt. eigenvalues --    0.26969   0.27684   0.28895   0.29032   0.30218
 Alpha virt. eigenvalues --    0.31742   0.32018   0.32543   0.33615   0.34532
 Alpha virt. eigenvalues --    0.35180   0.36004   0.36660   0.38168   0.38606
 Alpha virt. eigenvalues --    0.39748   0.41005   0.41636   0.42129   0.42631
 Alpha virt. eigenvalues --    0.44148   0.44490   0.45450   0.46193   0.46226
 Alpha virt. eigenvalues --    0.47366   0.47884   0.48067   0.48298   0.49151
 Alpha virt. eigenvalues --    0.49605   0.50413   0.50878   0.51444   0.51638
 Alpha virt. eigenvalues --    0.52735   0.53132   0.53513   0.53983   0.54356
 Alpha virt. eigenvalues --    0.54652   0.55820   0.56105   0.56574   0.58464
 Alpha virt. eigenvalues --    0.58748   0.59251   0.60838   0.61085   0.62869
 Alpha virt. eigenvalues --    0.63489   0.65737   0.66207   0.66379   0.67864
 Alpha virt. eigenvalues --    0.68659   0.70050   0.71371   0.72036   0.72792
 Alpha virt. eigenvalues --    0.73251   0.74077   0.74748   0.75996   0.77799
 Alpha virt. eigenvalues --    0.78459   0.79773   0.82377   0.85225   0.86048
 Alpha virt. eigenvalues --    0.89659   0.93754   1.00322   1.01283   1.23780
 Alpha virt. eigenvalues --    1.25333   1.27221   1.27918   1.29518   1.31260
 Alpha virt. eigenvalues --    1.32628   1.32904   1.34080   1.34925   1.36190
 Alpha virt. eigenvalues --    1.36512   1.37371   1.38483   1.39190   1.39870
 Alpha virt. eigenvalues --    1.40100   1.40671   1.40891   1.41485   1.41811
 Alpha virt. eigenvalues --    1.43470   1.44141   1.44290   1.45143   1.47263
 Alpha virt. eigenvalues --    1.48081   1.49502   1.49727   1.50370   1.51155
 Alpha virt. eigenvalues --    1.51593   1.52455   1.53087   1.54574   1.57853
 Alpha virt. eigenvalues --    1.58357   1.60519   1.60751   1.61345   1.62435
 Alpha virt. eigenvalues --    1.62781   1.63317   1.64300   1.65172   1.65750
 Alpha virt. eigenvalues --    1.67014   1.67330   1.67881   1.68355   1.68567
 Alpha virt. eigenvalues --    1.68939   1.69994   1.70354   1.71715   1.72354
 Alpha virt. eigenvalues --    1.73781   1.75128   1.76222   1.76571   1.78693
 Alpha virt. eigenvalues --    1.80637   1.83244   1.84469   1.86285   1.86679
 Alpha virt. eigenvalues --    1.86951   1.87631   1.88510   1.89292   1.90716
 Alpha virt. eigenvalues --    1.91401   1.94676   1.95394   1.98739   1.99754
 Alpha virt. eigenvalues --    2.01285   2.03906   2.05070   2.06891   2.09669
 Alpha virt. eigenvalues --    2.11120   2.12640   2.15137   2.17300   2.19804
 Alpha virt. eigenvalues --    2.20371   2.21490   2.22005   2.23129   2.26052
 Alpha virt. eigenvalues --    2.27234   2.27846   2.29367   2.31173   2.32102
 Alpha virt. eigenvalues --    2.33600   2.34491   2.36684   2.37688   2.38269
 Alpha virt. eigenvalues --    2.39606   2.40298   2.41624   2.43507   2.45028
 Alpha virt. eigenvalues --    2.46137   2.47758   2.50157   2.50651   2.51734
 Alpha virt. eigenvalues --    2.52453   2.53811   2.54982   2.56948   2.58297
 Alpha virt. eigenvalues --    2.59113   2.60497   2.61490   2.62525   2.63108
 Alpha virt. eigenvalues --    2.64594   2.65880   2.66984   2.67569   2.68904
 Alpha virt. eigenvalues --    2.71680   2.72215   2.73080   2.73972   2.75355
 Alpha virt. eigenvalues --    2.75968   2.76857   2.77415   2.77972   2.79312
 Alpha virt. eigenvalues --    2.80654   2.81769   2.83213   2.83791   2.84374
 Alpha virt. eigenvalues --    2.85525   2.86487   2.88321   2.89854   2.91805
 Alpha virt. eigenvalues --    2.97486   2.99474   3.00805   3.05439   3.10716
 Alpha virt. eigenvalues --    3.12567   3.15565   3.17343   3.17963   3.20660
 Alpha virt. eigenvalues --    3.21524   3.22604   3.24466   3.25913   3.26922
 Alpha virt. eigenvalues --    3.27425   3.29744   3.33365   3.34404   3.36793
 Alpha virt. eigenvalues --    3.37378   3.39039   3.39874   3.40533   3.41890
 Alpha virt. eigenvalues --    3.42638   3.44972   3.45582   3.47051   3.48099
 Alpha virt. eigenvalues --    3.49364   3.50002   3.55354   3.58439   3.59779
 Alpha virt. eigenvalues --    3.60543   3.90520   4.00307   4.33567   4.35947
 Alpha virt. eigenvalues --   21.65255  21.80016  22.08325  22.11005  22.11923
 Alpha virt. eigenvalues --   22.15051  22.15473  22.18663  22.20490  22.24604
 Alpha virt. eigenvalues --   22.29252  31.92524  43.63241  43.65805
          Condensed to atoms (all electrons):
               1          2          3          4          5          6
     1  O    7.980780   0.000000  -0.000221   0.000019   0.018212   0.013723
     2  O    0.000000   7.981187   0.000800   0.000023  -0.102807   0.000191
     3  N   -0.000221   0.000800   6.379343   0.371511  -0.092401   0.383659
     4  H    0.000019   0.000023   0.371511   0.412667   0.017146  -0.046536
     5  C    0.018212  -0.102807  -0.092401   0.017146   6.081514  -0.087453
     6  C    0.013723   0.000191   0.383659  -0.046536  -0.087453   5.594683
     7  C   -0.000485   0.007115   0.325633  -0.039914   0.310387  -0.111013
     8  C   -0.000038   0.315901   0.014564  -0.000983   0.328886   0.018159
     9  C   -0.020912   0.010472   0.001581  -0.000269  -0.426275  -0.079355
    10  H    0.006173   0.000003   0.004284   0.000028  -0.028494  -0.020108
    11  H    0.014910   0.000010  -0.001166   0.000023  -0.109540   0.025173
    12  C   -0.237524  -0.000722  -0.101189   0.015982   0.198789  -0.127047
    13  C    0.703679   0.000027   0.000354   0.000487   0.084369   0.148464
    14  C   -0.000007   0.008862  -0.029972  -0.008491  -0.092656   0.012715
    15  H    0.000000   0.000801   0.004325   0.002128   0.015519   0.003963
    16  H   -0.000000  -0.002338  -0.001778   0.000729  -0.000274  -0.000762
    17  H    0.000000  -0.000729   0.000798   0.000692   0.002622  -0.001216
    18  C    0.000084  -0.048209  -0.000345   0.000016  -0.028467  -0.000475
    19  H   -0.000004   0.000697  -0.000002  -0.000001   0.009900   0.000097
    20  H   -0.000098   0.002559  -0.000021   0.000000  -0.015903  -0.000064
    21  H    0.000031   0.002367   0.000040   0.000000  -0.010288  -0.000514
    22  C   -0.105754   0.000000   0.000026   0.000119   0.004373  -0.015992
    23  H    0.004982  -0.000000   0.000033  -0.000055  -0.000692  -0.028679
    24  H    0.001740  -0.000000  -0.000014  -0.000015  -0.000067   0.010776
    25  H    0.007416  -0.000000   0.000035  -0.000003  -0.000170  -0.001186
    26  C    0.000797   0.000002  -0.030880  -0.006905  -0.003157   0.175434
    27  H   -0.000308   0.000000   0.001837   0.000839  -0.000097  -0.057172
    28  H   -0.000052   0.000000  -0.003512   0.000508   0.000495  -0.034412
    29  H    0.000028  -0.000000   0.001161   0.001478  -0.000338  -0.047062
               7          8          9         10         11         12
     1  O   -0.000485  -0.000038  -0.020912   0.006173   0.014910  -0.237524
     2  O    0.007115   0.315901   0.010472   0.000003   0.000010  -0.000722
     3  N    0.325633   0.014564   0.001581   0.004284  -0.001166  -0.101189
     4  H   -0.039914  -0.000983  -0.000269   0.000028   0.000023   0.015982
     5  C    0.310387   0.328886  -0.426275  -0.028494  -0.109540   0.198789
     6  C   -0.111013   0.018159  -0.079355  -0.020108   0.025173  -0.127047
     7  C    5.515467  -0.119776  -0.072086  -0.009200   0.017775  -0.019941
     8  C   -0.119776   5.375874  -0.023009  -0.006449  -0.012343  -0.020470
     9  C   -0.072086  -0.023009   6.415031   0.391126   0.530950  -0.159387
    10  H   -0.009200  -0.006449   0.391126   0.572367  -0.044668  -0.014295
    11  H    0.017775  -0.012343   0.530950  -0.044668   0.525510  -0.111051
    12  C   -0.019941  -0.020470  -0.159387  -0.014295  -0.111051   7.393767
    13  C    0.009114  -0.003091  -0.290241   0.002354   0.000462  -0.371326
    14  C    0.206538  -0.017412   0.014750  -0.001160   0.000591  -0.006009
    15  H   -0.058602   0.000693  -0.000942   0.000066  -0.000004  -0.000044
    16  H   -0.048423  -0.004683   0.001343  -0.000071   0.000062  -0.000068
    17  H   -0.053917  -0.013512  -0.000194   0.000162  -0.000062   0.000152
    18  C    0.013423   0.188609  -0.027136  -0.011253   0.009129  -0.001864
    19  H   -0.000113  -0.045508   0.003010  -0.000197   0.000583  -0.000889
    20  H   -0.001036  -0.051330  -0.011304   0.001340  -0.001454   0.002799
    21  H    0.000452  -0.034895   0.004488   0.003045  -0.006230   0.002302
    22  C    0.000052  -0.000047   0.002134   0.002277   0.000251  -0.252765
    23  H    0.000001  -0.000005   0.003588  -0.000153  -0.000043   0.062843
    24  H    0.000028  -0.000001  -0.002517   0.000166  -0.000132  -0.012820
    25  H    0.000007   0.000002   0.000723  -0.000078  -0.000082   0.023734
    26  C    0.002393   0.000426   0.030083  -0.000985   0.000038  -0.086912
    27  H   -0.000948   0.000008   0.001121  -0.000126   0.000014  -0.003722
    28  H    0.000148  -0.000030  -0.001646  -0.000010   0.000046  -0.016752
    29  H    0.003735  -0.000011  -0.001095   0.000107  -0.000013   0.022349
              13         14         15         16         17         18
     1  O    0.703679  -0.000007   0.000000  -0.000000   0.000000   0.000084
     2  O    0.000027   0.008862   0.000801  -0.002338  -0.000729  -0.048209
     3  N    0.000354  -0.029972   0.004325  -0.001778   0.000798  -0.000345
     4  H    0.000487  -0.008491   0.002128   0.000729   0.000692   0.000016
     5  C    0.084369  -0.092656   0.015519  -0.000274   0.002622  -0.028467
     6  C    0.148464   0.012715   0.003963  -0.000762  -0.001216  -0.000475
     7  C    0.009114   0.206538  -0.058602  -0.048423  -0.053917   0.013423
     8  C   -0.003091  -0.017412   0.000693  -0.004683  -0.013512   0.188609
     9  C   -0.290241   0.014750  -0.000942   0.001343  -0.000194  -0.027136
    10  H    0.002354  -0.001160   0.000066  -0.000071   0.000162  -0.011253
    11  H    0.000462   0.000591  -0.000004   0.000062  -0.000062   0.009129
    12  C   -0.371326  -0.006009  -0.000044  -0.000068   0.000152  -0.001864
    13  C    5.488103  -0.000198   0.000015  -0.000022   0.000001   0.000690
    14  C   -0.000198   5.117278   0.400654   0.423654   0.442517   0.002526
    15  H    0.000015   0.400654   0.535751  -0.021826  -0.022983   0.000015
    16  H   -0.000022   0.423654  -0.021826   0.524249  -0.034710  -0.000566
    17  H    0.000001   0.442517  -0.022983  -0.034710   0.517745  -0.000505
    18  C    0.000690   0.002526   0.000015  -0.000566  -0.000505   5.090984
    19  H   -0.000044  -0.000011   0.000003   0.000030   0.000066   0.399417
    20  H    0.000016  -0.000230   0.000001  -0.000041  -0.000011   0.434217
    21  H    0.000094  -0.000287  -0.000002   0.000029   0.000026   0.407087
    22  C    0.289514  -0.000022   0.000002  -0.000000  -0.000000   0.000016
    23  H   -0.092813   0.000001  -0.000000   0.000000   0.000000   0.000002
    24  H   -0.025644  -0.000001   0.000000  -0.000000  -0.000000  -0.000002
    25  H   -0.040979   0.000001  -0.000000   0.000000   0.000000  -0.000001
    26  C   -0.055734   0.001462  -0.000102  -0.000064   0.000059   0.000018
    27  H   -0.004969   0.000090  -0.000014   0.000003  -0.000001   0.000000
    28  H    0.006939  -0.000163   0.000008  -0.000019   0.000002  -0.000001
    29  H   -0.000341  -0.000262   0.000125  -0.000002  -0.000008  -0.000000
              19         20         21         22         23         24
     1  O   -0.000004  -0.000098   0.000031  -0.105754   0.004982   0.001740
     2  O    0.000697   0.002559   0.002367   0.000000  -0.000000  -0.000000
     3  N   -0.000002  -0.000021   0.000040   0.000026   0.000033  -0.000014
     4  H   -0.000001   0.000000   0.000000   0.000119  -0.000055  -0.000015
     5  C    0.009900  -0.015903  -0.010288   0.004373  -0.000692  -0.000067
     6  C    0.000097  -0.000064  -0.000514  -0.015992  -0.028679   0.010776
     7  C   -0.000113  -0.001036   0.000452   0.000052   0.000001   0.000028
     8  C   -0.045508  -0.051330  -0.034895  -0.000047  -0.000005  -0.000001
     9  C    0.003010  -0.011304   0.004488   0.002134   0.003588  -0.002517
    10  H   -0.000197   0.001340   0.003045   0.002277  -0.000153   0.000166
    11  H    0.000583  -0.001454  -0.006230   0.000251  -0.000043  -0.000132
    12  C   -0.000889   0.002799   0.002302  -0.252765   0.062843  -0.012820
    13  C   -0.000044   0.000016   0.000094   0.289514  -0.092813  -0.025644
    14  C   -0.000011  -0.000230  -0.000287  -0.000022   0.000001  -0.000001
    15  H    0.000003   0.000001  -0.000002   0.000002  -0.000000   0.000000
    16  H    0.000030  -0.000041   0.000029  -0.000000   0.000000  -0.000000
    17  H    0.000066  -0.000011   0.000026  -0.000000   0.000000  -0.000000
    18  C    0.399417   0.434217   0.407087   0.000016   0.000002  -0.000002
    19  H    0.511330  -0.026742  -0.018519  -0.000001   0.000000  -0.000000
    20  H   -0.026742   0.523575  -0.038100   0.000001  -0.000000   0.000000
    21  H   -0.018519  -0.038100   0.514824   0.000011  -0.000000  -0.000000
    22  C   -0.000001   0.000001   0.000011   5.415041   0.398058   0.404815
    23  H    0.000000  -0.000000  -0.000000   0.398058   0.540653  -0.026715
    24  H   -0.000000   0.000000  -0.000000   0.404815  -0.026715   0.497827
    25  H    0.000000  -0.000001   0.000000   0.380827  -0.021970  -0.010579
    26  C    0.000001  -0.000005  -0.000006  -0.031666   0.014998  -0.012563
    27  H    0.000000  -0.000000   0.000000   0.005761  -0.008554  -0.001634
    28  H   -0.000000   0.000001  -0.000000  -0.010589  -0.001938   0.001295
    29  H   -0.000000   0.000000   0.000000   0.001996   0.000667   0.000196
              25         26         27         28         29
     1  O    0.007416   0.000797  -0.000308  -0.000052   0.000028
     2  O   -0.000000   0.000002   0.000000   0.000000  -0.000000
     3  N    0.000035  -0.030880   0.001837  -0.003512   0.001161
     4  H   -0.000003  -0.006905   0.000839   0.000508   0.001478
     5  C   -0.000170  -0.003157  -0.000097   0.000495  -0.000338
     6  C   -0.001186   0.175434  -0.057172  -0.034412  -0.047062
     7  C    0.000007   0.002393  -0.000948   0.000148   0.003735
     8  C    0.000002   0.000426   0.000008  -0.000030  -0.000011
     9  C    0.000723   0.030083   0.001121  -0.001646  -0.001095
    10  H   -0.000078  -0.000985  -0.000126  -0.000010   0.000107
    11  H   -0.000082   0.000038   0.000014   0.000046  -0.000013
    12  C    0.023734  -0.086912  -0.003722  -0.016752   0.022349
    13  C   -0.040979  -0.055734  -0.004969   0.006939  -0.000341
    14  C    0.000001   0.001462   0.000090  -0.000163  -0.000262
    15  H   -0.000000  -0.000102  -0.000014   0.000008   0.000125
    16  H    0.000000  -0.000064   0.000003  -0.000019  -0.000002
    17  H    0.000000   0.000059  -0.000001   0.000002  -0.000008
    18  C   -0.000001   0.000018   0.000000  -0.000001  -0.000000
    19  H    0.000000   0.000001   0.000000  -0.000000  -0.000000
    20  H   -0.000001  -0.000005  -0.000000   0.000001   0.000000
    21  H    0.000000  -0.000006   0.000000  -0.000000   0.000000
    22  C    0.380827  -0.031666   0.005761  -0.010589   0.001996
    23  H   -0.021970   0.014998  -0.008554  -0.001938   0.000667
    24  H   -0.010579  -0.012563  -0.001634   0.001295   0.000196
    25  H    0.504708   0.002043   0.000902   0.000031  -0.000046
    26  C    0.002043   5.265763   0.436624   0.423497   0.387793
    27  H    0.000902   0.436624   0.519995  -0.030418  -0.026874
    28  H    0.000031   0.423497  -0.030418   0.493358  -0.017275
    29  H   -0.000046   0.387793  -0.026874  -0.017275   0.520062
 Mulliken charges:
               1
     1  O   -0.387171
     2  O   -0.176214
     3  N   -0.228485
     4  H    0.278776
     5  C   -0.073134
     6  C    0.272007
     7  C    0.123185
     8  C    0.110469
     9  C   -0.294033
    10  H    0.153747
    11  H    0.161263
    12  C   -0.177921
    13  C    0.150720
    14  C   -0.474760
    15  H    0.140449
    16  H    0.165549
    17  H    0.163004
    18  C   -0.427410
    19  H    0.166898
    20  H    0.181831
    21  H    0.174043
    22  C   -0.488438
    23  H    0.155789
    24  H    0.175860
    25  H    0.154665
    26  C   -0.512453
    27  H    0.167643
    28  H    0.190490
    29  H    0.153633
 Sum of Mulliken charges =  -0.00000
 Mulliken charges with hydrogens summed into heavy atoms:
               1
     1  O   -0.387171
     2  O   -0.176214
     3  N    0.050290
     5  C   -0.073134
     6  C    0.272007
     7  C    0.123185
     8  C    0.110469
     9  C    0.020976
    12  C   -0.177921
    13  C    0.150720
    14  C   -0.005758
    18  C    0.095361
    22  C   -0.002124
    26  C   -0.000686
 Electronic spatial extent (au):  <R**2>=           3183.2215
 Charge=             -0.0000 electrons
 Dipole moment (field-independent basis, Debye):
    X=             -0.1701    Y=              6.3751    Z=              0.2101  Tot=              6.3808
 Quadrupole moment (field-independent basis, Debye-Ang):
   XX=            -86.7887   YY=            -78.5353   ZZ=            -86.2357
   XY=            -16.2447   XZ=             -3.5399   YZ=             -1.7163
 Traceless Quadrupole moment (field-independent basis, Debye-Ang):
   XX=             -2.9355   YY=              5.3179   ZZ=             -2.3824
   XY=            -16.2447   XZ=             -3.5399   YZ=             -1.7163
 Octapole moment (field-independent basis, Debye-Ang**2):
  XXX=            -43.4848  YYY=             57.6017  ZZZ=              1.9089  XYY=             43.4612
  XXY=             19.4498  XXZ=             -1.5765  XZZ=             -1.4483  YZZ=             -1.8685
  YYZ=              3.0059  XYZ=              5.0502
 Hexadecapole moment (field-independent basis, Debye-Ang**3):
 XXXX=          -2815.4187 YYYY=          -1271.6120 ZZZZ=           -154.6394 XXXY=            -90.8818
 XXXZ=            -31.0496 YYYX=           -110.2886 YYYZ=            -19.8721 ZZZX=              3.6492
 ZZZY=              4.5760 XXYY=           -680.6335 XXZZ=           -485.7955 YYZZ=           -245.5879
 XXYZ=             -9.9693 YYXZ=             -9.2101 ZZXY=             -1.1570
 N-N= 9.005953062037D+02 E-N=-3.277462461695D+03  KE= 6.308290233583D+02
 No NMR shielding tensors so no spin-rotation constants.
 Leave Link  601 at Sat Jan 24 20:31:13 2026, MaxMem=  2147483648 cpu:               1.8 elap:               0.1
 (Enter /data/home/wyx/g16/l9999.exe)
 Electronic transition elements 
                 1             2             3             4             5 
      1  -0.633213D+03 -0.633182D+03 -0.633176D+03 -0.633149D+03 -0.633132D+03
      2  -0.164237D+01 -0.801498D-01  0.856386D-01  0.486901D+00  0.415608D+00
      3  -0.379332D+00 -0.536749D-01 -0.146373D+00 -0.192722D+01 -0.138698D+01
      4  -0.383678D+00 -0.585356D-01 -0.163952D-01 -0.298825D-02  0.851890D-01
      5   0.184210D+00  0.118824D-01 -0.117632D-01 -0.800509D-01 -0.813797D-01
      6   0.460737D-01  0.806606D-02  0.209249D-01  0.337620D+00  0.271521D+00
      7   0.439181D-01  0.556178D-02 -0.680910D-03 -0.181929D-02 -0.154302D-01
      8   0.342053D+00 -0.731876D+00  0.444803D+00 -0.122806D+00 -0.240936D+00
      9  -0.167424D-01 -0.152476D+00 -0.871358D+00  0.884676D-01  0.439478D-01
     10  -0.140846D+01 -0.422625D+00  0.303421D+00  0.937609D-01  0.222945D+00
     11   0.193990D+00  0.272066D-01 -0.695153D-01 -0.119070D+01 -0.407892D+00
     12  -0.268633D+00 -0.350764D-01  0.454029D-01  0.193076D+00  0.320790D+00
     13  -0.536979D-02  0.872457D-02 -0.490854D-02 -0.825971D-01  0.602035D-02
     14  -0.491511D+00 -0.939866D-02  0.364168D-01 -0.442020D+00 -0.228738D-01
     15  -0.174814D-02  0.233034D-01  0.506556D-01 -0.339883D+00 -0.137930D+00
     16  -0.128813D+00 -0.897199D-01  0.390802D-01 -0.819444D-01 -0.576155D-01
                 6 
      1  -0.633112D+03
      2  -0.550067D-01
      3   0.264518D+00
      4  -0.613891D-01
      5   0.608558D-02
      6  -0.545071D-01
      7   0.324383D-01
      8  -0.102342D+00
      9  -0.720073D-02
     10   0.223502D-01
     11  -0.280704D+00
     12  -0.223516D+00
     13   0.179394D+00
     14   0.281505D-01
     15  -0.852970D-01
     16  -0.142753D+00
 1\1\GINC-CN012\SP\RCAM-B3LYP TD-FC\TZVP\C11H15N1O2\WYX\24-Jan-2026\0\\
 #p CAM-B3LYP TZVP em=gd3bj td(nstates=6,root=2) scrf=(Solvent=Water,Co
 rrectedLR,NonEquilibrium=Save) Geom=Check Guess=Read\\Title Card Requi
 red\\0,1\O,0,2.734014,-1.5589,0.793923\O,0,-3.259804,-1.649664,-1.0229
 18\N,0,-0.698803,1.514889,0.048595\H,0,-1.007133,2.47372,-0.013227\C,0
 ,-1.250234,-0.760451,-0.161152\C,0,0.642107,1.314882,0.24953\C,0,-1.62
 307,0.557362,-0.253139\C,0,-2.157038,-1.841258,-0.513425\C,0,0.106747,
 -1.095213,0.369667\H,0,0.025487,-1.465938,1.402961\H,0,0.530347,-1.943
 3,-0.169918\C,0,1.098267,0.025718,0.34027\C,0,2.48697,-0.39262,0.48043
 4\C,0,-2.956238,1.091804,-0.645477\H,0,-3.028011,2.156977,-0.438305\H,
 0,-3.139188,0.940961,-1.705527\H,0,-3.755054,0.580038,-0.122441\C,0,-1
 .714567,-3.255362,-0.252065\H,0,-2.563296,-3.924083,-0.337708\H,0,-0.9
 68567,-3.561565,-0.983194\H,0,-1.263597,-3.376512,0.728249\C,0,3.64808
 3,0.532705,0.213092\H,0,3.456938,1.239105,-0.590126\H,0,3.898485,1.098
 535,1.112426\H,0,4.508692,-0.081325,-0.042984\C,0,1.416357,2.588057,0.
 357753\H,0,2.21049,2.520251,1.091003\H,0,1.860168,2.8679,-0.597243\H,0
 ,0.761446,3.403289,0.660945\\Version=ES64L-G16RevA.03\State=1-A\HF=-63
 3.3305868\RMSD=2.617e-09\Dipole=-0.7519366,2.3818074,-0.2524965\Quadru
 pole=-7.7553102,10.9532224,-3.1979121,7.1427581,-4.1576293,1.6463707\P
 G=C01 [X(C11H15N1O2)]\\@


 ERWIN WITH HIS PSI CAN DO
 CALCULATIONS QUITE A FEW.
 BUT ONE THING HAS NOT BEEN SEEN
 JUST WHAT DOES PSI REALLY MEAN.
 -- WALTER HUCKEL, TRANS. BY FELIX BLOCH
 Job cpu time:       0 days  2 hours 42 minutes  9.5 seconds.
 Elapsed time:       0 days  0 hours 10 minutes 11.1 seconds.
 File lengths (MBytes):  RWF=    734 Int=      0 D2E=      0 Chk=     67 Scr=      1
 Normal termination of Gaussian 16 at Sat Jan 24 20:31:15 2026.
