 Entering Gaussian System, Link 0=g16
 Input=DDL-LR-Eq-0.gjf
 Output=DDL-LR-Eq-0.log
 Initial command:
 /data/home/wyx/g16/l1.exe "/scr/tmp/wyx/13117/Gau-2008616.inp" -scrdir="/scr/tmp/wyx/13117/"
 Entering Link 1 = /data/home/wyx/g16/l1.exe PID=   2008617.
  
 Copyright (c) 1988,1990,1992,1993,1995,1998,2003,2009,2016,
            Gaussian, Inc.  All Rights Reserved.
  
 This is part of the Gaussian(R) 16 program.  It is based on
 the Gaussian(R) 09 system (copyright 2009, Gaussian, Inc.),
 the Gaussian(R) 03 system (copyright 2003, Gaussian, Inc.),
 the Gaussian(R) 98 system (copyright 1998, Gaussian, Inc.),
 the Gaussian(R) 94 system (copyright 1995, Gaussian, Inc.),
 the Gaussian 92(TM) system (copyright 1992, Gaussian, Inc.),
 the Gaussian 90(TM) system (copyright 1990, Gaussian, Inc.),
 the Gaussian 88(TM) system (copyright 1988, Gaussian, Inc.),
 the Gaussian 86(TM) system (copyright 1986, Carnegie Mellon
 University), and the Gaussian 82(TM) system (copyright 1983,
 Carnegie Mellon University). Gaussian is a federally registered
 trademark of Gaussian, Inc.
  
 This software contains proprietary and confidential information,
 including trade secrets, belonging to Gaussian, Inc.
  
 This software is provided under written license and may be
 used, copied, transmitted, or stored only in accord with that
 written license.
  
 The following legend is applicable only to US Government
 contracts under FAR:
  
                    RESTRICTED RIGHTS LEGEND
  
 Use, reproduction and disclosure by the US Government is
 subject to restrictions as set forth in subparagraphs (a)
 and (c) of the Commercial Computer Software - Restricted
 Rights clause in FAR 52.227-19.
  
 Gaussian, Inc.
 340 Quinnipiac St., Bldg. 40, Wallingford CT 06492
  
  
 ---------------------------------------------------------------
 Warning -- This program may not be used in any manner that
 competes with the business of Gaussian, Inc. or will provide
 assistance to any competitor of Gaussian, Inc.  The licensee
 of this program is prohibited from giving any competitor of
 Gaussian, Inc. access to this program.  By using this program,
 the user acknowledges that Gaussian, Inc. is engaged in the
 business of creating and licensing software in the field of
 computational chemistry and represents and warrants to the
 licensee that it is not a competitor of Gaussian, Inc. and that
 it will not use this program in any manner prohibited above.
 ---------------------------------------------------------------
  

 Cite this work as:
 Gaussian 16, Revision A.03,
 M. J. Frisch, G. W. Trucks, H. B. Schlegel, G. E. Scuseria, 
 M. A. Robb, J. R. Cheeseman, G. Scalmani, V. Barone, 
 G. A. Petersson, H. Nakatsuji, X. Li, M. Caricato, A. V. Marenich, 
 J. Bloino, B. G. Janesko, R. Gomperts, B. Mennucci, H. P. Hratchian, 
 J. V. Ortiz, A. F. Izmaylov, J. L. Sonnenberg, D. Williams-Young, 
 F. Ding, F. Lipparini, F. Egidi, J. Goings, B. Peng, A. Petrone, 
 T. Henderson, D. Ranasinghe, V. G. Zakrzewski, J. Gao, N. Rega, 
 G. Zheng, W. Liang, M. Hada, M. Ehara, K. Toyota, R. Fukuda, 
 J. Hasegawa, M. Ishida, T. Nakajima, Y. Honda, O. Kitao, H. Nakai, 
 T. Vreven, K. Throssell, J. A. Montgomery, Jr., J. E. Peralta, 
 F. Ogliaro, M. J. Bearpark, J. J. Heyd, E. N. Brothers, K. N. Kudin, 
 V. N. Staroverov, T. A. Keith, R. Kobayashi, J. Normand, 
 K. Raghavachari, A. P. Rendell, J. C. Burant, S. S. Iyengar, 
 J. Tomasi, M. Cossi, J. M. Millam, M. Klene, C. Adamo, R. Cammi, 
 J. W. Ochterski, R. L. Martin, K. Morokuma, O. Farkas, 
 J. B. Foresman, and D. J. Fox, Gaussian, Inc., Wallingford CT, 2016.
 
 ******************************************
 Gaussian 16:  ES64L-G16RevA.03 25-Dec-2016
                24-Jan-2026 
 ******************************************
 %nprocshared=16
 Will use up to   16 processors via shared memory.
 %mem=16GB
 %oldchk=DDL-LR-0.chk
 %chk=DDL-LR-Eq-0.chk
 Copying data from "DDL-LR-0.chk" to current chk file "DDL-LR-Eq-0.chk"
 IOpt=  2 FromEx=T IUOpen= 4 IOptOp= 5 NList=   0 IFRang= 0 IUIn= 4 IUOut= 2.
 ----------------------------------------------------------------------
 #p CAM-B3LYP TZVP em=gd3bj td(Eqsolv,nstates=6,root=1) scrf=(Solvent=W
 ater) Geom=Check Guess=Read
 ----------------------------------------------------------------------
 1/29=2,38=1,172=1/1;
 2/12=2,40=1/2;
 3/5=19,7=101,11=9,14=-4,25=1,30=1,70=2201,72=1,74=-40,116=-2,124=41/1,2,3,8;
 4/5=1/1;
 5/5=2,38=6,53=1/2;
 8/6=1,10=1,107=1,108=6/1;
 9/8=1,41=6,42=1,70=2,73=2/14;
 6/7=2,8=2,9=2,10=2/1;
 99/5=1,9=1/99;
 Leave Link    1 at Sat Jan 24 15:23:21 2026, MaxMem=  2147483648 cpu:               0.8 elap:               0.1
 (Enter /data/home/wyx/g16/l101.exe)
 -------------------
 Title Card Required
 -------------------
 Structure from the checkpoint file:  "DDL-LR-Eq-0.chk"
 Charge =  0 Multiplicity = 1
 Z-Matrix found in chk file.
 O,0,2.707335,-1.559688,0.905597
 O,0,-3.328702,-1.669399,-0.836778
 N,0,-0.674316,1.517027,-0.112959
 H,0,-0.982718,2.479016,-0.184466
 C,0,-1.253986,-0.765742,-0.180897
 C,0,0.644853,1.345678,0.177607
 C,0,-1.631246,0.585419,-0.311191
 C,0,-2.169531,-1.855927,-0.437564
 C,0,0.12779,-1.073187,0.231954
 H,0,0.108455,-1.545463,1.2339
 H,0,0.541399,-1.890298,-0.37221
 C,0,1.108918,0.027111,0.29801
 C,0,2.475527,-0.397592,0.533021
 C,0,-2.993593,1.10838,-0.621
 H,0,-3.002488,2.197746,-0.571638
 H,0,-3.320074,0.802622,-1.613696
 H,0,-3.72996,0.721503,0.081375
 C,0,-1.688219,-3.277637,-0.25105
 H,0,-2.558289,-3.921136,-0.142692
 H,0,-1.133713,-3.604387,-1.134824
 H,0,-1.038064,-3.408115,0.611936
 C,0,3.650219,0.51882,0.29137
 H,0,3.475998,1.244229,-0.498592
 H,0,3.907902,1.06241,1.203199
 H,0,4.504062,-0.101335,0.024742
 C,0,1.415248,2.609986,0.376188
 H,0,2.10103,2.526687,1.21602
 H,0,1.998767,2.886416,-0.504489
 H,0,0.73741,3.436855,0.589133
 Recover connectivity data from disk.
 ITRead=  0  0  0  0  0  0  0  0  0  0  0  0  0  0  0  0  0  0  0  0
 ITRead=  0  0  0  0  0  0  0  0  0
 MicOpt= -1 -1 -1 -1 -1 -1 -1 -1 -1 -1 -1 -1 -1 -1 -1 -1 -1 -1 -1 -1
 MicOpt= -1 -1 -1 -1 -1 -1 -1 -1 -1
 NAtoms=     29 NQM=       29 NQMF=       0 NMMI=      0 NMMIF=      0
                NMic=       0 NMicF=      0.
                    Isotopes and Nuclear Properties:
 (Nuclear quadrupole moments (NQMom) in fm**2, nuclear magnetic moments (NMagM)
  in nuclear magnetons)

  Atom         1           2           3           4           5           6           7           8           9          10
 IAtWgt=          16          16          14           1          12          12          12          12          12           1
 AtmWgt=  15.9949146  15.9949146  14.0030740   1.0078250  12.0000000  12.0000000  12.0000000  12.0000000  12.0000000   1.0078250
 NucSpn=           0           0           2           1           0           0           0           0           0           1
 AtZEff=   5.6000000   5.6000000   4.5500000   1.0000000   3.6000000   3.6000000   3.6000000   3.6000000   3.6000000   1.0000000
 NQMom=    0.0000000   0.0000000   2.0440000   0.0000000   0.0000000   0.0000000   0.0000000   0.0000000   0.0000000   0.0000000
 NMagM=    0.0000000   0.0000000   0.4037610   2.7928460   0.0000000   0.0000000   0.0000000   0.0000000   0.0000000   2.7928460
 AtZNuc=   8.0000000   8.0000000   7.0000000   1.0000000   6.0000000   6.0000000   6.0000000   6.0000000   6.0000000   1.0000000

  Atom        11          12          13          14          15          16          17          18          19          20
 IAtWgt=           1          12          12          12           1           1           1          12           1           1
 AtmWgt=   1.0078250  12.0000000  12.0000000  12.0000000   1.0078250   1.0078250   1.0078250  12.0000000   1.0078250   1.0078250
 NucSpn=           1           0           0           0           1           1           1           0           1           1
 AtZEff=   1.0000000   3.6000000   3.6000000   3.6000000   1.0000000   1.0000000   1.0000000   3.6000000   1.0000000   1.0000000
 NQMom=    0.0000000   0.0000000   0.0000000   0.0000000   0.0000000   0.0000000   0.0000000   0.0000000   0.0000000   0.0000000
 NMagM=    2.7928460   0.0000000   0.0000000   0.0000000   2.7928460   2.7928460   2.7928460   0.0000000   2.7928460   2.7928460
 AtZNuc=   1.0000000   6.0000000   6.0000000   6.0000000   1.0000000   1.0000000   1.0000000   6.0000000   1.0000000   1.0000000

  Atom        21          22          23          24          25          26          27          28          29
 IAtWgt=           1          12           1           1           1          12           1           1           1
 AtmWgt=   1.0078250  12.0000000   1.0078250   1.0078250   1.0078250  12.0000000   1.0078250   1.0078250   1.0078250
 NucSpn=           1           0           1           1           1           0           1           1           1
 AtZEff=   1.0000000   3.6000000   1.0000000   1.0000000   1.0000000   3.6000000   1.0000000   1.0000000   1.0000000
 NQMom=    0.0000000   0.0000000   0.0000000   0.0000000   0.0000000   0.0000000   0.0000000   0.0000000   0.0000000
 NMagM=    2.7928460   0.0000000   2.7928460   2.7928460   2.7928460   0.0000000   2.7928460   2.7928460   2.7928460
 AtZNuc=   1.0000000   6.0000000   1.0000000   1.0000000   1.0000000   6.0000000   1.0000000   1.0000000   1.0000000
 Leave Link  101 at Sat Jan 24 15:23:23 2026, MaxMem=  2147483648 cpu:               0.9 elap:               0.1
 (Enter /data/home/wyx/g16/l202.exe)
                          Input orientation:                          
 ---------------------------------------------------------------------
 Center     Atomic      Atomic             Coordinates (Angstroms)
 Number     Number       Type             X           Y           Z
 ---------------------------------------------------------------------
      1          8           0        2.707335   -1.559688    0.905597
      2          8           0       -3.328702   -1.669399   -0.836778
      3          7           0       -0.674316    1.517027   -0.112959
      4          1           0       -0.982718    2.479016   -0.184466
      5          6           0       -1.253986   -0.765742   -0.180897
      6          6           0        0.644853    1.345678    0.177607
      7          6           0       -1.631246    0.585419   -0.311191
      8          6           0       -2.169531   -1.855927   -0.437564
      9          6           0        0.127790   -1.073187    0.231954
     10          1           0        0.108455   -1.545463    1.233900
     11          1           0        0.541399   -1.890298   -0.372210
     12          6           0        1.108918    0.027111    0.298010
     13          6           0        2.475527   -0.397592    0.533021
     14          6           0       -2.993593    1.108380   -0.621000
     15          1           0       -3.002488    2.197746   -0.571638
     16          1           0       -3.320074    0.802622   -1.613696
     17          1           0       -3.729960    0.721503    0.081375
     18          6           0       -1.688219   -3.277637   -0.251050
     19          1           0       -2.558289   -3.921136   -0.142692
     20          1           0       -1.133713   -3.604387   -1.134824
     21          1           0       -1.038064   -3.408115    0.611936
     22          6           0        3.650219    0.518820    0.291370
     23          1           0        3.475998    1.244229   -0.498592
     24          1           0        3.907902    1.062410    1.203199
     25          1           0        4.504062   -0.101335    0.024742
     26          6           0        1.415248    2.609986    0.376188
     27          1           0        2.101030    2.526687    1.216020
     28          1           0        1.998767    2.886416   -0.504489
     29          1           0        0.737410    3.436855    0.589133
 ---------------------------------------------------------------------
                    Distance matrix (angstroms):
                    1          2          3          4          5
     1  O    0.000000
     2  O    6.283443   0.000000
     3  N    4.683929   4.209868   0.000000
     4  H    5.578159   4.810249   1.012743   0.000000
     5  C    4.183645   2.356103   2.356198   3.256079   0.000000
     6  C    3.636613   5.090069   1.361615   2.016070   2.862204
     7  C    4.990525   2.870854   1.350150   2.005582   1.408878
     8  C    5.067116   1.240098   3.703762   4.501590   1.446584
     9  C    2.710079   3.666742   2.733413   3.744967   1.474542
    10  H    2.619573   4.014613   3.435928   4.404413   2.113258
    11  H    2.536409   3.904139   3.626987   4.631316   2.127119
    12  C    2.332816   4.884502   2.359803   3.258767   2.537968
    13  C    1.242182   6.097780   3.742268   4.555120   3.815033
    14  C    6.476856   2.806228   2.409179   2.472412   2.594659
    15  H    6.993040   3.889926   2.468633   2.075689   3.462975
    16  H    6.946726   2.591248   3.124519   3.211889   2.963342
    17  H    6.879095   2.592378   3.163477   3.272134   2.900195
    18  C    4.859020   2.370800   4.902639   5.800105   2.550117
    19  H    5.865334   2.479034   5.755333   6.591367   3.414554
    20  H    4.806013   2.941256   5.242531   6.159040   2.997057
    21  H    4.186996   3.220082   4.991474   5.941013   2.767190
    22  C    2.363578   7.400430   4.456625   5.053008   5.091597
    23  H    3.228706   7.409962   4.177109   4.637189   5.149142
    24  H    2.899194   7.999545   4.789120   5.277362   5.648270
    25  H    2.476071   8.034503   5.427122   6.066855   5.799900
    26  C    4.397266   6.503037   2.408340   2.466116   4.339435
    27  H    4.142756   7.162619   3.238540   3.387202   4.903835
    28  H    4.717865   7.017677   3.028844   3.026160   4.901364
    29  H    5.380167   6.681341   2.484279   2.115361   4.713855
                    6          7          8          9         10
     6  C    0.000000
     7  C    2.448988   0.000000
     8  C    4.306909   2.503176   0.000000
     9  C    2.474109   2.477940   2.517662   0.000000
    10  H    3.124448   3.155079   2.842429   1.107842   0.000000
    11  H    3.283983   3.294432   2.711935   1.097159   1.698806
    12  C    1.403023   2.862050   3.851640   1.475680   2.085619
    13  C    2.552778   4.306343   4.964407   2.461491   2.722475
    14  C    3.732609   1.491797   3.082182   3.902537   4.483998
    15  H    3.819749   2.132542   4.140538   4.598196   5.191295
    16  H    4.384555   2.143790   3.126487   4.337378   5.037571
    17  H    4.420163   2.139446   3.057349   4.257443   4.604441
    18  C    5.196346   3.863944   1.512517   2.896685   2.904056
    19  H    6.172685   4.604002   2.122068   3.932708   3.827578
    20  H    5.421154   4.298882   2.148535   3.141090   3.375352
    21  H    5.061561   4.141539   2.188825   2.637326   2.273943
    22  C    3.119112   5.316144   6.327737   3.865944   4.206390
    23  H    2.912545   5.152969   6.441016   4.136981   4.703643
    24  H    3.432138   5.762209   6.938587   4.448970   4.608442
    25  H    4.124404   6.182757   6.915863   4.487671   4.782147
    26  C    1.493793   3.721893   5.784221   3.904371   4.439722
    27  H    2.143253   4.475576   6.338717   4.221511   4.533551
    28  H    2.161530   4.302202   6.314191   4.440874   5.122190
    29  H    2.133294   3.814682   6.125190   4.565051   5.063082
                   11         12         13         14         15
    11  H    0.000000
    12  C    2.108964   0.000000
    13  C    2.605468   1.450249   0.000000
    14  C    4.642212   4.341004   5.788868   0.000000
    15  H    5.413964   4.729863   6.161550   1.090520   0.000000
    16  H    4.868684   4.885899   6.295864   1.088817   1.770061
    17  H    5.027102   4.893245   6.321742   1.088688   1.770575
    18  C    2.628799   4.364264   5.123105   4.591079   5.640026
    19  H    3.712822   5.406596   6.181525   5.070927   6.149961
    20  H    2.515091   4.502242   5.108019   5.092479   6.121621
    21  H    2.401461   4.063110   4.627613   5.073751   6.056855
    22  C    3.988602   2.588442   1.509340   6.732031   6.915351
    23  H    4.295708   2.778312   2.181913   6.472175   6.548688
    24  H    4.746972   3.118577   2.152311   7.138659   7.224439
    25  H    4.365851   3.408545   2.112125   7.622022   7.873356
    26  C    4.645026   2.602152   3.192854   4.763096   4.537037
    27  H    4.946178   2.841638   3.026242   5.598341   5.417547
    28  H    4.995840   3.100236   3.476843   5.300816   5.048894
    29  H    5.416748   3.442256   4.210366   4.561425   4.107264
                   16         17         18         19         20
    16  H    0.000000
    17  H    1.745810   0.000000
    18  C    4.600899   4.502481   0.000000
    19  H    5.005803   4.793445   1.087591   0.000000
    20  H    4.942795   5.189698   1.093297   1.764674   0.000000
    21  H    5.281223   4.957978   1.088334   1.773059   1.760353
    22  C    7.231515   7.385947   6.573144   7.645076   6.474633
    23  H    6.901092   7.248133   6.868601   7.951118   6.720365
    24  H    7.761831   7.727331   7.229621   8.273982   7.256943
    25  H    8.044795   8.275227   6.964862   8.030922   6.737987
    26  C    5.445133   5.488757   6.684986   7.662492   6.884678
    27  H    6.353586   6.208587   7.085258   8.070302   7.319843
    28  H    5.819159   6.152105   7.187047   8.200026   7.234658
    29  H    5.315526   5.252461   7.188462   8.095507   7.486803
                   21         22         23         24         25
    21  H    0.000000
    22  C    6.124017   0.000000
    23  H    6.576803   1.086559   0.000000
    24  H    6.693113   1.092393   1.765132   0.000000
    25  H    6.480336   1.088453   1.772382   1.760247   0.000000
    26  C    6.503219   3.061905   2.622446   3.048321   4.124991
    27  H    6.740972   2.699351   2.544628   2.325738   3.755024
    28  H    7.077420   2.994361   2.208851   3.144518   3.934875
    29  H    7.071523   4.133769   3.672958   4.008377   5.198557
                   26         27         28         29
    26  C    0.000000
    27  H    1.087453   0.000000
    28  H    1.092016   1.760686   0.000000
    29  H    1.090194   1.755236   1.757843   0.000000
 Stoichiometry    C11H15NO2
 Framework group  C1[X(C11H15NO2)]
 Deg. of freedom    81
 Full point group                 C1      NOp   1
 RotChk:  IX=0 Diff= 9.99D-16
 Largest Abelian subgroup         C1      NOp   1
 Largest concise Abelian subgroup C1      NOp   1
                         Standard orientation:                         
 ---------------------------------------------------------------------
 Center     Atomic      Atomic             Coordinates (Angstroms)
 Number     Number       Type             X           Y           Z
 ---------------------------------------------------------------------
      1          8           0       -2.288310   -2.287917   -0.295345
      2          8           0        3.638681   -0.265162    0.215428
      3          7           0       -0.019729    1.802060   -0.040737
      4          1           0       -0.046740    2.814351   -0.054340
      5          6           0        1.298848   -0.150631   -0.036143
      6          6           0       -1.232938    1.184183   -0.059411
      7          6           0        1.214605    1.255566   -0.014889
      8          6           0        2.558961   -0.854684    0.058873
      9          6           0        0.051814   -0.927855   -0.159026
     10          1           0        0.049489   -1.454707   -1.133570
     11          1           0        0.053842   -1.778326    0.534120
     12          6           0       -1.238137   -0.218821   -0.054491
     13          6           0       -2.399678   -1.085675   -0.003409
     14          6           0        2.352443    2.220114    0.005874
     15          1           0        1.983996    3.243725   -0.069631
     16          1           0        2.935354    2.126985    0.920786
     17          1           0        3.037563    2.034375   -0.819567
     18          6           0        2.560796   -2.366235    0.004846
     19          1           0        3.562618   -2.697155   -0.259159
     20          1           0        2.317198   -2.776536    0.988519
     21          1           0        1.849346   -2.777834   -0.708524
     22          6           0       -3.751230   -0.585643    0.445348
     23          1           0       -3.693529    0.223848    1.167848
     24          1           0       -4.336372   -0.239081   -0.409536
     25          1           0       -4.283017   -1.424483    0.890635
     26          6           0       -2.407302    2.104642   -0.130402
     27          1           0       -3.163451    1.727852   -0.815108
     28          1           0       -2.881923    2.252175    0.841950
     29          1           0       -2.098321    3.085262   -0.492946
 ---------------------------------------------------------------------
 Rotational constants (GHZ):           1.0696408           0.4891732           0.3419373
 Leave Link  202 at Sat Jan 24 15:23:24 2026, MaxMem=  2147483648 cpu:               0.0 elap:               0.0
 (Enter /data/home/wyx/g16/l301.exe)
 Standard basis: TZVP (5D, 7F)
 Ernie: Thresh=  0.10000D-02 Tol=  0.10000D-05 Strict=F.
 There are   370 symmetry adapted cartesian basis functions of A   symmetry.
 There are   356 symmetry adapted basis functions of A   symmetry.
   356 basis functions,   610 primitive gaussians,   370 cartesian basis functions
    52 alpha electrons       52 beta electrons
       nuclear repulsion energy       898.0421609708 Hartrees.
 IExCor=20419 DFT=T Ex+Corr=CAM-B3LYP ExCW=0 ScaHFX=  1.000000
 ScaDFX=  1.000000  1.000000  1.000000  0.810000 ScalE2=  1.000000  1.000000
 IRadAn=      5 IRanWt=     -1 IRanGd=            0 ICorTp=0 IEmpDi=141
 HFx  wShort=  0.000000 wLong=  0.330000 cFull=  0.190000 cShort=  0.000000 cLong=  0.460000
 DFx  wShort=  0.000000 wLong=  0.330000 cFull=  0.190000 cShort=  0.000000 cLong=  0.460000
 NAtoms=   29 NActive=   29 NUniq=   29 SFac= 1.00D+00 NAtFMM=   60 NAOKFM=F Big=F
 Integral buffers will be    131072 words long.
 Raffenetti 1 integral format.
 Two-electron integral symmetry is turned on.
 R6Disp:  Grimme-D3(BJ) Dispersion energy=       -0.0260955563 Hartrees.
 Nuclear repulsion after empirical dispersion term =      898.0160654146 Hartrees.
 ------------------------------------------------------------------------------
 Polarizable Continuum Model (PCM)
 =================================
 Model                : PCM.
 Atomic radii         : UFF (Universal Force Field).
 Polarization charges : Total charges.
 Charge compensation  : None.
 Solution method      : On-the-fly selection.
 Cavity type          : Scaled VdW (van der Waals Surface) (Alpha=1.100).
 Cavity algorithm     : GePol (No added spheres)
                        Default sphere list used, NSphG=   29.
                        Lebedev-Laikov grids with approx.  5.0 points / Ang**2.
                        Smoothing algorithm: York/Karplus (Gamma=1.0000).
                        Polarization charges: spherical gaussians, with
                                              point-specific exponents (IZeta= 3).
                        Self-potential: point-specific (ISelfS= 7).
                        Self-field    : sphere-specific E.n sum rule (ISelfD= 2).
 Solvent              : Water, Eps=  78.355300 Eps(inf)=   1.777849
 ------------------------------------------------------------------------------
 GePol: Number of generator spheres                  =      29
 GePol: Total number of spheres                      =      29
 GePol: Number of exposed spheres                    =      29 (100.00%)
 GePol: Number of points                             =    2102
 GePol: Average weight of points                     =       0.13
 GePol: Minimum weight of points                     =   0.17D-10
 GePol: Maximum weight of points                     =    0.20577
 GePol: Number of points with low weight             =     131
 GePol: Fraction of low-weight points (<1% of avg)   =       6.23%
 GePol: Cavity surface area                          =    270.050 Ang**2
 GePol: Cavity volume                                =    288.005 Ang**3
 Leave Link  301 at Sat Jan 24 15:23:24 2026, MaxMem=  2147483648 cpu:               0.6 elap:               0.0
 (Enter /data/home/wyx/g16/l302.exe)
 NPDir=0 NMtPBC=     1 NCelOv=     1 NCel=       1 NClECP=     1 NCelD=      1
         NCelK=      1 NCelE2=     1 NClLst=     1 CellRange=     0.0.
 One-electron integrals computed using PRISM.
 One-electron integral symmetry used in STVInt
 NBasis=   356 RedAO= T EigKep=  3.90D-05  NBF=   356
 NBsUse=   356 1.00D-06 EigRej= -1.00D+00 NBFU=   356
 Precomputing XC quadrature grid using
 IXCGrd= 4 IRadAn=           5 IRanWt=          -1 IRanGd=           0 AccXCQ= 0.00D+00.
 Generated NRdTot=       0 NPtTot=           0 NUsed=           0 NTot=          32
 NSgBfM=   366   366   366   366   366 MxSgAt=    29 MxSgA2=    29.
 Leave Link  302 at Sat Jan 24 15:23:24 2026, MaxMem=  2147483648 cpu:               3.1 elap:               0.2
 (Enter /data/home/wyx/g16/l303.exe)
 DipDrv:  MaxL=1.
 Leave Link  303 at Sat Jan 24 15:23:24 2026, MaxMem=  2147483648 cpu:               0.6 elap:               0.0
 (Enter /data/home/wyx/g16/l308.exe)
 Leave Link  308 at Sat Jan 24 15:23:25 2026, MaxMem=  2147483648 cpu:               0.7 elap:               0.1
 (Enter /data/home/wyx/g16/l401.exe)
 Initial guess from the checkpoint file:  "DDL-LR-Eq-0.chk"
 B after Tr=    -0.000000   -0.000000   -0.000000
         Rot=    1.000000   -0.000000    0.000000    0.000000 Ang=   0.00 deg.
 Guess basis will be translated and rotated to current coordinates.
 JPrj=2 DoOrth=T DoCkMO=T.
 Leave Link  401 at Sat Jan 24 15:23:25 2026, MaxMem=  2147483648 cpu:               2.2 elap:               0.2
 (Enter /data/home/wyx/g16/l502.exe)
 Integral symmetry usage will be decided dynamically.
 Closed shell SCF:
 Using DIIS extrapolation, IDIIS=  1040.
 NGot=  2147483648 LenX=  2147200095 LenY=  2147062754
 Requested convergence on RMS density matrix=1.00D-08 within 128 cycles.
 Requested convergence on MAX density matrix=1.00D-06.
 Requested convergence on             energy=1.00D-06.
 No special actions if energy rises.
 Fock matrices will be formed incrementally for  20 cycles.

 Cycle   1  Pass 1  IDiag  1:
 FoFJK:  IHMeth= 1 ICntrl=       0 DoSepK=T KAlg= 0 I1Cent=           0 FoldK=F
 IRaf=         1 NMat=       1 IRICut=       1 DoRegI=T DoRafI=F ISym2E= 0 IDoP0=0 IntGTp=1.
 FoFCou: FMM=F IPFlag=           0 FMFlag=      100000 FMFlg1=           0
         NFxFlg=           0 DoJE=T BraDBF=F KetDBF=F FulRan=T
         wScrn=  0.000000 ICntrl=       500 IOpCl=  0 I1Cent=           0 NGrid=           0
         NMat0=    1 NMatS0=      1 NMatT0=    0 NMatD0=    1 NMtDS0=    0 NMtDT0=    0
 Symmetry not used in FoFCou.
 Inv3:  Mode=1 IEnd=    13255212.
 Iteration    1 A*A^-1 deviation from unit magnitude is 3.22D-15 for    726.
 Iteration    1 A*A^-1 deviation from orthogonality  is 2.93D-15 for   1770    235.
 Iteration    1 A^-1*A deviation from unit magnitude is 3.44D-15 for    568.
 Iteration    1 A^-1*A deviation from orthogonality  is 1.79D-14 for   1374   1342.
 E= -633.320826165489    
 DIIS: error= 1.35D-08 at cycle   1 NSaved=   1.
 NSaved= 1 IEnMin= 1 EnMin= -633.320826165489     IErMin= 1 ErrMin= 1.35D-08
 ErrMax= 1.35D-08  0.00D+00 EMaxC= 1.00D-01 BMatC= 6.22D-14 BMatP= 6.22D-14
 IDIUse=1 WtCom= 1.00D+00 WtEn= 0.00D+00
 Coeff-Com:  0.100D+01
 Coeff:      0.100D+01
 Gap=     0.214 Goal=   None    Shift=    0.000
 RMSDP=3.65D-09 MaxDP=1.67D-07              OVMax= 1.66D-07

 Error on total polarization charges =  0.01559
 SCF Done:  E(RCAM-B3LYP) =  -633.320826165     A.U. after    1 cycles
            NFock=  1  Conv=0.37D-08     -V/T= 2.0044
 KE= 6.305450489995D+02 PE=-3.271869493614D+03 EE= 1.109987553034D+03
 Leave Link  502 at Sat Jan 24 15:23:31 2026, MaxMem=  2147483648 cpu:              85.6 elap:               5.6
 (Enter /data/home/wyx/g16/l801.exe)
 DoSCS=F DFT=T ScalE2(SS,OS)=  1.000000  1.000000
 ExpMin= 9.52D-02 ExpMax= 2.70D+04 ExpMxC= 9.22D+02 IAcc=3 IRadAn=         5 AccDes= 0.00D+00
 HarFok:  IExCor=  205 AccDes= 0.00D+00 IRadAn=         5 IDoV=-2 UseB2=F ITyADJ=14
 ICtDFT= 12500011 ScaDFX=  1.000000  1.000000  1.000000  1.000000
 Largest valence mixing into a core orbital is  5.58D-05
 Largest core mixing into a valence orbital is  1.14D-05
 Range of M.O.s used for correlation:    15   356
 NBasis=   356 NAE=    52 NBE=    52 NFC=    14 NFV=     0
 NROrb=    342 NOA=    38 NOB=    38 NVA=   304 NVB=   304

 **** Warning!!: The largest alpha MO coefficient is  0.61614718D+02

 Leave Link  801 at Sat Jan 24 15:23:31 2026, MaxMem=  2147483648 cpu:               1.0 elap:               0.1
 (Enter /data/home/wyx/g16/l914.exe)
 RHF ground state
 Two-electron integrals replicated using symmetry.
 MDV=  2147483648 DFT=T DoStab=F Mixed=T DoRPA=T DoScal=F NonHer=T
 NEqPCM:  Using equilibrium solvation (IEInf=0, Eps=  78.3553, EpsInf=   1.7778)
 Making orbital integer symmetry assigments:
 Orbital symmetries:
       Occupied  (A) (A) (A) (A) (A) (A) (A) (A) (A) (A) (A) (A)
                 (A) (A) (A) (A) (A) (A) (A) (A) (A) (A) (A) (A)
                 (A) (A) (A) (A) (A) (A) (A) (A) (A) (A) (A) (A)
                 (A) (A) (A) (A) (A) (A) (A) (A) (A) (A) (A) (A)
                 (A) (A) (A) (A)
       Virtual   (A) (A) (A) (A) (A) (A) (A) (A) (A) (A) (A) (A)
                 (A) (A) (A) (A) (A) (A) (A) (A) (A) (A) (A) (A)
                 (A) (A) (A) (A) (A) (A) (A) (A) (A) (A) (A) (A)
                 (A) (A) (A) (A) (A) (A) (A) (A) (A) (A) (A) (A)
                 (A) (A) (A) (A) (A) (A) (A) (A) (A) (A) (A) (A)
                 (A) (A) (A) (A) (A) (A) (A) (A) (A) (A) (A) (A)
                 (A) (A) (A) (A) (A) (A) (A) (A) (A) (A) (A) (A)
                 (A) (A) (A) (A) (A) (A) (A) (A) (A) (A) (A) (A)
                 (A) (A) (A) (A) (A) (A) (A) (A) (A) (A) (A) (A)
                 (A) (A) (A) (A) (A) (A) (A) (A) (A) (A) (A) (A)
                 (A) (A) (A) (A) (A) (A) (A) (A) (A) (A) (A) (A)
                 (A) (A) (A) (A) (A) (A) (A) (A) (A) (A) (A) (A)
                 (A) (A) (A) (A) (A) (A) (A) (A) (A) (A) (A) (A)
                 (A) (A) (A) (A) (A) (A) (A) (A) (A) (A) (A) (A)
                 (A) (A) (A) (A) (A) (A) (A) (A) (A) (A) (A) (A)
                 (A) (A) (A) (A) (A) (A) (A) (A) (A) (A) (A) (A)
                 (A) (A) (A) (A) (A) (A) (A) (A) (A) (A) (A) (A)
                 (A) (A) (A) (A) (A) (A) (A) (A) (A) (A) (A) (A)
                 (A) (A) (A) (A) (A) (A) (A) (A) (A) (A) (A) (A)
                 (A) (A) (A) (A) (A) (A) (A) (A) (A) (A) (A) (A)
                 (A) (A) (A) (A) (A) (A) (A) (A) (A) (A) (A) (A)
                 (A) (A) (A) (A) (A) (A) (A) (A) (A) (A) (A) (A)
                 (A) (A) (A) (A) (A) (A) (A) (A) (A) (A) (A) (A)
                 (A) (A) (A) (A) (A) (A) (A) (A) (A) (A) (A) (A)
                 (A) (A) (A) (A) (A) (A) (A) (A) (A) (A) (A) (A)
                 (A) (A) (A) (A)
    24 initial guesses have been made.
 Convergence on wavefunction:    0.001000000000000
 Davidson Disk Diagonalization:  ConvIn= 1.00D-03 SkipCon=T Conv= 1.00D-03.
 Max sub-space:  2000 roots to seek:    24 dimension of matrix:        23104
 Iteration     1 Dimension    24 NMult     0 NNew     24
 CISAX will form    24 AO SS matrices at one time.
 NMat=    24 NSing=    24 JSym2X= 0.
 FoFJK:  IHMeth= 1 ICntrl=       0 DoSepK=T KAlg= 0 I1Cent=           0 FoldK=F
 IRaf=         1 NMat=      48 IRICut=       1 DoRegI=T DoRafI=F ISym2E= 0 IDoP0=3 IntGTp=3.
 FoFCou: FMM=F IPFlag=           0 FMFlag=      100000 FMFlg1=           0
         NFxFlg=           0 DoJE=F BraDBF=F KetDBF=F FulRan=T
         wScrn=  0.000000 ICntrl=       500 IOpCl=  0 I1Cent=           0 NGrid=           0
         NMat0=   24 NMatS0=     24 NMatT0=    0 NMatD0=   24 NMtDS0=    0 NMtDT0=    0
 Symmetry not used in FoFCou.
 New state      2 was old state      3
 New state      3 was old state      4
 New state      4 was old state      2
 New state      5 was old state      6
 New state      6 was old state      5
 Excitation Energies [eV] at current iteration:
 Root      1 :     3.240470013776265
 Root      2 :     4.136138220586971
 Root      3 :     4.358695209013955
 Root      4 :     5.172020494142417
 Root      5 :     5.816982195218566
 Root      6 :     5.903158320026877
 Root      7 :     6.491635789106065
 Root      8 :     6.703083118356258
 Root      9 :     6.809979175320393
 Root     10 :     6.926312098292992
 Root     11 :     6.981477456163638
 Root     12 :     7.178026094889886
 Root     13 :     7.194846414996219
 Root     14 :     7.283680520403194
 Root     15 :     7.423775180070459
 Root     16 :     7.864299349296531
 Root     17 :     7.922705440588680
 Root     18 :     8.053960903514115
 Root     19 :     8.114522066180600
 Root     20 :     8.310799953999743
 Root     21 :     8.356896100646411
 Root     22 :     8.362424422179553
 Root     23 :     8.580005864250776
 Root     24 :     8.874588100174716
 Iteration     2 Dimension    36 NMult    24 NNew     12
 CISAX will form    12 AO SS matrices at one time.
 NMat=    12 NSing=    12 JSym2X= 0.
 Root      1 not converged, maximum delta is    0.037905689569376
 Root      2 not converged, maximum delta is    0.076935042520375
 Root      3 not converged, maximum delta is    0.078162140238811
 Root      4 not converged, maximum delta is    0.296112885883419
 New state      5 was old state      6
 Root      5 not converged, maximum delta is    0.473492430788323
 New state      6 was old state      5
 Root      6 not converged, maximum delta is    0.262712703088972
 Excitation Energies [eV] at current iteration:
 Root      1 :     2.804812933381351   Change is   -0.435657080394915
 Root      2 :     3.930015823950758   Change is   -0.206122396636213
 Root      3 :     4.110570980737886   Change is   -0.248124228276069
 Root      4 :     4.745442032001337   Change is   -0.426578462141079
 Root      5 :     5.177061592459603   Change is   -0.726096727567274
 Root      6 :     5.734299524825824   Change is   -0.082682670392743
 Iteration     3 Dimension    48 NMult    36 NNew     12
 CISAX will form    12 AO SS matrices at one time.
 NMat=    12 NSing=    12 JSym2X= 0.
 Root      1 not converged, maximum delta is    0.005444268484101
 Root      2 not converged, maximum delta is    0.015661391173974
 Root      3 not converged, maximum delta is    0.011105570484697
 Root      4 not converged, maximum delta is    0.011290638082599
 Root      5 not converged, maximum delta is    0.013503184233370
 Root      6 not converged, maximum delta is    0.007818284918195
 Excitation Energies [eV] at current iteration:
 Root      1 :     2.790505688837775   Change is   -0.014307244543576
 Root      2 :     3.918366852285224   Change is   -0.011648971665534
 Root      3 :     4.097138861232367   Change is   -0.013432119505518
 Root      4 :     4.725803409299280   Change is   -0.019638622702058
 Root      5 :     5.161188667045911   Change is   -0.015872925413692
 Root      6 :     5.729557856837514   Change is   -0.004741667988310
 Iteration     4 Dimension    60 NMult    48 NNew     12
 CISAX will form    12 AO SS matrices at one time.
 NMat=    12 NSing=    12 JSym2X= 0.
 Root      1 not converged, maximum delta is    0.001967340474161
 Root      2 not converged, maximum delta is    0.001748351033719
 Root      3 not converged, maximum delta is    0.002049105562180
 Root      4 not converged, maximum delta is    0.002934754566893
 Root      5 not converged, maximum delta is    0.001965756698235
 Root      6 not converged, maximum delta is    0.002183294060966
 Excitation Energies [eV] at current iteration:
 Root      1 :     2.789467253270373   Change is   -0.001038435567403
 Root      2 :     3.917799222432148   Change is   -0.000567629853075
 Root      3 :     4.096139286730155   Change is   -0.000999574502212
 Root      4 :     4.723980002372383   Change is   -0.001823406926896
 Root      5 :     5.159708854546118   Change is   -0.001479812499794
 Root      6 :     5.729249391412210   Change is   -0.000308465425303
 Iteration     5 Dimension    72 NMult    60 NNew     12
 CISAX will form    12 AO SS matrices at one time.
 NMat=    12 NSing=    12 JSym2X= 0.
 Root      1 has converged.
 Root      2 has converged.
 Root      3 has converged.
 Root      4 has converged.
 Root      5 has converged.
 Root      6 has converged.
 Excitation Energies [eV] at current iteration:
 Root      1 :     2.789420295574706   Change is   -0.000046957695667
 Root      2 :     3.917762866712917   Change is   -0.000036355719231
 Root      3 :     4.096099997878257   Change is   -0.000039288851898
 Root      4 :     4.723859267978445   Change is   -0.000120734393938
 Root      5 :     5.159600577215508   Change is   -0.000108277330610
 Root      6 :     5.729227476171590   Change is   -0.000021915240620
 Convergence achieved on expansion vectors.
 ***********************************************************************
 Excited states from <AA,BB:AA,BB> singles matrix:
 ***********************************************************************
 
 1PDM for each excited state written to RWF  633
 Ground to excited state transition densities written to RWF  633
 Ground to excited state transition electric dipole moments (Au):
       state          X           Y           Z        Dip. S.      Osc.
         1        -1.7271     -0.2020     -0.0528      3.0266      0.2068
         2        -0.0112     -0.0524      0.0342      0.0040      0.0004
         3        -0.0740     -0.1120      0.0229      0.0185      0.0019
         4        -0.2090      1.9497     -0.0338      3.8463      0.4451
         5         0.0819     -1.4952     -0.0130      2.2425      0.2835
         6         0.0189     -0.2267     -0.0295      0.0526      0.0074
 Ground to excited state transition velocity dipole moments (Au):
       state          X           Y           Z        Dip. S.      Osc.
         1         0.1710      0.0170      0.0055      0.0296      0.1922
         2         0.0017      0.0077     -0.0015      0.0001      0.0003
         3         0.0102      0.0142     -0.0002      0.0003      0.0014
         4         0.0416     -0.3239      0.0035      0.1066      0.4095
         5        -0.0153      0.2786      0.0014      0.0778      0.2736
         6        -0.0054      0.0458      0.0266      0.0028      0.0090
 Ground to excited state transition magnetic dipole moments (Au):
       state          X           Y           Z
         1         0.0122      0.0617     -1.4652
         2         0.7800      0.1175      0.0598
         3        -0.1885     -0.9576     -0.2274
         4        -0.0201     -0.0686      0.1041
         5         0.0838      0.1010     -0.2497
         6        -0.1701     -0.0315      0.0661
 Ground to excited state transition velocity quadrupole moments (Au):
       state          XX          YY          ZZ          XY          XZ          YZ
         1         0.1804     -0.0943     -0.0061     -0.4784      0.0233     -0.0200
         2         0.0251     -0.0091     -0.0109      0.0056     -0.0064      0.0781
         3         0.0386     -0.0077     -0.0183     -0.0714      0.0634     -0.0103
         4         1.4145     -0.2875     -0.0218      0.1108      0.0744      0.0230
         5        -0.3114      0.2703      0.0238     -0.2133     -0.0512     -0.0046
         6         0.1543      0.1531     -0.1212      0.0246      0.0356     -0.2072
 <0|del|b> * <b|rxdel|0> + <0|del|b> * <b|delr+rdel|0>
 Rotatory Strengths (R) in cgs (10**-40 erg-esu-cm/Gauss)
       state          XX          YY          ZZ    R(velocity)    E-M Angle
         1       -34.6971    -23.3736     23.9634    -11.3691       91.12
         2         2.1042      3.3621      5.0162      3.4942       70.38
         3       -33.8577     -4.6863    -34.0489    -24.1976      151.98
         4        95.8558      0.2023     -7.5364     29.5072       58.20
         5        77.8591     -2.3540     23.3249     32.9433       70.32
         6        -1.1102      5.2706     -0.0242      1.3787       82.82
 1/2[<0|r|b>*<b|rxdel|0> + (<0|rxdel|b>*<b|r|0>)*]
 Rotatory Strengths (R) in cgs (10**-40 erg-esu-cm/Gauss)
       state          XX          YY          ZZ     R(length)
         1        14.8746      8.8192    -54.6588    -10.3217
         2         6.1965      4.3514     -1.4464      3.0338
         3        -9.8601    -75.8265      3.6767    -27.3366
         4        -2.9702     94.5321      2.4883     31.3500
         5        -4.8526    106.7737     -2.2891     33.2107
         6         2.2778     -5.0522      1.3806     -0.4646
  1/2[<0|del|b>*<b|r|0> + (<0|r|b>*<b|del|0>)*] (Au)
       state          X           Y           Z        Dip. S.   Osc.(frdel)
         1        -0.2953     -0.0034     -0.0003      0.2990      0.1993
         2        -0.0000     -0.0004     -0.0001      0.0005      0.0003
         3        -0.0008     -0.0016     -0.0000      0.0023      0.0016
         4        -0.0087     -0.6315     -0.0001      0.6403      0.4269
         5        -0.0013     -0.4165     -0.0000      0.4178      0.2785
         6        -0.0001     -0.0104     -0.0008      0.0113      0.0075

 Excitation energies and oscillator strengths:
 
 Excited State   1:      Singlet-A      2.7894 eV  444.48 nm  f=0.2068  <S**2>=0.000
      52 -> 53         0.70180
 This state for optimization and/or second-order correction.
 Total Energy, E(TD-HF/TD-DFT) =  -633.218316856    
 Copying the excited state density for this state as the 1-particle RhoCI density.
 
 Excited State   2:      Singlet-A      3.9178 eV  316.47 nm  f=0.0004  <S**2>=0.000
      50 -> 54        -0.15132
      51 -> 53         0.59207
      51 -> 54         0.30346
 
 Excited State   3:      Singlet-A      4.0961 eV  302.69 nm  f=0.0019  <S**2>=0.000
      49 -> 53        -0.41297
      49 -> 54         0.21877
      50 -> 53         0.42821
      50 -> 54        -0.18032
      51 -> 54        -0.19471
 
 Excited State   4:      Singlet-A      4.7239 eV  262.46 nm  f=0.4451  <S**2>=0.000
      52 -> 54         0.68736
 
 Excited State   5:      Singlet-A      5.1596 eV  240.30 nm  f=0.2835  <S**2>=0.000
      49 -> 53         0.48612
      50 -> 53         0.47137
      51 -> 53         0.10030
      52 -> 54         0.13714
 
 Excited State   6:      Singlet-A      5.7292 eV  216.41 nm  f=0.0074  <S**2>=0.000
      52 -> 55         0.65198
      52 -> 56         0.18841
      52 -> 62        -0.11276
 SavETr:  write IOETrn=   770 NScale= 10 NData=  16 NLR=1 NState=    6 LETran=     118.
 Leave Link  914 at Sat Jan 24 15:25:22 2026, MaxMem=  2147483648 cpu:            1764.7 elap:             110.7
 (Enter /data/home/wyx/g16/l601.exe)
 Copying SCF densities to generalized density rwf, IOpCl= 0 IROHF=0.

 **********************************************************************

            Population analysis using the SCF density.

 **********************************************************************

 Orbital symmetries:
       Occupied  (A) (A) (A) (A) (A) (A) (A) (A) (A) (A) (A) (A)
                 (A) (A) (A) (A) (A) (A) (A) (A) (A) (A) (A) (A)
                 (A) (A) (A) (A) (A) (A) (A) (A) (A) (A) (A) (A)
                 (A) (A) (A) (A) (A) (A) (A) (A) (A) (A) (A) (A)
                 (A) (A) (A) (A)
       Virtual   (A) (A) (A) (A) (A) (A) (A) (A) (A) (A) (A) (A)
                 (A) (A) (A) (A) (A) (A) (A) (A) (A) (A) (A) (A)
                 (A) (A) (A) (A) (A) (A) (A) (A) (A) (A) (A) (A)
                 (A) (A) (A) (A) (A) (A) (A) (A) (A) (A) (A) (A)
                 (A) (A) (A) (A) (A) (A) (A) (A) (A) (A) (A) (A)
                 (A) (A) (A) (A) (A) (A) (A) (A) (A) (A) (A) (A)
                 (A) (A) (A) (A) (A) (A) (A) (A) (A) (A) (A) (A)
                 (A) (A) (A) (A) (A) (A) (A) (A) (A) (A) (A) (A)
                 (A) (A) (A) (A) (A) (A) (A) (A) (A) (A) (A) (A)
                 (A) (A) (A) (A) (A) (A) (A) (A) (A) (A) (A) (A)
                 (A) (A) (A) (A) (A) (A) (A) (A) (A) (A) (A) (A)
                 (A) (A) (A) (A) (A) (A) (A) (A) (A) (A) (A) (A)
                 (A) (A) (A) (A) (A) (A) (A) (A) (A) (A) (A) (A)
                 (A) (A) (A) (A) (A) (A) (A) (A) (A) (A) (A) (A)
                 (A) (A) (A) (A) (A) (A) (A) (A) (A) (A) (A) (A)
                 (A) (A) (A) (A) (A) (A) (A) (A) (A) (A) (A) (A)
                 (A) (A) (A) (A) (A) (A) (A) (A) (A) (A) (A) (A)
                 (A) (A) (A) (A) (A) (A) (A) (A) (A) (A) (A) (A)
                 (A) (A) (A) (A) (A) (A) (A) (A) (A) (A) (A) (A)
                 (A) (A) (A) (A) (A) (A) (A) (A) (A) (A) (A) (A)
                 (A) (A) (A) (A) (A) (A) (A) (A) (A) (A) (A) (A)
                 (A) (A) (A) (A) (A) (A) (A) (A) (A) (A) (A) (A)
                 (A) (A) (A) (A) (A) (A) (A) (A) (A) (A) (A) (A)
                 (A) (A) (A) (A) (A) (A) (A) (A) (A) (A) (A) (A)
                 (A) (A) (A) (A) (A) (A) (A) (A) (A) (A) (A) (A)
                 (A) (A) (A) (A)
 The electronic state is 1-A.
 Alpha  occ. eigenvalues --  -19.17917 -19.17070 -14.44913 -10.33457 -10.33043
 Alpha  occ. eigenvalues --  -10.33001 -10.32550 -10.25989 -10.25469 -10.25169
 Alpha  occ. eigenvalues --  -10.24868 -10.24530 -10.24136 -10.23884  -1.11266
 Alpha  occ. eigenvalues --   -1.10704  -1.08639  -0.91378  -0.90606  -0.83975
 Alpha  occ. eigenvalues --   -0.82605  -0.81630  -0.78511  -0.73749  -0.72324
 Alpha  occ. eigenvalues --   -0.68786  -0.61573  -0.58257  -0.57095  -0.55121
 Alpha  occ. eigenvalues --   -0.54548  -0.54032  -0.52471  -0.51699  -0.50863
 Alpha  occ. eigenvalues --   -0.49760  -0.49470  -0.49287  -0.48527  -0.48004
 Alpha  occ. eigenvalues --   -0.47258  -0.45238  -0.45206  -0.44044  -0.43337
 Alpha  occ. eigenvalues --   -0.42185  -0.42051  -0.41520  -0.32626  -0.32254
 Alpha  occ. eigenvalues --   -0.31356  -0.25005
 Alpha virt. eigenvalues --   -0.03637   0.02382   0.06460   0.08177   0.08629
 Alpha virt. eigenvalues --    0.09733   0.10732   0.11364   0.12568   0.13374
 Alpha virt. eigenvalues --    0.13885   0.15101   0.15614   0.16341   0.16919
 Alpha virt. eigenvalues --    0.17325   0.17850   0.18193   0.18488   0.19208
 Alpha virt. eigenvalues --    0.19969   0.21853   0.22779   0.23295   0.23855
 Alpha virt. eigenvalues --    0.24279   0.24640   0.25697   0.26382   0.26658
 Alpha virt. eigenvalues --    0.27509   0.28139   0.28541   0.29507   0.30172
 Alpha virt. eigenvalues --    0.31532   0.31916   0.32216   0.33407   0.34083
 Alpha virt. eigenvalues --    0.34779   0.35597   0.36618   0.37357   0.38441
 Alpha virt. eigenvalues --    0.39572   0.40834   0.41333   0.41802   0.42492
 Alpha virt. eigenvalues --    0.44006   0.44818   0.45423   0.46144   0.46452
 Alpha virt. eigenvalues --    0.47242   0.47551   0.47850   0.48454   0.49207
 Alpha virt. eigenvalues --    0.49730   0.50460   0.51095   0.51266   0.51470
 Alpha virt. eigenvalues --    0.52260   0.52537   0.53265   0.53474   0.54199
 Alpha virt. eigenvalues --    0.54240   0.55239   0.55767   0.56562   0.58241
 Alpha virt. eigenvalues --    0.58365   0.59912   0.60951   0.61858   0.63025
 Alpha virt. eigenvalues --    0.64191   0.64876   0.66116   0.66787   0.67277
 Alpha virt. eigenvalues --    0.68409   0.69035   0.70537   0.70808   0.71967
 Alpha virt. eigenvalues --    0.72923   0.74684   0.75169   0.75953   0.77193
 Alpha virt. eigenvalues --    0.78915   0.80717   0.83162   0.86719   0.87320
 Alpha virt. eigenvalues --    0.91531   0.95901   1.01993   1.03999   1.21821
 Alpha virt. eigenvalues --    1.24471   1.27323   1.28078   1.28827   1.30205
 Alpha virt. eigenvalues --    1.31874   1.33290   1.34511   1.35179   1.36462
 Alpha virt. eigenvalues --    1.36897   1.37727   1.38442   1.39052   1.39527
 Alpha virt. eigenvalues --    1.39947   1.40015   1.40739   1.41411   1.42105
 Alpha virt. eigenvalues --    1.43183   1.43440   1.44142   1.45498   1.47156
 Alpha virt. eigenvalues --    1.48125   1.49317   1.49554   1.50118   1.50810
 Alpha virt. eigenvalues --    1.51330   1.52103   1.52971   1.55463   1.58824
 Alpha virt. eigenvalues --    1.59499   1.59787   1.60951   1.61577   1.62135
 Alpha virt. eigenvalues --    1.62651   1.62746   1.63480   1.64534   1.65564
 Alpha virt. eigenvalues --    1.66323   1.66919   1.67557   1.68062   1.68649
 Alpha virt. eigenvalues --    1.69205   1.69909   1.70314   1.71029   1.72419
 Alpha virt. eigenvalues --    1.74139   1.74576   1.75417   1.76438   1.78355
 Alpha virt. eigenvalues --    1.81489   1.83112   1.83937   1.85788   1.86412
 Alpha virt. eigenvalues --    1.86575   1.87705   1.88575   1.89273   1.90180
 Alpha virt. eigenvalues --    1.91359   1.94436   1.95128   1.98760   1.99788
 Alpha virt. eigenvalues --    2.01686   2.03686   2.05841   2.06812   2.09290
 Alpha virt. eigenvalues --    2.09908   2.11343   2.15754   2.17532   2.19602
 Alpha virt. eigenvalues --    2.20626   2.21400   2.21977   2.22963   2.26204
 Alpha virt. eigenvalues --    2.26684   2.27400   2.29164   2.30760   2.32043
 Alpha virt. eigenvalues --    2.33220   2.34372   2.36896   2.37662   2.38930
 Alpha virt. eigenvalues --    2.39286   2.39914   2.41183   2.42578   2.45027
 Alpha virt. eigenvalues --    2.45434   2.47139   2.48570   2.49296   2.51136
 Alpha virt. eigenvalues --    2.52335   2.53811   2.54390   2.56220   2.57364
 Alpha virt. eigenvalues --    2.58735   2.60668   2.61654   2.62232   2.63348
 Alpha virt. eigenvalues --    2.64598   2.65444   2.66467   2.67432   2.68279
 Alpha virt. eigenvalues --    2.71564   2.71659   2.73884   2.74426   2.75288
 Alpha virt. eigenvalues --    2.76404   2.77224   2.77648   2.78084   2.78682
 Alpha virt. eigenvalues --    2.80496   2.81197   2.82980   2.83464   2.84904
 Alpha virt. eigenvalues --    2.85278   2.86448   2.88354   2.88847   2.91842
 Alpha virt. eigenvalues --    2.96901   2.98009   3.01207   3.07055   3.10577
 Alpha virt. eigenvalues --    3.12222   3.13489   3.18112   3.19289   3.21503
 Alpha virt. eigenvalues --    3.21959   3.22896   3.24552   3.25431   3.25924
 Alpha virt. eigenvalues --    3.29194   3.30067   3.31911   3.34435   3.36610
 Alpha virt. eigenvalues --    3.38119   3.38707   3.38945   3.39148   3.41370
 Alpha virt. eigenvalues --    3.41790   3.43687   3.44818   3.47354   3.47907
 Alpha virt. eigenvalues --    3.49636   3.50184   3.55769   3.58147   3.59340
 Alpha virt. eigenvalues --    3.61228   3.90809   4.00796   4.32087   4.35161
 Alpha virt. eigenvalues --   21.68617  21.80500  22.07510  22.09914  22.11136
 Alpha virt. eigenvalues --   22.14459  22.14636  22.17118  22.18601  22.24709
 Alpha virt. eigenvalues --   22.26636  31.91127  43.63947  43.66661
          Condensed to atoms (all electrons):
               1          2          3          4          5          6
     1  O    7.954717   0.000000  -0.000170   0.000018   0.019938   0.006497
     2  O    0.000000   8.000405   0.000284   0.000001  -0.197504   0.001443
     3  N   -0.000170   0.000284   6.341907   0.367082  -0.118133   0.334798
     4  H    0.000018   0.000001   0.367082   0.404170   0.015713  -0.043855
     5  C    0.019938  -0.197504  -0.118133   0.015713   7.223582  -0.079651
     6  C    0.006497   0.001443   0.334798  -0.043855  -0.079651   5.511571
     7  C    0.000001  -0.049654   0.399338  -0.034680   0.484604  -0.135960
     8  C   -0.000837   0.701476   0.003895  -0.000949  -0.408370   0.036529
     9  C   -0.002271   0.028485   0.015413   0.000205  -0.741961  -0.035200
    10  H    0.010027   0.000107   0.003185   0.000041  -0.081293  -0.019013
    11  H    0.008139   0.000044  -0.001103   0.000023  -0.100722   0.027685
    12  C   -0.233597  -0.003346  -0.087891   0.014226   0.191021  -0.004219
    13  C    0.710773  -0.000016   0.001402   0.000568   0.087216   0.097123
    14  C   -0.000007  -0.010226  -0.031886  -0.010568  -0.082919   0.009634
    15  H   -0.000000   0.003961   0.005429   0.002206   0.021055   0.006092
    16  H   -0.000000   0.004450  -0.001985   0.000897  -0.009886  -0.001047
    17  H    0.000000   0.002935  -0.000739   0.000790  -0.004210  -0.001486
    18  C    0.000332  -0.098402  -0.000481   0.000018  -0.242218  -0.000174
    19  H    0.000000   0.007121   0.000009  -0.000001   0.026117   0.000006
    20  H   -0.000012   0.000655   0.000010  -0.000001   0.001393   0.000167
    21  H    0.000191   0.004459   0.000106   0.000001   0.044032  -0.001234
    22  C   -0.104478   0.000000  -0.000154   0.000107   0.003233  -0.029335
    23  H    0.005365  -0.000000   0.000249  -0.000057  -0.000808  -0.021315
    24  H    0.001458   0.000000   0.000022  -0.000009  -0.000011   0.007318
    25  H    0.005769   0.000000   0.000020  -0.000002  -0.000117  -0.000861
    26  C    0.000671   0.000011  -0.025414  -0.006665   0.000619   0.205927
    27  H   -0.000217  -0.000000   0.000787   0.000693   0.000185  -0.051619
    28  H   -0.000058  -0.000000  -0.002234   0.000511   0.000329  -0.029354
    29  H    0.000022   0.000000   0.002092   0.002094  -0.000296  -0.045695
               7          8          9         10         11         12
     1  O    0.000001  -0.000837  -0.002271   0.010027   0.008139  -0.233597
     2  O   -0.049654   0.701476   0.028485   0.000107   0.000044  -0.003346
     3  N    0.399338   0.003895   0.015413   0.003185  -0.001103  -0.087891
     4  H   -0.034680  -0.000949   0.000205   0.000041   0.000023   0.014226
     5  C    0.484604  -0.408370  -0.741961  -0.081293  -0.100722   0.191021
     6  C   -0.135960   0.036529  -0.035200  -0.019013   0.027685  -0.004219
     7  C    5.413755  -0.251735  -0.237474  -0.005502   0.014230   0.033039
     8  C   -0.251735   5.468326   0.241899  -0.000214  -0.009763  -0.056497
     9  C   -0.237474   0.241899   6.443039   0.449313   0.515811  -0.153307
    10  H   -0.005502  -0.000214   0.449313   0.588611  -0.055781  -0.021731
    11  H    0.014230  -0.009763   0.515811  -0.055781   0.550736  -0.106861
    12  C    0.033039  -0.056497  -0.153307  -0.021731  -0.106861   7.330505
    13  C    0.022096  -0.010975  -0.236021  -0.008531   0.001675  -0.521205
    14  C    0.296671  -0.034849   0.002157  -0.000548   0.000337   0.002196
    15  H   -0.083603   0.005263   0.000933   0.000038  -0.000003  -0.001672
    16  H   -0.018944  -0.000628   0.001055  -0.000061   0.000065   0.000099
    17  H   -0.026766  -0.006517  -0.000156   0.000175  -0.000058   0.000335
    18  C   -0.002151   0.331589  -0.004189  -0.015702   0.007624   0.001301
    19  H    0.000250  -0.055627  -0.002633   0.000196   0.000538  -0.000146
    20  H   -0.000388  -0.025087  -0.009942   0.000676  -0.000168  -0.002193
    21  H    0.004332  -0.072313  -0.005300   0.003229  -0.008268   0.006719
    22  C    0.000273  -0.000061   0.011252   0.004074  -0.002056  -0.231857
    23  H    0.000003   0.000013   0.002487  -0.000264   0.000134   0.062662
    24  H   -0.000009   0.000001  -0.001919   0.000178  -0.000134  -0.012414
    25  H    0.000007   0.000002   0.000304  -0.000133   0.000013   0.019591
    26  C    0.002159   0.000908   0.021324  -0.000704   0.000152  -0.086496
    27  H   -0.000833   0.000001   0.000113  -0.000078   0.000008  -0.007097
    28  H   -0.000789  -0.000015  -0.000656  -0.000006   0.000040  -0.016853
    29  H    0.002852  -0.000002  -0.000434   0.000076  -0.000014   0.022298
              13         14         15         16         17         18
     1  O    0.710773  -0.000007  -0.000000  -0.000000   0.000000   0.000332
     2  O   -0.000016  -0.010226   0.003961   0.004450   0.002935  -0.098402
     3  N    0.001402  -0.031886   0.005429  -0.001985  -0.000739  -0.000481
     4  H    0.000568  -0.010568   0.002206   0.000897   0.000790   0.000018
     5  C    0.087216  -0.082919   0.021055  -0.009886  -0.004210  -0.242218
     6  C    0.097123   0.009634   0.006092  -0.001047  -0.001486  -0.000174
     7  C    0.022096   0.296671  -0.083603  -0.018944  -0.026766  -0.002151
     8  C   -0.010975  -0.034849   0.005263  -0.000628  -0.006517   0.331589
     9  C   -0.236021   0.002157   0.000933   0.001055  -0.000156  -0.004189
    10  H   -0.008531  -0.000548   0.000038  -0.000061   0.000175  -0.015702
    11  H    0.001675   0.000337  -0.000003   0.000065  -0.000058   0.007624
    12  C   -0.521205   0.002196  -0.001672   0.000099   0.000335   0.001301
    13  C    5.631572   0.000170  -0.000043  -0.000007  -0.000005   0.001533
    14  C    0.000170   5.026882   0.391504   0.405331   0.414591   0.000489
    15  H   -0.000043   0.391504   0.567162  -0.024023  -0.025946   0.000202
    16  H   -0.000007   0.405331  -0.024023   0.507686  -0.027428   0.000174
    17  H   -0.000005   0.414591  -0.025946  -0.027428   0.511691  -0.000131
    18  C    0.001533   0.000489   0.000202   0.000174  -0.000131   5.293040
    19  H   -0.000010   0.000049  -0.000004  -0.000041   0.000040   0.396604
    20  H   -0.000159  -0.000165  -0.000004  -0.000008   0.000007   0.403196
    21  H    0.001043   0.000136  -0.000014  -0.000004  -0.000028   0.378276
    22  C    0.269281  -0.000003   0.000001  -0.000000   0.000000   0.000028
    23  H   -0.100888   0.000004   0.000000   0.000000  -0.000000   0.000000
    24  H   -0.020662  -0.000001   0.000000   0.000000  -0.000000  -0.000001
    25  H   -0.032919   0.000000   0.000000  -0.000000   0.000000  -0.000000
    26  C   -0.055039   0.000364   0.000359  -0.000044  -0.000012   0.000001
    27  H   -0.001776   0.000033  -0.000006   0.000001  -0.000002   0.000000
    28  H    0.007013  -0.000079  -0.000007  -0.000004   0.000004  -0.000000
    29  H   -0.001365  -0.000077   0.000102  -0.000001   0.000000  -0.000000
              19         20         21         22         23         24
     1  O    0.000000  -0.000012   0.000191  -0.104478   0.005365   0.001458
     2  O    0.007121   0.000655   0.004459   0.000000  -0.000000   0.000000
     3  N    0.000009   0.000010   0.000106  -0.000154   0.000249   0.000022
     4  H   -0.000001  -0.000001   0.000001   0.000107  -0.000057  -0.000009
     5  C    0.026117   0.001393   0.044032   0.003233  -0.000808  -0.000011
     6  C    0.000006   0.000167  -0.001234  -0.029335  -0.021315   0.007318
     7  C    0.000250  -0.000388   0.004332   0.000273   0.000003  -0.000009
     8  C   -0.055627  -0.025087  -0.072313  -0.000061   0.000013   0.000001
     9  C   -0.002633  -0.009942  -0.005300   0.011252   0.002487  -0.001919
    10  H    0.000196   0.000676   0.003229   0.004074  -0.000264   0.000178
    11  H    0.000538  -0.000168  -0.008268  -0.002056   0.000134  -0.000134
    12  C   -0.000146  -0.002193   0.006719  -0.231857   0.062662  -0.012414
    13  C   -0.000010  -0.000159   0.001043   0.269281  -0.100888  -0.020662
    14  C    0.000049  -0.000165   0.000136  -0.000003   0.000004  -0.000001
    15  H   -0.000004  -0.000004  -0.000014   0.000001   0.000000   0.000000
    16  H   -0.000041  -0.000008  -0.000004  -0.000000   0.000000   0.000000
    17  H    0.000040   0.000007  -0.000028   0.000000  -0.000000  -0.000000
    18  C    0.396604   0.403196   0.378276   0.000028   0.000000  -0.000001
    19  H    0.512397  -0.010466  -0.024863  -0.000000   0.000000   0.000000
    20  H   -0.010466   0.486825  -0.022082  -0.000011   0.000000   0.000000
    21  H   -0.024863  -0.022082   0.539548   0.000039  -0.000001  -0.000000
    22  C   -0.000000  -0.000011   0.000039   5.425593   0.397743   0.400638
    23  H    0.000000   0.000000  -0.000001   0.397743   0.543209  -0.025994
    24  H    0.000000   0.000000  -0.000000   0.400638  -0.025994   0.490592
    25  H   -0.000000   0.000000  -0.000001   0.379722  -0.022516  -0.009171
    26  C    0.000000   0.000002  -0.000017  -0.035274   0.015311  -0.008290
    27  H   -0.000000   0.000000  -0.000000   0.002666  -0.006563   0.000116
    28  H    0.000000  -0.000000   0.000000  -0.010636  -0.001750   0.000667
    29  H    0.000000  -0.000000   0.000000   0.002056   0.000556   0.000130
              25         26         27         28         29
     1  O    0.005769   0.000671  -0.000217  -0.000058   0.000022
     2  O    0.000000   0.000011  -0.000000  -0.000000   0.000000
     3  N    0.000020  -0.025414   0.000787  -0.002234   0.002092
     4  H   -0.000002  -0.006665   0.000693   0.000511   0.002094
     5  C   -0.000117   0.000619   0.000185   0.000329  -0.000296
     6  C   -0.000861   0.205927  -0.051619  -0.029354  -0.045695
     7  C    0.000007   0.002159  -0.000833  -0.000789   0.002852
     8  C    0.000002   0.000908   0.000001  -0.000015  -0.000002
     9  C    0.000304   0.021324   0.000113  -0.000656  -0.000434
    10  H   -0.000133  -0.000704  -0.000078  -0.000006   0.000076
    11  H    0.000013   0.000152   0.000008   0.000040  -0.000014
    12  C    0.019591  -0.086496  -0.007097  -0.016853   0.022298
    13  C   -0.032919  -0.055039  -0.001776   0.007013  -0.001365
    14  C    0.000000   0.000364   0.000033  -0.000079  -0.000077
    15  H    0.000000   0.000359  -0.000006  -0.000007   0.000102
    16  H   -0.000000  -0.000044   0.000001  -0.000004  -0.000001
    17  H    0.000000  -0.000012  -0.000002   0.000004   0.000000
    18  C   -0.000000   0.000001   0.000000  -0.000000  -0.000000
    19  H   -0.000000   0.000000  -0.000000   0.000000   0.000000
    20  H    0.000000   0.000002   0.000000  -0.000000  -0.000000
    21  H   -0.000001  -0.000017  -0.000000   0.000000   0.000000
    22  C    0.379722  -0.035274   0.002666  -0.010636   0.002056
    23  H   -0.022516   0.015311  -0.006563  -0.001750   0.000556
    24  H   -0.009171  -0.008290   0.000116   0.000667   0.000130
    25  H    0.498534   0.002170   0.000502   0.000136  -0.000033
    26  C    0.002170   5.224867   0.436042   0.422361   0.385672
    27  H    0.000502   0.436042   0.501035  -0.028062  -0.023816
    28  H    0.000136   0.422361  -0.028062   0.477539  -0.015377
    29  H   -0.000033   0.385672  -0.023816  -0.015377   0.510615
 Mulliken charges:
               1
     1  O   -0.382272
     2  O   -0.396691
     3  N   -0.205839
     4  H    0.287420
     5  C   -0.050937
     6  C    0.255226
     7  C    0.174878
     8  C    0.144536
     9  C   -0.302328
    10  H    0.149636
    11  H    0.157675
    12  C   -0.136611
    13  C    0.158155
    14  C   -0.379221
    15  H    0.131016
    16  H    0.164356
    17  H    0.162917
    18  C   -0.450957
    19  H    0.150464
    20  H    0.177753
    21  H    0.152012
    22  C   -0.482841
    23  H    0.152421
    24  H    0.177496
    25  H    0.158985
    26  C   -0.500965
    27  H    0.177888
    28  H    0.197279
    29  H    0.158547
 Sum of Mulliken charges =  -0.00000
 Mulliken charges with hydrogens summed into heavy atoms:
               1
     1  O   -0.382272
     2  O   -0.396691
     3  N    0.081581
     5  C   -0.050937
     6  C    0.255226
     7  C    0.174878
     8  C    0.144536
     9  C    0.004984
    12  C   -0.136611
    13  C    0.158155
    14  C    0.079069
    18  C    0.029272
    22  C    0.006062
    26  C    0.032750
 Electronic spatial extent (au):  <R**2>=           3213.7394
 Charge=              0.0000 electrons
 Dipole moment (field-independent basis, Debye):
    X=             -4.3355    Y=              8.3245    Z=              0.2845  Tot=              9.3902
 Quadrupole moment (field-independent basis, Debye-Ang):
   XX=            -99.5799   YY=            -77.6870   ZZ=            -84.9126
   XY=            -12.8378   XZ=             -3.8513   YZ=             -2.6261
 Traceless Quadrupole moment (field-independent basis, Debye-Ang):
   XX=            -12.1867   YY=              9.7062   ZZ=              2.4806
   XY=            -12.8378   XZ=             -3.8513   YZ=             -2.6261
 Octapole moment (field-independent basis, Debye-Ang**2):
  XXX=           -118.5340  YYY=             70.4819  ZZZ=              0.9633  XYY=             35.7330
  XXY=             36.0135  XXZ=             -3.1582  XZZ=             -0.4127  YZZ=             -0.6542
  YYZ=              5.2595  XYZ=              5.5793
 Hexadecapole moment (field-independent basis, Debye-Ang**3):
 XXXX=          -3097.1540 YYYY=          -1295.5569 ZZZZ=           -141.3362 XXXY=            -36.0828
 XXXZ=            -40.7564 YYYX=            -91.9477 YYYZ=            -20.3104 ZZZX=              3.5586
 ZZZY=              1.0145 XXYY=           -694.7684 XXZZ=           -478.8518 YYZZ=           -246.0418
 XXYZ=            -11.6949 YYXZ=            -11.2252 ZZXY=             -0.8613
 N-N= 8.980160654146D+02 E-N=-3.271869494372D+03  KE= 6.305450489995D+02
 Leave Link  601 at Sat Jan 24 15:25:23 2026, MaxMem=  2147483648 cpu:               0.7 elap:               0.1
 (Enter /data/home/wyx/g16/l9999.exe)
 Electronic transition elements 
                 1             2             3             4             5 
      1  -0.633218D+03 -0.633177D+03 -0.633170D+03 -0.633147D+03 -0.633131D+03
      2   0.165145D+01  0.342815D-01  0.109483D+00 -0.450478D+00  0.410171D+00
      3   0.394323D+00 -0.462984D-01 -0.809235D-01  0.190603D+01 -0.143431D+01
      4   0.379262D+00 -0.268374D-01  0.784705D-03 -0.102142D+00  0.130480D+00
      5  -0.162442D+00 -0.437641D-02 -0.140994D-01  0.680455D-01 -0.765793D-01
      6  -0.418710D-01  0.671863D-02  0.990224D-02 -0.318892D+00  0.267246D+00
      7  -0.375614D-01  0.478215D-03 -0.288214D-02  0.178360D-01 -0.232991D-01
      8  -0.322459D+00 -0.747276D+00  0.441753D+00  0.616470D-01 -0.160034D+00
      9   0.881156D-01 -0.154243D+00 -0.832113D+00 -0.601545D-01  0.725397D-01
     10   0.142795D+01 -0.208896D+00  0.341436D+00 -0.923326D-01  0.220696D+00
     11  -0.151056D+00  0.156103D-01 -0.336734D-01  0.121283D+01 -0.345462D+00
     12   0.242356D+00 -0.122553D-01  0.443668D-01 -0.163566D+00  0.338859D+00
     13  -0.113203D-01  0.178166D-02  0.185884D-02  0.559330D-01 -0.106391D-01
     14   0.443555D+00  0.218774D-01  0.638317D-01  0.446764D+00 -0.169309D-01
     15  -0.246018D-01  0.248788D-01  0.517487D-01  0.317573D+00 -0.124289D+00
     16   0.111260D+00 -0.727266D-01  0.431703D-01  0.974643D-01 -0.241724D-01
                 6 
      1  -0.633110D+03
      2   0.506807D-01
      3  -0.219017D+00
      4   0.456243D-01
      5  -0.468848D-02
      6   0.442700D-01
      7  -0.291288D-01
      8   0.180592D+00
      9   0.262331D-01
     10  -0.314758D-01
     11   0.171936D+00
     12   0.147129D+00
     13  -0.132837D+00
     14  -0.589246D-01
     15   0.252989D-01
     16   0.192897D+00
 1\1\GINC-CN012\SP\RCAM-B3LYP TD-FC\TZVP\C11H15N1O2\WYX\24-Jan-2026\0\\
 #p CAM-B3LYP TZVP em=gd3bj td(Eqsolv,nstates=6,root=1) scrf=(Solvent=W
 ater) Geom=Check Guess=Read\\Title Card Required\\0,1\O,0,2.707335,-1.
 559688,0.905597\O,0,-3.328702,-1.669399,-0.836778\N,0,-0.674316,1.5170
 27,-0.112959\H,0,-0.982718,2.479016,-0.184466\C,0,-1.253986,-0.765742,
 -0.180897\C,0,0.644853,1.345678,0.177607\C,0,-1.631246,0.585419,-0.311
 191\C,0,-2.169531,-1.855927,-0.437564\C,0,0.12779,-1.073187,0.231954\H
 ,0,0.108455,-1.545463,1.2339\H,0,0.541399,-1.890298,-0.37221\C,0,1.108
 918,0.027111,0.29801\C,0,2.475527,-0.397592,0.533021\C,0,-2.993593,1.1
 0838,-0.621\H,0,-3.002488,2.197746,-0.571638\H,0,-3.320074,0.802622,-1
 .613696\H,0,-3.72996,0.721503,0.081375\C,0,-1.688219,-3.277637,-0.2510
 5\H,0,-2.558289,-3.921136,-0.142692\H,0,-1.133713,-3.604387,-1.134824\
 H,0,-1.038064,-3.408115,0.611936\C,0,3.650219,0.51882,0.29137\H,0,3.47
 5998,1.244229,-0.498592\H,0,3.907902,1.06241,1.203199\H,0,4.504062,-0.
 101335,0.024742\C,0,1.415248,2.609986,0.376188\H,0,2.10103,2.526687,1.
 21602\H,0,1.998767,2.886416,-0.504489\H,0,0.73741,3.436855,0.589133\\V
 ersion=ES64L-G16RevA.03\State=1-A\HF=-633.3208262\RMSD=3.651e-09\PG=C0
 1 [X(C11H15N1O2)]\\@


 NOTHING RESEMBLES A NEW PHENOMENON AS MUCH AS A MISTAKE.

                               -- ENRICO FERMI (?)
 Job cpu time:       0 days  0 hours 31 minutes  1.4 seconds.
 Elapsed time:       0 days  0 hours  1 minutes 57.2 seconds.
 File lengths (MBytes):  RWF=    734 Int=      0 D2E=      0 Chk=     67 Scr=      1
 Normal termination of Gaussian 16 at Sat Jan 24 15:25:25 2026.
