 Entering Gaussian System, Link 0=g16
 Input=DDL-S2-cLR-gs-11.gjf
 Output=DDL-S2-cLR-gs-11.log
 Initial command:
 /data/home/wyx/g16/l1.exe "/scr/tmp/wyx/13117/Gau-2034882.inp" -scrdir="/scr/tmp/wyx/13117/"
 Entering Link 1 = /data/home/wyx/g16/l1.exe PID=   2034883.
  
 Copyright (c) 1988,1990,1992,1993,1995,1998,2003,2009,2016,
            Gaussian, Inc.  All Rights Reserved.
  
 This is part of the Gaussian(R) 16 program.  It is based on
 the Gaussian(R) 09 system (copyright 2009, Gaussian, Inc.),
 the Gaussian(R) 03 system (copyright 2003, Gaussian, Inc.),
 the Gaussian(R) 98 system (copyright 1998, Gaussian, Inc.),
 the Gaussian(R) 94 system (copyright 1995, Gaussian, Inc.),
 the Gaussian 92(TM) system (copyright 1992, Gaussian, Inc.),
 the Gaussian 90(TM) system (copyright 1990, Gaussian, Inc.),
 the Gaussian 88(TM) system (copyright 1988, Gaussian, Inc.),
 the Gaussian 86(TM) system (copyright 1986, Carnegie Mellon
 University), and the Gaussian 82(TM) system (copyright 1983,
 Carnegie Mellon University). Gaussian is a federally registered
 trademark of Gaussian, Inc.
  
 This software contains proprietary and confidential information,
 including trade secrets, belonging to Gaussian, Inc.
  
 This software is provided under written license and may be
 used, copied, transmitted, or stored only in accord with that
 written license.
  
 The following legend is applicable only to US Government
 contracts under FAR:
  
                    RESTRICTED RIGHTS LEGEND
  
 Use, reproduction and disclosure by the US Government is
 subject to restrictions as set forth in subparagraphs (a)
 and (c) of the Commercial Computer Software - Restricted
 Rights clause in FAR 52.227-19.
  
 Gaussian, Inc.
 340 Quinnipiac St., Bldg. 40, Wallingford CT 06492
  
  
 ---------------------------------------------------------------
 Warning -- This program may not be used in any manner that
 competes with the business of Gaussian, Inc. or will provide
 assistance to any competitor of Gaussian, Inc.  The licensee
 of this program is prohibited from giving any competitor of
 Gaussian, Inc. access to this program.  By using this program,
 the user acknowledges that Gaussian, Inc. is engaged in the
 business of creating and licensing software in the field of
 computational chemistry and represents and warrants to the
 licensee that it is not a competitor of Gaussian, Inc. and that
 it will not use this program in any manner prohibited above.
 ---------------------------------------------------------------
  

 Cite this work as:
 Gaussian 16, Revision A.03,
 M. J. Frisch, G. W. Trucks, H. B. Schlegel, G. E. Scuseria, 
 M. A. Robb, J. R. Cheeseman, G. Scalmani, V. Barone, 
 G. A. Petersson, H. Nakatsuji, X. Li, M. Caricato, A. V. Marenich, 
 J. Bloino, B. G. Janesko, R. Gomperts, B. Mennucci, H. P. Hratchian, 
 J. V. Ortiz, A. F. Izmaylov, J. L. Sonnenberg, D. Williams-Young, 
 F. Ding, F. Lipparini, F. Egidi, J. Goings, B. Peng, A. Petrone, 
 T. Henderson, D. Ranasinghe, V. G. Zakrzewski, J. Gao, N. Rega, 
 G. Zheng, W. Liang, M. Hada, M. Ehara, K. Toyota, R. Fukuda, 
 J. Hasegawa, M. Ishida, T. Nakajima, Y. Honda, O. Kitao, H. Nakai, 
 T. Vreven, K. Throssell, J. A. Montgomery, Jr., J. E. Peralta, 
 F. Ogliaro, M. J. Bearpark, J. J. Heyd, E. N. Brothers, K. N. Kudin, 
 V. N. Staroverov, T. A. Keith, R. Kobayashi, J. Normand, 
 K. Raghavachari, A. P. Rendell, J. C. Burant, S. S. Iyengar, 
 J. Tomasi, M. Cossi, J. M. Millam, M. Klene, C. Adamo, R. Cammi, 
 J. W. Ochterski, R. L. Martin, K. Morokuma, O. Farkas, 
 J. B. Foresman, and D. J. Fox, Gaussian, Inc., Wallingford CT, 2016.
 
 ******************************************
 Gaussian 16:  ES64L-G16RevA.03 25-Dec-2016
                24-Jan-2026 
 ******************************************
 %nprocshared=16
 Will use up to   16 processors via shared memory.
 %mem=16GB
 %oldchk=DDL-S2-cLR-11.chk
 %chk=DDL-S2-cLR-gs-11.chk
 Copying data from "DDL-S2-cLR-11.chk" to current chk file "DDL-S2-cLR-gs-11.chk"
 IOpt=  2 FromEx=T IUOpen= 4 IOptOp= 5 NList=   0 IFRang= 0 IUIn= 4 IUOut= 2.
 ----------------------------------------------------------------------
 #p CAM-B3LYP TZVP em=gd3bj scrf=(Solvent=Water,NonEquilibrium=Read) Ge
 om=Check Guess=Read
 ----------------------------------------------------------------------
 1/29=2,38=1,172=1/1;
 2/12=2,40=1/2;
 3/5=19,7=101,11=2,14=-4,25=1,30=1,70=6002201,72=1,74=-40,116=-2,124=41/1,2,3;
 4/5=1/1;
 5/5=2,38=6,53=1/2;
 6/7=2,8=2,9=2,10=2,28=1/1;
 99/5=1,9=1/99;
 Leave Link    1 at Sat Jan 24 23:06:54 2026, MaxMem=  2147483648 cpu:               1.4 elap:               0.2
 (Enter /data/home/wyx/g16/l101.exe)
 -------------------
 Title Card Required
 -------------------
 Structure from the checkpoint file:  "DDL-S2-cLR-gs-11.chk"
 Charge =  0 Multiplicity = 1
 Z-Matrix found in chk file.
 O,0,2.736562,-1.558765,0.782724
 O,0,-3.25261,-1.647715,-1.041378
 N,0,-0.701254,1.514567,0.064713
 H,0,-1.009553,2.473113,0.003872
 C,0,-1.249814,-0.759996,-0.159153
 C,0,0.641843,1.311891,0.256708
 C,0,-1.622369,0.55464,-0.247371
 C,0,-2.155765,-1.839887,-0.520997
 C,0,0.104613,-1.09751,0.383577
 H,0,0.017221,-1.457881,1.419476
 H,0,0.529152,-1.948457,-0.149567
 C,0,1.097202,0.025506,0.344498
 C,0,2.488014,-0.392151,0.475172
 C,0,-2.953268,1.090107,-0.648155
 H,0,-3.030675,2.151849,-0.425167
 H,0,-3.120866,0.955123,-1.713222
 H,0,-3.756516,0.566584,-0.143732
 C,0,-1.716646,-3.2539,-0.25212
 H,0,-2.562582,-3.923713,-0.357175
 H,0,-0.953131,-3.556904,-0.966656
 H,0,-1.286909,-3.373223,0.738368
 C,0,3.647841,0.534095,0.20527
 H,0,3.455008,1.238579,-0.599248
 H,0,3.897516,1.102135,1.103333
 H,0,4.509131,-0.07932,-0.049751
 C,0,1.416781,2.586009,0.355855
 H,0,2.220966,2.519656,1.077988
 H,0,1.845994,2.865882,-0.605873
 H,0,0.764112,3.399688,0.66801
 Recover connectivity data from disk.
 ITRead=  0  0  0  0  0  0  0  0  0  0  0  0  0  0  0  0  0  0  0  0
 ITRead=  0  0  0  0  0  0  0  0  0
 MicOpt= -1 -1 -1 -1 -1 -1 -1 -1 -1 -1 -1 -1 -1 -1 -1 -1 -1 -1 -1 -1
 MicOpt= -1 -1 -1 -1 -1 -1 -1 -1 -1
 NAtoms=     29 NQM=       29 NQMF=       0 NMMI=      0 NMMIF=      0
                NMic=       0 NMicF=      0.
                    Isotopes and Nuclear Properties:
 (Nuclear quadrupole moments (NQMom) in fm**2, nuclear magnetic moments (NMagM)
  in nuclear magnetons)

  Atom         1           2           3           4           5           6           7           8           9          10
 IAtWgt=          16          16          14           1          12          12          12          12          12           1
 AtmWgt=  15.9949146  15.9949146  14.0030740   1.0078250  12.0000000  12.0000000  12.0000000  12.0000000  12.0000000   1.0078250
 NucSpn=           0           0           2           1           0           0           0           0           0           1
 AtZEff=   5.6000000   5.6000000   4.5500000   1.0000000   3.6000000   3.6000000   3.6000000   3.6000000   3.6000000   1.0000000
 NQMom=    0.0000000   0.0000000   2.0440000   0.0000000   0.0000000   0.0000000   0.0000000   0.0000000   0.0000000   0.0000000
 NMagM=    0.0000000   0.0000000   0.4037610   2.7928460   0.0000000   0.0000000   0.0000000   0.0000000   0.0000000   2.7928460
 AtZNuc=   8.0000000   8.0000000   7.0000000   1.0000000   6.0000000   6.0000000   6.0000000   6.0000000   6.0000000   1.0000000

  Atom        11          12          13          14          15          16          17          18          19          20
 IAtWgt=           1          12          12          12           1           1           1          12           1           1
 AtmWgt=   1.0078250  12.0000000  12.0000000  12.0000000   1.0078250   1.0078250   1.0078250  12.0000000   1.0078250   1.0078250
 NucSpn=           1           0           0           0           1           1           1           0           1           1
 AtZEff=   1.0000000   3.6000000   3.6000000   3.6000000   1.0000000   1.0000000   1.0000000   3.6000000   1.0000000   1.0000000
 NQMom=    0.0000000   0.0000000   0.0000000   0.0000000   0.0000000   0.0000000   0.0000000   0.0000000   0.0000000   0.0000000
 NMagM=    2.7928460   0.0000000   0.0000000   0.0000000   2.7928460   2.7928460   2.7928460   0.0000000   2.7928460   2.7928460
 AtZNuc=   1.0000000   6.0000000   6.0000000   6.0000000   1.0000000   1.0000000   1.0000000   6.0000000   1.0000000   1.0000000

  Atom        21          22          23          24          25          26          27          28          29
 IAtWgt=           1          12           1           1           1          12           1           1           1
 AtmWgt=   1.0078250  12.0000000   1.0078250   1.0078250   1.0078250  12.0000000   1.0078250   1.0078250   1.0078250
 NucSpn=           1           0           1           1           1           0           1           1           1
 AtZEff=   1.0000000   3.6000000   1.0000000   1.0000000   1.0000000   3.6000000   1.0000000   1.0000000   1.0000000
 NQMom=    0.0000000   0.0000000   0.0000000   0.0000000   0.0000000   0.0000000   0.0000000   0.0000000   0.0000000
 NMagM=    2.7928460   0.0000000   2.7928460   2.7928460   2.7928460   0.0000000   2.7928460   2.7928460   2.7928460
 AtZNuc=   1.0000000   6.0000000   1.0000000   1.0000000   1.0000000   6.0000000   1.0000000   1.0000000   1.0000000
 Leave Link  101 at Sat Jan 24 23:06:57 2026, MaxMem=  2147483648 cpu:               0.9 elap:               0.1
 (Enter /data/home/wyx/g16/l202.exe)
                          Input orientation:                          
 ---------------------------------------------------------------------
 Center     Atomic      Atomic             Coordinates (Angstroms)
 Number     Number       Type             X           Y           Z
 ---------------------------------------------------------------------
      1          8           0        2.736562   -1.558765    0.782724
      2          8           0       -3.252610   -1.647715   -1.041378
      3          7           0       -0.701254    1.514567    0.064713
      4          1           0       -1.009553    2.473113    0.003872
      5          6           0       -1.249814   -0.759996   -0.159153
      6          6           0        0.641843    1.311891    0.256708
      7          6           0       -1.622369    0.554640   -0.247371
      8          6           0       -2.155765   -1.839887   -0.520997
      9          6           0        0.104613   -1.097510    0.383577
     10          1           0        0.017221   -1.457881    1.419476
     11          1           0        0.529152   -1.948457   -0.149567
     12          6           0        1.097202    0.025506    0.344498
     13          6           0        2.488014   -0.392151    0.475172
     14          6           0       -2.953268    1.090107   -0.648155
     15          1           0       -3.030675    2.151849   -0.425167
     16          1           0       -3.120866    0.955123   -1.713222
     17          1           0       -3.756516    0.566584   -0.143732
     18          6           0       -1.716646   -3.253900   -0.252120
     19          1           0       -2.562582   -3.923713   -0.357175
     20          1           0       -0.953131   -3.556904   -0.966656
     21          1           0       -1.286909   -3.373223    0.738368
     22          6           0        3.647841    0.534095    0.205270
     23          1           0        3.455008    1.238579   -0.599248
     24          1           0        3.897516    1.102135    1.103333
     25          1           0        4.509131   -0.079320   -0.049751
     26          6           0        1.416781    2.586009    0.355855
     27          1           0        2.220966    2.519656    1.077988
     28          1           0        1.845994    2.865882   -0.605873
     29          1           0        0.764112    3.399688    0.668010
 ---------------------------------------------------------------------
                    Distance matrix (angstroms):
                    1          2          3          4          5
     1  O    0.000000
     2  O    6.261425   0.000000
     3  N    4.666850   4.211043   0.000000
     4  H    5.558420   4.806774   1.008742   0.000000
     5  C    4.173291   2.361685   2.350462   3.246120   0.000000
     6  C    3.592382   5.060737   1.371805   2.034569   2.836199
     7  C    4.952561   2.852806   1.366495   2.029583   1.369251
     8  C    5.070856   1.229144   3.702839   4.493468   1.455281
     9  C    2.701709   3.688383   2.752098   3.759640   1.497646
    10  H    2.794718   4.096783   3.344703   4.302431   2.141142
    11  H    2.427691   3.897114   3.681352   4.684169   2.139451
    12  C    2.321521   4.862220   2.351601   3.247341   2.525700
    13  C    1.231809   6.068866   3.738379   4.545859   3.809073
    14  C    6.437243   2.782067   2.399982   2.473029   2.561984
    15  H    6.963381   3.855601   2.464206   2.090985   3.423605
    16  H    6.845352   2.691374   3.054268   3.116143   2.976172
    17  H    6.894599   2.441886   3.205737   3.347005   2.836125
    18  C    4.876007   2.358377   4.885661   5.776174   2.538923
    19  H    5.913821   2.474760   5.763456   6.592544   3.430988
    20  H    4.546067   2.989681   5.181407   6.107881   2.926222
    21  H    4.413904   3.163677   4.968631   5.898818   2.763309
    22  C    2.354558   7.343749   4.460461   5.048928   5.078829
    23  H    3.201741   7.315621   4.218000   4.671203   5.130627
    24  H    2.920786   7.955235   4.732602   5.212266   5.617509
    25  H    2.454338   7.980464   5.449926   6.080597   5.800063
    26  C    4.370720   6.455997   2.391406   2.454330   4.309491
    27  H    4.121473   7.198523   3.252122   3.404724   4.932844
    28  H    4.722162   6.823341   2.960441   2.946219   4.788588
    29  H    5.337600   6.673256   2.462711   2.108437   4.695005
                    6          7          8          9         10
     6  C    0.000000
     7  C    2.440119   0.000000
     8  C    4.285457   2.468429   0.000000
     9  C    2.471826   2.471874   2.545326   0.000000
    10  H    3.068195   3.084943   2.938236   1.100269   0.000000
    11  H    3.287496   3.302136   2.712660   1.090223   1.721811
    12  C    1.367423   2.833083   3.848450   1.499308   2.126587
    13  C    2.521871   4.279454   4.965176   2.487272   2.851720
    14  C    3.713864   1.489512   3.039251   3.898817   4.426189
    15  H    3.828560   2.136823   4.087616   4.587203   5.071738
    16  H    4.262146   2.134151   3.188244   4.360457   5.048166
    17  H    4.478995   2.136695   2.914762   4.237403   4.558856
    18  C    5.164090   3.809710   1.504843   2.893288   3.004366
    19  H    6.169015   4.577303   2.129476   3.956016   3.986502
    20  H    5.267421   4.227298   2.143149   2.998428   3.322816
    21  H    5.089437   4.063536   2.166109   2.690925   2.415201
    22  C    3.105420   5.289652   6.312297   3.904919   4.315515
    23  H    2.941417   5.135304   6.400301   4.201000   4.812954
    24  H    3.370486   5.709053   6.923594   4.443265   4.659433
    25  H    4.121323   6.167354   6.909595   4.541394   4.923039
    26  C    1.494569   3.704966   5.755042   3.910354   4.409434
    27  H    2.151006   4.515428   6.381077   4.247946   4.560034
    28  H    2.146838   4.183289   6.177827   4.440709   5.112864
    29  H    2.131435   3.824593   6.114946   4.554188   4.971773
                   11         12         13         14         15
    11  H    0.000000
    12  C    2.112655   0.000000
    13  C    2.578668   1.458037   0.000000
    14  C    4.648517   4.304073   5.750348   0.000000
    15  H    5.436987   4.706707   6.143165   1.087663   0.000000
    16  H    4.919189   4.784401   6.169583   1.086590   1.760504
    17  H    4.969146   4.908127   6.347942   1.083386   1.766102
    18  C    2.599674   4.362132   5.137872   4.533925   5.565855
    19  H    3.674719   5.429797   6.218782   5.037429   6.093947
    20  H    2.334930   4.330895   4.892444   5.069191   6.099120
    21  H    2.473149   4.170189   4.817272   4.961906   5.909395
    22  C    4.001899   2.604574   1.508634   6.679231   6.900518
    23  H    4.349718   2.814507   2.179159   6.410182   6.551981
    24  H    4.713995   3.094627   2.148063   7.071145   7.172032
    25  H    4.398167   3.436231   2.111474   7.577140   7.871958
    26  C    4.648088   2.580394   3.167209   4.726847   4.536337
    27  H    4.932865   2.832250   2.985519   5.638783   5.474896
    28  H    5.012000   3.087334   3.492224   5.117429   4.931977
    29  H    5.415376   3.405982   4.169780   4.570051   4.141563
                   16         17         18         19         20
    16  H    0.000000
    17  H    1.737329   0.000000
    18  C    4.671459   4.332311   0.000000
    19  H    5.094466   4.651215   1.084110   0.000000
    20  H    5.061109   5.053645   1.088728   1.759644   0.000000
    21  H    5.301723   4.732773   1.086268   1.769349   1.747070
    22  C    7.047927   7.412649   6.582996   7.665360   6.267266
    23  H    6.675583   7.257076   6.859218   7.932165   6.524058
    24  H    7.563880   7.773429   7.234024   8.314150   7.037064
    25  H    7.877440   8.291378   6.991367   8.054998   6.539924
    26  C    5.247010   5.575900   6.655264   7.662912   6.715720
    27  H    6.226860   6.406043   7.113925   8.152241   7.154023
    28  H    5.435708   6.073587   7.090083   8.099135   7.015515
    29  H    5.170998   5.396432   7.160379   8.108644   7.349505
                   21         22         23         24         25
    21  H    0.000000
    22  C    6.316889   0.000000
    23  H    6.748608   1.086615   0.000000
    24  H    6.858593   1.091570   1.764430   0.000000
    25  H    6.713048   1.087720   1.774818   1.760543   0.000000
    26  C    6.555052   3.034906   2.623387   2.985741   4.102575
    27  H    6.866335   2.596163   2.444819   2.195638   3.641726
    28  H    7.109747   3.056442   2.288468   3.200145   4.009462
    29  H    7.077002   4.091655   3.676582   3.909792   5.161768
                   26         27         28         29
    26  C    0.000000
    27  H    1.082863   0.000000
    28  H    1.089713   1.759507   0.000000
    29  H    1.088803   1.750703   1.754479   0.000000
 Stoichiometry    C11H15NO2
 Framework group  C1[X(C11H15NO2)]
 Deg. of freedom    81
 Full point group                 C1      NOp   1
 RotChk:  IX=0 Diff= 1.29D-15
 Largest Abelian subgroup         C1      NOp   1
 Largest concise Abelian subgroup C1      NOp   1
                         Standard orientation:                         
 ---------------------------------------------------------------------
 Center     Atomic      Atomic             Coordinates (Angstroms)
 Number     Number       Type             X           Y           Z
 ---------------------------------------------------------------------
      1          8           0       -2.287429   -2.282339   -0.210980
      2          8           0        3.603005   -0.250865    0.406544
      3          7           0       -0.025233    1.799544   -0.197270
      4          1           0       -0.054489    2.807842   -0.203474
      5          6           0        1.292829   -0.142534   -0.071898
      6          6           0       -1.231191    1.150091   -0.121596
      7          6           0        1.207172    1.224022   -0.065887
      8          6           0        2.560963   -0.832375    0.111944
      9          6           0        0.058230   -0.947728   -0.337176
     10          1           0        0.072350   -1.332036   -1.368049
     11          1           0        0.051920   -1.850749    0.273643
     12          6           0       -1.231460   -0.217292   -0.111149
     13          6           0       -2.397421   -1.080412    0.035241
     14          6           0        2.327102    2.197480    0.063648
     15          1           0        1.998055    3.206022   -0.176317
     16          1           0        2.721551    2.202343    1.076103
     17          1           0        3.154069    1.934957   -0.585146
     18          6           0        2.585957   -2.327424   -0.057632
     19          1           0        3.612927   -2.669756   -0.116243
     20          1           0        2.114088   -2.814265    0.794221
     21          1           0        2.049335   -2.653048   -0.944189
     22          6           0       -3.732732   -0.573966    0.521486
     23          1           0       -3.646988    0.210347    1.268635
     24          1           0       -4.319303   -0.186643   -0.313643
     25          1           0       -4.273336   -1.418163    0.943639
     26          6           0       -2.396382    2.084893   -0.074579
     27          1           0       -3.247694    1.704264   -0.625017
     28          1           0       -2.712230    2.274896    0.950902
     29          1           0       -2.126622    3.044277   -0.513103
 ---------------------------------------------------------------------
 Rotational constants (GHZ):           1.0785292           0.4907459           0.3458300
 Leave Link  202 at Sat Jan 24 23:06:57 2026, MaxMem=  2147483648 cpu:               0.0 elap:               0.0
 (Enter /data/home/wyx/g16/l301.exe)
 Standard basis: TZVP (5D, 7F)
 Ernie: Thresh=  0.10000D-02 Tol=  0.10000D-05 Strict=F.
 There are   370 symmetry adapted cartesian basis functions of A   symmetry.
 There are   356 symmetry adapted basis functions of A   symmetry.
   356 basis functions,   610 primitive gaussians,   370 cartesian basis functions
    52 alpha electrons       52 beta electrons
       nuclear repulsion energy       900.7179841103 Hartrees.
 IExCor=20419 DFT=T Ex+Corr=CAM-B3LYP ExCW=0 ScaHFX=  1.000000
 ScaDFX=  1.000000  1.000000  1.000000  0.810000 ScalE2=  1.000000  1.000000
 IRadAn=      5 IRanWt=     -1 IRanGd=            0 ICorTp=0 IEmpDi=141
 HFx  wShort=  0.000000 wLong=  0.330000 cFull=  0.190000 cShort=  0.000000 cLong=  0.460000
 DFx  wShort=  0.000000 wLong=  0.330000 cFull=  0.190000 cShort=  0.000000 cLong=  0.460000
 NAtoms=   29 NActive=   29 NUniq=   29 SFac= 1.00D+00 NAtFMM=   60 NAOKFM=F Big=F
 Integral buffers will be    131072 words long.
 Raffenetti 2 integral format.
 Two-electron integral symmetry is turned on.
 R6Disp:  Grimme-D3(BJ) Dispersion energy=       -0.0261959394 Hartrees.
 Nuclear repulsion after empirical dispersion term =      900.6917881709 Hartrees.
 ------------------------------------------------------------------------------
 Polarizable Continuum Model (PCM)
 =================================
 Model                : PCM.
 Atomic radii         : UFF (Universal Force Field).
 Polarization charges : Total charges.
 Charge compensation  : None.
 Solution method      : On-the-fly selection.
 Cavity type          : Scaled VdW (van der Waals Surface) (Alpha=1.100).
 Cavity algorithm     : GePol (No added spheres)
                        Default sphere list used, NSphG=   29.
                        Lebedev-Laikov grids with approx.  5.0 points / Ang**2.
                        Smoothing algorithm: York/Karplus (Gamma=1.0000).
                        Polarization charges: spherical gaussians, with
                                              point-specific exponents (IZeta= 3).
                        Self-potential: point-specific (ISelfS= 7).
                        Self-field    : sphere-specific E.n sum rule (ISelfD= 2).
 Solvent              : Water, Eps=  78.355300 Eps(inf)=   1.777849
 ------------------------------------------------------------------------------
 GePol: Number of generator spheres                  =      29
 GePol: Total number of spheres                      =      29
 GePol: Number of exposed spheres                    =      29 (100.00%)
 GePol: Number of points                             =    2111
 GePol: Average weight of points                     =       0.13
 GePol: Minimum weight of points                     =   0.10D-10
 GePol: Maximum weight of points                     =    0.20577
 GePol: Number of points with low weight             =     145
 GePol: Fraction of low-weight points (<1% of avg)   =       6.87%
 GePol: Cavity surface area                          =    268.547 Ang**2
 GePol: Cavity volume                                =    286.634 Ang**3
 Leave Link  301 at Sat Jan 24 23:06:57 2026, MaxMem=  2147483648 cpu:               0.6 elap:               0.0
 (Enter /data/home/wyx/g16/l302.exe)
 NPDir=0 NMtPBC=     1 NCelOv=     1 NCel=       1 NClECP=     1 NCelD=      1
         NCelK=      1 NCelE2=     1 NClLst=     1 CellRange=     0.0.
 One-electron integrals computed using PRISM.
 One-electron integral symmetry used in STVInt
 NBasis=   356 RedAO= T EigKep=  4.68D-05  NBF=   356
 NBsUse=   356 1.00D-06 EigRej= -1.00D+00 NBFU=   356
 Precomputing XC quadrature grid using
 IXCGrd= 4 IRadAn=           5 IRanWt=          -1 IRanGd=           0 AccXCQ= 0.00D+00.
 Generated NRdTot=       0 NPtTot=           0 NUsed=           0 NTot=          32
 NSgBfM=   366   366   366   366   366 MxSgAt=    29 MxSgA2=    29.
 Leave Link  302 at Sat Jan 24 23:06:57 2026, MaxMem=  2147483648 cpu:               3.1 elap:               0.2
 (Enter /data/home/wyx/g16/l303.exe)
 DipDrv:  MaxL=1.
 Leave Link  303 at Sat Jan 24 23:06:58 2026, MaxMem=  2147483648 cpu:               0.6 elap:               0.0
 (Enter /data/home/wyx/g16/l401.exe)
 Initial guess from the checkpoint file:  "DDL-S2-cLR-gs-11.chk"
 B after Tr=    -0.000000   -0.000000   -0.000000
         Rot=    1.000000   -0.000000   -0.000000   -0.000000 Ang=   0.00 deg.
 Guess basis will be translated and rotated to current coordinates.
 JPrj=2 DoOrth=T DoCkMO=T.
 Leave Link  401 at Sat Jan 24 23:06:58 2026, MaxMem=  2147483648 cpu:               2.2 elap:               0.2
 (Enter /data/home/wyx/g16/l502.exe)
 Integral symmetry usage will be decided dynamically.
 Closed shell SCF:
 Using DIIS extrapolation, IDIIS=  1040.
 NGot=  2147483648 LenX=  2147200095 LenY=  2147062754
 Requested convergence on RMS density matrix=1.00D-08 within 128 cycles.
 Requested convergence on MAX density matrix=1.00D-06.
 Requested convergence on             energy=1.00D-06.
 No special actions if energy rises.
 Fock matrices will be formed incrementally for  20 cycles.

 Cycle   1  Pass 1  IDiag  1:
 FoFJK:  IHMeth= 1 ICntrl=       0 DoSepK=T KAlg= 0 I1Cent=           0 FoldK=F
 IRaf=         1 NMat=       1 IRICut=       1 DoRegI=T DoRafI=F ISym2E= 0 IDoP0=0 IntGTp=1.
 FoFCou: FMM=F IPFlag=           0 FMFlag=      100000 FMFlg1=           0
         NFxFlg=           0 DoJE=T BraDBF=F KetDBF=F FulRan=T
         wScrn=  0.000000 ICntrl=       500 IOpCl=  0 I1Cent=           0 NGrid=           0
         NMat0=    1 NMatS0=      1 NMatT0=    0 NMatD0=    1 NMtDS0=    0 NMtDT0=    0
 Symmetry not used in FoFCou.
 Inv3:  Mode=1 IEnd=    13368963.
 Iteration    1 A*A^-1 deviation from unit magnitude is 3.77D-15 for   1242.
 Iteration    1 A*A^-1 deviation from orthogonality  is 1.78D-15 for   2034   1571.
 Iteration    1 A^-1*A deviation from unit magnitude is 3.33D-15 for    690.
 Iteration    1 A^-1*A deviation from orthogonality  is 2.65D-15 for   1715    508.
 NEqPCM:  Using non-equilibrium solvation (IEInf=1, Eps=  78.3553, EpsInf=   1.7778)
 Inv3:  Mode=1 IEnd=    13368963.
 Iteration    1 A*A^-1 deviation from unit magnitude is 3.33D-15 for   1215.
 Iteration    1 A*A^-1 deviation from orthogonality  is 1.78D-15 for   1947    312.
 Iteration    1 A^-1*A deviation from unit magnitude is 3.11D-15 for    500.
 Iteration    1 A^-1*A deviation from orthogonality  is 2.48D-15 for   1542   1132.
 E= -633.328761323616    
 DIIS: error= 7.56D-04 at cycle   1 NSaved=   1.
 NSaved= 1 IEnMin= 1 EnMin= -633.328761323616     IErMin= 1 ErrMin= 7.56D-04
 ErrMax= 7.56D-04  0.00D+00 EMaxC= 1.00D-01 BMatC= 1.25D-04 BMatP= 1.25D-04
 IDIUse=3 WtCom= 9.92D-01 WtEn= 7.56D-03
 Coeff-Com:  0.100D+01
 Coeff-En:   0.100D+01
 Coeff:      0.100D+01
 Gap=     0.232 Goal=   None    Shift=    0.000
 RMSDP=4.49D-04 MaxDP=2.44D-02              OVMax= 1.26D-02

 Cycle   2  Pass 1  IDiag  1:
 RMSU=  4.46D-04    CP:  1.00D+00
 E= -633.328985400481     Delta-E=       -0.000224076865 Rises=F Damp=F
 DIIS: error= 5.33D-04 at cycle   2 NSaved=   2.
 NSaved= 2 IEnMin= 2 EnMin= -633.328985400481     IErMin= 2 ErrMin= 5.33D-04
 ErrMax= 5.33D-04  0.00D+00 EMaxC= 1.00D-01 BMatC= 1.22D-04 BMatP= 1.25D-04
 IDIUse=3 WtCom= 9.95D-01 WtEn= 5.33D-03
 Coeff-Com:  0.496D+00 0.504D+00
 Coeff-En:   0.000D+00 0.100D+01
 Coeff:      0.493D+00 0.507D+00
 Gap=     0.232 Goal=   None    Shift=    0.000
 RMSDP=1.22D-04 MaxDP=6.38D-03 DE=-2.24D-04 OVMax= 2.88D-03

 Cycle   3  Pass 1  IDiag  1:
 RMSU=  1.13D-04    CP:  1.00D+00  9.69D-01
 E= -633.329080671718     Delta-E=       -0.000095271237 Rises=F Damp=F
 DIIS: error= 2.07D-04 at cycle   3 NSaved=   3.
 NSaved= 3 IEnMin= 3 EnMin= -633.329080671718     IErMin= 3 ErrMin= 2.07D-04
 ErrMax= 2.07D-04  0.00D+00 EMaxC= 1.00D-01 BMatC= 1.59D-05 BMatP= 1.22D-04
 IDIUse=3 WtCom= 9.98D-01 WtEn= 2.07D-03
 Coeff-Com:  0.694D-01 0.244D+00 0.687D+00
 Coeff-En:   0.000D+00 0.000D+00 0.100D+01
 Coeff:      0.693D-01 0.243D+00 0.688D+00
 Gap=     0.232 Goal=   None    Shift=    0.000
 RMSDP=3.22D-05 MaxDP=1.59D-03 DE=-9.53D-05 OVMax= 1.75D-03

 Cycle   4  Pass 1  IDiag  1:
 RMSU=  2.52D-05    CP:  1.00D+00  9.87D-01  1.16D+00
 E= -633.329094018402     Delta-E=       -0.000013346684 Rises=F Damp=F
 DIIS: error= 7.42D-05 at cycle   4 NSaved=   4.
 NSaved= 4 IEnMin= 4 EnMin= -633.329094018402     IErMin= 4 ErrMin= 7.42D-05
 ErrMax= 7.42D-05  0.00D+00 EMaxC= 1.00D-01 BMatC= 1.22D-06 BMatP= 1.59D-05
 IDIUse=1 WtCom= 1.00D+00 WtEn= 0.00D+00
 Coeff-Com: -0.119D-01 0.210D-01 0.210D+00 0.781D+00
 Coeff:     -0.119D-01 0.210D-01 0.210D+00 0.781D+00
 Gap=     0.232 Goal=   None    Shift=    0.000
 RMSDP=2.16D-05 MaxDP=1.11D-03 DE=-1.33D-05 OVMax= 1.07D-03

 Cycle   5  Pass 1  IDiag  1:
 RMSU=  1.15D-05    CP:  1.00D+00  9.98D-01  1.31D+00  1.07D+00
 E= -633.329095724480     Delta-E=       -0.000001706078 Rises=F Damp=F
 DIIS: error= 2.48D-05 at cycle   5 NSaved=   5.
 NSaved= 5 IEnMin= 5 EnMin= -633.329095724480     IErMin= 5 ErrMin= 2.48D-05
 ErrMax= 2.48D-05  0.00D+00 EMaxC= 1.00D-01 BMatC= 3.36D-07 BMatP= 1.22D-06
 IDIUse=1 WtCom= 1.00D+00 WtEn= 0.00D+00
 Coeff-Com: -0.134D-01-0.293D-01-0.272D-02 0.358D+00 0.687D+00
 Coeff:     -0.134D-01-0.293D-01-0.272D-02 0.358D+00 0.687D+00
 Gap=     0.232 Goal=   None    Shift=    0.000
 RMSDP=8.62D-06 MaxDP=3.82D-04 DE=-1.71D-06 OVMax= 4.01D-04

 Cycle   6  Pass 1  IDiag  1:
 RMSU=  3.73D-06    CP:  1.00D+00  9.97D-01  1.36D+00  1.23D+00  1.07D+00
 E= -633.329096233546     Delta-E=       -0.000000509066 Rises=F Damp=F
 DIIS: error= 1.98D-05 at cycle   6 NSaved=   6.
 NSaved= 6 IEnMin= 6 EnMin= -633.329096233546     IErMin= 6 ErrMin= 1.98D-05
 ErrMax= 1.98D-05  0.00D+00 EMaxC= 1.00D-01 BMatC= 3.60D-08 BMatP= 3.36D-07
 IDIUse=1 WtCom= 1.00D+00 WtEn= 0.00D+00
 Coeff-Com: -0.112D-02-0.153D-01-0.247D-01 0.439D-02 0.189D+00 0.848D+00
 Coeff:     -0.112D-02-0.153D-01-0.247D-01 0.439D-02 0.189D+00 0.848D+00
 Gap=     0.232 Goal=   None    Shift=    0.000
 RMSDP=3.87D-06 MaxDP=1.42D-04 DE=-5.09D-07 OVMax= 3.24D-04

 Cycle   7  Pass 1  IDiag  1:
 RMSU=  1.67D-06    CP:  1.00D+00  9.94D-01  1.39D+00  1.31D+00  1.17D+00
                    CP:  1.23D+00
 E= -633.329096334843     Delta-E=       -0.000000101297 Rises=F Damp=F
 DIIS: error= 7.98D-06 at cycle   7 NSaved=   7.
 NSaved= 7 IEnMin= 7 EnMin= -633.329096334843     IErMin= 7 ErrMin= 7.98D-06
 ErrMax= 7.98D-06  0.00D+00 EMaxC= 1.00D-01 BMatC= 1.76D-08 BMatP= 3.60D-08
 IDIUse=1 WtCom= 1.00D+00 WtEn= 0.00D+00
 Coeff-Com:  0.223D-02-0.340D-02-0.824D-02-0.698D-01-0.865D-01 0.437D+00
 Coeff-Com:  0.728D+00
 Coeff:      0.223D-02-0.340D-02-0.824D-02-0.698D-01-0.865D-01 0.437D+00
 Coeff:      0.728D+00
 Gap=     0.232 Goal=   None    Shift=    0.000
 RMSDP=1.79D-06 MaxDP=7.36D-05 DE=-1.01D-07 OVMax= 1.66D-04

 Cycle   8  Pass 1  IDiag  1:
 RMSU=  6.37D-07    CP:  1.00D+00  9.93D-01  1.39D+00  1.34D+00  1.23D+00
                    CP:  1.45D+00  1.11D+00
 E= -633.329096367371     Delta-E=       -0.000000032528 Rises=F Damp=F
 DIIS: error= 2.75D-06 at cycle   8 NSaved=   8.
 NSaved= 8 IEnMin= 8 EnMin= -633.329096367371     IErMin= 8 ErrMin= 2.75D-06
 ErrMax= 2.75D-06  0.00D+00 EMaxC= 1.00D-01 BMatC= 1.72D-09 BMatP= 1.76D-08
 IDIUse=1 WtCom= 1.00D+00 WtEn= 0.00D+00
 Coeff-Com:  0.986D-03 0.502D-03 0.212D-02-0.230D-01-0.758D-01 0.119D-01
 Coeff-Com:  0.241D+00 0.843D+00
 Coeff:      0.986D-03 0.502D-03 0.212D-02-0.230D-01-0.758D-01 0.119D-01
 Coeff:      0.241D+00 0.843D+00
 Gap=     0.232 Goal=   None    Shift=    0.000
 RMSDP=7.56D-07 MaxDP=2.55D-05 DE=-3.25D-08 OVMax= 6.68D-05

 Cycle   9  Pass 1  IDiag  1:
 RMSU=  2.14D-07    CP:  1.00D+00  9.93D-01  1.40D+00  1.35D+00  1.23D+00
                    CP:  1.57D+00  1.30D+00  1.16D+00
 E= -633.329096371434     Delta-E=       -0.000000004063 Rises=F Damp=F
 DIIS: error= 9.60D-07 at cycle   9 NSaved=   9.
 NSaved= 9 IEnMin= 9 EnMin= -633.329096371434     IErMin= 9 ErrMin= 9.60D-07
 ErrMax= 9.60D-07  0.00D+00 EMaxC= 1.00D-01 BMatC= 1.99D-10 BMatP= 1.72D-09
 IDIUse=1 WtCom= 1.00D+00 WtEn= 0.00D+00
 Coeff-Com:  0.486D-04 0.551D-03 0.195D-02 0.329D-02-0.176D-01-0.583D-01
 Coeff-Com: -0.557D-02 0.321D+00 0.754D+00
 Coeff:      0.486D-04 0.551D-03 0.195D-02 0.329D-02-0.176D-01-0.583D-01
 Coeff:     -0.557D-02 0.321D+00 0.754D+00
 Gap=     0.232 Goal=   None    Shift=    0.000
 RMSDP=2.28D-07 MaxDP=1.06D-05 DE=-4.06D-09 OVMax= 2.09D-05

 Cycle  10  Pass 1  IDiag  1:
 RMSU=  9.20D-08    CP:  1.00D+00  9.93D-01  1.40D+00  1.35D+00  1.23D+00
                    CP:  1.60D+00  1.37D+00  1.26D+00  9.98D-01
 E= -633.329096371835     Delta-E=       -0.000000000401 Rises=F Damp=F
 DIIS: error= 2.72D-07 at cycle  10 NSaved=  10.
 NSaved=10 IEnMin=10 EnMin= -633.329096371835     IErMin=10 ErrMin= 2.72D-07
 ErrMax= 2.72D-07  0.00D+00 EMaxC= 1.00D-01 BMatC= 3.79D-11 BMatP= 1.99D-10
 IDIUse=1 WtCom= 1.00D+00 WtEn= 0.00D+00
 Coeff-Com: -0.742D-04 0.270D-03 0.232D-03 0.363D-02 0.147D-02-0.235D-01
 Coeff-Com: -0.260D-01 0.783D-02 0.288D+00 0.748D+00
 Coeff:     -0.742D-04 0.270D-03 0.232D-03 0.363D-02 0.147D-02-0.235D-01
 Coeff:     -0.260D-01 0.783D-02 0.288D+00 0.748D+00
 Gap=     0.232 Goal=   None    Shift=    0.000
 RMSDP=8.01D-08 MaxDP=3.30D-06 DE=-4.01D-10 OVMax= 5.46D-06

 Cycle  11  Pass 1  IDiag  1:
 RMSU=  2.79D-08    CP:  1.00D+00  9.93D-01  1.39D+00  1.35D+00  1.22D+00
                    CP:  1.61D+00  1.39D+00  1.29D+00  1.13D+00  1.12D+00
 E= -633.329096371890     Delta-E=       -0.000000000055 Rises=F Damp=F
 DIIS: error= 1.48D-07 at cycle  11 NSaved=  11.
 NSaved=11 IEnMin=11 EnMin= -633.329096371890     IErMin=11 ErrMin= 1.48D-07
 ErrMax= 1.48D-07  0.00D+00 EMaxC= 1.00D-01 BMatC= 6.81D-12 BMatP= 3.79D-11
 IDIUse=1 WtCom= 1.00D+00 WtEn= 0.00D+00
 Coeff-Com: -0.476D-04 0.803D-04-0.262D-03 0.134D-02 0.371D-02-0.974D-03
 Coeff-Com: -0.916D-02-0.528D-01 0.178D-01 0.327D+00 0.714D+00
 Coeff:     -0.476D-04 0.803D-04-0.262D-03 0.134D-02 0.371D-02-0.974D-03
 Coeff:     -0.916D-02-0.528D-01 0.178D-01 0.327D+00 0.714D+00
 Gap=     0.232 Goal=   None    Shift=    0.000
 RMSDP=3.74D-08 MaxDP=2.22D-06 DE=-5.48D-11 OVMax= 1.71D-06

 Cycle  12  Pass 1  IDiag  1:
 RMSU=  1.48D-08    CP:  1.00D+00  9.93D-01  1.39D+00  1.35D+00  1.22D+00
                    CP:  1.61D+00  1.39D+00  1.30D+00  1.16D+00  1.27D+00
                    CP:  9.87D-01
 E= -633.329096371893     Delta-E=       -0.000000000003 Rises=F Damp=F
 DIIS: error= 5.45D-08 at cycle  12 NSaved=  12.
 NSaved=12 IEnMin=12 EnMin= -633.329096371893     IErMin=12 ErrMin= 5.45D-08
 ErrMax= 5.45D-08  0.00D+00 EMaxC= 1.00D-01 BMatC= 1.07D-12 BMatP= 6.81D-12
 IDIUse=1 WtCom= 1.00D+00 WtEn= 0.00D+00
 Coeff-Com: -0.115D-04 0.187D-04-0.148D-03 0.980D-04 0.137D-02 0.244D-02
 Coeff-Com:  0.156D-03-0.238D-01-0.257D-01 0.282D-01 0.327D+00 0.690D+00
 Coeff:     -0.115D-04 0.187D-04-0.148D-03 0.980D-04 0.137D-02 0.244D-02
 Coeff:      0.156D-03-0.238D-01-0.257D-01 0.282D-01 0.327D+00 0.690D+00
 Gap=     0.232 Goal=   None    Shift=    0.000
 RMSDP=9.11D-09 MaxDP=4.53D-07 DE=-3.30D-12 OVMax= 6.57D-07

 Error on total polarization charges =  0.00825
 SCF Done:  E(RCAM-B3LYP) =  -633.329096372     A.U. after   12 cycles
            NFock= 12  Conv=0.91D-08     -V/T= 2.0041
 KE= 6.307387718225D+02 PE=-3.277575859868D+03 EE= 1.112816203503D+03
 Leave Link  502 at Sat Jan 24 23:07:46 2026, MaxMem=  2147483648 cpu:             758.1 elap:              48.1
 (Enter /data/home/wyx/g16/l601.exe)
 Copying SCF densities to generalized density rwf, IOpCl= 0 IROHF=0.

 **********************************************************************

            Population analysis using the SCF density.

 **********************************************************************

 Orbital symmetries:
       Occupied  (A) (A) (A) (A) (A) (A) (A) (A) (A) (A) (A) (A)
                 (A) (A) (A) (A) (A) (A) (A) (A) (A) (A) (A) (A)
                 (A) (A) (A) (A) (A) (A) (A) (A) (A) (A) (A) (A)
                 (A) (A) (A) (A) (A) (A) (A) (A) (A) (A) (A) (A)
                 (A) (A) (A) (A)
       Virtual   (A) (A) (A) (A) (A) (A) (A) (A) (A) (A) (A) (A)
                 (A) (A) (A) (A) (A) (A) (A) (A) (A) (A) (A) (A)
                 (A) (A) (A) (A) (A) (A) (A) (A) (A) (A) (A) (A)
                 (A) (A) (A) (A) (A) (A) (A) (A) (A) (A) (A) (A)
                 (A) (A) (A) (A) (A) (A) (A) (A) (A) (A) (A) (A)
                 (A) (A) (A) (A) (A) (A) (A) (A) (A) (A) (A) (A)
                 (A) (A) (A) (A) (A) (A) (A) (A) (A) (A) (A) (A)
                 (A) (A) (A) (A) (A) (A) (A) (A) (A) (A) (A) (A)
                 (A) (A) (A) (A) (A) (A) (A) (A) (A) (A) (A) (A)
                 (A) (A) (A) (A) (A) (A) (A) (A) (A) (A) (A) (A)
                 (A) (A) (A) (A) (A) (A) (A) (A) (A) (A) (A) (A)
                 (A) (A) (A) (A) (A) (A) (A) (A) (A) (A) (A) (A)
                 (A) (A) (A) (A) (A) (A) (A) (A) (A) (A) (A) (A)
                 (A) (A) (A) (A) (A) (A) (A) (A) (A) (A) (A) (A)
                 (A) (A) (A) (A) (A) (A) (A) (A) (A) (A) (A) (A)
                 (A) (A) (A) (A) (A) (A) (A) (A) (A) (A) (A) (A)
                 (A) (A) (A) (A) (A) (A) (A) (A) (A) (A) (A) (A)
                 (A) (A) (A) (A) (A) (A) (A) (A) (A) (A) (A) (A)
                 (A) (A) (A) (A) (A) (A) (A) (A) (A) (A) (A) (A)
                 (A) (A) (A) (A) (A) (A) (A) (A) (A) (A) (A) (A)
                 (A) (A) (A) (A) (A) (A) (A) (A) (A) (A) (A) (A)
                 (A) (A) (A) (A) (A) (A) (A) (A) (A) (A) (A) (A)
                 (A) (A) (A) (A) (A) (A) (A) (A) (A) (A) (A) (A)
                 (A) (A) (A) (A) (A) (A) (A) (A) (A) (A) (A) (A)
                 (A) (A) (A) (A) (A) (A) (A) (A) (A) (A) (A) (A)
                 (A) (A) (A) (A)
 The electronic state is 1-A.
 Alpha  occ. eigenvalues --  -19.18360 -19.16938 -14.44552 -10.33890 -10.32711
 Alpha  occ. eigenvalues --  -10.32678 -10.31780 -10.26166 -10.25485 -10.24982
 Alpha  occ. eigenvalues --  -10.24737 -10.24705 -10.24618 -10.23225  -1.12286
 Alpha  occ. eigenvalues --   -1.11013  -1.08149  -0.91596  -0.90596  -0.84067
 Alpha  occ. eigenvalues --   -0.82675  -0.81826  -0.78593  -0.74220  -0.71714
 Alpha  occ. eigenvalues --   -0.68846  -0.61779  -0.58437  -0.57121  -0.55435
 Alpha  occ. eigenvalues --   -0.54789  -0.54052  -0.52688  -0.52016  -0.51030
 Alpha  occ. eigenvalues --   -0.50223  -0.49493  -0.49222  -0.48726  -0.48291
 Alpha  occ. eigenvalues --   -0.47057  -0.45333  -0.44951  -0.43833  -0.43400
 Alpha  occ. eigenvalues --   -0.42636  -0.42305  -0.41700  -0.33098  -0.32611
 Alpha  occ. eigenvalues --   -0.30966  -0.26075
 Alpha virt. eigenvalues --   -0.02885   0.02359   0.06156   0.08072   0.08472
 Alpha virt. eigenvalues --    0.09745   0.10826   0.11835   0.12509   0.13373
 Alpha virt. eigenvalues --    0.13948   0.14841   0.15595   0.16213   0.16979
 Alpha virt. eigenvalues --    0.17696   0.17714   0.17999   0.18046   0.19279
 Alpha virt. eigenvalues --    0.19899   0.22106   0.22672   0.23116   0.23511
 Alpha virt. eigenvalues --    0.23845   0.24709   0.25502   0.26103   0.26538
 Alpha virt. eigenvalues --    0.26772   0.27509   0.28601   0.28808   0.30190
 Alpha virt. eigenvalues --    0.31433   0.31792   0.32442   0.33410   0.34296
 Alpha virt. eigenvalues --    0.35084   0.35847   0.36667   0.37963   0.38479
 Alpha virt. eigenvalues --    0.39669   0.40714   0.41442   0.41841   0.42371
 Alpha virt. eigenvalues --    0.43983   0.44363   0.45201   0.45846   0.46414
 Alpha virt. eigenvalues --    0.47168   0.47666   0.48040   0.48201   0.48841
 Alpha virt. eigenvalues --    0.49328   0.50432   0.50918   0.51367   0.51627
 Alpha virt. eigenvalues --    0.52803   0.53033   0.53451   0.53970   0.54268
 Alpha virt. eigenvalues --    0.54446   0.55603   0.56024   0.56397   0.58205
 Alpha virt. eigenvalues --    0.58529   0.58877   0.60635   0.60906   0.62616
 Alpha virt. eigenvalues --    0.63261   0.65603   0.66058   0.66498   0.67634
 Alpha virt. eigenvalues --    0.68602   0.70101   0.71060   0.71857   0.72631
 Alpha virt. eigenvalues --    0.73008   0.73856   0.74657   0.75684   0.77532
 Alpha virt. eigenvalues --    0.78149   0.79533   0.82205   0.84802   0.85454
 Alpha virt. eigenvalues --    0.89466   0.93799   0.99743   1.01388   1.23911
 Alpha virt. eigenvalues --    1.25093   1.26819   1.28011   1.29290   1.31047
 Alpha virt. eigenvalues --    1.32543   1.32821   1.33766   1.34853   1.35842
 Alpha virt. eigenvalues --    1.36532   1.37621   1.38108   1.38886   1.39682
 Alpha virt. eigenvalues --    1.39883   1.40405   1.40870   1.41416   1.41574
 Alpha virt. eigenvalues --    1.43208   1.43917   1.44363   1.45011   1.47137
 Alpha virt. eigenvalues --    1.47889   1.49043   1.49549   1.50140   1.50847
 Alpha virt. eigenvalues --    1.51581   1.52176   1.53024   1.54353   1.57699
 Alpha virt. eigenvalues --    1.58243   1.60467   1.60495   1.61162   1.62204
 Alpha virt. eigenvalues --    1.62438   1.63303   1.64139   1.65267   1.65820
 Alpha virt. eigenvalues --    1.66782   1.67114   1.67500   1.68332   1.68576
 Alpha virt. eigenvalues --    1.68820   1.69704   1.70257   1.71418   1.72006
 Alpha virt. eigenvalues --    1.73536   1.74914   1.76072   1.76757   1.78568
 Alpha virt. eigenvalues --    1.80338   1.82923   1.84095   1.85858   1.86601
 Alpha virt. eigenvalues --    1.87058   1.87828   1.88707   1.88864   1.90618
 Alpha virt. eigenvalues --    1.91096   1.94459   1.95049   1.98461   1.99740
 Alpha virt. eigenvalues --    2.01041   2.03618   2.04711   2.06614   2.09419
 Alpha virt. eigenvalues --    2.10995   2.12582   2.14786   2.17170   2.19480
 Alpha virt. eigenvalues --    2.20347   2.21130   2.21690   2.22808   2.26198
 Alpha virt. eigenvalues --    2.27067   2.27510   2.29060   2.30876   2.31682
 Alpha virt. eigenvalues --    2.33504   2.34265   2.36373   2.37256   2.38199
 Alpha virt. eigenvalues --    2.39274   2.40246   2.41455   2.43361   2.44724
 Alpha virt. eigenvalues --    2.45972   2.47482   2.50119   2.50597   2.51527
 Alpha virt. eigenvalues --    2.52203   2.53620   2.55038   2.56707   2.58179
 Alpha virt. eigenvalues --    2.58907   2.60607   2.61095   2.62260   2.62865
 Alpha virt. eigenvalues --    2.64524   2.65756   2.66771   2.67288   2.68811
 Alpha virt. eigenvalues --    2.71256   2.72055   2.72815   2.74100   2.75203
 Alpha virt. eigenvalues --    2.76054   2.76745   2.77113   2.77671   2.79364
 Alpha virt. eigenvalues --    2.80821   2.81570   2.83343   2.83486   2.84336
 Alpha virt. eigenvalues --    2.85453   2.86204   2.88025   2.89919   2.91956
 Alpha virt. eigenvalues --    2.97213   2.99794   3.00523   3.05041   3.10379
 Alpha virt. eigenvalues --    3.12110   3.15932   3.16911   3.17462   3.20485
 Alpha virt. eigenvalues --    3.21173   3.22262   3.24176   3.25630   3.27044
 Alpha virt. eigenvalues --    3.27558   3.29774   3.33374   3.34656   3.36423
 Alpha virt. eigenvalues --    3.37153   3.38641   3.40069   3.40505   3.41752
 Alpha virt. eigenvalues --    3.42567   3.44709   3.45393   3.46850   3.48094
 Alpha virt. eigenvalues --    3.49299   3.49543   3.55054   3.58129   3.59496
 Alpha virt. eigenvalues --    3.60516   3.90093   3.99840   4.33258   4.36403
 Alpha virt. eigenvalues --   21.64601  21.79677  22.08202  22.10653  22.12073
 Alpha virt. eigenvalues --   22.15005  22.15233  22.18552  22.20340  22.24286
 Alpha virt. eigenvalues --   22.29392  31.92364  43.62894  43.65950
          Condensed to atoms (all electrons):
               1          2          3          4          5          6
     1  O    7.953491   0.000000  -0.000233   0.000018   0.017410   0.013524
     2  O    0.000000   7.953269   0.000526   0.000028  -0.194150   0.000955
     3  N   -0.000233   0.000526   6.400305   0.372874  -0.120220   0.332634
     4  H    0.000018   0.000028   0.372874   0.403626   0.015927  -0.046447
     5  C    0.017410  -0.194150  -0.120220   0.015927   7.026045  -0.072672
     6  C    0.013524   0.000955   0.332634  -0.046447  -0.072672   5.618330
     7  C   -0.000306  -0.037435   0.376613  -0.038229   0.396829  -0.100922
     8  C   -0.000360   0.706476   0.004885  -0.000655  -0.238424   0.026672
     9  C   -0.021925   0.020867   0.014658  -0.000138  -0.566276  -0.094540
    10  H    0.004912   0.000095   0.003782   0.000020  -0.027033  -0.018195
    11  H    0.014411  -0.000026  -0.001339   0.000019  -0.116490   0.026597
    12  C   -0.226953  -0.002429  -0.095545   0.014880   0.169324  -0.147216
    13  C    0.714977  -0.000021   0.000721   0.000436   0.079638   0.159709
    14  C   -0.000006  -0.002161  -0.034885  -0.008772  -0.077912   0.011217
    15  H   -0.000000   0.004160   0.004045   0.001260   0.018217   0.006487
    16  H   -0.000000   0.001369  -0.002969   0.000934  -0.005779  -0.001891
    17  H   -0.000000   0.001322   0.001351   0.000792  -0.010194  -0.000911
    18  C    0.000036  -0.104904  -0.000502   0.000020  -0.266828   0.000147
    19  H   -0.000003   0.008486   0.000002  -0.000001   0.021237   0.000031
    20  H    0.000005   0.000972   0.000011  -0.000001   0.003431   0.000253
    21  H    0.000083   0.003751   0.000122   0.000001   0.043550  -0.001149
    22  C   -0.106461   0.000000  -0.000050   0.000111   0.003997  -0.016162
    23  H    0.004907  -0.000000   0.000001  -0.000053  -0.000643  -0.031770
    24  H    0.001320  -0.000000  -0.000025  -0.000015  -0.000058   0.010662
    25  H    0.007124   0.000000   0.000031  -0.000002  -0.000145  -0.001084
    26  C    0.000896   0.000005  -0.028413  -0.006263  -0.000108   0.178895
    27  H   -0.000253  -0.000000   0.002572   0.000853   0.000037  -0.045015
    28  H   -0.000050  -0.000000  -0.002648   0.000448   0.000451  -0.033708
    29  H    0.000025  -0.000000   0.000655   0.001189  -0.000497  -0.049009
               7          8          9         10         11         12
     1  O   -0.000306  -0.000360  -0.021925   0.004912   0.014411  -0.226953
     2  O   -0.037435   0.706476   0.020867   0.000095  -0.000026  -0.002429
     3  N    0.376613   0.004885   0.014658   0.003782  -0.001339  -0.095545
     4  H   -0.038229  -0.000655  -0.000138   0.000020   0.000019   0.014880
     5  C    0.396829  -0.238424  -0.566276  -0.027033  -0.116490   0.169324
     6  C   -0.100922   0.026672  -0.094540  -0.018195   0.026597  -0.147216
     7  C    5.437234  -0.184087  -0.192925  -0.004346   0.018065   0.007616
     8  C   -0.184087   5.312863   0.125248  -0.005867  -0.007123  -0.037781
     9  C   -0.192925   0.125248   6.368378   0.392394   0.536202  -0.053507
    10  H   -0.004346  -0.005867   0.392394   0.565346  -0.038864  -0.023749
    11  H    0.018065  -0.007123   0.536202  -0.038864   0.511694  -0.108130
    12  C    0.007616  -0.037781  -0.053507  -0.023749  -0.108130   7.327679
    13  C    0.012745  -0.006397  -0.268693   0.000208  -0.001412  -0.411815
    14  C    0.256919  -0.026678   0.011551  -0.001267   0.000548  -0.004678
    15  H   -0.081075   0.005266   0.000134   0.000068  -0.000005  -0.001210
    16  H   -0.018533  -0.001988   0.000730  -0.000068   0.000054   0.000713
    17  H   -0.024544  -0.007559  -0.000714   0.000198  -0.000055   0.000033
    18  C    0.003000   0.311481   0.000773  -0.009083   0.005911  -0.002887
    19  H    0.000201  -0.047988  -0.000699   0.000020   0.000489  -0.000209
    20  H    0.000675  -0.024576  -0.009476   0.000942  -0.001577  -0.003685
    21  H    0.001119  -0.067150  -0.008512   0.001818  -0.005329   0.007584
    22  C    0.000195  -0.000072   0.005778   0.001916   0.000527  -0.252619
    23  H    0.000003  -0.000005   0.003526  -0.000148  -0.000040   0.064690
    24  H    0.000018   0.000002  -0.002095   0.000158  -0.000115  -0.012484
    25  H    0.000004   0.000004   0.000168  -0.000053  -0.000116   0.023748
    26  C    0.002066   0.000560   0.021411  -0.000695   0.000023  -0.078714
    27  H   -0.000748   0.000004  -0.000752  -0.000106   0.000008  -0.008493
    28  H   -0.000873  -0.000010  -0.000320  -0.000016   0.000042  -0.019258
    29  H    0.003542  -0.000008  -0.000485   0.000097  -0.000011   0.023901
              13         14         15         16         17         18
     1  O    0.714977  -0.000006  -0.000000  -0.000000  -0.000000   0.000036
     2  O   -0.000021  -0.002161   0.004160   0.001369   0.001322  -0.104904
     3  N    0.000721  -0.034885   0.004045  -0.002969   0.001351  -0.000502
     4  H    0.000436  -0.008772   0.001260   0.000934   0.000792   0.000020
     5  C    0.079638  -0.077912   0.018217  -0.005779  -0.010194  -0.266828
     6  C    0.159709   0.011217   0.006487  -0.001891  -0.000911   0.000147
     7  C    0.012745   0.256919  -0.081075  -0.018533  -0.024544   0.003000
     8  C   -0.006397  -0.026678   0.005266  -0.001988  -0.007559   0.311481
     9  C   -0.268693   0.011551   0.000134   0.000730  -0.000714   0.000773
    10  H    0.000208  -0.001267   0.000068  -0.000068   0.000198  -0.009083
    11  H   -0.001412   0.000548  -0.000005   0.000054  -0.000055   0.005911
    12  C   -0.411815  -0.004678  -0.001210   0.000713   0.000033  -0.002887
    13  C    5.481578  -0.000064  -0.000022  -0.000017  -0.000001   0.000854
    14  C   -0.000064   5.045456   0.392656   0.405574   0.422257   0.002232
    15  H   -0.000022   0.392656   0.576332  -0.026728  -0.029091   0.000277
    16  H   -0.000017   0.405574  -0.026728   0.505848  -0.024198  -0.000070
    17  H   -0.000001   0.422257  -0.029091  -0.024198   0.504090  -0.000295
    18  C    0.000854   0.002232   0.000277  -0.000070  -0.000295   5.344968
    19  H   -0.000015  -0.000013  -0.000005  -0.000020   0.000040   0.394195
    20  H   -0.000109  -0.000283  -0.000006  -0.000005   0.000024   0.397539
    21  H    0.000565   0.000037  -0.000017   0.000005  -0.000035   0.380489
    22  C    0.288412  -0.000019   0.000002   0.000000  -0.000000   0.000036
    23  H   -0.093637   0.000000   0.000000   0.000000   0.000000   0.000002
    24  H   -0.021623  -0.000001   0.000000   0.000000   0.000000  -0.000002
    25  H   -0.040564   0.000000   0.000000  -0.000000   0.000000  -0.000001
    26  C   -0.055786   0.001352   0.000083  -0.000153   0.000047   0.000018
    27  H   -0.004426   0.000089  -0.000012   0.000001  -0.000002  -0.000000
    28  H    0.006633  -0.000124   0.000002  -0.000010   0.000004  -0.000001
    29  H   -0.000664  -0.000230   0.000122   0.000001  -0.000003   0.000000
              19         20         21         22         23         24
     1  O   -0.000003   0.000005   0.000083  -0.106461   0.004907   0.001320
     2  O    0.008486   0.000972   0.003751   0.000000  -0.000000  -0.000000
     3  N    0.000002   0.000011   0.000122  -0.000050   0.000001  -0.000025
     4  H   -0.000001  -0.000001   0.000001   0.000111  -0.000053  -0.000015
     5  C    0.021237   0.003431   0.043550   0.003997  -0.000643  -0.000058
     6  C    0.000031   0.000253  -0.001149  -0.016162  -0.031770   0.010662
     7  C    0.000201   0.000675   0.001119   0.000195   0.000003   0.000018
     8  C   -0.047988  -0.024576  -0.067150  -0.000072  -0.000005   0.000002
     9  C   -0.000699  -0.009476  -0.008512   0.005778   0.003526  -0.002095
    10  H    0.000020   0.000942   0.001818   0.001916  -0.000148   0.000158
    11  H    0.000489  -0.001577  -0.005329   0.000527  -0.000040  -0.000115
    12  C   -0.000209  -0.003685   0.007584  -0.252619   0.064690  -0.012484
    13  C   -0.000015  -0.000109   0.000565   0.288412  -0.093637  -0.021623
    14  C   -0.000013  -0.000283   0.000037  -0.000019   0.000000  -0.000001
    15  H   -0.000005  -0.000006  -0.000017   0.000002   0.000000   0.000000
    16  H   -0.000020  -0.000005   0.000005   0.000000   0.000000   0.000000
    17  H    0.000040   0.000024  -0.000035  -0.000000   0.000000   0.000000
    18  C    0.394195   0.397539   0.380489   0.000036   0.000002  -0.000002
    19  H    0.491020  -0.008094  -0.022616  -0.000000   0.000000   0.000000
    20  H   -0.008094   0.501011  -0.027061  -0.000014  -0.000000   0.000000
    21  H   -0.022616  -0.027061   0.543544   0.000018  -0.000000  -0.000000
    22  C   -0.000000  -0.000014   0.000018   5.416473   0.399210   0.401357
    23  H    0.000000  -0.000000  -0.000000   0.399210   0.538671  -0.026197
    24  H    0.000000   0.000000  -0.000000   0.401357  -0.026197   0.489377
    25  H   -0.000000   0.000000  -0.000000   0.383596  -0.022191  -0.008075
    26  C    0.000000   0.000005  -0.000016  -0.030514   0.016367  -0.013302
    27  H   -0.000000   0.000000  -0.000000   0.007439  -0.009424  -0.000547
    28  H    0.000000  -0.000000  -0.000000  -0.011268  -0.001411   0.001050
    29  H    0.000000  -0.000000   0.000000   0.001964   0.000682   0.000194
              25         26         27         28         29
     1  O    0.007124   0.000896  -0.000253  -0.000050   0.000025
     2  O    0.000000   0.000005  -0.000000  -0.000000  -0.000000
     3  N    0.000031  -0.028413   0.002572  -0.002648   0.000655
     4  H   -0.000002  -0.006263   0.000853   0.000448   0.001189
     5  C   -0.000145  -0.000108   0.000037   0.000451  -0.000497
     6  C   -0.001084   0.178895  -0.045015  -0.033708  -0.049009
     7  C    0.000004   0.002066  -0.000748  -0.000873   0.003542
     8  C    0.000004   0.000560   0.000004  -0.000010  -0.000008
     9  C    0.000168   0.021411  -0.000752  -0.000320  -0.000485
    10  H   -0.000053  -0.000695  -0.000106  -0.000016   0.000097
    11  H   -0.000116   0.000023   0.000008   0.000042  -0.000011
    12  C    0.023748  -0.078714  -0.008493  -0.019258   0.023901
    13  C   -0.040564  -0.055786  -0.004426   0.006633  -0.000664
    14  C    0.000000   0.001352   0.000089  -0.000124  -0.000230
    15  H    0.000000   0.000083  -0.000012   0.000002   0.000122
    16  H   -0.000000  -0.000153   0.000001  -0.000010   0.000001
    17  H    0.000000   0.000047  -0.000002   0.000004  -0.000003
    18  C   -0.000001   0.000018  -0.000000  -0.000001   0.000000
    19  H   -0.000000   0.000000  -0.000000   0.000000   0.000000
    20  H    0.000000   0.000005   0.000000  -0.000000  -0.000000
    21  H   -0.000000  -0.000016  -0.000000  -0.000000   0.000000
    22  C    0.383596  -0.030514   0.007439  -0.011268   0.001964
    23  H   -0.022191   0.016367  -0.009424  -0.001411   0.000682
    24  H   -0.008075  -0.013302  -0.000547   0.001050   0.000194
    25  H    0.494906   0.001943   0.000780   0.000108  -0.000041
    26  C    0.001943   5.254015   0.428259   0.428916   0.389837
    27  H    0.000780   0.428259   0.508535  -0.025795  -0.026278
    28  H    0.000108   0.428916  -0.025795   0.475992  -0.017073
    29  H   -0.000041   0.389837  -0.026278  -0.017073   0.513655
 Mulliken charges:
               1
     1  O   -0.376591
     2  O   -0.361155
     3  N   -0.228959
     4  H    0.287141
     5  C   -0.098665
     6  C    0.274578
     7  C    0.167181
     8  C    0.163268
     9  C   -0.280760
    10  H    0.157517
    11  H    0.166042
    12  C   -0.148805
    13  C    0.158791
    14  C   -0.392797
    15  H    0.129060
    16  H    0.167200
    17  H    0.167443
    18  C   -0.457407
    19  H    0.163941
    20  H    0.170018
    21  H    0.149201
    22  C   -0.493854
    23  H    0.157462
    24  H    0.180400
    25  H    0.159861
    26  C   -0.510735
    27  H    0.173274
    28  H    0.198918
    29  H    0.158435
 Sum of Mulliken charges =  -0.00000
 Mulliken charges with hydrogens summed into heavy atoms:
               1
     1  O   -0.376591
     2  O   -0.361155
     3  N    0.058182
     5  C   -0.098665
     6  C    0.274578
     7  C    0.167181
     8  C    0.163268
     9  C    0.042799
    12  C   -0.148805
    13  C    0.158791
    14  C    0.070906
    18  C    0.025752
    22  C    0.003868
    26  C    0.019892
 Electronic spatial extent (au):  <R**2>=           3187.3889
 Charge=             -0.0000 electrons
 Dipole moment (field-independent basis, Debye):
    X=             -3.4830    Y=              7.4910    Z=             -0.1574  Tot=              8.2626
 Quadrupole moment (field-independent basis, Debye-Ang):
   XX=            -96.1606   YY=            -78.3531   ZZ=            -85.0032
   XY=            -13.2206   XZ=             -5.1558   YZ=             -1.7995
 Traceless Quadrupole moment (field-independent basis, Debye-Ang):
   XX=             -9.6550   YY=              8.1525   ZZ=              1.5024
   XY=            -13.2206   XZ=             -5.1558   YZ=             -1.7995
 Octapole moment (field-independent basis, Debye-Ang**2):
  XXX=           -100.7769  YYY=             64.9578  ZZZ=              2.0096  XYY=             36.3579
  XXY=             30.6186  XXZ=             -8.3783  XZZ=             -1.6973  YZZ=             -1.1243
  YYZ=              3.7475  XYZ=              5.2697
 Hexadecapole moment (field-independent basis, Debye-Ang**3):
 XXXX=          -2997.6357 YYYY=          -1276.3409 ZZZZ=           -153.2626 XXXY=            -45.3862
 XXXZ=            -59.0183 YYYX=            -92.8574 YYYZ=            -21.8137 ZZZX=              3.1699
 ZZZY=              4.6961 XXYY=           -685.5924 XXZZ=           -482.7075 YYZZ=           -243.1974
 XXYZ=             -7.4589 YYXZ=             -7.4085 ZZXY=              0.6071
 N-N= 9.006917881709D+02 E-N=-3.277575862690D+03  KE= 6.307387718225D+02
 No NMR shielding tensors so no spin-rotation constants.
 Leave Link  601 at Sat Jan 24 23:07:46 2026, MaxMem=  2147483648 cpu:               1.8 elap:               0.1
 (Enter /data/home/wyx/g16/l9999.exe)
 1\1\GINC-CN012\SP\RCAM-B3LYP\TZVP\C11H15N1O2\WYX\24-Jan-2026\0\\#p CAM
 -B3LYP TZVP em=gd3bj scrf=(Solvent=Water,NonEquilibrium=Read) Geom=Che
 ck Guess=Read\\Title Card Required\\0,1\O,0,2.736562,-1.558765,0.78272
 4\O,0,-3.25261,-1.647715,-1.041378\N,0,-0.701254,1.514567,0.064713\H,0
 ,-1.009553,2.473113,0.003872\C,0,-1.249814,-0.759996,-0.159153\C,0,0.6
 41843,1.311891,0.256708\C,0,-1.622369,0.55464,-0.247371\C,0,-2.155765,
 -1.839887,-0.520997\C,0,0.104613,-1.09751,0.383577\H,0,0.017221,-1.457
 881,1.419476\H,0,0.529152,-1.948457,-0.149567\C,0,1.097202,0.025506,0.
 344498\C,0,2.488014,-0.392151,0.475172\C,0,-2.953268,1.090107,-0.64815
 5\H,0,-3.030675,2.151849,-0.425167\H,0,-3.120866,0.955123,-1.713222\H,
 0,-3.756516,0.566584,-0.143732\C,0,-1.716646,-3.2539,-0.25212\H,0,-2.5
 62582,-3.923713,-0.357175\H,0,-0.953131,-3.556904,-0.966656\H,0,-1.286
 909,-3.373223,0.738368\C,0,3.647841,0.534095,0.20527\H,0,3.455008,1.23
 8579,-0.599248\H,0,3.897516,1.102135,1.103333\H,0,4.509131,-0.07932,-0
 .049751\C,0,1.416781,2.586009,0.355855\H,0,2.220966,2.519656,1.077988\
 H,0,1.845994,2.865882,-0.605873\H,0,0.764112,3.399688,0.66801\\Version
 =ES64L-G16RevA.03\State=1-A\HF=-633.3290964\RMSD=9.112e-09\Dipole=0.27
 61617,3.2374905,0.0991314\Quadrupole=-9.8612913,10.8081685,-0.9468773,
 3.2797915,-6.2695647,0.5557461\PG=C01 [X(C11H15N1O2)]\\@


 10 WHATSOEVER THY HAND FINDETH TO DO, DO IT WITH THY  
 MIGHT. FOR THERE IS NO WORK, NOR DEVICE, NOR KNOWLEDGE, NOR  
 WISDOM, IN THE GRAVE, WHITHER THOU GOEST.                    
 11 I RETURNED AND SAW UNDER THE SUN, THAT THE RACE IS NOT TO 
 THE SWIFT, NOR THE BATTLE TO THE STRONG, NEITHER YET BREAD TO
 THE WISE, NOR YET RICHES TO MEN OF UNDERSTANDING, NOR YET    
 FAVOR TO MEN OF SKILL. BUT TIME AND CHANCE HAPPEN TO THEM ALL.
 12 FOR MAN ALSO KNOWETH NOT HIS TIME. AS THE FISHES   
 THAT ARE TAKEN IN AN EVIL NET, AND AS THE BIRDS THAT ARE     
 CAUGHT IN THE SNARE. SO ARE THE SONS OF MEN SNARED IN AN EVIL
 TIME, WHEN IT FALLETH SUDDENLY UPON THEM.
                                         ECCLESIASTES 9
 Job cpu time:       0 days  0 hours 12 minutes 49.0 seconds.
 Elapsed time:       0 days  0 hours  0 minutes 48.9 seconds.
 File lengths (MBytes):  RWF=    342 Int=      0 D2E=      0 Chk=     67 Scr=      1
 Normal termination of Gaussian 16 at Sat Jan 24 23:07:47 2026.
