 Entering Gaussian System, Link 0=g16
 Input=DDL-S2-cLR-7.gjf
 Output=DDL-S2-cLR-7.log
 Initial command:
 /data/home/wyx/g16/l1.exe "/scr/tmp/wyx/13117/Gau-2022543.inp" -scrdir="/scr/tmp/wyx/13117/"
 Entering Link 1 = /data/home/wyx/g16/l1.exe PID=   2022544.
  
 Copyright (c) 1988,1990,1992,1993,1995,1998,2003,2009,2016,
            Gaussian, Inc.  All Rights Reserved.
  
 This is part of the Gaussian(R) 16 program.  It is based on
 the Gaussian(R) 09 system (copyright 2009, Gaussian, Inc.),
 the Gaussian(R) 03 system (copyright 2003, Gaussian, Inc.),
 the Gaussian(R) 98 system (copyright 1998, Gaussian, Inc.),
 the Gaussian(R) 94 system (copyright 1995, Gaussian, Inc.),
 the Gaussian 92(TM) system (copyright 1992, Gaussian, Inc.),
 the Gaussian 90(TM) system (copyright 1990, Gaussian, Inc.),
 the Gaussian 88(TM) system (copyright 1988, Gaussian, Inc.),
 the Gaussian 86(TM) system (copyright 1986, Carnegie Mellon
 University), and the Gaussian 82(TM) system (copyright 1983,
 Carnegie Mellon University). Gaussian is a federally registered
 trademark of Gaussian, Inc.
  
 This software contains proprietary and confidential information,
 including trade secrets, belonging to Gaussian, Inc.
  
 This software is provided under written license and may be
 used, copied, transmitted, or stored only in accord with that
 written license.
  
 The following legend is applicable only to US Government
 contracts under FAR:
  
                    RESTRICTED RIGHTS LEGEND
  
 Use, reproduction and disclosure by the US Government is
 subject to restrictions as set forth in subparagraphs (a)
 and (c) of the Commercial Computer Software - Restricted
 Rights clause in FAR 52.227-19.
  
 Gaussian, Inc.
 340 Quinnipiac St., Bldg. 40, Wallingford CT 06492
  
  
 ---------------------------------------------------------------
 Warning -- This program may not be used in any manner that
 competes with the business of Gaussian, Inc. or will provide
 assistance to any competitor of Gaussian, Inc.  The licensee
 of this program is prohibited from giving any competitor of
 Gaussian, Inc. access to this program.  By using this program,
 the user acknowledges that Gaussian, Inc. is engaged in the
 business of creating and licensing software in the field of
 computational chemistry and represents and warrants to the
 licensee that it is not a competitor of Gaussian, Inc. and that
 it will not use this program in any manner prohibited above.
 ---------------------------------------------------------------
  

 Cite this work as:
 Gaussian 16, Revision A.03,
 M. J. Frisch, G. W. Trucks, H. B. Schlegel, G. E. Scuseria, 
 M. A. Robb, J. R. Cheeseman, G. Scalmani, V. Barone, 
 G. A. Petersson, H. Nakatsuji, X. Li, M. Caricato, A. V. Marenich, 
 J. Bloino, B. G. Janesko, R. Gomperts, B. Mennucci, H. P. Hratchian, 
 J. V. Ortiz, A. F. Izmaylov, J. L. Sonnenberg, D. Williams-Young, 
 F. Ding, F. Lipparini, F. Egidi, J. Goings, B. Peng, A. Petrone, 
 T. Henderson, D. Ranasinghe, V. G. Zakrzewski, J. Gao, N. Rega, 
 G. Zheng, W. Liang, M. Hada, M. Ehara, K. Toyota, R. Fukuda, 
 J. Hasegawa, M. Ishida, T. Nakajima, Y. Honda, O. Kitao, H. Nakai, 
 T. Vreven, K. Throssell, J. A. Montgomery, Jr., J. E. Peralta, 
 F. Ogliaro, M. J. Bearpark, J. J. Heyd, E. N. Brothers, K. N. Kudin, 
 V. N. Staroverov, T. A. Keith, R. Kobayashi, J. Normand, 
 K. Raghavachari, A. P. Rendell, J. C. Burant, S. S. Iyengar, 
 J. Tomasi, M. Cossi, J. M. Millam, M. Klene, C. Adamo, R. Cammi, 
 J. W. Ochterski, R. L. Martin, K. Morokuma, O. Farkas, 
 J. B. Foresman, and D. J. Fox, Gaussian, Inc., Wallingford CT, 2016.
 
 ******************************************
 Gaussian 16:  ES64L-G16RevA.03 25-Dec-2016
                24-Jan-2026 
 ******************************************
 %nprocshared=16
 Will use up to   16 processors via shared memory.
 %mem=16GB
 %oldchk=DDL-LR-7.chk
 %chk=DDL-S2-cLR-7.chk
 Copying data from "DDL-LR-7.chk" to current chk file "DDL-S2-cLR-7.chk"
 IOpt=  2 FromEx=T IUOpen= 4 IOptOp= 5 NList=   0 IFRang= 0 IUIn= 4 IUOut= 2.
 ----------------------------------------------------------------------
 #p CAM-B3LYP TZVP em=gd3bj td(nstates=6,root=2) scrf=(Solvent=Water,Co
 rrectedLR,NonEquilibrium=Save) Geom=Check Guess=Read
 ----------------------------------------------------------------------
 1/29=2,30=1,38=1,172=1/1;
 2/12=2,40=1/2;
 3/5=19,7=101,11=9,14=-4,25=1,30=1,70=9002201,71=1,72=1,74=-40,116=-2,124=41/1,2,3,8;
 4/5=1/1;
 5/5=2,38=6,53=1/2;
 8/6=1,10=1,107=2,108=6/1;
 9/8=2,15=1,41=6,42=1,70=2,73=22/14;
 10/5=4,13=10,28=2,74=20/2;
 6/7=2,8=2,9=2,10=2,22=-1/1;
 99/5=1,9=1/99;
 Leave Link    1 at Sat Jan 24 19:19:07 2026, MaxMem=  2147483648 cpu:               0.8 elap:               0.1
 (Enter /data/home/wyx/g16/l101.exe)
 -------------------
 Title Card Required
 -------------------
 Structure from the checkpoint file:  "DDL-S2-cLR-7.chk"
 Charge =  0 Multiplicity = 1
 Z-Matrix found in chk file.
 O,0,2.726246,-1.559245,0.827442
 O,0,-3.281019,-1.65553,-0.967451
 N,0,-0.691461,1.515734,0.000262
 H,0,-0.999859,2.475454,-0.064475
 C,0,-1.25145,-0.761891,-0.167114
 C,0,0.642909,1.323937,0.228017
 C,0,-1.625299,0.565605,-0.27047
 C,0,-2.160825,-1.845473,-0.490736
 C,0,0.113102,-1.088425,0.328158
 H,0,0.050286,-1.489975,1.35306
 H,0,0.533837,-1.927683,-0.230758
 C,0,1.101457,0.026277,0.327614
 C,0,2.483734,-0.394057,0.496204
 C,0,-2.965946,1.096847,-0.637804
 H,0,-3.020104,2.171199,-0.478012
 H,0,-3.193958,0.898743,-1.680796
 H,0,-3.74945,0.62123,-0.059504
 C,0,-1.707716,-3.260569,-0.251772
 H,0,-2.564115,-3.924436,-0.279177
 H,0,-1.016215,-3.575132,-1.0314
 H,0,-1.194363,-3.386246,0.696136
 C,0,3.648777,0.528546,0.23654
 H,0,3.462695,1.240667,-0.562756
 H,0,3.90135,1.087741,1.139658
 H,0,4.50735,-0.087322,-0.022695
 C,0,1.415417,2.594352,0.36335
 H,0,2.178539,2.522079,1.12948
 H,0,1.902343,2.873764,-0.570644
 H,0,0.753737,3.413809,0.639641
 Recover connectivity data from disk.
 ITRead=  0  0  0  0  0  0  0  0  0  0  0  0  0  0  0  0  0  0  0  0
 ITRead=  0  0  0  0  0  0  0  0  0
 MicOpt= -1 -1 -1 -1 -1 -1 -1 -1 -1 -1 -1 -1 -1 -1 -1 -1 -1 -1 -1 -1
 MicOpt= -1 -1 -1 -1 -1 -1 -1 -1 -1
 NAtoms=     29 NQM=       29 NQMF=       0 NMMI=      0 NMMIF=      0
                NMic=       0 NMicF=      0.
                    Isotopes and Nuclear Properties:
 (Nuclear quadrupole moments (NQMom) in fm**2, nuclear magnetic moments (NMagM)
  in nuclear magnetons)

  Atom         1           2           3           4           5           6           7           8           9          10
 IAtWgt=          16          16          14           1          12          12          12          12          12           1
 AtmWgt=  15.9949146  15.9949146  14.0030740   1.0078250  12.0000000  12.0000000  12.0000000  12.0000000  12.0000000   1.0078250
 NucSpn=           0           0           2           1           0           0           0           0           0           1
 AtZEff=   5.6000000   5.6000000   4.5500000   1.0000000   3.6000000   3.6000000   3.6000000   3.6000000   3.6000000   1.0000000
 NQMom=    0.0000000   0.0000000   2.0440000   0.0000000   0.0000000   0.0000000   0.0000000   0.0000000   0.0000000   0.0000000
 NMagM=    0.0000000   0.0000000   0.4037610   2.7928460   0.0000000   0.0000000   0.0000000   0.0000000   0.0000000   2.7928460
 AtZNuc=   8.0000000   8.0000000   7.0000000   1.0000000   6.0000000   6.0000000   6.0000000   6.0000000   6.0000000   1.0000000

  Atom        11          12          13          14          15          16          17          18          19          20
 IAtWgt=           1          12          12          12           1           1           1          12           1           1
 AtmWgt=   1.0078250  12.0000000  12.0000000  12.0000000   1.0078250   1.0078250   1.0078250  12.0000000   1.0078250   1.0078250
 NucSpn=           1           0           0           0           1           1           1           0           1           1
 AtZEff=   1.0000000   3.6000000   3.6000000   3.6000000   1.0000000   1.0000000   1.0000000   3.6000000   1.0000000   1.0000000
 NQMom=    0.0000000   0.0000000   0.0000000   0.0000000   0.0000000   0.0000000   0.0000000   0.0000000   0.0000000   0.0000000
 NMagM=    2.7928460   0.0000000   0.0000000   0.0000000   2.7928460   2.7928460   2.7928460   0.0000000   2.7928460   2.7928460
 AtZNuc=   1.0000000   6.0000000   6.0000000   6.0000000   1.0000000   1.0000000   1.0000000   6.0000000   1.0000000   1.0000000

  Atom        21          22          23          24          25          26          27          28          29
 IAtWgt=           1          12           1           1           1          12           1           1           1
 AtmWgt=   1.0078250  12.0000000   1.0078250   1.0078250   1.0078250  12.0000000   1.0078250   1.0078250   1.0078250
 NucSpn=           1           0           1           1           1           0           1           1           1
 AtZEff=   1.0000000   3.6000000   1.0000000   1.0000000   1.0000000   3.6000000   1.0000000   1.0000000   1.0000000
 NQMom=    0.0000000   0.0000000   0.0000000   0.0000000   0.0000000   0.0000000   0.0000000   0.0000000   0.0000000
 NMagM=    2.7928460   0.0000000   2.7928460   2.7928460   2.7928460   0.0000000   2.7928460   2.7928460   2.7928460
 AtZNuc=   1.0000000   6.0000000   1.0000000   1.0000000   1.0000000   6.0000000   1.0000000   1.0000000   1.0000000
 Leave Link  101 at Sat Jan 24 19:19:09 2026, MaxMem=  2147483648 cpu:               0.8 elap:               0.1
 (Enter /data/home/wyx/g16/l202.exe)
                          Input orientation:                          
 ---------------------------------------------------------------------
 Center     Atomic      Atomic             Coordinates (Angstroms)
 Number     Number       Type             X           Y           Z
 ---------------------------------------------------------------------
      1          8           0        2.726246   -1.559245    0.827442
      2          8           0       -3.281019   -1.655530   -0.967451
      3          7           0       -0.691461    1.515734    0.000262
      4          1           0       -0.999859    2.475454   -0.064475
      5          6           0       -1.251450   -0.761891   -0.167114
      6          6           0        0.642909    1.323937    0.228017
      7          6           0       -1.625299    0.565605   -0.270470
      8          6           0       -2.160825   -1.845473   -0.490736
      9          6           0        0.113102   -1.088425    0.328158
     10          1           0        0.050286   -1.489975    1.353060
     11          1           0        0.533837   -1.927683   -0.230758
     12          6           0        1.101457    0.026277    0.327614
     13          6           0        2.483734   -0.394057    0.496204
     14          6           0       -2.965946    1.096847   -0.637804
     15          1           0       -3.020104    2.171199   -0.478012
     16          1           0       -3.193958    0.898743   -1.680796
     17          1           0       -3.749450    0.621230   -0.059504
     18          6           0       -1.707716   -3.260569   -0.251772
     19          1           0       -2.564115   -3.924436   -0.279177
     20          1           0       -1.016215   -3.575132   -1.031400
     21          1           0       -1.194363   -3.386246    0.696136
     22          6           0        3.648777    0.528546    0.236540
     23          1           0        3.462695    1.240667   -0.562756
     24          1           0        3.901350    1.087741    1.139658
     25          1           0        4.507350   -0.087322   -0.022695
     26          6           0        1.415417    2.594352    0.363350
     27          1           0        2.178539    2.522079    1.129480
     28          1           0        1.902343    2.873764   -0.570644
     29          1           0        0.753737    3.413809    0.639641
 ---------------------------------------------------------------------
                    Distance matrix (angstroms):
                    1          2          3          4          5
     1  O    0.000000
     2  O    6.270418   0.000000
     3  N    4.671236   4.207041   0.000000
     4  H    5.564007   4.804590   1.010130   0.000000
     5  C    4.176958   2.357601   2.351420   3.248728   0.000000
     6  C    3.607262   5.069870   1.367188   2.027370   2.845242
     7  C    4.965515   2.856682   1.359446   2.020181   1.383001
     8  C    5.069811   1.232140   3.701057   4.494436   1.451153
     9  C    2.701755   3.676992   2.745265   3.754208   1.487925
    10  H    2.727973   4.063222   3.378541   4.340143   2.129684
    11  H    2.462152   3.894857   3.662219   4.665564   2.133160
    12  C    2.324575   4.869473   2.353762   3.250805   2.530244
    13  C    1.235392   6.079965   3.738332   4.547953   3.811416
    14  C    6.450025   2.789896   2.399141   2.468757   2.572149
    15  H    6.974307   3.866715   2.465960   2.084460   3.439159
    16  H    6.883442   2.653441   3.077194   3.148425   2.970232
    17  H    6.890267   2.495482   3.186692   3.316387   2.857378
    18  C    4.870239   2.358735   4.889720   5.782569   2.541405
    19  H    5.899716   2.477016   5.760240   6.591782   3.425980
    20  H    4.639516   2.969562   5.204489   6.127381   2.952397
    21  H    4.327395   3.180728   4.976601   5.914042   2.763277
    22  C    2.357774   7.364907   4.457357   5.048849   5.083344
    23  H    3.211622   7.350470   4.201150   4.656970   5.137113
    24  H    2.912882   7.971943   4.751349   5.234265   5.628511
    25  H    2.462036   8.000658   5.440400   6.074448   5.799972
    26  C    4.380185   6.472174   2.394616   2.455754   4.319484
    27  H    4.128973   7.187232   3.244189   3.395573   4.922442
    28  H    4.720702   6.894868   2.982951   2.972816   4.829828
    29  H    5.353254   6.675343   2.469836   2.109831   4.701925
                    6          7          8          9         10
     6  C    0.000000
     7  C    2.443015   0.000000
     8  C    4.292166   2.479638   0.000000
     9  C    2.471885   2.473097   2.532677   0.000000
    10  H    3.087884   3.109476   2.900858   1.102548   0.000000
    11  H    3.285636   3.298474   2.708422   1.092593   1.712860
    12  C    1.379894   2.843198   3.849108   1.489767   2.110810
    13  C    2.532205   4.288694   4.965137   2.475941   2.803018
    14  C    3.718205   1.488115   3.054029   3.897311   4.444417
    15  H    3.825440   2.136934   4.107575   4.592607   5.117061
    16  H    4.306496   2.135578   3.164542   4.349871   5.043350
    17  H    4.457497   2.135326   2.965521   4.241758   4.570615
    18  C    5.174295   3.827107   1.504961   2.893079   2.966658
    19  H    6.171521   4.587147   2.128259   3.947063   3.927581
    20  H    5.323505   4.253904   2.143401   3.050814   3.342298
    21  H    5.077453   4.091107   2.171795   2.669242   2.361471
    22  C    3.109335   5.298520   6.317940   3.888957   4.274363
    23  H    2.929752   5.140897   6.415093   4.175904   4.771927
    24  H    3.391801   5.727559   6.929062   4.443541   4.639057
    25  H    4.121700   6.172284   6.911926   4.520478   4.870889
    26  C    1.492996   3.709919   5.764635   3.906419   4.418692
    27  H    2.146238   4.500759   6.366372   4.236022   4.547090
    28  H    2.150813   4.226341   6.227914   4.439388   5.115953
    29  H    2.132905   3.821044   6.118208   4.558239   5.005088
                   11         12         13         14         15
    11  H    0.000000
    12  C    2.109960   0.000000
    13  C    2.585069   1.454577   0.000000
    14  C    4.643485   4.315312   5.762619   0.000000
    15  H    5.430697   4.715611   6.149949   1.087520   0.000000
    16  H    4.897729   4.821358   6.216659   1.085849   1.759562
    17  H    4.987267   4.902563   6.339732   1.083753   1.763377
    18  C    2.607985   4.362396   5.132700   4.551839   5.592643
    19  H    3.686011   5.423352   6.208508   5.050086   6.115900
    20  H    2.399537   4.393359   4.970156   5.077771   6.110821
    21  H    2.444016   4.129396   4.745689   5.001602   5.966335
    22  C    3.994281   2.597962   1.508624   6.696417   6.905278
    23  H    4.327456   2.800526   2.179927   6.430687   6.549790
    24  H    4.723448   3.102503   2.149277   7.093603   7.190081
    25  H    4.383951   3.425745   2.111484   7.591493   7.872153
    26  C    4.645315   2.587442   3.176404   4.737211   4.534401
    27  H    4.935147   2.834100   2.999672   5.623193   5.452801
    28  H    5.004221   3.091354   3.486378   5.182874   4.973194
    29  H    5.416409   3.419597   4.184890   4.564671   4.127360
                   16         17         18         19         20
    16  H    0.000000
    17  H    1.736137   0.000000
    18  C    4.642295   4.390217   0.000000
    19  H    5.062044   4.702803   1.083923   0.000000
    20  H    5.017951   5.101432   1.088551   1.756089   0.000000
    21  H    5.292383   4.812414   1.085291   1.765532   1.746939
    22  C    7.115915   7.404728   6.579351   7.661269   6.341135
    23  H    6.758547   7.256170   6.862287   7.942364   6.593344
    24  H    7.637675   7.758245   7.232254   8.302846   7.116061
    25  H    7.939255   8.287228   6.982050   8.049524   6.609998
    26  C    5.319771   5.545076   6.664266   7.664471   6.776481
    27  H    6.276671   6.337820   7.102806   8.126170   7.214696
    28  H    5.577224   6.105566   7.124903   8.139393   7.093556
    29  H    5.224393   5.344716   7.169427   8.105690   7.400703
                   21         22         23         24         25
    21  H    0.000000
    22  C    6.244424   0.000000
    23  H    6.684409   1.086562   0.000000
    24  H    6.795555   1.091840   1.764658   0.000000
    25  H    6.626398   1.087954   1.773845   1.760419   0.000000
    26  C    6.533701   3.044919   2.623258   3.008720   4.111016
    27  H    6.817078   2.633081   2.480874   2.241764   3.682369
    28  H    7.098031   3.033418   2.258709   3.179786   3.981751
    29  H    7.073827   4.107127   3.675154   3.945640   5.175540
                   26         27         28         29
    26  C    0.000000
    27  H    1.083759   0.000000
    28  H    1.089731   1.757950   0.000000
    29  H    1.088883   1.750767   1.753777   0.000000
 Stoichiometry    C11H15NO2
 Framework group  C1[X(C11H15NO2)]
 Deg. of freedom    81
 Full point group                 C1      NOp   1
 RotChk:  IX=0 Diff= 3.27D-16
 Largest Abelian subgroup         C1      NOp   1
 Largest concise Abelian subgroup C1      NOp   1
                         Standard orientation:                         
 ---------------------------------------------------------------------
 Center     Atomic      Atomic             Coordinates (Angstroms)
 Number     Number       Type             X           Y           Z
 ---------------------------------------------------------------------
      1          8           0       -2.288234   -2.284135   -0.241529
      2          8           0        3.616601   -0.255297    0.337169
      3          7           0       -0.023068    1.799891   -0.140538
      4          1           0       -0.051341    2.809586   -0.149433
      5          6           0        1.295105   -0.145601   -0.058941
      6          6           0       -1.231578    1.161947   -0.098906
      7          6           0        1.209809    1.234718   -0.047328
      8          6           0        2.560135   -0.840289    0.092558
      9          6           0        0.055860   -0.941088   -0.271997
     10          1           0        0.064090   -1.377976   -1.284259
     11          1           0        0.052610   -1.825925    0.368950
     12          6           0       -1.233909   -0.217920   -0.090530
     13          6           0       -2.398600   -1.082084    0.021312
     14          6           0        2.334529    2.204985    0.042516
     15          1           0        1.992026    3.221279   -0.137864
     16          1           0        2.801053    2.174898    1.022576
     17          1           0        3.114209    1.970672   -0.672828
     18          6           0        2.577321   -2.339707   -0.035338
     19          1           0        3.597740   -2.679987   -0.168922
     20          1           0        2.186469   -2.802903    0.868889
     21          1           0        1.974107   -2.700910   -0.862092
     22          6           0       -3.739575   -0.577728    0.493920
     23          1           0       -3.663940    0.215852    1.232247
     24          1           0       -4.325635   -0.205092   -0.348571
     25          1           0       -4.277008   -1.419988    0.924511
     26          6           0       -2.399342    2.092189   -0.095018
     27          1           0       -3.218335    1.713068   -0.695061
     28          1           0       -2.774330    2.267310    0.913064
     29          1           0       -2.115705    3.059795   -0.506061
 ---------------------------------------------------------------------
 Rotational constants (GHZ):           1.0768644           0.4904074           0.3444578
 Leave Link  202 at Sat Jan 24 19:19:10 2026, MaxMem=  2147483648 cpu:               0.0 elap:               0.0
 (Enter /data/home/wyx/g16/l301.exe)
 Standard basis: TZVP (5D, 7F)
 Ernie: Thresh=  0.10000D-02 Tol=  0.10000D-05 Strict=F.
 There are   370 symmetry adapted cartesian basis functions of A   symmetry.
 There are   356 symmetry adapted basis functions of A   symmetry.
   356 basis functions,   610 primitive gaussians,   370 cartesian basis functions
    52 alpha electrons       52 beta electrons
       nuclear repulsion energy       900.1577996893 Hartrees.
 IExCor=20419 DFT=T Ex+Corr=CAM-B3LYP ExCW=0 ScaHFX=  1.000000
 ScaDFX=  1.000000  1.000000  1.000000  0.810000 ScalE2=  1.000000  1.000000
 IRadAn=      5 IRanWt=     -1 IRanGd=            0 ICorTp=0 IEmpDi=141
 HFx  wShort=  0.000000 wLong=  0.330000 cFull=  0.190000 cShort=  0.000000 cLong=  0.460000
 DFx  wShort=  0.000000 wLong=  0.330000 cFull=  0.190000 cShort=  0.000000 cLong=  0.460000
 NAtoms=   29 NActive=   29 NUniq=   29 SFac= 1.00D+00 NAtFMM=   60 NAOKFM=F Big=F
 Integral buffers will be    131072 words long.
 Raffenetti 1 integral format.
 Two-electron integral symmetry is turned on.
 R6Disp:  Grimme-D3(BJ) Dispersion energy=       -0.0261671196 Hartrees.
 Nuclear repulsion after empirical dispersion term =      900.1316325697 Hartrees.
 ------------------------------------------------------------------------------
 Polarizable Continuum Model (PCM)
 =================================
 Model                : PCM.
 Atomic radii         : UFF (Universal Force Field).
 Polarization charges : Total charges.
 Charge compensation  : None.
 Solution method      : On-the-fly selection.
 Cavity type          : Scaled VdW (van der Waals Surface) (Alpha=1.100).
 Cavity algorithm     : GePol (No added spheres)
                        Default sphere list used, NSphG=   29.
                        Lebedev-Laikov grids with approx.  5.0 points / Ang**2.
                        Smoothing algorithm: York/Karplus (Gamma=1.0000).
                        Polarization charges: spherical gaussians, with
                                              point-specific exponents (IZeta= 3).
                        Self-potential: point-specific (ISelfS= 7).
                        Self-field    : sphere-specific E.n sum rule (ISelfD= 2).
 1st derivatives      : Analytical E(r).r(x)/FMM algorithm (CHGder, D1EAlg=3).
                        Cavity 1st derivative terms included.
 Solvent              : Water, Eps=  78.355300 Eps(inf)=   1.777849
 ------------------------------------------------------------------------------
 GePol: Number of generator spheres                  =      29
 GePol: Total number of spheres                      =      29
 GePol: Number of exposed spheres                    =      29 (100.00%)
 GePol: Number of points                             =    2119
 GePol: Average weight of points                     =       0.13
 GePol: Minimum weight of points                     =   0.20D-08
 GePol: Maximum weight of points                     =    0.20577
 GePol: Number of points with low weight             =     137
 GePol: Fraction of low-weight points (<1% of avg)   =       6.47%
 GePol: Cavity surface area                          =    268.787 Ang**2
 GePol: Cavity volume                                =    286.822 Ang**3
 Leave Link  301 at Sat Jan 24 19:19:10 2026, MaxMem=  2147483648 cpu:               0.6 elap:               0.0
 (Enter /data/home/wyx/g16/l302.exe)
 NPDir=0 NMtPBC=     1 NCelOv=     1 NCel=       1 NClECP=     1 NCelD=      1
         NCelK=      1 NCelE2=     1 NClLst=     1 CellRange=     0.0.
 One-electron integrals computed using PRISM.
 One-electron integral symmetry used in STVInt
 NBasis=   356 RedAO= T EigKep=  4.55D-05  NBF=   356
 NBsUse=   356 1.00D-06 EigRej= -1.00D+00 NBFU=   356
 Precomputing XC quadrature grid using
 IXCGrd= 4 IRadAn=           5 IRanWt=          -1 IRanGd=           0 AccXCQ= 0.00D+00.
 Generated NRdTot=       0 NPtTot=           0 NUsed=           0 NTot=          32
 NSgBfM=   366   366   366   366   366 MxSgAt=    29 MxSgA2=    29.
 Leave Link  302 at Sat Jan 24 19:19:10 2026, MaxMem=  2147483648 cpu:               3.1 elap:               0.2
 (Enter /data/home/wyx/g16/l303.exe)
 DipDrv:  MaxL=1.
 Leave Link  303 at Sat Jan 24 19:19:10 2026, MaxMem=  2147483648 cpu:               0.6 elap:               0.0
 (Enter /data/home/wyx/g16/l308.exe)
 Leave Link  308 at Sat Jan 24 19:19:10 2026, MaxMem=  2147483648 cpu:               0.7 elap:               0.1
 (Enter /data/home/wyx/g16/l401.exe)
 Initial guess from the checkpoint file:  "DDL-S2-cLR-7.chk"
 B after Tr=     0.000000   -0.000000   -0.000000
         Rot=    1.000000   -0.000000    0.000000    0.000000 Ang=   0.00 deg.
 Guess basis will be translated and rotated to current coordinates.
 JPrj=2 DoOrth=T DoCkMO=T.
 Leave Link  401 at Sat Jan 24 19:19:11 2026, MaxMem=  2147483648 cpu:               2.2 elap:               0.2
 (Enter /data/home/wyx/g16/l502.exe)
 Integral symmetry usage will be decided dynamically.
 Closed shell SCF:
 Using DIIS extrapolation, IDIIS=  1040.
 NGot=  2147483648 LenX=  2147200095 LenY=  2147062754
 Requested convergence on RMS density matrix=1.00D-08 within 128 cycles.
 Requested convergence on MAX density matrix=1.00D-06.
 Requested convergence on             energy=1.00D-06.
 No special actions if energy rises.
 Fock matrices will be formed incrementally for  20 cycles.

 Cycle   1  Pass 1  IDiag  1:
 FoFJK:  IHMeth= 1 ICntrl=       0 DoSepK=T KAlg= 0 I1Cent=           0 FoldK=F
 IRaf=         1 NMat=       1 IRICut=       1 DoRegI=T DoRafI=F ISym2E= 0 IDoP0=0 IntGTp=1.
 FoFCou: FMM=F IPFlag=           0 FMFlag=      100000 FMFlg1=           0
         NFxFlg=           0 DoJE=T BraDBF=F KetDBF=F FulRan=T
         wScrn=  0.000000 ICntrl=       500 IOpCl=  0 I1Cent=           0 NGrid=           0
         NMat0=    1 NMatS0=      1 NMatT0=    0 NMatD0=    1 NMtDS0=    0 NMtDT0=    0
 Symmetry not used in FoFCou.
 Inv3:  Mode=1 IEnd=    13470483.
 Iteration    1 A*A^-1 deviation from unit magnitude is 3.33D-15 for    740.
 Iteration    1 A*A^-1 deviation from orthogonality  is 2.65D-15 for   1798    249.
 Iteration    1 A^-1*A deviation from unit magnitude is 3.33D-15 for    870.
 Iteration    1 A^-1*A deviation from orthogonality  is 2.13D-15 for   1516   1270.
 E= -633.328478959366    
 DIIS: error= 1.31D-08 at cycle   1 NSaved=   1.
 NSaved= 1 IEnMin= 1 EnMin= -633.328478959366     IErMin= 1 ErrMin= 1.31D-08
 ErrMax= 1.31D-08  0.00D+00 EMaxC= 1.00D-01 BMatC= 5.10D-14 BMatP= 5.10D-14
 IDIUse=1 WtCom= 1.00D+00 WtEn= 0.00D+00
 Coeff-Com:  0.100D+01
 Coeff:      0.100D+01
 Gap=     0.225 Goal=   None    Shift=    0.000
 RMSDP=2.71D-09 MaxDP=8.40D-08              OVMax= 2.55D-07

 Error on total polarization charges =  0.01550
 SCF Done:  E(RCAM-B3LYP) =  -633.328478959     A.U. after    1 cycles
            NFock=  1  Conv=0.27D-08     -V/T= 2.0042
 KE= 6.307055063754D+02 PE=-3.276283144160D+03 EE= 1.112117526255D+03
 Leave Link  502 at Sat Jan 24 19:19:16 2026, MaxMem=  2147483648 cpu:              85.3 elap:               5.6
 (Enter /data/home/wyx/g16/l801.exe)
 DoSCS=F DFT=T ScalE2(SS,OS)=  1.000000  1.000000
 ExpMin= 9.52D-02 ExpMax= 2.70D+04 ExpMxC= 9.22D+02 IAcc=3 IRadAn=         5 AccDes= 0.00D+00
 HarFok:  IExCor=  205 AccDes= 0.00D+00 IRadAn=         5 IDoV=-2 UseB2=F ITyADJ=14
 ICtDFT= 12500011 ScaDFX=  1.000000  1.000000  1.000000  1.000000
 Largest valence mixing into a core orbital is  5.68D-05
 Largest core mixing into a valence orbital is  1.17D-05
 Range of M.O.s used for correlation:    15   356
 NBasis=   356 NAE=    52 NBE=    52 NFC=    14 NFV=     0
 NROrb=    342 NOA=    38 NOB=    38 NVA=   304 NVB=   304

 **** Warning!!: The largest alpha MO coefficient is  0.60334744D+02

 Leave Link  801 at Sat Jan 24 19:19:17 2026, MaxMem=  2147483648 cpu:               1.0 elap:               0.1
 (Enter /data/home/wyx/g16/l914.exe)
 RHF ground state
 Two-electron integrals replicated using symmetry.
 MDV=  2147483648 DFT=T DoStab=F Mixed=T DoRPA=T DoScal=F NonHer=T
 NEqPCM:  Using equilibrium solvation (IEInf=0, Eps=  78.3553, EpsInf=   1.7778)
 Making orbital integer symmetry assigments:
 Orbital symmetries:
       Occupied  (A) (A) (A) (A) (A) (A) (A) (A) (A) (A) (A) (A)
                 (A) (A) (A) (A) (A) (A) (A) (A) (A) (A) (A) (A)
                 (A) (A) (A) (A) (A) (A) (A) (A) (A) (A) (A) (A)
                 (A) (A) (A) (A) (A) (A) (A) (A) (A) (A) (A) (A)
                 (A) (A) (A) (A)
       Virtual   (A) (A) (A) (A) (A) (A) (A) (A) (A) (A) (A) (A)
                 (A) (A) (A) (A) (A) (A) (A) (A) (A) (A) (A) (A)
                 (A) (A) (A) (A) (A) (A) (A) (A) (A) (A) (A) (A)
                 (A) (A) (A) (A) (A) (A) (A) (A) (A) (A) (A) (A)
                 (A) (A) (A) (A) (A) (A) (A) (A) (A) (A) (A) (A)
                 (A) (A) (A) (A) (A) (A) (A) (A) (A) (A) (A) (A)
                 (A) (A) (A) (A) (A) (A) (A) (A) (A) (A) (A) (A)
                 (A) (A) (A) (A) (A) (A) (A) (A) (A) (A) (A) (A)
                 (A) (A) (A) (A) (A) (A) (A) (A) (A) (A) (A) (A)
                 (A) (A) (A) (A) (A) (A) (A) (A) (A) (A) (A) (A)
                 (A) (A) (A) (A) (A) (A) (A) (A) (A) (A) (A) (A)
                 (A) (A) (A) (A) (A) (A) (A) (A) (A) (A) (A) (A)
                 (A) (A) (A) (A) (A) (A) (A) (A) (A) (A) (A) (A)
                 (A) (A) (A) (A) (A) (A) (A) (A) (A) (A) (A) (A)
                 (A) (A) (A) (A) (A) (A) (A) (A) (A) (A) (A) (A)
                 (A) (A) (A) (A) (A) (A) (A) (A) (A) (A) (A) (A)
                 (A) (A) (A) (A) (A) (A) (A) (A) (A) (A) (A) (A)
                 (A) (A) (A) (A) (A) (A) (A) (A) (A) (A) (A) (A)
                 (A) (A) (A) (A) (A) (A) (A) (A) (A) (A) (A) (A)
                 (A) (A) (A) (A) (A) (A) (A) (A) (A) (A) (A) (A)
                 (A) (A) (A) (A) (A) (A) (A) (A) (A) (A) (A) (A)
                 (A) (A) (A) (A) (A) (A) (A) (A) (A) (A) (A) (A)
                 (A) (A) (A) (A) (A) (A) (A) (A) (A) (A) (A) (A)
                 (A) (A) (A) (A) (A) (A) (A) (A) (A) (A) (A) (A)
                 (A) (A) (A) (A) (A) (A) (A) (A) (A) (A) (A) (A)
                 (A) (A) (A) (A)
 PCM Corrected Linear-Response:
 Compute the excitation energies in the ground state reaction field.
    24 initial guesses have been made.
 Convergence on wavefunction:    0.000001000000000
 Davidson Disk Diagonalization:  ConvIn= 1.00D-06 SkipCon=T Conv= 1.00D-06.
 Max sub-space:  2000 roots to seek:    24 dimension of matrix:        23104
 Iteration     1 Dimension    24 NMult     0 NNew     24
 CISAX will form    24 AO SS matrices at one time.
 NMat=    24 NSing=    24 JSym2X= 0.
 FoFJK:  IHMeth= 1 ICntrl=       0 DoSepK=T KAlg= 0 I1Cent=           0 FoldK=F
 IRaf=         1 NMat=      48 IRICut=       1 DoRegI=T DoRafI=F ISym2E= 0 IDoP0=3 IntGTp=3.
 FoFCou: FMM=F IPFlag=           0 FMFlag=      100000 FMFlg1=           0
         NFxFlg=           0 DoJE=F BraDBF=F KetDBF=F FulRan=T
         wScrn=  0.000000 ICntrl=       500 IOpCl=  0 I1Cent=           0 NGrid=           0
         NMat0=   24 NMatS0=     24 NMatT0=    0 NMatD0=   24 NMtDS0=    0 NMtDT0=    0
 Symmetry not used in FoFCou.
 New state      2 was old state      3
 New state      3 was old state      4
 New state      4 was old state      2
 New state      5 was old state      6
 New state      6 was old state      5
 Excitation Energies [eV] at current iteration:
 Root      1 :     3.711605378262114
 Root      2 :     4.253575870889628
 Root      3 :     4.461765207405268
 Root      4 :     5.398141208886959
 Root      5 :     6.048936110919193
 Root      6 :     6.390433970418059
 Root      7 :     6.678982709136658
 Root      8 :     6.779689225809768
 Root      9 :     6.971506650551434
 Root     10 :     6.999522055877864
 Root     11 :     7.207873906668134
 Root     12 :     7.331210793750387
 Root     13 :     7.443540171617618
 Root     14 :     7.468831618817347
 Root     15 :     7.847410006740060
 Root     16 :     7.868173314233774
 Root     17 :     8.106045327728928
 Root     18 :     8.177134888435516
 Root     19 :     8.284572744949021
 Root     20 :     8.328996343306081
 Root     21 :     8.535911718513939
 Root     22 :     8.758986857260615
 Root     23 :     8.872872248854131
 Root     24 :     9.019580039393107
 Iteration     2 Dimension    36 NMult    24 NNew     12
 CISAX will form    12 AO SS matrices at one time.
 NMat=    12 NSing=    12 JSym2X= 0.
 Root      1 not converged, maximum delta is    0.036697323574084
 Root      2 not converged, maximum delta is    0.074916250449711
 Root      3 not converged, maximum delta is    0.083519918859008
 Root      4 not converged, maximum delta is    0.192437947828364
 New state      5 was old state      6
 Root      5 not converged, maximum delta is    0.188387499958211
 New state      6 was old state      5
 Root      6 not converged, maximum delta is    0.093297861658933
 Excitation Energies [eV] at current iteration:
 Root      1 :     3.241242971512220   Change is   -0.470362406749894
 Root      2 :     4.032713055213976   Change is   -0.220862815675652
 Root      3 :     4.201109991163732   Change is   -0.260655216241536
 Root      4 :     5.083848766622885   Change is   -0.314292442264074
 Root      5 :     5.545201760274844   Change is   -0.845232210143215
 Root      6 :     5.942525326807240   Change is   -0.106410784111953
 Iteration     3 Dimension    48 NMult    36 NNew     12
 CISAX will form    12 AO SS matrices at one time.
 NMat=    12 NSing=    12 JSym2X= 0.
 Root      1 not converged, maximum delta is    0.008324266598608
 Root      2 not converged, maximum delta is    0.013906854042811
 Root      3 not converged, maximum delta is    0.012174565302407
 Root      4 not converged, maximum delta is    0.021101000841927
 Root      5 not converged, maximum delta is    0.023925453508114
 Root      6 not converged, maximum delta is    0.007459897664846
 Excitation Energies [eV] at current iteration:
 Root      1 :     3.221173868538629   Change is   -0.020069102973591
 Root      2 :     4.019845491833659   Change is   -0.012867563380316
 Root      3 :     4.187336307422380   Change is   -0.013773683741352
 Root      4 :     5.063885115640074   Change is   -0.019963650982811
 Root      5 :     5.507832026029909   Change is   -0.037369734244935
 Root      6 :     5.937091467198915   Change is   -0.005433859608325
 Iteration     4 Dimension    60 NMult    48 NNew     12
 CISAX will form    12 AO SS matrices at one time.
 NMat=    12 NSing=    12 JSym2X= 0.
 Root      1 not converged, maximum delta is    0.002205896766129
 Root      2 not converged, maximum delta is    0.001931758813219
 Root      3 not converged, maximum delta is    0.002143971733761
 Root      4 not converged, maximum delta is    0.002455342456001
 Root      5 not converged, maximum delta is    0.003911104176462
 Root      6 not converged, maximum delta is    0.002197066164005
 Excitation Energies [eV] at current iteration:
 Root      1 :     3.219644105376503   Change is   -0.001529763162126
 Root      2 :     4.019139972835181   Change is   -0.000705518998479
 Root      3 :     4.186412535113837   Change is   -0.000923772308542
 Root      4 :     5.062072806099584   Change is   -0.001812309540490
 Root      5 :     5.504066942671670   Change is   -0.003765083358240
 Root      6 :     5.936733261795978   Change is   -0.000358205402937
 Iteration     5 Dimension    72 NMult    60 NNew     12
 CISAX will form    12 AO SS matrices at one time.
 NMat=    12 NSing=    12 JSym2X= 0.
 Root      1 not converged, maximum delta is    0.000748119915808
 Root      2 not converged, maximum delta is    0.000347452627016
 Root      3 not converged, maximum delta is    0.000517100155508
 Root      4 not converged, maximum delta is    0.000538552822205
 Root      5 not converged, maximum delta is    0.001184686898243
 Root      6 not converged, maximum delta is    0.000383384494456
 Excitation Energies [eV] at current iteration:
 Root      1 :     3.219555354768220   Change is   -0.000088750608283
 Root      2 :     4.019085342435272   Change is   -0.000054630399909
 Root      3 :     4.186363907607578   Change is   -0.000048627506259
 Root      4 :     5.061944965079179   Change is   -0.000127841020406
 Root      5 :     5.503770420882586   Change is   -0.000296521789083
 Root      6 :     5.936704617809574   Change is   -0.000028643986404
 Iteration     6 Dimension    84 NMult    72 NNew     12
 CISAX will form    12 AO SS matrices at one time.
 NMat=    12 NSing=    12 JSym2X= 0.
 Root      1 not converged, maximum delta is    0.000164676344937
 Root      2 not converged, maximum delta is    0.000106249564584
 Root      3 not converged, maximum delta is    0.000117307254542
 Root      4 not converged, maximum delta is    0.000260384195738
 Root      5 not converged, maximum delta is    0.000669468537015
 Root      6 not converged, maximum delta is    0.000189301648835
 Excitation Energies [eV] at current iteration:
 Root      1 :     3.219551049096442   Change is   -0.000004305671779
 Root      2 :     4.019082193536078   Change is   -0.000003148899193
 Root      3 :     4.186361247959827   Change is   -0.000002659647752
 Root      4 :     5.061935227028233   Change is   -0.000009738050946
 Root      5 :     5.503742587911457   Change is   -0.000027832971129
 Root      6 :     5.936701886384692   Change is   -0.000002731424882
 Iteration     7 Dimension    96 NMult    84 NNew     12
 CISAX will form    12 AO SS matrices at one time.
 NMat=    12 NSing=    12 JSym2X= 0.
 Root      1 not converged, maximum delta is    0.000017817948639
 Root      2 not converged, maximum delta is    0.000022821270515
 Root      3 not converged, maximum delta is    0.000028629639659
 Root      4 not converged, maximum delta is    0.000075102825931
 Root      5 not converged, maximum delta is    0.000234586791278
 Root      6 not converged, maximum delta is    0.000074023303833
 Excitation Energies [eV] at current iteration:
 Root      1 :     3.219550811414999   Change is   -0.000000237681443
 Root      2 :     4.019082026873368   Change is   -0.000000166662710
 Root      3 :     4.186361098670759   Change is   -0.000000149289067
 Root      4 :     5.061934462476883   Change is   -0.000000764551350
 Root      5 :     5.503739357567460   Change is   -0.000003230343998
 Root      6 :     5.936701633632111   Change is   -0.000000252752580
 Iteration     8 Dimension   108 NMult    96 NNew     12
 CISAX will form    12 AO SS matrices at one time.
 NMat=    12 NSing=    12 JSym2X= 0.
 Root      1 not converged, maximum delta is    0.000002202510712
 Root      2 not converged, maximum delta is    0.000002950270576
 Root      3 not converged, maximum delta is    0.000002716168198
 Root      4 not converged, maximum delta is    0.000018293063736
 Root      5 not converged, maximum delta is    0.000032044243925
 Root      6 not converged, maximum delta is    0.000017649461889
 Excitation Energies [eV] at current iteration:
 Root      1 :     3.219550803681665   Change is   -0.000000007733334
 Root      2 :     4.019082018586738   Change is   -0.000000008286631
 Root      3 :     4.186361089909758   Change is   -0.000000008761002
 Root      4 :     5.061934408735256   Change is   -0.000000053741627
 Root      5 :     5.503739127734019   Change is   -0.000000229833440
 Root      6 :     5.936701608304222   Change is   -0.000000025327889
 Iteration     9 Dimension   120 NMult   108 NNew     12
 CISAX will form    12 AO SS matrices at one time.
 NMat=    12 NSing=    12 JSym2X= 0.
 Root      1 has converged.
 Root      2 has converged.
 Root      3 has converged.
 Root      4 not converged, maximum delta is    0.000003197558873
 Root      5 not converged, maximum delta is    0.000006550653542
 Root      6 not converged, maximum delta is    0.000005259038873
 Excitation Energies [eV] at current iteration:
 Root      1 :     3.219550803462661   Change is   -0.000000000219004
 Root      2 :     4.019082018273685   Change is   -0.000000000313053
 Root      3 :     4.186361089631482   Change is   -0.000000000278276
 Root      4 :     5.061934405992442   Change is   -0.000000002742814
 Root      5 :     5.503739115541173   Change is   -0.000000012192845
 Root      6 :     5.936701606144494   Change is   -0.000000002159728
 Iteration    10 Dimension   126 NMult   120 NNew      6
 CISAX will form     6 AO SS matrices at one time.
 NMat=     6 NSing=     6 JSym2X= 0.
 Root      1 has converged.
 Root      2 has converged.
 Root      3 has converged.
 Root      4 has converged.
 Root      5 not converged, maximum delta is    0.000001065668167
 Root      6 not converged, maximum delta is    0.000001407816891
 Excitation Energies [eV] at current iteration:
 Root      1 :     3.219550803462278   Change is   -0.000000000000383
 Root      2 :     4.019082018272027   Change is   -0.000000000001657
 Root      3 :     4.186361089630794   Change is   -0.000000000000687
 Root      4 :     5.061934405880108   Change is   -0.000000000112335
 Root      5 :     5.503739114935073   Change is   -0.000000000606100
 Root      6 :     5.936701605990345   Change is   -0.000000000154149
 Iteration    11 Dimension   130 NMult   126 NNew      4
 CISAX will form     4 AO SS matrices at one time.
 NMat=     4 NSing=     4 JSym2X= 0.
 Root      1 has converged.
 Root      2 has converged.
 Root      3 has converged.
 Root      4 has converged.
 Root      5 has converged.
 Root      6 has converged.
 Excitation Energies [eV] at current iteration:
 Root      1 :     3.219550803462278   Change is    0.000000000000000
 Root      2 :     4.019082018271845   Change is   -0.000000000000184
 Root      3 :     4.186361089630715   Change is   -0.000000000000079
 Root      4 :     5.061934405878614   Change is   -0.000000000001494
 Root      5 :     5.503739114906096   Change is   -0.000000000028977
 Root      6 :     5.936701605979642   Change is   -0.000000000010704
 Convergence achieved on expansion vectors.
 PCM Corrected Linear-Response:
 The state of interest is root number   2
 Excitation energy =    4.0191 eV, Total energy =  -633.180780413    
 Recompute the excitation energies using the linear response reaction field.
 Convergence on wavefunction:    0.000001000000000
 Davidson Disk Diagonalization:  ConvIn= 1.00D-06 SkipCon=T Conv= 1.00D-06.
 Max sub-space:  2000 roots to seek:     6 dimension of matrix:        23104
 Iteration     1 Dimension     6 NMult     0 NNew      6
 CISAX will form     6 AO SS matrices at one time.
 NMat=     6 NSing=     6 JSym2X= 0.
 Excitation Energies [eV] at current iteration:
 Root      1 :     3.304410354164572
 Root      2 :     4.044264869315199
 Root      3 :     4.211709560264921
 Root      4 :     5.124985932730224
 Root      5 :     5.648026578637576
 Root      6 :     5.896646023117021
 Iteration     2 Dimension    18 NMult     6 NNew     12
 CISAX will form    12 AO SS matrices at one time.
 NMat=    12 NSing=    12 JSym2X= 0.
 Root      1 not converged, maximum delta is    0.019080805749469
 Root      2 not converged, maximum delta is    0.008908376562970
 Root      3 not converged, maximum delta is    0.009236387053315
 Root      4 not converged, maximum delta is    0.226790873997604
 Root      5 not converged, maximum delta is    0.289521245588712
 Root      6 not converged, maximum delta is    0.064124507862179
 Excitation Energies [eV] at current iteration:
 Root      1 :     3.074678169030410   Change is   -0.229732185134162
 Root      2 :     4.013758470931197   Change is   -0.030506398384002
 Root      3 :     4.179839202729403   Change is   -0.031870357535518
 Root      4 :     4.893313698788764   Change is   -0.231672233941460
 Root      5 :     5.353009956236348   Change is   -0.295016622401228
 Root      6 :     5.872877423201474   Change is   -0.023768599915547
 Iteration     3 Dimension    30 NMult    18 NNew     12
 CISAX will form    12 AO SS matrices at one time.
 NMat=    12 NSing=    12 JSym2X= 0.
 Root      1 not converged, maximum delta is    0.002766068773536
 Root      2 not converged, maximum delta is    0.001099952372910
 Root      3 not converged, maximum delta is    0.001434538806438
 Root      4 not converged, maximum delta is    0.012277162118357
 Root      5 not converged, maximum delta is    0.014235978699339
 Root      6 not converged, maximum delta is    0.008838857066227
 Excitation Energies [eV] at current iteration:
 Root      1 :     3.071223033267977   Change is   -0.003455135762433
 Root      2 :     4.013431045362594   Change is   -0.000327425568602
 Root      3 :     4.179458311817303   Change is   -0.000380890912100
 Root      4 :     4.883234012342412   Change is   -0.010079686446351
 Root      5 :     5.344185336257006   Change is   -0.008824619979342
 Root      6 :     5.870961218842099   Change is   -0.001916204359375
 Iteration     4 Dimension    42 NMult    30 NNew     12
 CISAX will form    12 AO SS matrices at one time.
 NMat=    12 NSing=    12 JSym2X= 0.
 Root      1 not converged, maximum delta is    0.001734650846211
 Root      2 not converged, maximum delta is    0.000205336490017
 Root      3 not converged, maximum delta is    0.000244558722300
 Root      4 not converged, maximum delta is    0.002711941533169
 Root      5 not converged, maximum delta is    0.004212757643500
 Root      6 not converged, maximum delta is    0.009050763929548
 Excitation Energies [eV] at current iteration:
 Root      1 :     3.070802478311356   Change is   -0.000420554956621
 Root      2 :     4.013415513153789   Change is   -0.000015532208806
 Root      3 :     4.179435030005276   Change is   -0.000023281812027
 Root      4 :     4.881502475790504   Change is   -0.001731536551909
 Root      5 :     5.342714374573268   Change is   -0.001470961683737
 Root      6 :     5.870372771387891   Change is   -0.000588447454207
 Iteration     5 Dimension    54 NMult    42 NNew     12
 CISAX will form    12 AO SS matrices at one time.
 NMat=    12 NSing=    12 JSym2X= 0.
 Root      1 not converged, maximum delta is    0.000399060267194
 Root      2 not converged, maximum delta is    0.000085376367115
 Root      3 not converged, maximum delta is    0.000083951312322
 Root      4 not converged, maximum delta is    0.000693985448876
 Root      5 not converged, maximum delta is    0.000663144275232
 Root      6 not converged, maximum delta is    0.003408875027257
 Excitation Energies [eV] at current iteration:
 Root      1 :     3.070774051994436   Change is   -0.000028426316920
 Root      2 :     4.013414468608806   Change is   -0.000001044544983
 Root      3 :     4.179433110545886   Change is   -0.000001919459390
 Root      4 :     4.881350537659267   Change is   -0.000151938131237
 Root      5 :     5.342577583789889   Change is   -0.000136790783380
 Root      6 :     5.870264087366272   Change is   -0.000108684021620
 Iteration     6 Dimension    66 NMult    54 NNew     12
 CISAX will form    12 AO SS matrices at one time.
 NMat=    12 NSing=    12 JSym2X= 0.
 Root      1 not converged, maximum delta is    0.000069237392142
 Root      2 not converged, maximum delta is    0.000025242757182
 Root      3 not converged, maximum delta is    0.000032961724438
 Root      4 not converged, maximum delta is    0.000263799147229
 Root      5 not converged, maximum delta is    0.000287079539283
 Root      6 not converged, maximum delta is    0.000842034956762
 Excitation Energies [eV] at current iteration:
 Root      1 :     3.070772422499253   Change is   -0.000001629495183
 Root      2 :     4.013414363724158   Change is   -0.000000104884648
 Root      3 :     4.179432935809795   Change is   -0.000000174736090
 Root      4 :     4.881336454375613   Change is   -0.000014083283654
 Root      5 :     5.342564064569261   Change is   -0.000013519220627
 Root      6 :     5.870249630804284   Change is   -0.000014456561988
 Iteration     7 Dimension    78 NMult    66 NNew     12
 CISAX will form    12 AO SS matrices at one time.
 NMat=    12 NSing=    12 JSym2X= 0.
 Root      1 not converged, maximum delta is    0.000011079154333
 Root      2 not converged, maximum delta is    0.000006232832432
 Root      3 not converged, maximum delta is    0.000006889161437
 Root      4 not converged, maximum delta is    0.000102088617631
 Root      5 not converged, maximum delta is    0.000095019099708
 Root      6 not converged, maximum delta is    0.000143465478897
 Excitation Energies [eV] at current iteration:
 Root      1 :     3.070772361355057   Change is   -0.000000061144196
 Root      2 :     4.013414358570772   Change is   -0.000000005153386
 Root      3 :     4.179432927177484   Change is   -0.000000008632311
 Root      4 :     4.881335371616166   Change is   -0.000001082759446
 Root      5 :     5.342562974373045   Change is   -0.000001090196216
 Root      6 :     5.870248161079588   Change is   -0.000001469724695
 Iteration     8 Dimension    90 NMult    78 NNew     12
 CISAX will form    12 AO SS matrices at one time.
 NMat=    12 NSing=    12 JSym2X= 0.
 Root      1 not converged, maximum delta is    0.000002592991411
 Root      2 not converged, maximum delta is    0.000001429715046
 Root      3 not converged, maximum delta is    0.000001100091630
 Root      4 not converged, maximum delta is    0.000025903192541
 Root      5 not converged, maximum delta is    0.000032416000324
 Root      6 not converged, maximum delta is    0.000040842902260
 Excitation Energies [eV] at current iteration:
 Root      1 :     3.070772358553395   Change is   -0.000000002801661
 Root      2 :     4.013414358397424   Change is   -0.000000000173349
 Root      3 :     4.179432926707166   Change is   -0.000000000470318
 Root      4 :     4.881335286871598   Change is   -0.000000084744569
 Root      5 :     5.342562857926012   Change is   -0.000000116447033
 Root      6 :     5.870247994502145   Change is   -0.000000166577444
 Iteration     9 Dimension   102 NMult    90 NNew     12
 CISAX will form    12 AO SS matrices at one time.
 NMat=    12 NSing=    12 JSym2X= 0.
 Root      1 has converged.
 Root      2 has converged.
 Root      3 has converged.
 Root      4 not converged, maximum delta is    0.000006323930958
 Root      5 not converged, maximum delta is    0.000009983644738
 Root      6 not converged, maximum delta is    0.000023136415662
 Excitation Energies [eV] at current iteration:
 Root      1 :     3.070772358429794   Change is   -0.000000000123601
 Root      2 :     4.013414358389742   Change is   -0.000000000007681
 Root      3 :     4.179432926674633   Change is   -0.000000000032533
 Root      4 :     4.881335281860602   Change is   -0.000000005010996
 Root      5 :     5.342562848088385   Change is   -0.000000009837627
 Root      6 :     5.870247975841925   Change is   -0.000000018660220
 Iteration    10 Dimension   108 NMult   102 NNew      6
 CISAX will form     6 AO SS matrices at one time.
 NMat=     6 NSing=     6 JSym2X= 0.
 Root      1 has converged.
 Root      2 has converged.
 Root      3 has converged.
 Root      4 not converged, maximum delta is    0.000001417683589
 Root      5 not converged, maximum delta is    0.000002709343808
 Root      6 not converged, maximum delta is    0.000007969662720
 Excitation Energies [eV] at current iteration:
 Root      1 :     3.070772358429098   Change is   -0.000000000000696
 Root      2 :     4.013414358389599   Change is   -0.000000000000144
 Root      3 :     4.179432926674122   Change is   -0.000000000000511
 Root      4 :     4.881335281598401   Change is   -0.000000000262200
 Root      5 :     5.342562847396018   Change is   -0.000000000692367
 Root      6 :     5.870247973878186   Change is   -0.000000001963739
 Iteration    11 Dimension   114 NMult   108 NNew      6
 CISAX will form     6 AO SS matrices at one time.
 NMat=     6 NSing=     6 JSym2X= 0.
 Root      1 has converged.
 Root      2 has converged.
 Root      3 has converged.
 Root      4 has converged.
 Root      5 has converged.
 Root      6 not converged, maximum delta is    0.000001294247777
 Excitation Energies [eV] at current iteration:
 Root      1 :     3.070772358429071   Change is   -0.000000000000027
 Root      2 :     4.013414358389558   Change is   -0.000000000000041
 Root      3 :     4.179432926673984   Change is   -0.000000000000138
 Root      4 :     4.881335281582620   Change is   -0.000000000015781
 Root      5 :     5.342562847345887   Change is   -0.000000000050132
 Root      6 :     5.870247973706538   Change is   -0.000000000171648
 Iteration    12 Dimension   116 NMult   114 NNew      2
 CISAX will form     2 AO SS matrices at one time.
 NMat=     2 NSing=     2 JSym2X= 0.
 Root      1 has converged.
 Root      2 has converged.
 Root      3 has converged.
 Root      4 has converged.
 Root      5 has converged.
 Root      6 has converged.
 Excitation Energies [eV] at current iteration:
 Root      1 :     3.070772358429045   Change is   -0.000000000000027
 Root      2 :     4.013414358389599   Change is    0.000000000000041
 Root      3 :     4.179432926674004   Change is    0.000000000000020
 Root      4 :     4.881335281582637   Change is    0.000000000000017
 Root      5 :     5.342562847345872   Change is   -0.000000000000015
 Root      6 :     5.870247973693725   Change is   -0.000000000012813
 Convergence achieved on expansion vectors.
 ***********************************************************************
 Excited states from <AA,BB:AA,BB> singles matrix:
 ***********************************************************************
 
 1PDM for each excited state written to RWF  633
 Ground to excited state transition densities written to RWF  633
 Ground to excited state transition electric dipole moments (Au):
       state          X           Y           Z        Dip. S.      Osc.
         1         1.7211      0.2116      0.0562      3.0100      0.2265
         2         0.0662     -0.0301      0.0393      0.0068      0.0007
         3        -0.0412     -0.1531      0.0301      0.0260      0.0027
         4         0.2052     -1.9665      0.0885      3.9171      0.4685
         5         0.0730     -1.4649      0.0017      2.1513      0.2816
         6        -0.0269      0.2623      0.0413      0.0713      0.0102
 Ground to excited state transition velocity dipole moments (Au):
       state          X           Y           Z        Dip. S.      Osc.
         1        -0.1868     -0.0196     -0.0068      0.0353      0.2086
         2        -0.0093      0.0048     -0.0026      0.0001      0.0005
         3         0.0059      0.0214     -0.0012      0.0005      0.0021
         4        -0.0406      0.3384     -0.0123      0.1163      0.4322
         5        -0.0143      0.2827     -0.0015      0.0801      0.2721
         6         0.0069     -0.0535     -0.0289      0.0037      0.0116
 Ground to excited state transition magnetic dipole moments (Au):
       state          X           Y           Z
         1        -0.0397     -0.0385      1.4569
         2         0.7985      0.1226      0.2047
         3        -0.1788     -0.9803     -0.2127
         4         0.0522      0.1049     -0.1121
         5         0.1433      0.1040     -0.2631
         6         0.1208      0.0273     -0.0485
 Ground to excited state transition velocity quadrupole moments (Au):
       state          XX          YY          ZZ          XY          XZ          YZ
         1        -0.1869      0.1030      0.0041      0.5177     -0.0429      0.0171
         2         0.0156     -0.0090     -0.0041      0.0305     -0.0094      0.0850
         3         0.0016      0.0029     -0.0237     -0.0663      0.0656     -0.0101
         4        -1.4067      0.3024      0.0103     -0.1198     -0.0900     -0.0354
         5        -0.3547      0.2606      0.0366     -0.2196     -0.0588      0.0202
         6        -0.2503     -0.2078      0.1735     -0.0244     -0.0395      0.1663
 <0|del|b> * <b|rxdel|0> + <0|del|b> * <b|delr+rdel|0>
 Rotatory Strengths (R) in cgs (10**-40 erg-esu-cm/Gauss)
       state          XX          YY          ZZ    R(velocity)    E-M Angle
         1       -42.3738     -6.8051     38.2758     -3.6343       90.36
         2         0.0354    -20.8371    -14.6557    -11.8191      145.32
         3       -50.6832     -2.1639    -47.2943    -33.3805      164.03
         4       135.5922     -1.5321      2.9351     45.6651       51.06
         5        84.2511     -4.0836     19.8357     33.3344       71.98
         6        -2.3972      4.3844      0.5628      0.8500       84.52
 1/2[<0|r|b>*<b|rxdel|0> + (<0|rxdel|b>*<b|r|0>)*]
 Rotatory Strengths (R) in cgs (10**-40 erg-esu-cm/Gauss)
       state          XX          YY          ZZ     R(length)
         1        48.3498      5.7633    -57.9064     -1.2644
         2       -37.3760      2.6094     -5.6870    -13.4845
         3        -5.2099   -106.1456      4.5269    -35.6095
         4        -7.5779    145.8717      7.0126     48.4355
         5        -7.3939    107.7421      0.3138     33.5540
         6         2.3008     -5.0588      1.4188     -0.4464
  1/2[<0|del|b>*<b|r|0> + (<0|r|b>*<b|del|0>)*] (Au)
       state          X           Y           Z        Dip. S.   Osc.(frdel)
         1        -0.3214     -0.0041     -0.0004      0.3259      0.2173
         2        -0.0006     -0.0001     -0.0001      0.0009      0.0006
         3        -0.0002     -0.0033     -0.0000      0.0036      0.0024
         4        -0.0083     -0.6654     -0.0011      0.6748      0.4499
         5        -0.0010     -0.4142     -0.0000      0.4152      0.2768
         6        -0.0002     -0.0140     -0.0012      0.0154      0.0103

 Excitation energies and oscillator strengths:
 
 Excited State   1:      Singlet-A      3.0708 eV  403.76 nm  f=0.2265  <S**2>=0.000
      52 -> 53         0.70072
 
 Excited State   2:      Singlet-A      4.0134 eV  308.92 nm  f=0.0007  <S**2>=0.000
      50 -> 54        -0.18109
      51 -> 53         0.57881
      51 -> 54         0.31014
 This state for optimization and/or second-order correction.
 Total Energy, E(TD-HF/TD-DFT) =  -633.180988696    
 Copying the excited state density for this state as the 1-particle RhoCI density.
 
 Excited State   3:      Singlet-A      4.1794 eV  296.65 nm  f=0.0027  <S**2>=0.000
      49 -> 53        -0.31489
      49 -> 54         0.18744
      50 -> 53         0.49263
      50 -> 54        -0.22019
      50 -> 58         0.10342
      51 -> 54        -0.20596
 
 Excited State   4:      Singlet-A      4.8813 eV  254.00 nm  f=0.4685  <S**2>=0.000
      49 -> 53         0.12315
      52 -> 54         0.68608
 
 Excited State   5:      Singlet-A      5.3426 eV  232.07 nm  f=0.2816  <S**2>=0.000
      49 -> 53         0.56387
      50 -> 53         0.36375
      51 -> 53         0.12369
      52 -> 54        -0.13705
 
 Excited State   6:      Singlet-A      5.8702 eV  211.21 nm  f=0.0102  <S**2>=0.000
      52 -> 55         0.65762
      52 -> 56         0.16758
 SavETr:  write IOETrn=   770 NScale= 10 NData=  16 NLR=1 NState=    6 LETran=     118.
 The selected state is a singlet.
 CISGrd: IGrad=1 NXY=2 DFT=T
 CISAX will form     1 AO SS matrices at one time.
 NMat=     1 NSing=     1 JSym2X= 0.
 Leave Link  914 at Sat Jan 24 19:27:22 2026, MaxMem=  2147483648 cpu:            7743.8 elap:             485.6
 (Enter /data/home/wyx/g16/l1002.exe)
 Minotr:  Closed shell wavefunction.
          Computing CIS/TDA/TD derivatives.
          Using Z-Vector for PSCF gradient.
          Skipping F1 and S1 gradient terms here.
 NEqPCM:  Using equilibrium solvation (IEInf=0, Eps=  78.3553, EpsInf=   1.7778)
          Frozen-core window.
          Direct CPHF calculation.
          Differentiating once with respect to electric field.
                with respect to dipole field.
          Electric field/nuclear overlap derivatives assumed to be zero.
          Requested convergence is 1.0D-10 RMS, and 1.0D-09 maximum.
          NewPWx=F KeepS1=T KeepF1=T KeepIn=T MapXYZ=F SortEE=F KeepMc=T.
 Two-electron integral symmetry used by symmetrizing perturbed Fock matrices.
          MDV=    2147483648 using IRadAn=       5.
          Solving linear equations separately, MaxMat=     384.
          There are     1 degrees of freedom in the 1st order CPHF.  IDoFFX=0 NUNeed=     1.
 FoFJK:  IHMeth= 1 ICntrl=       0 DoSepK=T KAlg= 0 I1Cent=           0 FoldK=F
 IRaf=         1 NMat=       1 IRICut=       1 DoRegI=T DoRafI=F ISym2E=-1 IDoP0=0 IntGTp=1.
 FoFCou: FMM=F IPFlag=           0 FMFlag=      100000 FMFlg1=           0
         NFxFlg=           0 DoJE=T BraDBF=F KetDBF=F FulRan=T
         wScrn=  0.000000 ICntrl=       500 IOpCl=  0 I1Cent=           0 NGrid=           0
         NMat0=    1 NMatS0=      1 NMatT0=    0 NMatD0=    1 NMtDS0=    0 NMtDT0=    0
 Petite list used in FoFCou.
 LinEq1:  Iter=  0 NonCon=     1 RMS=7.95D-03 Max=3.39D-01 NDo=     1
 AX will form     1 AO Fock derivatives at one time.
 LinEq1:  Iter=  1 NonCon=     1 RMS=2.16D-03 Max=9.80D-02 NDo=     1
 LinEq1:  Iter=  2 NonCon=     1 RMS=1.54D-03 Max=9.26D-02 NDo=     1
 LinEq1:  Iter=  3 NonCon=     1 RMS=6.23D-04 Max=3.26D-02 NDo=     1
 LinEq1:  Iter=  4 NonCon=     1 RMS=3.32D-04 Max=1.44D-02 NDo=     1
 LinEq1:  Iter=  5 NonCon=     1 RMS=1.71D-04 Max=8.78D-03 NDo=     1
 LinEq1:  Iter=  6 NonCon=     1 RMS=8.65D-05 Max=2.82D-03 NDo=     1
 LinEq1:  Iter=  7 NonCon=     1 RMS=5.01D-05 Max=2.01D-03 NDo=     1
 LinEq1:  Iter=  8 NonCon=     1 RMS=2.26D-05 Max=8.20D-04 NDo=     1
 LinEq1:  Iter=  9 NonCon=     1 RMS=1.66D-05 Max=8.00D-04 NDo=     1
 LinEq1:  Iter= 10 NonCon=     1 RMS=6.51D-06 Max=1.21D-04 NDo=     1
 LinEq1:  Iter= 11 NonCon=     1 RMS=3.87D-06 Max=1.36D-04 NDo=     1
 LinEq1:  Iter= 12 NonCon=     1 RMS=1.22D-06 Max=3.80D-05 NDo=     1
 LinEq1:  Iter= 13 NonCon=     1 RMS=5.75D-07 Max=1.47D-05 NDo=     1
 LinEq1:  Iter= 14 NonCon=     1 RMS=2.12D-07 Max=4.99D-06 NDo=     1
 LinEq1:  Iter= 15 NonCon=     1 RMS=9.19D-08 Max=2.61D-06 NDo=     1
 LinEq1:  Iter= 16 NonCon=     1 RMS=3.47D-08 Max=1.54D-06 NDo=     1
 LinEq1:  Iter= 17 NonCon=     1 RMS=1.42D-08 Max=6.18D-07 NDo=     1
 LinEq1:  Iter= 18 NonCon=     1 RMS=6.09D-09 Max=1.97D-07 NDo=     1
 LinEq1:  Iter= 19 NonCon=     1 RMS=1.76D-09 Max=4.45D-08 NDo=     1
 LinEq1:  Iter= 20 NonCon=     1 RMS=4.85D-10 Max=1.35D-08 NDo=     1
 LinEq1:  Iter= 21 NonCon=     1 RMS=1.77D-10 Max=4.51D-09 NDo=     1
 LinEq1:  Iter= 22 NonCon=     1 RMS=7.45D-11 Max=1.95D-09 NDo=     1
 LinEq1:  Iter= 23 NonCon=     0 RMS=2.08D-11 Max=6.40D-10 NDo=     1
 Linear equations converged to 1.000D-10 1.000D-09 after    23 iterations.
 PCM Corrected Linear-Response - Equilibrium solvation:
 Corrected transition energy               =    3.9112          eV
 Total energy after correction             = -633.184745366     a.u.
 NEqPCM:  Using non-equilibrium solvation (IEInf=1, Eps=  78.3553, EpsInf=   1.7778)
 Inv3:  Mode=1 IEnd=    13470483.
 Iteration    1 A*A^-1 deviation from unit magnitude is 3.22D-15 for    501.
 Iteration    1 A*A^-1 deviation from orthogonality  is 2.20D-15 for   1402    913.
 Iteration    1 A^-1*A deviation from unit magnitude is 3.00D-15 for    501.
 Iteration    1 A^-1*A deviation from orthogonality  is 1.49D-15 for   1329    438.
 NEqSol: Computing the dynamic-inertial partition of the PCM polarization charges.
 End of Minotr F.D. properties file   721 does not exist.
 End of Minotr F.D. properties file   722 does not exist.
 End of Minotr F.D. properties file   788 does not exist.
 Leave Link 1002 at Sat Jan 24 19:29:23 2026, MaxMem=  2147483648 cpu:            1907.1 elap:             120.0
 (Enter /data/home/wyx/g16/l601.exe)
 Copying SCF densities to generalized density rwf, IOpCl= 0 IROHF=0.

 **********************************************************************

            Population analysis using the CI density.

 **********************************************************************

 Orbital symmetries:
       Occupied  (A) (A) (A) (A) (A) (A) (A) (A) (A) (A) (A) (A)
                 (A) (A) (A) (A) (A) (A) (A) (A) (A) (A) (A) (A)
                 (A) (A) (A) (A) (A) (A) (A) (A) (A) (A) (A) (A)
                 (A) (A) (A) (A) (A) (A) (A) (A) (A) (A) (A) (A)
                 (A) (A) (A) (A)
       Virtual   (A) (A) (A) (A) (A) (A) (A) (A) (A) (A) (A) (A)
                 (A) (A) (A) (A) (A) (A) (A) (A) (A) (A) (A) (A)
                 (A) (A) (A) (A) (A) (A) (A) (A) (A) (A) (A) (A)
                 (A) (A) (A) (A) (A) (A) (A) (A) (A) (A) (A) (A)
                 (A) (A) (A) (A) (A) (A) (A) (A) (A) (A) (A) (A)
                 (A) (A) (A) (A) (A) (A) (A) (A) (A) (A) (A) (A)
                 (A) (A) (A) (A) (A) (A) (A) (A) (A) (A) (A) (A)
                 (A) (A) (A) (A) (A) (A) (A) (A) (A) (A) (A) (A)
                 (A) (A) (A) (A) (A) (A) (A) (A) (A) (A) (A) (A)
                 (A) (A) (A) (A) (A) (A) (A) (A) (A) (A) (A) (A)
                 (A) (A) (A) (A) (A) (A) (A) (A) (A) (A) (A) (A)
                 (A) (A) (A) (A) (A) (A) (A) (A) (A) (A) (A) (A)
                 (A) (A) (A) (A) (A) (A) (A) (A) (A) (A) (A) (A)
                 (A) (A) (A) (A) (A) (A) (A) (A) (A) (A) (A) (A)
                 (A) (A) (A) (A) (A) (A) (A) (A) (A) (A) (A) (A)
                 (A) (A) (A) (A) (A) (A) (A) (A) (A) (A) (A) (A)
                 (A) (A) (A) (A) (A) (A) (A) (A) (A) (A) (A) (A)
                 (A) (A) (A) (A) (A) (A) (A) (A) (A) (A) (A) (A)
                 (A) (A) (A) (A) (A) (A) (A) (A) (A) (A) (A) (A)
                 (A) (A) (A) (A) (A) (A) (A) (A) (A) (A) (A) (A)
                 (A) (A) (A) (A) (A) (A) (A) (A) (A) (A) (A) (A)
                 (A) (A) (A) (A) (A) (A) (A) (A) (A) (A) (A) (A)
                 (A) (A) (A) (A) (A) (A) (A) (A) (A) (A) (A) (A)
                 (A) (A) (A) (A) (A) (A) (A) (A) (A) (A) (A) (A)
                 (A) (A) (A) (A) (A) (A) (A) (A) (A) (A) (A) (A)
                 (A) (A) (A) (A)
 The electronic state is 1-A.
 Alpha  occ. eigenvalues --  -19.17925 -19.17245 -14.44480 -10.33445 -10.33019
 Alpha  occ. eigenvalues --  -10.32526 -10.32020 -10.25736 -10.25213 -10.24837
 Alpha  occ. eigenvalues --  -10.24671 -10.24632 -10.24141 -10.23710  -1.11651
 Alpha  occ. eigenvalues --   -1.11257  -1.08175  -0.91357  -0.90502  -0.83983
 Alpha  occ. eigenvalues --   -0.82611  -0.81628  -0.78585  -0.73886  -0.71841
 Alpha  occ. eigenvalues --   -0.68739  -0.61674  -0.58281  -0.56981  -0.55178
 Alpha  occ. eigenvalues --   -0.54566  -0.54058  -0.52583  -0.51839  -0.50838
 Alpha  occ. eigenvalues --   -0.49915  -0.49560  -0.49258  -0.48495  -0.48123
 Alpha  occ. eigenvalues --   -0.47029  -0.45375  -0.45131  -0.43730  -0.43176
 Alpha  occ. eigenvalues --   -0.42350  -0.42205  -0.41799  -0.32731  -0.32309
 Alpha  occ. eigenvalues --   -0.31389  -0.25509
 Alpha virt. eigenvalues --   -0.03031   0.02480   0.06501   0.08216   0.08723
 Alpha virt. eigenvalues --    0.09949   0.10755   0.11765   0.12659   0.13575
 Alpha virt. eigenvalues --    0.13964   0.15110   0.15718   0.16297   0.16983
 Alpha virt. eigenvalues --    0.17483   0.17963   0.18097   0.18305   0.19210
 Alpha virt. eigenvalues --    0.20073   0.22075   0.22986   0.23481   0.23793
 Alpha virt. eigenvalues --    0.24209   0.24765   0.25746   0.26177   0.26702
 Alpha virt. eigenvalues --    0.27123   0.27893   0.28853   0.29090   0.30200
 Alpha virt. eigenvalues --    0.31757   0.31991   0.32450   0.33566   0.34507
 Alpha virt. eigenvalues --    0.35037   0.35963   0.36632   0.38052   0.38474
 Alpha virt. eigenvalues --    0.39668   0.41018   0.41523   0.42030   0.42586
 Alpha virt. eigenvalues --    0.44143   0.44640   0.45473   0.46218   0.46321
 Alpha virt. eigenvalues --    0.47356   0.47884   0.47980   0.48370   0.49226
 Alpha virt. eigenvalues --    0.49636   0.50523   0.50962   0.51475   0.51617
 Alpha virt. eigenvalues --    0.52691   0.52998   0.53508   0.53757   0.54324
 Alpha virt. eigenvalues --    0.54570   0.55622   0.56047   0.56644   0.58462
 Alpha virt. eigenvalues --    0.58613   0.59636   0.60857   0.61278   0.62932
 Alpha virt. eigenvalues --    0.63789   0.65519   0.66402   0.66461   0.67750
 Alpha virt. eigenvalues --    0.68535   0.69760   0.71310   0.71743   0.72431
 Alpha virt. eigenvalues --    0.73248   0.74204   0.74850   0.75917   0.77673
 Alpha virt. eigenvalues --    0.78766   0.79990   0.82637   0.85810   0.86864
 Alpha virt. eigenvalues --    0.90130   0.94411   1.01095   1.02504   1.23055
 Alpha virt. eigenvalues --    1.25047   1.27264   1.28129   1.29519   1.30956
 Alpha virt. eigenvalues --    1.32397   1.32902   1.34182   1.34970   1.36295
 Alpha virt. eigenvalues --    1.36552   1.37539   1.38542   1.39140   1.39881
 Alpha virt. eigenvalues --    1.40018   1.40605   1.40874   1.41412   1.41879
 Alpha virt. eigenvalues --    1.43511   1.43862   1.44283   1.45202   1.47363
 Alpha virt. eigenvalues --    1.48069   1.49639   1.49939   1.50345   1.50942
 Alpha virt. eigenvalues --    1.51276   1.52520   1.52693   1.54838   1.58009
 Alpha virt. eigenvalues --    1.58697   1.60466   1.60775   1.61382   1.62604
 Alpha virt. eigenvalues --    1.62787   1.63180   1.64347   1.64767   1.65840
 Alpha virt. eigenvalues --    1.66825   1.67200   1.67788   1.68239   1.68497
 Alpha virt. eigenvalues --    1.69084   1.70013   1.70184   1.71464   1.72381
 Alpha virt. eigenvalues --    1.74036   1.74994   1.76036   1.76624   1.78566
 Alpha virt. eigenvalues --    1.81034   1.83157   1.84346   1.86226   1.86694
 Alpha virt. eigenvalues --    1.86834   1.87844   1.88512   1.89239   1.90469
 Alpha virt. eigenvalues --    1.91424   1.94695   1.95363   1.99001   1.99750
 Alpha virt. eigenvalues --    2.01488   2.03915   2.05365   2.06987   2.09665
 Alpha virt. eigenvalues --    2.10856   2.12297   2.15485   2.17501   2.19876
 Alpha virt. eigenvalues --    2.20369   2.21485   2.22086   2.23165   2.26179
 Alpha virt. eigenvalues --    2.27280   2.27791   2.29440   2.31359   2.32311
 Alpha virt. eigenvalues --    2.33850   2.34389   2.36846   2.38014   2.38608
 Alpha virt. eigenvalues --    2.39678   2.40300   2.41517   2.43186   2.45108
 Alpha virt. eigenvalues --    2.46124   2.47855   2.49930   2.50397   2.51370
 Alpha virt. eigenvalues --    2.52449   2.54033   2.54964   2.56795   2.57937
 Alpha virt. eigenvalues --    2.59019   2.60730   2.61693   2.62628   2.63421
 Alpha virt. eigenvalues --    2.64677   2.65949   2.66748   2.67630   2.68636
 Alpha virt. eigenvalues --    2.72009   2.72175   2.73444   2.74346   2.75370
 Alpha virt. eigenvalues --    2.75969   2.77015   2.77377   2.78032   2.79136
 Alpha virt. eigenvalues --    2.80620   2.81952   2.83074   2.84053   2.84404
 Alpha virt. eigenvalues --    2.85481   2.86633   2.88650   2.89448   2.91810
 Alpha virt. eigenvalues --    2.97377   2.99095   3.00851   3.06268   3.10852
 Alpha virt. eigenvalues --    3.12579   3.15124   3.17697   3.18574   3.21281
 Alpha virt. eigenvalues --    3.21653   3.23482   3.24218   3.25687   3.26644
 Alpha virt. eigenvalues --    3.27797   3.29895   3.33094   3.34348   3.36792
 Alpha virt. eigenvalues --    3.37665   3.39079   3.39699   3.40350   3.41980
 Alpha virt. eigenvalues --    3.42426   3.44755   3.45477   3.47411   3.48328
 Alpha virt. eigenvalues --    3.49516   3.50099   3.55481   3.58446   3.59845
 Alpha virt. eigenvalues --    3.60815   3.90851   4.00656   4.33220   4.35942
 Alpha virt. eigenvalues --   21.66432  21.80374  22.08257  22.10870  22.11850
 Alpha virt. eigenvalues --   22.15155  22.15360  22.18728  22.19916  22.24676
 Alpha virt. eigenvalues --   22.28498  31.92085  43.63542  43.66222
          Condensed to atoms (all electrons):
               1          2          3          4          5          6
     1  O    7.981196   0.000000  -0.000205   0.000019   0.019095   0.011504
     2  O    0.000000   7.979214   0.000793   0.000023  -0.102133   0.000222
     3  N   -0.000205   0.000793   6.365787   0.369857  -0.093322   0.386203
     4  H    0.000019   0.000023   0.369857   0.413051   0.017048  -0.046008
     5  C    0.019095  -0.102133  -0.093322   0.017048   6.085337  -0.091161
     6  C    0.011504   0.000222   0.386203  -0.046008  -0.091161   5.573696
     7  C   -0.000395   0.005477   0.331532  -0.038924   0.326461  -0.118333
     8  C   -0.000191   0.315997   0.014613  -0.001013   0.331307   0.017867
     9  C   -0.014479   0.011198   0.001661  -0.000148  -0.449900  -0.061042
    10  H    0.007594  -0.000003   0.004243   0.000036  -0.036967  -0.021113
    11  H    0.012803   0.000014  -0.001148   0.000024  -0.110738   0.026038
    12  C   -0.241645  -0.000838  -0.100381   0.015877   0.201756  -0.094741
    13  C    0.703927   0.000031   0.000594   0.000529   0.085906   0.131188
    14  C   -0.000007   0.011910  -0.029737  -0.009072  -0.095888   0.013870
    15  H    0.000000   0.000781   0.004798   0.002454   0.015822   0.003897
    16  H   -0.000000  -0.002440  -0.001734   0.000741   0.000076  -0.000872
    17  H    0.000000  -0.001755   0.000373   0.000689   0.002984  -0.001435
    18  C    0.000204  -0.048427  -0.000320   0.000017  -0.025012  -0.000525
    19  H   -0.000003   0.000962  -0.000003  -0.000001   0.010754   0.000100
    20  H   -0.000095   0.002639  -0.000020  -0.000000  -0.018836  -0.000057
    21  H    0.000034   0.002344   0.000040   0.000000  -0.010451  -0.000540
    22  C   -0.105206   0.000000  -0.000041   0.000119   0.004310  -0.020594
    23  H    0.005110  -0.000000   0.000103  -0.000056  -0.000743  -0.026060
    24  H    0.001838  -0.000000  -0.000002  -0.000013  -0.000043   0.010070
    25  H    0.007049  -0.000000   0.000034  -0.000003  -0.000171  -0.001050
    26  C    0.000750   0.000002  -0.029572  -0.007169  -0.003105   0.179479
    27  H   -0.000317   0.000000   0.001339   0.000791  -0.000088  -0.058546
    28  H   -0.000054   0.000000  -0.003487   0.000538   0.000483  -0.033450
    29  H    0.000027  -0.000000   0.001610   0.001756  -0.000314  -0.046834
               7          8          9         10         11         12
     1  O   -0.000395  -0.000191  -0.014479   0.007594   0.012803  -0.241645
     2  O    0.005477   0.315997   0.011198  -0.000003   0.000014  -0.000838
     3  N    0.331532   0.014613   0.001661   0.004243  -0.001148  -0.100381
     4  H   -0.038924  -0.001013  -0.000148   0.000036   0.000024   0.015877
     5  C    0.326461   0.331307  -0.449900  -0.036967  -0.110738   0.201756
     6  C   -0.118333   0.017867  -0.061042  -0.021113   0.026038  -0.094741
     7  C    5.492665  -0.120578  -0.072437  -0.009505   0.016944  -0.017248
     8  C   -0.120578   5.354075  -0.018616  -0.004972  -0.012725  -0.018016
     9  C   -0.072437  -0.018616   6.429313   0.396543   0.534825  -0.193563
    10  H   -0.009505  -0.004972   0.396543   0.581577  -0.049170  -0.011383
    11  H    0.016944  -0.012725   0.534825  -0.049170   0.534575  -0.113816
    12  C   -0.017248  -0.018016  -0.193563  -0.011383  -0.113816   7.421605
    13  C    0.010580  -0.003509  -0.281033   0.000314   0.000923  -0.399108
    14  C    0.214527  -0.014585   0.015123  -0.001026   0.000574  -0.005673
    15  H   -0.060499   0.000594  -0.000835   0.000058  -0.000004  -0.000123
    16  H   -0.046982  -0.005583   0.001163  -0.000070   0.000064  -0.000007
    17  H   -0.054050  -0.011894  -0.000505   0.000170  -0.000062   0.000399
    18  C    0.012962   0.194794  -0.029184  -0.012991   0.009344  -0.002130
    19  H   -0.000262  -0.046961   0.002556  -0.000240   0.000627  -0.000951
    20  H   -0.000859  -0.048538  -0.009640   0.001414  -0.001293   0.002681
    21  H    0.000577  -0.035207   0.005927   0.003251  -0.006891   0.002672
    22  C    0.000122  -0.000041   0.003662   0.002815  -0.000431  -0.249697
    23  H   -0.000004  -0.000001   0.003447  -0.000181   0.000002   0.062471
    24  H    0.000016  -0.000001  -0.002642   0.000182  -0.000136  -0.012763
    25  H    0.000008   0.000002   0.000812  -0.000104  -0.000047   0.022657
    26  C    0.003697   0.000394   0.030757  -0.001027   0.000087  -0.091309
    27  H   -0.000853   0.000004   0.001411  -0.000137   0.000017  -0.004086
    28  H   -0.000022  -0.000025  -0.001777  -0.000004   0.000044  -0.015742
    29  H    0.003475  -0.000010  -0.001064   0.000103  -0.000014   0.022091
              13         14         15         16         17         18
     1  O    0.703927  -0.000007   0.000000  -0.000000   0.000000   0.000204
     2  O    0.000031   0.011910   0.000781  -0.002440  -0.001755  -0.048427
     3  N    0.000594  -0.029737   0.004798  -0.001734   0.000373  -0.000320
     4  H    0.000529  -0.009072   0.002454   0.000741   0.000689   0.000017
     5  C    0.085906  -0.095888   0.015822   0.000076   0.002984  -0.025012
     6  C    0.131188   0.013870   0.003897  -0.000872  -0.001435  -0.000525
     7  C    0.010580   0.214527  -0.060499  -0.046982  -0.054050   0.012962
     8  C   -0.003509  -0.014585   0.000594  -0.005583  -0.011894   0.194794
     9  C   -0.281033   0.015123  -0.000835   0.001163  -0.000505  -0.029184
    10  H    0.000314  -0.001026   0.000058  -0.000070   0.000170  -0.012991
    11  H    0.000923   0.000574  -0.000004   0.000064  -0.000062   0.009344
    12  C   -0.399108  -0.005673  -0.000123  -0.000007   0.000399  -0.002130
    13  C    5.524882  -0.000160   0.000010  -0.000014   0.000003   0.000884
    14  C   -0.000160   5.103249   0.401926   0.425023   0.441580   0.002322
    15  H    0.000010   0.401926   0.534623  -0.021485  -0.022631   0.000011
    16  H   -0.000014   0.425023  -0.021485   0.522970  -0.035600  -0.000535
    17  H    0.000003   0.441580  -0.022631  -0.035600   0.518712  -0.000434
    18  C    0.000884   0.002322   0.000011  -0.000535  -0.000434   5.087997
    19  H   -0.000045   0.000009   0.000003   0.000030   0.000045   0.398204
    20  H   -0.000023  -0.000257   0.000001  -0.000036   0.000003   0.431900
    21  H    0.000139  -0.000238  -0.000002   0.000027   0.000012   0.406930
    22  C    0.288345  -0.000018   0.000002  -0.000000  -0.000000   0.000013
    23  H   -0.095144   0.000002  -0.000000   0.000000   0.000000   0.000002
    24  H   -0.026009  -0.000001   0.000000  -0.000000  -0.000000  -0.000002
    25  H   -0.039199   0.000001  -0.000000   0.000000   0.000000  -0.000000
    26  C   -0.055227   0.001231  -0.000041  -0.000058   0.000032   0.000017
    27  H   -0.003769   0.000074  -0.000012   0.000002  -0.000001   0.000001
    28  H    0.006852  -0.000148   0.000005  -0.000014   0.000003  -0.000001
    29  H   -0.000587  -0.000211   0.000112  -0.000001  -0.000005  -0.000000
              19         20         21         22         23         24
     1  O   -0.000003  -0.000095   0.000034  -0.105206   0.005110   0.001838
     2  O    0.000962   0.002639   0.002344   0.000000  -0.000000  -0.000000
     3  N   -0.000003  -0.000020   0.000040  -0.000041   0.000103  -0.000002
     4  H   -0.000001  -0.000000   0.000000   0.000119  -0.000056  -0.000013
     5  C    0.010754  -0.018836  -0.010451   0.004310  -0.000743  -0.000043
     6  C    0.000100  -0.000057  -0.000540  -0.020594  -0.026060   0.010070
     7  C   -0.000262  -0.000859   0.000577   0.000122  -0.000004   0.000016
     8  C   -0.046961  -0.048538  -0.035207  -0.000041  -0.000001  -0.000001
     9  C    0.002556  -0.009640   0.005927   0.003662   0.003447  -0.002642
    10  H   -0.000240   0.001414   0.003251   0.002815  -0.000181   0.000182
    11  H    0.000627  -0.001293  -0.006891  -0.000431   0.000002  -0.000136
    12  C   -0.000951   0.002681   0.002672  -0.249697   0.062471  -0.012763
    13  C   -0.000045  -0.000023   0.000139   0.288345  -0.095144  -0.026009
    14  C    0.000009  -0.000257  -0.000238  -0.000018   0.000002  -0.000001
    15  H    0.000003   0.000001  -0.000002   0.000002  -0.000000   0.000000
    16  H    0.000030  -0.000036   0.000027  -0.000000   0.000000  -0.000000
    17  H    0.000045   0.000003   0.000012  -0.000000   0.000000  -0.000000
    18  C    0.398204   0.431900   0.406930   0.000013   0.000002  -0.000002
    19  H    0.516809  -0.028862  -0.019034  -0.000001   0.000000  -0.000000
    20  H   -0.028862   0.523595  -0.036487   0.000001  -0.000000   0.000000
    21  H   -0.019034  -0.036487   0.511967   0.000014  -0.000000  -0.000000
    22  C   -0.000001   0.000001   0.000014   5.416284   0.397620   0.405204
    23  H    0.000000  -0.000000  -0.000000   0.397620   0.542463  -0.026746
    24  H   -0.000000   0.000000  -0.000000   0.405204  -0.026746   0.498437
    25  H    0.000000  -0.000001   0.000000   0.379918  -0.022115  -0.010944
    26  C    0.000001  -0.000005  -0.000006  -0.033025   0.015039  -0.011232
    27  H    0.000000  -0.000000   0.000000   0.004350  -0.007758  -0.001469
    28  H   -0.000000   0.000001  -0.000000  -0.010381  -0.002118   0.001230
    29  H   -0.000000   0.000000   0.000000   0.002023   0.000634   0.000183
              25         26         27         28         29
     1  O    0.007049   0.000750  -0.000317  -0.000054   0.000027
     2  O   -0.000000   0.000002   0.000000   0.000000  -0.000000
     3  N    0.000034  -0.029572   0.001339  -0.003487   0.001610
     4  H   -0.000003  -0.007169   0.000791   0.000538   0.001756
     5  C   -0.000171  -0.003105  -0.000088   0.000483  -0.000314
     6  C   -0.001050   0.179479  -0.058546  -0.033450  -0.046834
     7  C    0.000008   0.003697  -0.000853  -0.000022   0.003475
     8  C    0.000002   0.000394   0.000004  -0.000025  -0.000010
     9  C    0.000812   0.030757   0.001411  -0.001777  -0.001064
    10  H   -0.000104  -0.001027  -0.000137  -0.000004   0.000103
    11  H   -0.000047   0.000087   0.000017   0.000044  -0.000014
    12  C    0.022657  -0.091309  -0.004086  -0.015742   0.022091
    13  C   -0.039199  -0.055227  -0.003769   0.006852  -0.000587
    14  C    0.000001   0.001231   0.000074  -0.000148  -0.000211
    15  H   -0.000000  -0.000041  -0.000012   0.000005   0.000112
    16  H    0.000000  -0.000058   0.000002  -0.000014  -0.000001
    17  H    0.000000   0.000032  -0.000001   0.000003  -0.000005
    18  C   -0.000000   0.000017   0.000001  -0.000001  -0.000000
    19  H    0.000000   0.000001   0.000000  -0.000000  -0.000000
    20  H   -0.000001  -0.000005  -0.000000   0.000001   0.000000
    21  H    0.000000  -0.000006   0.000000  -0.000000   0.000000
    22  C    0.379918  -0.033025   0.004350  -0.010381   0.002023
    23  H   -0.022115   0.015039  -0.007758  -0.002118   0.000634
    24  H   -0.010944  -0.011232  -0.001469   0.001230   0.000183
    25  H    0.505665   0.002089   0.000835   0.000026  -0.000044
    26  C    0.002089   5.262305   0.438634   0.421872   0.387567
    27  H    0.000835   0.438634   0.518887  -0.031279  -0.026340
    28  H    0.000026   0.421872  -0.031279   0.494519  -0.016823
    29  H   -0.000044   0.387567  -0.026340  -0.016823   0.518931
 Mulliken charges:
               1
     1  O   -0.388552
     2  O   -0.176009
     3  N   -0.223605
     4  H    0.278837
     5  C   -0.062467
     6  C    0.268229
     7  C    0.121911
     8  C    0.112820
     9  C   -0.301533
    10  H    0.150592
    11  H    0.159570
    12  C   -0.178991
    13  C    0.148722
    14  C   -0.474399
    15  H    0.140534
    16  H    0.165336
    17  H    0.163368
    18  C   -0.426041
    19  H    0.166263
    20  H    0.182775
    21  H    0.174920
    22  C   -0.485366
    23  H    0.154034
    24  H    0.174843
    25  H    0.154583
    26  C   -0.512175
    27  H    0.168311
    28  H    0.189752
    29  H    0.153737
 Sum of Mulliken charges =   0.00000
 Mulliken charges with hydrogens summed into heavy atoms:
               1
     1  O   -0.388552
     2  O   -0.176009
     3  N    0.055232
     5  C   -0.062467
     6  C    0.268229
     7  C    0.121911
     8  C    0.112820
     9  C    0.008629
    12  C   -0.178991
    13  C    0.148722
    14  C   -0.005161
    18  C    0.097917
    22  C   -0.001906
    26  C   -0.000375
 Electronic spatial extent (au):  <R**2>=           3189.0012
 Charge=             -0.0000 electrons
 Dipole moment (field-independent basis, Debye):
    X=             -0.0749    Y=              6.4868    Z=              0.3074  Tot=              6.4945
 Quadrupole moment (field-independent basis, Debye-Ang):
   XX=            -86.8935   YY=            -78.3670   ZZ=            -86.2848
   XY=            -16.3675   XZ=             -3.3250   YZ=             -1.9538
 Traceless Quadrupole moment (field-independent basis, Debye-Ang):
   XX=             -3.0451   YY=              5.4814   ZZ=             -2.4364
   XY=            -16.3675   XZ=             -3.3250   YZ=             -1.9538
 Octapole moment (field-independent basis, Debye-Ang**2):
  XXX=            -43.1682  YYY=             58.2395  ZZZ=              1.7152  XYY=             44.0080
  XXY=             20.0496  XXZ=             -0.7391  XZZ=             -1.0152  YZZ=             -1.7911
  YYZ=              3.4999  XYZ=              5.2129
 Hexadecapole moment (field-independent basis, Debye-Ang**3):
 XXXX=          -2825.8340 YYYY=          -1275.5829 ZZZZ=           -150.7981 XXXY=            -91.2989
 XXXZ=            -28.7746 YYYX=           -111.6370 YYYZ=            -19.2844 ZZZX=              3.9074
 ZZZY=              3.5333 XXYY=           -681.6562 XXZZ=           -484.8068 YYZZ=           -246.3387
 XXYZ=            -10.7110 YYXZ=            -10.1473 ZZXY=             -1.5411
 N-N= 9.001316325697D+02 E-N=-3.276495756997D+03  KE= 6.308018373496D+02
 No NMR shielding tensors so no spin-rotation constants.
 Leave Link  601 at Sat Jan 24 19:29:24 2026, MaxMem=  2147483648 cpu:               1.8 elap:               0.1
 (Enter /data/home/wyx/g16/l9999.exe)
 Electronic transition elements 
                 1             2             3             4             5 
      1  -0.633216D+03 -0.633181D+03 -0.633175D+03 -0.633149D+03 -0.633132D+03
      2  -0.164791D+01 -0.434724D-01  0.944230D-01  0.476034D+00  0.415711D+00
      3  -0.383991D+00 -0.511857D-01 -0.130498D+00 -0.192086D+01 -0.140308D+01
      4  -0.383342D+00 -0.481640D-01 -0.101204D-01  0.291370D-01  0.991304D-01
      5   0.177570D+00  0.652598D-02 -0.127313D-01 -0.764292D-01 -0.802928D-01
      6   0.448285D-01  0.766782D-02  0.181241D-01  0.332261D+00  0.270872D+00
      7   0.420276D-01  0.387751D-02 -0.155760D-02 -0.689508D-02 -0.179053D-01
      8   0.336067D+00 -0.737492D+00  0.446334D+00 -0.104851D+00 -0.218328D+00
      9  -0.405149D-01 -0.157316D+00 -0.859266D+00  0.823866D-01  0.525811D-01
     10  -0.141809D+01 -0.354878D+00  0.317253D+00  0.922581D-01  0.223859D+00
     11   0.180497D+00  0.231198D-01 -0.620888D-01 -0.120179D+01 -0.387618D+00
     12  -0.260631D+00 -0.276020D-01  0.457551D-01  0.183003D+00  0.328991D+00
     13   0.438412D-03  0.698784D-02 -0.278089D-02 -0.751489D-01  0.108966D-02
     14  -0.476842D+00  0.117180D-02  0.442813D-01 -0.444382D+00 -0.183540D-01
     15   0.663880D-02  0.251811D-01  0.501191D-01 -0.334437D+00 -0.133529D+00
     16  -0.123693D+00 -0.842555D-01  0.403402D-01 -0.884009D-01 -0.470467D-01
                 6 
      1  -0.633113D+03
      2  -0.534625D-01
      3   0.255451D+00
      4  -0.560558D-01
      5   0.557606D-02
      6  -0.522897D-01
      7   0.312829D-01
      8  -0.130126D+00
      9  -0.146462D-01
     10   0.235799D-01
     11  -0.251328D+00
     12  -0.201193D+00
     13   0.167968D+00
     14   0.378602D-01
     15  -0.670982D-01
     16  -0.160965D+00
 1\1\GINC-CN012\SP\RCAM-B3LYP TD-FC\TZVP\C11H15N1O2\WYX\24-Jan-2026\0\\
 #p CAM-B3LYP TZVP em=gd3bj td(nstates=6,root=2) scrf=(Solvent=Water,Co
 rrectedLR,NonEquilibrium=Save) Geom=Check Guess=Read\\Title Card Requi
 red\\0,1\O,0,2.726246,-1.559245,0.827442\O,0,-3.281019,-1.65553,-0.967
 451\N,0,-0.691461,1.515734,0.000262\H,0,-0.999859,2.475454,-0.064475\C
 ,0,-1.25145,-0.761891,-0.167114\C,0,0.642909,1.323937,0.228017\C,0,-1.
 625299,0.565605,-0.27047\C,0,-2.160825,-1.845473,-0.490736\C,0,0.11310
 2,-1.088425,0.328158\H,0,0.050286,-1.489975,1.35306\H,0,0.533837,-1.92
 7683,-0.230758\C,0,1.101457,0.026277,0.327614\C,0,2.483734,-0.394057,0
 .496204\C,0,-2.965946,1.096847,-0.637804\H,0,-3.020104,2.171199,-0.478
 012\H,0,-3.193958,0.898743,-1.680796\H,0,-3.74945,0.62123,-0.059504\C,
 0,-1.707716,-3.260569,-0.251772\H,0,-2.564115,-3.924436,-0.279177\H,0,
 -1.016215,-3.575132,-1.0314\H,0,-1.194363,-3.386246,0.696136\C,0,3.648
 777,0.528546,0.23654\H,0,3.462695,1.240667,-0.562756\H,0,3.90135,1.087
 741,1.139658\H,0,4.50735,-0.087322,-0.022695\C,0,1.415417,2.594352,0.3
 6335\H,0,2.178539,2.522079,1.12948\H,0,1.902343,2.873764,-0.570644\H,0
 ,0.753737,3.413809,0.639641\\Version=ES64L-G16RevA.03\State=1-A\HF=-63
 3.328479\RMSD=2.713e-09\Dipole=-0.7900674,2.4098204,-0.3118349\Quadrup
 ole=-7.8774282,11.1108156,-3.2333875,7.1110053,-4.1225342,1.8079116\PG
 =C01 [X(C11H15N1O2)]\\@


 WHEN IT COMES TO CASH FLOW, IT SEEMS LIKE THE TIDE IS ALWAYS GOING OUT.
 Job cpu time:       0 days  2 hours 42 minutes 28.4 seconds.
 Elapsed time:       0 days  0 hours 10 minutes 12.2 seconds.
 File lengths (MBytes):  RWF=    736 Int=      0 D2E=      0 Chk=     67 Scr=      1
 Normal termination of Gaussian 16 at Sat Jan 24 19:29:28 2026.
