 Entering Gaussian System, Link 0=g16
 Input=DDL-S2-cLR-gs-15.gjf
 Output=DDL-S2-cLR-gs-15.log
 Initial command:
 /data/home/wyx/g16/l1.exe "/scr/tmp/wyx/13117/Gau-2036171.inp" -scrdir="/scr/tmp/wyx/13117/"
 Entering Link 1 = /data/home/wyx/g16/l1.exe PID=   2036172.
  
 Copyright (c) 1988,1990,1992,1993,1995,1998,2003,2009,2016,
            Gaussian, Inc.  All Rights Reserved.
  
 This is part of the Gaussian(R) 16 program.  It is based on
 the Gaussian(R) 09 system (copyright 2009, Gaussian, Inc.),
 the Gaussian(R) 03 system (copyright 2003, Gaussian, Inc.),
 the Gaussian(R) 98 system (copyright 1998, Gaussian, Inc.),
 the Gaussian(R) 94 system (copyright 1995, Gaussian, Inc.),
 the Gaussian 92(TM) system (copyright 1992, Gaussian, Inc.),
 the Gaussian 90(TM) system (copyright 1990, Gaussian, Inc.),
 the Gaussian 88(TM) system (copyright 1988, Gaussian, Inc.),
 the Gaussian 86(TM) system (copyright 1986, Carnegie Mellon
 University), and the Gaussian 82(TM) system (copyright 1983,
 Carnegie Mellon University). Gaussian is a federally registered
 trademark of Gaussian, Inc.
  
 This software contains proprietary and confidential information,
 including trade secrets, belonging to Gaussian, Inc.
  
 This software is provided under written license and may be
 used, copied, transmitted, or stored only in accord with that
 written license.
  
 The following legend is applicable only to US Government
 contracts under FAR:
  
                    RESTRICTED RIGHTS LEGEND
  
 Use, reproduction and disclosure by the US Government is
 subject to restrictions as set forth in subparagraphs (a)
 and (c) of the Commercial Computer Software - Restricted
 Rights clause in FAR 52.227-19.
  
 Gaussian, Inc.
 340 Quinnipiac St., Bldg. 40, Wallingford CT 06492
  
  
 ---------------------------------------------------------------
 Warning -- This program may not be used in any manner that
 competes with the business of Gaussian, Inc. or will provide
 assistance to any competitor of Gaussian, Inc.  The licensee
 of this program is prohibited from giving any competitor of
 Gaussian, Inc. access to this program.  By using this program,
 the user acknowledges that Gaussian, Inc. is engaged in the
 business of creating and licensing software in the field of
 computational chemistry and represents and warrants to the
 licensee that it is not a competitor of Gaussian, Inc. and that
 it will not use this program in any manner prohibited above.
 ---------------------------------------------------------------
  

 Cite this work as:
 Gaussian 16, Revision A.03,
 M. J. Frisch, G. W. Trucks, H. B. Schlegel, G. E. Scuseria, 
 M. A. Robb, J. R. Cheeseman, G. Scalmani, V. Barone, 
 G. A. Petersson, H. Nakatsuji, X. Li, M. Caricato, A. V. Marenich, 
 J. Bloino, B. G. Janesko, R. Gomperts, B. Mennucci, H. P. Hratchian, 
 J. V. Ortiz, A. F. Izmaylov, J. L. Sonnenberg, D. Williams-Young, 
 F. Ding, F. Lipparini, F. Egidi, J. Goings, B. Peng, A. Petrone, 
 T. Henderson, D. Ranasinghe, V. G. Zakrzewski, J. Gao, N. Rega, 
 G. Zheng, W. Liang, M. Hada, M. Ehara, K. Toyota, R. Fukuda, 
 J. Hasegawa, M. Ishida, T. Nakajima, Y. Honda, O. Kitao, H. Nakai, 
 T. Vreven, K. Throssell, J. A. Montgomery, Jr., J. E. Peralta, 
 F. Ogliaro, M. J. Bearpark, J. J. Heyd, E. N. Brothers, K. N. Kudin, 
 V. N. Staroverov, T. A. Keith, R. Kobayashi, J. Normand, 
 K. Raghavachari, A. P. Rendell, J. C. Burant, S. S. Iyengar, 
 J. Tomasi, M. Cossi, J. M. Millam, M. Klene, C. Adamo, R. Cammi, 
 J. W. Ochterski, R. L. Martin, K. Morokuma, O. Farkas, 
 J. B. Foresman, and D. J. Fox, Gaussian, Inc., Wallingford CT, 2016.
 
 ******************************************
 Gaussian 16:  ES64L-G16RevA.03 25-Dec-2016
                24-Jan-2026 
 ******************************************
 %nprocshared=16
 Will use up to   16 processors via shared memory.
 %mem=16GB
 %oldchk=DDL-S2-cLR-15.chk
 %chk=DDL-S2-cLR-gs-15.chk
 Copying data from "DDL-S2-cLR-15.chk" to current chk file "DDL-S2-cLR-gs-15.chk"
 IOpt=  2 FromEx=T IUOpen= 4 IOptOp= 5 NList=   0 IFRang= 0 IUIn= 4 IUOut= 2.
 ----------------------------------------------------------------------
 #p CAM-B3LYP TZVP em=gd3bj scrf=(Solvent=Water,NonEquilibrium=Read) Ge
 om=Check Guess=Read
 ----------------------------------------------------------------------
 1/29=2,38=1,172=1/1;
 2/12=2,40=1/2;
 3/5=19,7=101,11=2,14=-4,25=1,30=1,70=6002201,72=1,74=-40,116=-2,124=41/1,2,3;
 4/5=1/1;
 5/5=2,38=6,53=1/2;
 6/7=2,8=2,9=2,10=2,28=1/1;
 99/5=1,9=1/99;
 Leave Link    1 at Sat Jan 24 23:14:09 2026, MaxMem=  2147483648 cpu:               0.8 elap:               0.2
 (Enter /data/home/wyx/g16/l101.exe)
 -------------------
 Title Card Required
 -------------------
 Structure from the checkpoint file:  "DDL-S2-cLR-gs-15.chk"
 Charge =  0 Multiplicity = 1
 Z-Matrix found in chk file.
 O,0,2.746546,-1.558123,0.737766
 O,0,-3.22321,-1.639939,-1.11514
 N,0,-0.71107,1.513087,0.129253
 H,0,-1.019221,2.470539,0.07242
 C,0,-1.248072,-0.7583,-0.151096
 C,0,0.640803,1.300052,0.285491
 C,0,-1.619756,0.543854,-0.224344
 C,0,-2.15063,-1.834552,-0.551376
 C,0,0.095979,-1.106861,0.439648
 H,0,-0.01587,-1.425438,1.485019
 H,0,0.524215,-1.968853,-0.06775
 C,0,1.092932,0.024536,0.361494
 C,0,2.492023,-0.390317,0.454092
 C,0,-2.942585,1.083269,-0.659628
 H,0,-3.041375,2.129495,-0.373288
 H,0,-3.047448,1.011949,-1.741346
 H,0,-3.760301,0.514246,-0.230149
 C,0,-1.724005,-3.249324,-0.251994
 H,0,-2.557668,-3.920988,-0.434587
 H,0,-0.893828,-3.537601,-0.898591
 H,0,-1.380908,-3.359864,0.775895
 C,0,3.646811,0.539681,0.173938
 H,0,3.447227,1.236456,-0.635747
 H,0,3.89356,1.116566,1.066869
 H,0,4.510855,-0.071257,-0.07684
 C,0,1.419002,2.578069,0.348051
 H,0,2.261965,2.517322,1.02505
 H,0,1.788791,2.857489,-0.639194
 H,0,0.775236,3.384809,0.696084
 Recover connectivity data from disk.
 ITRead=  0  0  0  0  0  0  0  0  0  0  0  0  0  0  0  0  0  0  0  0
 ITRead=  0  0  0  0  0  0  0  0  0
 MicOpt= -1 -1 -1 -1 -1 -1 -1 -1 -1 -1 -1 -1 -1 -1 -1 -1 -1 -1 -1 -1
 MicOpt= -1 -1 -1 -1 -1 -1 -1 -1 -1
 NAtoms=     29 NQM=       29 NQMF=       0 NMMI=      0 NMMIF=      0
                NMic=       0 NMicF=      0.
                    Isotopes and Nuclear Properties:
 (Nuclear quadrupole moments (NQMom) in fm**2, nuclear magnetic moments (NMagM)
  in nuclear magnetons)

  Atom         1           2           3           4           5           6           7           8           9          10
 IAtWgt=          16          16          14           1          12          12          12          12          12           1
 AtmWgt=  15.9949146  15.9949146  14.0030740   1.0078250  12.0000000  12.0000000  12.0000000  12.0000000  12.0000000   1.0078250
 NucSpn=           0           0           2           1           0           0           0           0           0           1
 AtZEff=   5.6000000   5.6000000   4.5500000   1.0000000   3.6000000   3.6000000   3.6000000   3.6000000   3.6000000   1.0000000
 NQMom=    0.0000000   0.0000000   2.0440000   0.0000000   0.0000000   0.0000000   0.0000000   0.0000000   0.0000000   0.0000000
 NMagM=    0.0000000   0.0000000   0.4037610   2.7928460   0.0000000   0.0000000   0.0000000   0.0000000   0.0000000   2.7928460
 AtZNuc=   8.0000000   8.0000000   7.0000000   1.0000000   6.0000000   6.0000000   6.0000000   6.0000000   6.0000000   1.0000000

  Atom        11          12          13          14          15          16          17          18          19          20
 IAtWgt=           1          12          12          12           1           1           1          12           1           1
 AtmWgt=   1.0078250  12.0000000  12.0000000  12.0000000   1.0078250   1.0078250   1.0078250  12.0000000   1.0078250   1.0078250
 NucSpn=           1           0           0           0           1           1           1           0           1           1
 AtZEff=   1.0000000   3.6000000   3.6000000   3.6000000   1.0000000   1.0000000   1.0000000   3.6000000   1.0000000   1.0000000
 NQMom=    0.0000000   0.0000000   0.0000000   0.0000000   0.0000000   0.0000000   0.0000000   0.0000000   0.0000000   0.0000000
 NMagM=    2.7928460   0.0000000   0.0000000   0.0000000   2.7928460   2.7928460   2.7928460   0.0000000   2.7928460   2.7928460
 AtZNuc=   1.0000000   6.0000000   6.0000000   6.0000000   1.0000000   1.0000000   1.0000000   6.0000000   1.0000000   1.0000000

  Atom        21          22          23          24          25          26          27          28          29
 IAtWgt=           1          12           1           1           1          12           1           1           1
 AtmWgt=   1.0078250  12.0000000   1.0078250   1.0078250   1.0078250  12.0000000   1.0078250   1.0078250   1.0078250
 NucSpn=           1           0           1           1           1           0           1           1           1
 AtZEff=   1.0000000   3.6000000   1.0000000   1.0000000   1.0000000   3.6000000   1.0000000   1.0000000   1.0000000
 NQMom=    0.0000000   0.0000000   0.0000000   0.0000000   0.0000000   0.0000000   0.0000000   0.0000000   0.0000000
 NMagM=    2.7928460   0.0000000   2.7928460   2.7928460   2.7928460   0.0000000   2.7928460   2.7928460   2.7928460
 AtZNuc=   1.0000000   6.0000000   1.0000000   1.0000000   1.0000000   6.0000000   1.0000000   1.0000000   1.0000000
 Leave Link  101 at Sat Jan 24 23:14:12 2026, MaxMem=  2147483648 cpu:               0.9 elap:               0.1
 (Enter /data/home/wyx/g16/l202.exe)
                          Input orientation:                          
 ---------------------------------------------------------------------
 Center     Atomic      Atomic             Coordinates (Angstroms)
 Number     Number       Type             X           Y           Z
 ---------------------------------------------------------------------
      1          8           0        2.746546   -1.558123    0.737766
      2          8           0       -3.223210   -1.639939   -1.115140
      3          7           0       -0.711070    1.513087    0.129253
      4          1           0       -1.019221    2.470539    0.072420
      5          6           0       -1.248072   -0.758300   -0.151096
      6          6           0        0.640803    1.300052    0.285491
      7          6           0       -1.619756    0.543854   -0.224344
      8          6           0       -2.150630   -1.834552   -0.551376
      9          6           0        0.095979   -1.106861    0.439648
     10          1           0       -0.015870   -1.425438    1.485019
     11          1           0        0.524215   -1.968853   -0.067750
     12          6           0        1.092932    0.024536    0.361494
     13          6           0        2.492023   -0.390317    0.454092
     14          6           0       -2.942585    1.083269   -0.659628
     15          1           0       -3.041375    2.129495   -0.373288
     16          1           0       -3.047448    1.011949   -1.741346
     17          1           0       -3.760301    0.514246   -0.230149
     18          6           0       -1.724005   -3.249324   -0.251994
     19          1           0       -2.557668   -3.920988   -0.434587
     20          1           0       -0.893828   -3.537601   -0.898591
     21          1           0       -1.380908   -3.359864    0.775895
     22          6           0        3.646811    0.539681    0.173938
     23          1           0        3.447227    1.236456   -0.635747
     24          1           0        3.893560    1.116566    1.066869
     25          1           0        4.510855   -0.071257   -0.076840
     26          6           0        1.419002    2.578069    0.348051
     27          1           0        2.261965    2.517322    1.025050
     28          1           0        1.788791    2.857489   -0.639194
     29          1           0        0.775236    3.384809    0.696084
 ---------------------------------------------------------------------
                    Distance matrix (angstroms):
                    1          2          3          4          5
     1  O    0.000000
     2  O    6.251235   0.000000
     3  N    4.664518   4.219115   0.000000
     4  H    5.554620   4.812888   1.007423   0.000000
     5  C    4.169744   2.368087   2.350780   3.244647   0.000000
     6  C    3.578809   5.053307   1.377445   2.042332   2.827591
     7  C    4.940502   2.851935   1.374829   2.039810   1.356141
     8  C    5.071551   1.227246   3.707058   4.494777   1.460532
     9  C    2.705183   3.703857   2.758949   3.765145   1.508955
    10  H    2.864775   4.134473   3.310035   4.263893   2.154128
    11  H    2.399231   3.904921   3.699817   4.702132   2.147879
    12  C    2.319661   4.855925   2.350350   3.244639   2.521087
    13  C    1.228423   6.057056   3.740090   4.545218   3.806570
    14  C    6.426187   2.775266   2.405564   2.481883   2.553694
    15  H    6.952194   3.846042   2.462281   2.098588   3.406562
    16  H    6.806000   2.730483   3.034624   3.087222   2.983359
    17  H    6.897147   2.390019   3.228725   3.381146   2.817253
    18  C    4.881149   2.362786   4.883845   5.772244   2.538088
    19  H    5.923869   2.471696   5.766889   6.593595   3.434822
    20  H    4.455145   3.012314   5.157452   6.087391   2.899785
    21  H    4.503732   3.150910   4.961097   5.883816   2.764976
    22  C    2.351417   7.321861   4.465495   5.050779   5.074474
    23  H    3.191734   7.279986   4.237120   4.687603   5.124429
    24  H    2.928807   7.937751   4.715821   5.192070   5.606687
    25  H    2.446863   7.959560   5.460872   6.088082   5.800240
    26  C    4.361460   6.440703   2.391499   2.456108   4.300441
    27  H    4.114195   7.207661   3.263415   3.416998   4.943013
    28  H    4.723446   6.750818   2.940618   2.922509   4.747073
    29  H    5.321689   6.672046   2.456368   2.108298   4.687946
                    6          7          8          9         10
     6  C    0.000000
     7  C    2.437600   0.000000
     8  C    4.279975   2.458779   0.000000
     9  C    2.472616   2.471739   2.561038   0.000000
    10  H    3.049325   3.061451   2.978503   1.098545   0.000000
    11  H    3.290002   3.306785   2.721530   1.088057   1.731497
    12  C    1.355411   2.823398   3.848407   1.509994   2.143403
    13  C    2.512526   4.270794   4.964978   2.500934   2.902381
    14  C    3.712265   1.493425   3.025325   3.903581   4.411211
    15  H    3.831501   2.134817   4.066794   4.580159   5.024394
    16  H    4.218325   2.135114   3.212924   4.373468   5.053786
    17  H    4.500344   2.140758   2.865498   4.236450   4.552465
    18  C    5.155388   3.794711   1.507720   2.894971   3.043271
    19  H    6.165062   4.567132   2.128975   3.965531   4.046405
    20  H    5.211528   4.199983   2.144874   2.946031   3.303580
    21  H    5.103198   4.036897   2.163492   2.714826   2.471475
    22  C    3.102691   5.281607   6.306614   3.923023   4.358424
    23  H    2.954444   5.130620   6.385469   4.228294   4.855550
    24  H    3.350320   5.691387   6.918096   4.445071   4.681910
    25  H    4.121781   6.163157   6.907226   4.564030   4.976389
    26  C    1.497610   3.701313   5.746518   3.916311   4.402229
    27  H    2.157976   4.530267   6.394914   4.262498   4.576621
    28  H    2.144418   4.140435   6.127153   4.443600   5.110044
    29  H    2.129054   3.828080   6.112166   4.549972   4.938294
                   11         12         13         14         15
    11  H    0.000000
    12  C    2.116906   0.000000
    13  C    2.576114   1.462236   0.000000
    14  C    4.656659   4.295230   5.739930   0.000000
    15  H    5.440886   4.697154   6.136164   1.089192   0.000000
    16  H    4.943974   4.747596   6.121441   1.089127   1.766502
    17  H    4.954718   4.913627   6.354367   1.084850   1.773802
    18  C    2.593848   4.362300   5.142701   4.519122   5.539122
    19  H    3.666525   5.433947   6.225333   5.024081   6.070097
    20  H    2.272028   4.268940   4.816548   5.060331   6.083081
    21  H    2.505223   4.212574   4.890947   4.923514   5.849003
    22  C    4.012700   2.612058   1.508946   6.664117   6.896289
    23  H    4.375000   2.829478   2.178659   6.391693   6.555025
    24  H    4.707404   3.087653   2.147207   7.050871   7.154956
    25  H    4.415230   3.447247   2.111722   7.564809   7.871936
    26  C    4.652745   2.574302   3.158154   4.719458   4.540541
    27  H    4.933534   2.832124   2.972084   5.655262   5.498288
    28  H    5.021880   3.084026   3.498293   5.053137   4.891951
    29  H    5.413700   3.391801   4.154214   4.577907   4.157630
                   16         17         18         19         20
    16  H    0.000000
    17  H    1.743440   0.000000
    18  C    4.704053   4.279187   0.000000
    19  H    5.126536   4.599937   1.086033   0.000000
    20  H    5.103599   5.008088   1.091048   1.769364   0.000000
    21  H    5.312872   4.656433   1.089261   1.779014   1.752923
    22  C    6.978858   7.418170   6.586626   7.665731   6.196124
    23  H    6.591931   7.254968   6.856466   7.918236   6.457977
    24  H    7.488298   7.786311   7.235844   8.321638   6.960128
    25  H    7.814849   8.293271   7.000305   8.056825   6.473130
    26  C    5.173730   5.605253   6.648087   7.659254   6.656179
    27  H    6.173246   6.469585   7.125518   8.173814   7.093766
    28  H    5.292444   6.037427   7.055694   8.054894   6.939806
    29  H    5.117074   5.446938   7.152397   8.109336   7.297159
                   21         22         23         24         25
    21  H    0.000000
    22  C    6.391147   0.000000
    23  H    6.813940   1.086701   0.000000
    24  H    6.924096   1.091333   1.764224   0.000000
    25  H    6.801100   1.087523   1.775893   1.760695   0.000000
    26  C    6.578875   3.024644   2.623258   2.962453   4.093778
    27  H    6.919098   2.559932   2.409089   2.150806   3.601723
    28  H    7.120741   3.079879   2.319088   3.220484   4.037750
    29  H    7.081380   4.075946   3.678142   3.873803   5.147490
                   26         27         28         29
    26  C    0.000000
    27  H    1.082869   0.000000
    28  H    1.090629   1.763325   0.000000
    29  H    1.089216   1.752460   1.757364   0.000000
 Stoichiometry    C11H15NO2
 Framework group  C1[X(C11H15NO2)]
 Deg. of freedom    81
 Full point group                 C1      NOp   1
 RotChk:  IX=0 Diff= 1.19D-15
 Largest Abelian subgroup         C1      NOp   1
 Largest concise Abelian subgroup C1      NOp   1
                         Standard orientation:                         
 ---------------------------------------------------------------------
 Center     Atomic      Atomic             Coordinates (Angstroms)
 Number     Number       Type             X           Y           Z
 ---------------------------------------------------------------------
      1          8           0       -2.286050   -2.280817   -0.180355
      2          8           0        3.588627   -0.247297    0.476077
      3          7           0       -0.027596    1.799830   -0.254082
      4          1           0       -0.058022    2.806787   -0.257691
      5          6           0        1.290478   -0.139299   -0.084889
      6          6           0       -1.231076    1.138776   -0.144542
      7          6           0        1.204620    1.214122   -0.084547
      8          6           0        2.561931   -0.824651    0.131565
      9          6           0        0.060664   -0.953675   -0.403161
     10          1           0        0.080595   -1.284514   -1.450515
     11          1           0        0.051214   -1.873905    0.177318
     12          6           0       -1.228986   -0.216574   -0.131925
     13          6           0       -2.395841   -1.079018    0.049102
     14          6           0        2.321576    2.190758    0.085475
     15          1           0        2.005007    3.188981   -0.213983
     16          1           0        2.640635    2.229458    1.126100
     17          1           0        3.190559    1.899885   -0.495180
     18          6           0        2.593931   -2.317114   -0.079976
     19          1           0        3.624570   -2.659132   -0.063410
     20          1           0        2.044331   -2.822531    0.715560
     21          1           0        2.126695   -2.602722   -1.021575
     22          6           0       -3.725724   -0.570711    0.549056
     23          1           0       -3.629921    0.204188    1.304882
     24          1           0       -4.312788   -0.168800   -0.278488
     25          1           0       -4.269488   -1.416823    0.962725
     26          6           0       -2.394466    2.077458   -0.053790
     27          1           0       -3.275517    1.695109   -0.553952
     28          1           0       -2.649715    2.281715    0.986690
     29          1           0       -2.138226    3.027972   -0.519898
 ---------------------------------------------------------------------
 Rotational constants (GHZ):           1.0783990           0.4908234           0.3471640
 Leave Link  202 at Sat Jan 24 23:14:12 2026, MaxMem=  2147483648 cpu:               0.0 elap:               0.0
 (Enter /data/home/wyx/g16/l301.exe)
 Standard basis: TZVP (5D, 7F)
 Ernie: Thresh=  0.10000D-02 Tol=  0.10000D-05 Strict=F.
 There are   370 symmetry adapted cartesian basis functions of A   symmetry.
 There are   356 symmetry adapted basis functions of A   symmetry.
   356 basis functions,   610 primitive gaussians,   370 cartesian basis functions
    52 alpha electrons       52 beta electrons
       nuclear repulsion energy       900.8140258419 Hartrees.
 IExCor=20419 DFT=T Ex+Corr=CAM-B3LYP ExCW=0 ScaHFX=  1.000000
 ScaDFX=  1.000000  1.000000  1.000000  0.810000 ScalE2=  1.000000  1.000000
 IRadAn=      5 IRanWt=     -1 IRanGd=            0 ICorTp=0 IEmpDi=141
 HFx  wShort=  0.000000 wLong=  0.330000 cFull=  0.190000 cShort=  0.000000 cLong=  0.460000
 DFx  wShort=  0.000000 wLong=  0.330000 cFull=  0.190000 cShort=  0.000000 cLong=  0.460000
 NAtoms=   29 NActive=   29 NUniq=   29 SFac= 1.00D+00 NAtFMM=   60 NAOKFM=F Big=F
 Integral buffers will be    131072 words long.
 Raffenetti 2 integral format.
 Two-electron integral symmetry is turned on.
 R6Disp:  Grimme-D3(BJ) Dispersion energy=       -0.0262164682 Hartrees.
 Nuclear repulsion after empirical dispersion term =      900.7878093737 Hartrees.
 ------------------------------------------------------------------------------
 Polarizable Continuum Model (PCM)
 =================================
 Model                : PCM.
 Atomic radii         : UFF (Universal Force Field).
 Polarization charges : Total charges.
 Charge compensation  : None.
 Solution method      : On-the-fly selection.
 Cavity type          : Scaled VdW (van der Waals Surface) (Alpha=1.100).
 Cavity algorithm     : GePol (No added spheres)
                        Default sphere list used, NSphG=   29.
                        Lebedev-Laikov grids with approx.  5.0 points / Ang**2.
                        Smoothing algorithm: York/Karplus (Gamma=1.0000).
                        Polarization charges: spherical gaussians, with
                                              point-specific exponents (IZeta= 3).
                        Self-potential: point-specific (ISelfS= 7).
                        Self-field    : sphere-specific E.n sum rule (ISelfD= 2).
 Solvent              : Water, Eps=  78.355300 Eps(inf)=   1.777849
 ------------------------------------------------------------------------------
 GePol: Number of generator spheres                  =      29
 GePol: Total number of spheres                      =      29
 GePol: Number of exposed spheres                    =      29 (100.00%)
 GePol: Number of points                             =    2088
 GePol: Average weight of points                     =       0.13
 GePol: Minimum weight of points                     =   0.43D-10
 GePol: Maximum weight of points                     =    0.20577
 GePol: Number of points with low weight             =     135
 GePol: Fraction of low-weight points (<1% of avg)   =       6.47%
 GePol: Cavity surface area                          =    268.615 Ang**2
 GePol: Cavity volume                                =    286.701 Ang**3
 Leave Link  301 at Sat Jan 24 23:14:12 2026, MaxMem=  2147483648 cpu:               0.6 elap:               0.0
 (Enter /data/home/wyx/g16/l302.exe)
 NPDir=0 NMtPBC=     1 NCelOv=     1 NCel=       1 NClECP=     1 NCelD=      1
         NCelK=      1 NCelE2=     1 NClLst=     1 CellRange=     0.0.
 One-electron integrals computed using PRISM.
 One-electron integral symmetry used in STVInt
 NBasis=   356 RedAO= T EigKep=  4.71D-05  NBF=   356
 NBsUse=   356 1.00D-06 EigRej= -1.00D+00 NBFU=   356
 Precomputing XC quadrature grid using
 IXCGrd= 4 IRadAn=           5 IRanWt=          -1 IRanGd=           0 AccXCQ= 0.00D+00.
 Generated NRdTot=       0 NPtTot=           0 NUsed=           0 NTot=          32
 NSgBfM=   366   366   366   366   366 MxSgAt=    29 MxSgA2=    29.
 Leave Link  302 at Sat Jan 24 23:14:13 2026, MaxMem=  2147483648 cpu:               3.2 elap:               0.2
 (Enter /data/home/wyx/g16/l303.exe)
 DipDrv:  MaxL=1.
 Leave Link  303 at Sat Jan 24 23:14:13 2026, MaxMem=  2147483648 cpu:               0.6 elap:               0.0
 (Enter /data/home/wyx/g16/l401.exe)
 Initial guess from the checkpoint file:  "DDL-S2-cLR-gs-15.chk"
 B after Tr=     0.000000    0.000000    0.000000
         Rot=    1.000000   -0.000000   -0.000000   -0.000000 Ang=   0.00 deg.
 Guess basis will be translated and rotated to current coordinates.
 JPrj=2 DoOrth=T DoCkMO=T.
 Leave Link  401 at Sat Jan 24 23:14:13 2026, MaxMem=  2147483648 cpu:               2.2 elap:               0.2
 (Enter /data/home/wyx/g16/l502.exe)
 Integral symmetry usage will be decided dynamically.
 Closed shell SCF:
 Using DIIS extrapolation, IDIIS=  1040.
 NGot=  2147483648 LenX=  2147200095 LenY=  2147062754
 Requested convergence on RMS density matrix=1.00D-08 within 128 cycles.
 Requested convergence on MAX density matrix=1.00D-06.
 Requested convergence on             energy=1.00D-06.
 No special actions if energy rises.
 Fock matrices will be formed incrementally for  20 cycles.

 Cycle   1  Pass 1  IDiag  1:
 FoFJK:  IHMeth= 1 ICntrl=       0 DoSepK=T KAlg= 0 I1Cent=           0 FoldK=F
 IRaf=         1 NMat=       1 IRICut=       1 DoRegI=T DoRafI=F ISym2E= 0 IDoP0=0 IntGTp=1.
 FoFCou: FMM=F IPFlag=           0 FMFlag=      100000 FMFlg1=           0
         NFxFlg=           0 DoJE=T BraDBF=F KetDBF=F FulRan=T
         wScrn=  0.000000 ICntrl=       500 IOpCl=  0 I1Cent=           0 NGrid=           0
         NMat0=    1 NMatS0=      1 NMatT0=    0 NMatD0=    1 NMtDS0=    0 NMtDT0=    0
 Symmetry not used in FoFCou.
 Inv3:  Mode=1 IEnd=    13079232.
 Iteration    1 A*A^-1 deviation from unit magnitude is 2.89D-15 for   1626.
 Iteration    1 A*A^-1 deviation from orthogonality  is 2.35D-15 for   2012   1550.
 Iteration    1 A^-1*A deviation from unit magnitude is 2.89D-15 for    766.
 Iteration    1 A^-1*A deviation from orthogonality  is 1.99D-15 for   1427   1313.
 NEqPCM:  Using non-equilibrium solvation (IEInf=1, Eps=  78.3553, EpsInf=   1.7778)
 Inv3:  Mode=1 IEnd=    13079232.
 Iteration    1 A*A^-1 deviation from unit magnitude is 3.33D-15 for    247.
 Iteration    1 A*A^-1 deviation from orthogonality  is 1.79D-15 for   1690    762.
 Iteration    1 A^-1*A deviation from unit magnitude is 3.44D-15 for    247.
 Iteration    1 A^-1*A deviation from orthogonality  is 2.14D-15 for   1522   1116.
 E= -633.330215124751    
 DIIS: error= 6.99D-04 at cycle   1 NSaved=   1.
 NSaved= 1 IEnMin= 1 EnMin= -633.330215124751     IErMin= 1 ErrMin= 6.99D-04
 ErrMax= 6.99D-04  0.00D+00 EMaxC= 1.00D-01 BMatC= 1.15D-04 BMatP= 1.15D-04
 IDIUse=3 WtCom= 9.93D-01 WtEn= 6.99D-03
 Coeff-Com:  0.100D+01
 Coeff-En:   0.100D+01
 Coeff:      0.100D+01
 Gap=     0.240 Goal=   None    Shift=    0.000
 RMSDP=4.09D-04 MaxDP=1.90D-02              OVMax= 1.15D-02

 Cycle   2  Pass 1  IDiag  1:
 RMSU=  4.07D-04    CP:  1.00D+00
 E= -633.330418863083     Delta-E=       -0.000203738332 Rises=F Damp=F
 DIIS: error= 5.12D-04 at cycle   2 NSaved=   2.
 NSaved= 2 IEnMin= 2 EnMin= -633.330418863083     IErMin= 2 ErrMin= 5.12D-04
 ErrMax= 5.12D-04  0.00D+00 EMaxC= 1.00D-01 BMatC= 1.10D-04 BMatP= 1.15D-04
 IDIUse=3 WtCom= 9.95D-01 WtEn= 5.12D-03
 Coeff-Com:  0.492D+00 0.508D+00
 Coeff-En:   0.000D+00 0.100D+01
 Coeff:      0.490D+00 0.510D+00
 Gap=     0.239 Goal=   None    Shift=    0.000
 RMSDP=1.09D-04 MaxDP=5.37D-03 DE=-2.04D-04 OVMax= 2.81D-03

 Cycle   3  Pass 1  IDiag  1:
 RMSU=  1.02D-04    CP:  1.00D+00  9.69D-01
 E= -633.330503937299     Delta-E=       -0.000085074216 Rises=F Damp=F
 DIIS: error= 2.01D-04 at cycle   3 NSaved=   3.
 NSaved= 3 IEnMin= 3 EnMin= -633.330503937299     IErMin= 3 ErrMin= 2.01D-04
 ErrMax= 2.01D-04  0.00D+00 EMaxC= 1.00D-01 BMatC= 1.50D-05 BMatP= 1.10D-04
 IDIUse=3 WtCom= 9.98D-01 WtEn= 2.01D-03
 Coeff-Com:  0.682D-01 0.249D+00 0.683D+00
 Coeff-En:   0.000D+00 0.920D-02 0.991D+00
 Coeff:      0.681D-01 0.248D+00 0.683D+00
 Gap=     0.239 Goal=   None    Shift=    0.000
 RMSDP=2.87D-05 MaxDP=1.46D-03 DE=-8.51D-05 OVMax= 1.56D-03

 Cycle   4  Pass 1  IDiag  1:
 RMSU=  2.30D-05    CP:  1.00D+00  9.87D-01  1.15D+00
 E= -633.330516121120     Delta-E=       -0.000012183820 Rises=F Damp=F
 DIIS: error= 5.36D-05 at cycle   4 NSaved=   4.
 NSaved= 4 IEnMin= 4 EnMin= -633.330516121120     IErMin= 4 ErrMin= 5.36D-05
 ErrMax= 5.36D-05  0.00D+00 EMaxC= 1.00D-01 BMatC= 1.05D-06 BMatP= 1.50D-05
 IDIUse=1 WtCom= 1.00D+00 WtEn= 0.00D+00
 Coeff-Com: -0.122D-01 0.241D-01 0.206D+00 0.782D+00
 Coeff:     -0.122D-01 0.241D-01 0.206D+00 0.782D+00
 Gap=     0.239 Goal=   None    Shift=    0.000
 RMSDP=1.89D-05 MaxDP=9.23D-04 DE=-1.22D-05 OVMax= 9.31D-04

 Cycle   5  Pass 1  IDiag  1:
 RMSU=  1.06D-05    CP:  1.00D+00  9.99D-01  1.29D+00  1.07D+00
 E= -633.330517520093     Delta-E=       -0.000001398973 Rises=F Damp=F
 DIIS: error= 2.29D-05 at cycle   5 NSaved=   5.
 NSaved= 5 IEnMin= 5 EnMin= -633.330517520093     IErMin= 5 ErrMin= 2.29D-05
 ErrMax= 2.29D-05  0.00D+00 EMaxC= 1.00D-01 BMatC= 2.83D-07 BMatP= 1.05D-06
 IDIUse=1 WtCom= 1.00D+00 WtEn= 0.00D+00
 Coeff-Com: -0.131D-01-0.264D-01-0.330D-03 0.357D+00 0.682D+00
 Coeff:     -0.131D-01-0.264D-01-0.330D-03 0.357D+00 0.682D+00
 Gap=     0.239 Goal=   None    Shift=    0.000
 RMSDP=7.37D-06 MaxDP=3.07D-04 DE=-1.40D-06 OVMax= 3.37D-04

 Cycle   6  Pass 1  IDiag  1:
 RMSU=  3.42D-06    CP:  1.00D+00  9.98D-01  1.34D+00  1.22D+00  1.08D+00
 E= -633.330517927136     Delta-E=       -0.000000407043 Rises=F Damp=F
 DIIS: error= 1.42D-05 at cycle   6 NSaved=   6.
 NSaved= 6 IEnMin= 6 EnMin= -633.330517927136     IErMin= 6 ErrMin= 1.42D-05
 ErrMax= 1.42D-05  0.00D+00 EMaxC= 1.00D-01 BMatC= 2.94D-08 BMatP= 2.83D-07
 IDIUse=1 WtCom= 1.00D+00 WtEn= 0.00D+00
 Coeff-Com: -0.125D-02-0.143D-01-0.230D-01 0.747D-02 0.194D+00 0.837D+00
 Coeff:     -0.125D-02-0.143D-01-0.230D-01 0.747D-02 0.194D+00 0.837D+00
 Gap=     0.239 Goal=   None    Shift=    0.000
 RMSDP=3.27D-06 MaxDP=1.22D-04 DE=-4.07D-07 OVMax= 2.71D-04

 Cycle   7  Pass 1  IDiag  1:
 RMSU=  1.51D-06    CP:  1.00D+00  9.96D-01  1.36D+00  1.29D+00  1.18D+00
                    CP:  1.19D+00
 E= -633.330518003461     Delta-E=       -0.000000076325 Rises=F Damp=F
 DIIS: error= 5.72D-06 at cycle   7 NSaved=   7.
 NSaved= 7 IEnMin= 7 EnMin= -633.330518003461     IErMin= 7 ErrMin= 5.72D-06
 ErrMax= 5.72D-06  0.00D+00 EMaxC= 1.00D-01 BMatC= 1.35D-08 BMatP= 2.94D-08
 IDIUse=1 WtCom= 1.00D+00 WtEn= 0.00D+00
 Coeff-Com:  0.200D-02-0.341D-02-0.797D-02-0.658D-01-0.740D-01 0.426D+00
 Coeff-Com:  0.724D+00
 Coeff:      0.200D-02-0.341D-02-0.797D-02-0.658D-01-0.740D-01 0.426D+00
 Coeff:      0.724D+00
 Gap=     0.239 Goal=   None    Shift=    0.000
 RMSDP=1.51D-06 MaxDP=6.59D-05 DE=-7.63D-08 OVMax= 1.36D-04

 Cycle   8  Pass 1  IDiag  1:
 RMSU=  5.70D-07    CP:  1.00D+00  9.95D-01  1.37D+00  1.32D+00  1.24D+00
                    CP:  1.39D+00  1.10D+00
 E= -633.330518027608     Delta-E=       -0.000000024147 Rises=F Damp=F
 DIIS: error= 2.03D-06 at cycle   8 NSaved=   8.
 NSaved= 8 IEnMin= 8 EnMin= -633.330518027608     IErMin= 8 ErrMin= 2.03D-06
 ErrMax= 2.03D-06  0.00D+00 EMaxC= 1.00D-01 BMatC= 1.33D-09 BMatP= 1.35D-08
 IDIUse=1 WtCom= 1.00D+00 WtEn= 0.00D+00
 Coeff-Com:  0.915D-03 0.350D-03 0.193D-02-0.222D-01-0.705D-01 0.913D-02
 Coeff-Com:  0.236D+00 0.844D+00
 Coeff:      0.915D-03 0.350D-03 0.193D-02-0.222D-01-0.705D-01 0.913D-02
 Coeff:      0.236D+00 0.844D+00
 Gap=     0.239 Goal=   None    Shift=    0.000
 RMSDP=6.40D-07 MaxDP=2.09D-05 DE=-2.41D-08 OVMax= 5.59D-05

 Cycle   9  Pass 1  IDiag  1:
 RMSU=  1.85D-07    CP:  1.00D+00  9.95D-01  1.37D+00  1.33D+00  1.24D+00
                    CP:  1.50D+00  1.29D+00  1.17D+00
 E= -633.330518030677     Delta-E=       -0.000000003069 Rises=F Damp=F
 DIIS: error= 8.01D-07 at cycle   9 NSaved=   9.
 NSaved= 9 IEnMin= 9 EnMin= -633.330518030677     IErMin= 9 ErrMin= 8.01D-07
 ErrMax= 8.01D-07  0.00D+00 EMaxC= 1.00D-01 BMatC= 1.46D-10 BMatP= 1.33D-09
 IDIUse=1 WtCom= 1.00D+00 WtEn= 0.00D+00
 Coeff-Com:  0.536D-04 0.485D-03 0.182D-02 0.284D-02-0.166D-01-0.573D-01
 Coeff-Com: -0.865D-02 0.312D+00 0.766D+00
 Coeff:      0.536D-04 0.485D-03 0.182D-02 0.284D-02-0.166D-01-0.573D-01
 Coeff:     -0.865D-02 0.312D+00 0.766D+00
 Gap=     0.239 Goal=   None    Shift=    0.000
 RMSDP=1.85D-07 MaxDP=8.60D-06 DE=-3.07D-09 OVMax= 1.81D-05

 Cycle  10  Pass 1  IDiag  1:
 RMSU=  7.71D-08    CP:  1.00D+00  9.95D-01  1.37D+00  1.33D+00  1.24D+00
                    CP:  1.53D+00  1.35D+00  1.27D+00  1.02D+00
 E= -633.330518030984     Delta-E=       -0.000000000306 Rises=F Damp=F
 DIIS: error= 1.96D-07 at cycle  10 NSaved=  10.
 NSaved=10 IEnMin=10 EnMin= -633.330518030984     IErMin=10 ErrMin= 1.96D-07
 ErrMax= 1.96D-07  0.00D+00 EMaxC= 1.00D-01 BMatC= 2.53D-11 BMatP= 1.46D-10
 IDIUse=1 WtCom= 1.00D+00 WtEn= 0.00D+00
 Coeff-Com: -0.658D-04 0.232D-03 0.185D-03 0.325D-02 0.149D-02-0.213D-01
 Coeff-Com: -0.258D-01-0.106D-02 0.269D+00 0.774D+00
 Coeff:     -0.658D-04 0.232D-03 0.185D-03 0.325D-02 0.149D-02-0.213D-01
 Coeff:     -0.258D-01-0.106D-02 0.269D+00 0.774D+00
 Gap=     0.239 Goal=   None    Shift=    0.000
 RMSDP=6.83D-08 MaxDP=2.44D-06 DE=-3.06D-10 OVMax= 4.62D-06

 Cycle  11  Pass 1  IDiag  1:
 RMSU=  2.40D-08    CP:  1.00D+00  9.95D-01  1.37D+00  1.33D+00  1.24D+00
                    CP:  1.53D+00  1.38D+00  1.30D+00  1.15D+00  1.14D+00
 E= -633.330518031010     Delta-E=       -0.000000000026 Rises=F Damp=F
 DIIS: error= 1.16D-07 at cycle  11 NSaved=  11.
 NSaved=11 IEnMin=11 EnMin= -633.330518031010     IErMin=11 ErrMin= 1.16D-07
 ErrMax= 1.16D-07  0.00D+00 EMaxC= 1.00D-01 BMatC= 4.25D-12 BMatP= 2.53D-11
 IDIUse=1 WtCom= 1.00D+00 WtEn= 0.00D+00
 Coeff-Com: -0.389D-04 0.660D-04-0.231D-03 0.112D-02 0.322D-02-0.100D-03
 Coeff-Com: -0.738D-02-0.489D-01 0.108D-01 0.313D+00 0.728D+00
 Coeff:     -0.389D-04 0.660D-04-0.231D-03 0.112D-02 0.322D-02-0.100D-03
 Coeff:     -0.738D-02-0.489D-01 0.108D-01 0.313D+00 0.728D+00
 Gap=     0.239 Goal=   None    Shift=    0.000
 RMSDP=2.78D-08 MaxDP=1.80D-06 DE=-2.59D-11 OVMax= 1.35D-06

 Cycle  12  Pass 1  IDiag  1:
 RMSU=  1.19D-08    CP:  1.00D+00  9.95D-01  1.37D+00  1.33D+00  1.24D+00
                    CP:  1.53D+00  1.38D+00  1.31D+00  1.17D+00  1.27D+00
                    CP:  1.02D+00
 E= -633.330518031031     Delta-E=       -0.000000000021 Rises=F Damp=F
 DIIS: error= 4.36D-08 at cycle  12 NSaved=  12.
 NSaved=12 IEnMin=12 EnMin= -633.330518031031     IErMin=12 ErrMin= 4.36D-08
 ErrMax= 4.36D-08  0.00D+00 EMaxC= 1.00D-01 BMatC= 6.71D-13 BMatP= 4.25D-12
 IDIUse=1 WtCom= 1.00D+00 WtEn= 0.00D+00
 Coeff-Com: -0.892D-05 0.146D-04-0.123D-03 0.459D-04 0.112D-02 0.233D-02
 Coeff-Com:  0.632D-03-0.207D-01-0.270D-01 0.116D-01 0.319D+00 0.713D+00
 Coeff:     -0.892D-05 0.146D-04-0.123D-03 0.459D-04 0.112D-02 0.233D-02
 Coeff:      0.632D-03-0.207D-01-0.270D-01 0.116D-01 0.319D+00 0.713D+00
 Gap=     0.239 Goal=   None    Shift=    0.000
 RMSDP=7.53D-09 MaxDP=3.57D-07 DE=-2.10D-11 OVMax= 5.51D-07

 Error on total polarization charges =  0.00821
 SCF Done:  E(RCAM-B3LYP) =  -633.330518031     A.U. after   12 cycles
            NFock= 12  Conv=0.75D-08     -V/T= 2.0041
 KE= 6.307176703972D+02 PE=-3.277776905793D+03 EE= 1.112940907991D+03
 Leave Link  502 at Sat Jan 24 23:15:01 2026, MaxMem=  2147483648 cpu:             757.8 elap:              48.0
 (Enter /data/home/wyx/g16/l601.exe)
 Copying SCF densities to generalized density rwf, IOpCl= 0 IROHF=0.

 **********************************************************************

            Population analysis using the SCF density.

 **********************************************************************

 Orbital symmetries:
       Occupied  (A) (A) (A) (A) (A) (A) (A) (A) (A) (A) (A) (A)
                 (A) (A) (A) (A) (A) (A) (A) (A) (A) (A) (A) (A)
                 (A) (A) (A) (A) (A) (A) (A) (A) (A) (A) (A) (A)
                 (A) (A) (A) (A) (A) (A) (A) (A) (A) (A) (A) (A)
                 (A) (A) (A) (A)
       Virtual   (A) (A) (A) (A) (A) (A) (A) (A) (A) (A) (A) (A)
                 (A) (A) (A) (A) (A) (A) (A) (A) (A) (A) (A) (A)
                 (A) (A) (A) (A) (A) (A) (A) (A) (A) (A) (A) (A)
                 (A) (A) (A) (A) (A) (A) (A) (A) (A) (A) (A) (A)
                 (A) (A) (A) (A) (A) (A) (A) (A) (A) (A) (A) (A)
                 (A) (A) (A) (A) (A) (A) (A) (A) (A) (A) (A) (A)
                 (A) (A) (A) (A) (A) (A) (A) (A) (A) (A) (A) (A)
                 (A) (A) (A) (A) (A) (A) (A) (A) (A) (A) (A) (A)
                 (A) (A) (A) (A) (A) (A) (A) (A) (A) (A) (A) (A)
                 (A) (A) (A) (A) (A) (A) (A) (A) (A) (A) (A) (A)
                 (A) (A) (A) (A) (A) (A) (A) (A) (A) (A) (A) (A)
                 (A) (A) (A) (A) (A) (A) (A) (A) (A) (A) (A) (A)
                 (A) (A) (A) (A) (A) (A) (A) (A) (A) (A) (A) (A)
                 (A) (A) (A) (A) (A) (A) (A) (A) (A) (A) (A) (A)
                 (A) (A) (A) (A) (A) (A) (A) (A) (A) (A) (A) (A)
                 (A) (A) (A) (A) (A) (A) (A) (A) (A) (A) (A) (A)
                 (A) (A) (A) (A) (A) (A) (A) (A) (A) (A) (A) (A)
                 (A) (A) (A) (A) (A) (A) (A) (A) (A) (A) (A) (A)
                 (A) (A) (A) (A) (A) (A) (A) (A) (A) (A) (A) (A)
                 (A) (A) (A) (A) (A) (A) (A) (A) (A) (A) (A) (A)
                 (A) (A) (A) (A) (A) (A) (A) (A) (A) (A) (A) (A)
                 (A) (A) (A) (A) (A) (A) (A) (A) (A) (A) (A) (A)
                 (A) (A) (A) (A) (A) (A) (A) (A) (A) (A) (A) (A)
                 (A) (A) (A) (A) (A) (A) (A) (A) (A) (A) (A) (A)
                 (A) (A) (A) (A) (A) (A) (A) (A) (A) (A) (A) (A)
                 (A) (A) (A) (A)
 The electronic state is 1-A.
 Alpha  occ. eigenvalues --  -19.18388 -19.17140 -14.44330 -10.33934 -10.32861
 Alpha  occ. eigenvalues --  -10.32403 -10.31554 -10.26083 -10.25399 -10.25117
 Alpha  occ. eigenvalues --  -10.24733 -10.24669 -10.24623 -10.23373  -1.12492
 Alpha  occ. eigenvalues --   -1.11243  -1.07760  -0.91473  -0.90470  -0.83979
 Alpha  occ. eigenvalues --   -0.82581  -0.81758  -0.78534  -0.74242  -0.71317
 Alpha  occ. eigenvalues --   -0.68774  -0.61709  -0.58369  -0.57026  -0.55398
 Alpha  occ. eigenvalues --   -0.54714  -0.54030  -0.52680  -0.52033  -0.50943
 Alpha  occ. eigenvalues --   -0.50273  -0.49501  -0.49178  -0.48654  -0.48298
 Alpha  occ. eigenvalues --   -0.46964  -0.45251  -0.45019  -0.43632  -0.43344
 Alpha  occ. eigenvalues --   -0.42716  -0.42211  -0.41845  -0.33133  -0.32625
 Alpha  occ. eigenvalues --   -0.31035  -0.26432
 Alpha virt. eigenvalues --   -0.02535   0.02304   0.06187   0.08088   0.08528
 Alpha virt. eigenvalues --    0.09839   0.10803   0.11931   0.12558   0.13362
 Alpha virt. eigenvalues --    0.14113   0.14880   0.15638   0.16097   0.16977
 Alpha virt. eigenvalues --    0.17545   0.17716   0.17902   0.18060   0.19233
 Alpha virt. eigenvalues --    0.19874   0.22058   0.22519   0.23135   0.23376
 Alpha virt. eigenvalues --    0.23885   0.24699   0.25399   0.25831   0.26435
 Alpha virt. eigenvalues --    0.26776   0.27176   0.28641   0.28801   0.30171
 Alpha virt. eigenvalues --    0.31319   0.31753   0.32639   0.33422   0.34136
 Alpha virt. eigenvalues --    0.35313   0.35705   0.36721   0.37896   0.38707
 Alpha virt. eigenvalues --    0.39892   0.40645   0.41595   0.41969   0.42485
 Alpha virt. eigenvalues --    0.43934   0.44086   0.45115   0.45720   0.46311
 Alpha virt. eigenvalues --    0.47154   0.47584   0.47967   0.48187   0.48728
 Alpha virt. eigenvalues --    0.49325   0.50209   0.50652   0.51249   0.51565
 Alpha virt. eigenvalues --    0.52845   0.53107   0.53361   0.54152   0.54235
 Alpha virt. eigenvalues --    0.54422   0.55754   0.55966   0.56467   0.57929
 Alpha virt. eigenvalues --    0.58463   0.58839   0.60362   0.60923   0.62180
 Alpha virt. eigenvalues --    0.63088   0.65477   0.65813   0.66494   0.67619
 Alpha virt. eigenvalues --    0.68584   0.70135   0.71112   0.72134   0.72923
 Alpha virt. eigenvalues --    0.73261   0.73585   0.74786   0.75892   0.77228
 Alpha virt. eigenvalues --    0.77927   0.79468   0.81752   0.83691   0.84179
 Alpha virt. eigenvalues --    0.88972   0.93155   0.98309   0.99819   1.24725
 Alpha virt. eigenvalues --    1.25515   1.27015   1.27668   1.29179   1.31342
 Alpha virt. eigenvalues --    1.32307   1.32794   1.33861   1.35037   1.35717
 Alpha virt. eigenvalues --    1.36544   1.37321   1.37889   1.39028   1.39693
 Alpha virt. eigenvalues --    1.39902   1.40094   1.41049   1.41469   1.41688
 Alpha virt. eigenvalues --    1.43026   1.43956   1.44605   1.45064   1.46862
 Alpha virt. eigenvalues --    1.47877   1.48659   1.49447   1.50298   1.50819
 Alpha virt. eigenvalues --    1.52064   1.52181   1.53767   1.54108   1.57364
 Alpha virt. eigenvalues --    1.58155   1.60286   1.60517   1.60955   1.62104
 Alpha virt. eigenvalues --    1.62379   1.63208   1.64114   1.65383   1.65715
 Alpha virt. eigenvalues --    1.66898   1.67256   1.67591   1.68268   1.68564
 Alpha virt. eigenvalues --    1.68871   1.69703   1.70494   1.71927   1.72013
 Alpha virt. eigenvalues --    1.73113   1.74868   1.75979   1.76884   1.78537
 Alpha virt. eigenvalues --    1.79659   1.83123   1.84217   1.85844   1.86536
 Alpha virt. eigenvalues --    1.87098   1.87457   1.88647   1.88936   1.90646
 Alpha virt. eigenvalues --    1.91346   1.94303   1.95057   1.97940   1.99509
 Alpha virt. eigenvalues --    2.00733   2.03501   2.04186   2.06224   2.09229
 Alpha virt. eigenvalues --    2.11121   2.12798   2.14317   2.16521   2.19252
 Alpha virt. eigenvalues --    2.20509   2.21036   2.21464   2.22489   2.26036
 Alpha virt. eigenvalues --    2.26775   2.27239   2.28712   2.30276   2.31099
 Alpha virt. eigenvalues --    2.32900   2.34365   2.35806   2.36212   2.37766
 Alpha virt. eigenvalues --    2.39138   2.40112   2.41363   2.43779   2.44563
 Alpha virt. eigenvalues --    2.45683   2.47280   2.50100   2.50243   2.51548
 Alpha virt. eigenvalues --    2.52791   2.53206   2.54961   2.56571   2.58546
 Alpha virt. eigenvalues --    2.58933   2.59965   2.60660   2.61340   2.62427
 Alpha virt. eigenvalues --    2.64316   2.65441   2.66875   2.67319   2.68995
 Alpha virt. eigenvalues --    2.70224   2.71904   2.72794   2.73793   2.74631
 Alpha virt. eigenvalues --    2.76373   2.76483   2.77058   2.77701   2.79303
 Alpha virt. eigenvalues --    2.80786   2.81161   2.82754   2.83420   2.84411
 Alpha virt. eigenvalues --    2.85365   2.85844   2.87509   2.90287   2.91867
 Alpha virt. eigenvalues --    2.97284   2.99743   3.00904   3.03893   3.09864
 Alpha virt. eigenvalues --    3.11789   3.15126   3.16615   3.16939   3.19557
 Alpha virt. eigenvalues --    3.20549   3.21765   3.24622   3.25922   3.26932
 Alpha virt. eigenvalues --    3.27631   3.29363   3.33350   3.34687   3.36363
 Alpha virt. eigenvalues --    3.36784   3.38508   3.39846   3.40276   3.41347
 Alpha virt. eigenvalues --    3.42605   3.44762   3.45047   3.46166   3.47916
 Alpha virt. eigenvalues --    3.48492   3.49295   3.54964   3.57890   3.59080
 Alpha virt. eigenvalues --    3.60287   3.89454   3.99141   4.33656   4.36068
 Alpha virt. eigenvalues --   21.62990  21.78841  22.08119  22.10649  22.11765
 Alpha virt. eigenvalues --   22.14452  22.15096  22.17830  22.20806  22.24527
 Alpha virt. eigenvalues --   22.30307  31.92993  43.62444  43.65248
          Condensed to atoms (all electrons):
               1          2          3          4          5          6
     1  O    7.954691   0.000000  -0.000250   0.000018   0.015939   0.016730
     2  O    0.000000   7.951159   0.000512   0.000035  -0.194437   0.000786
     3  N   -0.000250   0.000512   6.413555   0.375027  -0.117442   0.331839
     4  H    0.000018   0.000035   0.375027   0.403958   0.016167  -0.046846
     5  C    0.015939  -0.194437  -0.117442   0.016167   6.948647  -0.058929
     6  C    0.016730   0.000786   0.331839  -0.046846  -0.058929   5.646850
     7  C   -0.000425  -0.030727   0.367018  -0.040070   0.347105  -0.086120
     8  C   -0.000173   0.707015   0.005186  -0.000568  -0.195158   0.023596
     9  C   -0.030258   0.018052   0.016901  -0.000216  -0.462548  -0.136084
    10  H    0.003483   0.000063   0.003729   0.000007  -0.025658  -0.014947
    11  H    0.017495  -0.000032  -0.001297   0.000018  -0.107606   0.024927
    12  C   -0.221093  -0.002112  -0.097255   0.014874   0.138848  -0.179789
    13  C    0.711822  -0.000025  -0.000002   0.000366   0.075715   0.181104
    14  C   -0.000005  -0.005919  -0.035569  -0.007822  -0.069574   0.009248
    15  H   -0.000000   0.004172   0.002881   0.000940   0.017453   0.006513
    16  H   -0.000000   0.000850  -0.003168   0.000918  -0.004401  -0.002098
    17  H   -0.000000   0.001159   0.002102   0.000775  -0.012071  -0.000752
    18  C   -0.000090  -0.105304  -0.000531   0.000020  -0.270255   0.000271
    19  H   -0.000004   0.008929   0.000002  -0.000001   0.021429   0.000033
    20  H    0.000015   0.001123   0.000011  -0.000000   0.003865   0.000259
    21  H    0.000069   0.003424   0.000118   0.000001   0.041416  -0.001045
    22  C   -0.107114   0.000000  -0.000037   0.000109   0.003874  -0.009460
    23  H    0.004729  -0.000000  -0.000080  -0.000051  -0.000564  -0.034307
    24  H    0.001230  -0.000000  -0.000042  -0.000017  -0.000098   0.011297
    25  H    0.007701   0.000000   0.000033  -0.000002  -0.000133  -0.001334
    26  C    0.000903   0.000002  -0.030341  -0.005945  -0.000366   0.174913
    27  H   -0.000241   0.000000   0.003279   0.000903   0.000065  -0.044047
    28  H   -0.000045  -0.000000  -0.002543   0.000425   0.000470  -0.034931
    29  H    0.000025  -0.000000  -0.000335   0.000847  -0.000594  -0.048559
               7          8          9         10         11         12
     1  O   -0.000425  -0.000173  -0.030258   0.003483   0.017495  -0.221093
     2  O   -0.030727   0.707015   0.018052   0.000063  -0.000032  -0.002112
     3  N    0.367018   0.005186   0.016901   0.003729  -0.001297  -0.097255
     4  H   -0.040070  -0.000568  -0.000216   0.000007   0.000018   0.014874
     5  C    0.347105  -0.195158  -0.462548  -0.025658  -0.107606   0.138848
     6  C   -0.086120   0.023596  -0.136084  -0.014947   0.024927  -0.179789
     7  C    5.464302  -0.159971  -0.175794  -0.003172   0.018362  -0.004703
     8  C   -0.159971   5.283635   0.084545  -0.006057  -0.007083  -0.029801
     9  C   -0.175794   0.084545   6.265275   0.391809   0.523644   0.029370
    10  H   -0.003172  -0.006057   0.391809   0.553018  -0.033798  -0.027243
    11  H    0.018362  -0.007083   0.523644  -0.033798   0.502112  -0.104304
    12  C   -0.004703  -0.029801   0.029370  -0.027243  -0.104304   7.272197
    13  C    0.010241  -0.005042  -0.267103   0.002516  -0.001627  -0.381812
    14  C    0.243915  -0.030906   0.011919  -0.001319   0.000490  -0.005364
    15  H   -0.075275   0.005281  -0.000154   0.000077  -0.000003  -0.001099
    16  H   -0.021843  -0.002156   0.000665  -0.000069   0.000050   0.000899
    17  H   -0.026648  -0.007615  -0.000757   0.000193  -0.000052  -0.000048
    18  C    0.003949   0.303349   0.000159  -0.007988   0.006427  -0.003532
    19  H    0.000136  -0.048213   0.000042  -0.000026   0.000437  -0.000208
    20  H    0.001652  -0.025054  -0.009311   0.001057  -0.002266  -0.004089
    21  H   -0.000495  -0.063365  -0.008539   0.001633  -0.004457   0.006980
    22  C    0.000068  -0.000052   0.002994   0.001451   0.001250  -0.252563
    23  H    0.000009  -0.000010   0.003466  -0.000118  -0.000089   0.064586
    24  H    0.000039   0.000002  -0.001908   0.000140  -0.000114  -0.012222
    25  H    0.000004   0.000004   0.000208  -0.000034  -0.000147   0.024596
    26  C    0.001667   0.000395   0.019135  -0.000684   0.000002  -0.074549
    27  H   -0.000783   0.000004  -0.000985  -0.000094   0.000004  -0.008685
    28  H   -0.000872  -0.000008  -0.000215  -0.000020   0.000042  -0.020271
    29  H    0.003825  -0.000007  -0.000449   0.000100  -0.000009   0.024595
              13         14         15         16         17         18
     1  O    0.711822  -0.000005  -0.000000  -0.000000  -0.000000  -0.000090
     2  O   -0.000025  -0.005919   0.004172   0.000850   0.001159  -0.105304
     3  N   -0.000002  -0.035569   0.002881  -0.003168   0.002102  -0.000531
     4  H    0.000366  -0.007822   0.000940   0.000918   0.000775   0.000020
     5  C    0.075715  -0.069574   0.017453  -0.004401  -0.012071  -0.270255
     6  C    0.181104   0.009248   0.006513  -0.002098  -0.000752   0.000271
     7  C    0.010241   0.243915  -0.075275  -0.021843  -0.026648   0.003949
     8  C   -0.005042  -0.030906   0.005281  -0.002156  -0.007615   0.303349
     9  C   -0.267103   0.011919  -0.000154   0.000665  -0.000757   0.000159
    10  H    0.002516  -0.001319   0.000077  -0.000069   0.000193  -0.007988
    11  H   -0.001627   0.000490  -0.000003   0.000050  -0.000052   0.006427
    12  C   -0.381812  -0.005364  -0.001099   0.000899  -0.000048  -0.003532
    13  C    5.434543  -0.000119  -0.000011  -0.000024   0.000001   0.000573
    14  C   -0.000119   5.060892   0.388591   0.407313   0.426060   0.002234
    15  H   -0.000011   0.388591   0.577649  -0.026905  -0.029012   0.000299
    16  H   -0.000024   0.407313  -0.026905   0.507605  -0.024059  -0.000126
    17  H    0.000001   0.426060  -0.029012  -0.024059   0.503078  -0.000355
    18  C    0.000573   0.002234   0.000299  -0.000126  -0.000355   5.357451
    19  H   -0.000016  -0.000005  -0.000005  -0.000014   0.000037   0.392255
    20  H   -0.000048  -0.000302  -0.000006  -0.000004   0.000032   0.395521
    21  H    0.000429   0.000047  -0.000018   0.000006  -0.000039   0.381743
    22  C    0.284495  -0.000022   0.000002   0.000000  -0.000000   0.000030
    23  H   -0.090200  -0.000002   0.000000   0.000000   0.000000   0.000003
    24  H   -0.021350  -0.000001   0.000000   0.000000  -0.000000  -0.000002
    25  H   -0.042143   0.000000   0.000000  -0.000000   0.000000  -0.000001
    26  C   -0.054406   0.001526   0.000015  -0.000187   0.000057   0.000023
    27  H   -0.005375   0.000097  -0.000013   0.000002  -0.000001  -0.000000
    28  H    0.006416  -0.000117   0.000004  -0.000014   0.000004  -0.000001
    29  H   -0.000434  -0.000253   0.000132   0.000002  -0.000004   0.000000
              19         20         21         22         23         24
     1  O   -0.000004   0.000015   0.000069  -0.107114   0.004729   0.001230
     2  O    0.008929   0.001123   0.003424   0.000000  -0.000000  -0.000000
     3  N    0.000002   0.000011   0.000118  -0.000037  -0.000080  -0.000042
     4  H   -0.000001  -0.000000   0.000001   0.000109  -0.000051  -0.000017
     5  C    0.021429   0.003865   0.041416   0.003874  -0.000564  -0.000098
     6  C    0.000033   0.000259  -0.001045  -0.009460  -0.034307   0.011297
     7  C    0.000136   0.001652  -0.000495   0.000068   0.000009   0.000039
     8  C   -0.048213  -0.025054  -0.063365  -0.000052  -0.000010   0.000002
     9  C    0.000042  -0.009311  -0.008539   0.002994   0.003466  -0.001908
    10  H   -0.000026   0.001057   0.001633   0.001451  -0.000118   0.000140
    11  H    0.000437  -0.002266  -0.004457   0.001250  -0.000089  -0.000114
    12  C   -0.000208  -0.004089   0.006980  -0.252563   0.064586  -0.012222
    13  C   -0.000016  -0.000048   0.000429   0.284495  -0.090200  -0.021350
    14  C   -0.000005  -0.000302   0.000047  -0.000022  -0.000002  -0.000001
    15  H   -0.000005  -0.000006  -0.000018   0.000002   0.000000   0.000000
    16  H   -0.000014  -0.000004   0.000006   0.000000   0.000000   0.000000
    17  H    0.000037   0.000032  -0.000039  -0.000000   0.000000  -0.000000
    18  C    0.392255   0.395521   0.381743   0.000030   0.000003  -0.000002
    19  H    0.490874  -0.008481  -0.020800  -0.000000   0.000000   0.000000
    20  H   -0.008481   0.506580  -0.027741  -0.000014  -0.000000   0.000000
    21  H   -0.020800  -0.027741   0.540644   0.000013  -0.000000  -0.000000
    22  C   -0.000000  -0.000014   0.000013   5.416721   0.399950   0.400919
    23  H    0.000000  -0.000000  -0.000000   0.399950   0.535759  -0.026224
    24  H    0.000000   0.000000  -0.000000   0.400919  -0.026224   0.489977
    25  H   -0.000000  -0.000000  -0.000000   0.383901  -0.021766  -0.007981
    26  C    0.000000   0.000006  -0.000015  -0.029285   0.015788  -0.015180
    27  H   -0.000000  -0.000000  -0.000000   0.008957  -0.010424  -0.000766
    28  H   -0.000000   0.000000  -0.000000  -0.011281  -0.001259   0.001147
    29  H    0.000000  -0.000000   0.000000   0.001966   0.000720   0.000214
              25         26         27         28         29
     1  O    0.007701   0.000903  -0.000241  -0.000045   0.000025
     2  O    0.000000   0.000002   0.000000  -0.000000  -0.000000
     3  N    0.000033  -0.030341   0.003279  -0.002543  -0.000335
     4  H   -0.000002  -0.005945   0.000903   0.000425   0.000847
     5  C   -0.000133  -0.000366   0.000065   0.000470  -0.000594
     6  C   -0.001334   0.174913  -0.044047  -0.034931  -0.048559
     7  C    0.000004   0.001667  -0.000783  -0.000872   0.003825
     8  C    0.000004   0.000395   0.000004  -0.000008  -0.000007
     9  C    0.000208   0.019135  -0.000985  -0.000215  -0.000449
    10  H   -0.000034  -0.000684  -0.000094  -0.000020   0.000100
    11  H   -0.000147   0.000002   0.000004   0.000042  -0.000009
    12  C    0.024596  -0.074549  -0.008685  -0.020271   0.024595
    13  C   -0.042143  -0.054406  -0.005375   0.006416  -0.000434
    14  C    0.000000   0.001526   0.000097  -0.000117  -0.000253
    15  H    0.000000   0.000015  -0.000013   0.000004   0.000132
    16  H   -0.000000  -0.000187   0.000002  -0.000014   0.000002
    17  H    0.000000   0.000057  -0.000001   0.000004  -0.000004
    18  C   -0.000001   0.000023  -0.000000  -0.000001   0.000000
    19  H   -0.000000   0.000000  -0.000000  -0.000000   0.000000
    20  H   -0.000000   0.000006  -0.000000   0.000000  -0.000000
    21  H   -0.000000  -0.000015  -0.000000  -0.000000   0.000000
    22  C    0.383901  -0.029285   0.008957  -0.011281   0.001966
    23  H   -0.021766   0.015788  -0.010424  -0.001259   0.000720
    24  H   -0.007981  -0.015180  -0.000766   0.001147   0.000214
    25  H    0.494680   0.001943   0.000881   0.000097  -0.000044
    26  C    0.001943   5.255852   0.426506   0.430468   0.389187
    27  H    0.000881   0.426506   0.510177  -0.024842  -0.026801
    28  H    0.000097   0.430468  -0.024842   0.476313  -0.017778
    29  H   -0.000044   0.389187  -0.026801  -0.017778   0.516259
 Mulliken charges:
               1
     1  O   -0.375154
     2  O   -0.358725
     3  N   -0.233301
     4  H    0.286134
     5  C   -0.111161
     6  C    0.270885
     7  C    0.164608
     8  C    0.168229
     9  C   -0.273861
    10  H    0.161953
    11  H    0.167626
    12  C   -0.146201
    13  C    0.161517
    14  C   -0.395032
    15  H    0.128494
    16  H    0.166759
    17  H    0.167918
    18  C   -0.456123
    19  H    0.163601
    20  H    0.167198
    21  H    0.149992
    22  C   -0.496874
    23  H    0.160085
    24  H    0.180938
    25  H    0.159536
    26  C   -0.507430
    27  H    0.172185
    28  H    0.198810
    29  H    0.157395
 Sum of Mulliken charges =  -0.00000
 Mulliken charges with hydrogens summed into heavy atoms:
               1
     1  O   -0.375154
     2  O   -0.358725
     3  N    0.052833
     5  C   -0.111161
     6  C    0.270885
     7  C    0.164608
     8  C    0.168229
     9  C    0.055717
    12  C   -0.146201
    13  C    0.161517
    14  C    0.068138
    18  C    0.024668
    22  C    0.003686
    26  C    0.020960
 Electronic spatial extent (au):  <R**2>=           3181.2656
 Charge=              0.0000 electrons
 Dipole moment (field-independent basis, Debye):
    X=             -3.4563    Y=              7.2773    Z=             -0.3281  Tot=              8.0630
 Quadrupole moment (field-independent basis, Debye-Ang):
   XX=            -95.7288   YY=            -78.6899   ZZ=            -85.0673
   XY=            -13.1269   XZ=             -5.6555   YZ=             -1.4836
 Traceless Quadrupole moment (field-independent basis, Debye-Ang):
   XX=             -9.2334   YY=              7.8054   ZZ=              1.4280
   XY=            -13.1269   XZ=             -5.6555   YZ=             -1.4836
 Octapole moment (field-independent basis, Debye-Ang**2):
  XXX=            -98.9220  YYY=             63.6847  ZZZ=              2.2481  XYY=             35.5655
  XXY=             29.3744  XXZ=            -10.2469  XZZ=             -2.4751  YZZ=             -1.2057
  YYZ=              3.1109  XYZ=              5.1130
 Hexadecapole moment (field-independent basis, Debye-Ang**3):
 XXXX=          -2977.4158 YYYY=          -1272.9544 ZZZZ=           -160.0778 XXXY=            -45.5647
 XXXZ=            -65.3364 YYYX=            -90.8372 YYYZ=            -22.3152 ZZZX=              2.5815
 ZZZY=              6.0204 XXYY=           -686.2153 XXZZ=           -485.7027 YYZZ=           -242.7931
 XXYZ=             -6.1931 YYXZ=             -6.1027 ZZXY=              1.0467
 N-N= 9.007878093737D+02 E-N=-3.277776907018D+03  KE= 6.307176703972D+02
 No NMR shielding tensors so no spin-rotation constants.
 Leave Link  601 at Sat Jan 24 23:15:02 2026, MaxMem=  2147483648 cpu:               1.8 elap:               0.1
 (Enter /data/home/wyx/g16/l9999.exe)
 1\1\GINC-CN012\SP\RCAM-B3LYP\TZVP\C11H15N1O2\WYX\24-Jan-2026\0\\#p CAM
 -B3LYP TZVP em=gd3bj scrf=(Solvent=Water,NonEquilibrium=Read) Geom=Che
 ck Guess=Read\\Title Card Required\\0,1\O,0,2.746546,-1.558123,0.73776
 6\O,0,-3.22321,-1.639939,-1.11514\N,0,-0.71107,1.513087,0.129253\H,0,-
 1.019221,2.470539,0.07242\C,0,-1.248072,-0.7583,-0.151096\C,0,0.640803
 ,1.300052,0.285491\C,0,-1.619756,0.543854,-0.224344\C,0,-2.15063,-1.83
 4552,-0.551376\C,0,0.095979,-1.106861,0.439648\H,0,-0.01587,-1.425438,
 1.485019\H,0,0.524215,-1.968853,-0.06775\C,0,1.092932,0.024536,0.36149
 4\C,0,2.492023,-0.390317,0.454092\C,0,-2.942585,1.083269,-0.659628\H,0
 ,-3.041375,2.129495,-0.373288\H,0,-3.047448,1.011949,-1.741346\H,0,-3.
 760301,0.514246,-0.230149\C,0,-1.724005,-3.249324,-0.251994\H,0,-2.557
 668,-3.920988,-0.434587\H,0,-0.893828,-3.537601,-0.898591\H,0,-1.38090
 8,-3.359864,0.775895\C,0,3.646811,0.539681,0.173938\H,0,3.447227,1.236
 456,-0.635747\H,0,3.89356,1.116566,1.066869\H,0,4.510855,-0.071257,-0.
 07684\C,0,1.419002,2.578069,0.348051\H,0,2.261965,2.517322,1.02505\H,0
 ,1.788791,2.857489,-0.639194\H,0,0.775236,3.384809,0.696084\\Version=E
 S64L-G16RevA.03\State=1-A\HF=-633.330518\RMSD=7.534e-09\Dipole=0.27544
 4,3.1546601,0.1881245\Quadrupole=-9.5069721,10.5771873,-1.0702153,3.47
 39012,-6.4227575,0.2966658\PG=C01 [X(C11H15N1O2)]\\@


 IF MATHEMATICALLY YOU END UP WITH THE INCORRECT ANSWER,
 TRY MULTIPLYING BY THE PAGE NUMBER.
 Job cpu time:       0 days  0 hours 12 minutes 48.2 seconds.
 Elapsed time:       0 days  0 hours  0 minutes 48.9 seconds.
 File lengths (MBytes):  RWF=    336 Int=      0 D2E=      0 Chk=     67 Scr=      1
 Normal termination of Gaussian 16 at Sat Jan 24 23:15:02 2026.
