 Entering Gaussian System, Link 0=g16
 Input=DDL-LR-16.gjf
 Output=DDL-LR-16.log
 Initial command:
 /data/home/wyx/g16/l1.exe "/scr/tmp/wyx/13117/Gau-2016317.inp" -scrdir="/scr/tmp/wyx/13117/"
 Entering Link 1 = /data/home/wyx/g16/l1.exe PID=   2016318.
  
 Copyright (c) 1988,1990,1992,1993,1995,1998,2003,2009,2016,
            Gaussian, Inc.  All Rights Reserved.
  
 This is part of the Gaussian(R) 16 program.  It is based on
 the Gaussian(R) 09 system (copyright 2009, Gaussian, Inc.),
 the Gaussian(R) 03 system (copyright 2003, Gaussian, Inc.),
 the Gaussian(R) 98 system (copyright 1998, Gaussian, Inc.),
 the Gaussian(R) 94 system (copyright 1995, Gaussian, Inc.),
 the Gaussian 92(TM) system (copyright 1992, Gaussian, Inc.),
 the Gaussian 90(TM) system (copyright 1990, Gaussian, Inc.),
 the Gaussian 88(TM) system (copyright 1988, Gaussian, Inc.),
 the Gaussian 86(TM) system (copyright 1986, Carnegie Mellon
 University), and the Gaussian 82(TM) system (copyright 1983,
 Carnegie Mellon University). Gaussian is a federally registered
 trademark of Gaussian, Inc.
  
 This software contains proprietary and confidential information,
 including trade secrets, belonging to Gaussian, Inc.
  
 This software is provided under written license and may be
 used, copied, transmitted, or stored only in accord with that
 written license.
  
 The following legend is applicable only to US Government
 contracts under FAR:
  
                    RESTRICTED RIGHTS LEGEND
  
 Use, reproduction and disclosure by the US Government is
 subject to restrictions as set forth in subparagraphs (a)
 and (c) of the Commercial Computer Software - Restricted
 Rights clause in FAR 52.227-19.
  
 Gaussian, Inc.
 340 Quinnipiac St., Bldg. 40, Wallingford CT 06492
  
  
 ---------------------------------------------------------------
 Warning -- This program may not be used in any manner that
 competes with the business of Gaussian, Inc. or will provide
 assistance to any competitor of Gaussian, Inc.  The licensee
 of this program is prohibited from giving any competitor of
 Gaussian, Inc. access to this program.  By using this program,
 the user acknowledges that Gaussian, Inc. is engaged in the
 business of creating and licensing software in the field of
 computational chemistry and represents and warrants to the
 licensee that it is not a competitor of Gaussian, Inc. and that
 it will not use this program in any manner prohibited above.
 ---------------------------------------------------------------
  

 Cite this work as:
 Gaussian 16, Revision A.03,
 M. J. Frisch, G. W. Trucks, H. B. Schlegel, G. E. Scuseria, 
 M. A. Robb, J. R. Cheeseman, G. Scalmani, V. Barone, 
 G. A. Petersson, H. Nakatsuji, X. Li, M. Caricato, A. V. Marenich, 
 J. Bloino, B. G. Janesko, R. Gomperts, B. Mennucci, H. P. Hratchian, 
 J. V. Ortiz, A. F. Izmaylov, J. L. Sonnenberg, D. Williams-Young, 
 F. Ding, F. Lipparini, F. Egidi, J. Goings, B. Peng, A. Petrone, 
 T. Henderson, D. Ranasinghe, V. G. Zakrzewski, J. Gao, N. Rega, 
 G. Zheng, W. Liang, M. Hada, M. Ehara, K. Toyota, R. Fukuda, 
 J. Hasegawa, M. Ishida, T. Nakajima, Y. Honda, O. Kitao, H. Nakai, 
 T. Vreven, K. Throssell, J. A. Montgomery, Jr., J. E. Peralta, 
 F. Ogliaro, M. J. Bearpark, J. J. Heyd, E. N. Brothers, K. N. Kudin, 
 V. N. Staroverov, T. A. Keith, R. Kobayashi, J. Normand, 
 K. Raghavachari, A. P. Rendell, J. C. Burant, S. S. Iyengar, 
 J. Tomasi, M. Cossi, J. M. Millam, M. Klene, C. Adamo, R. Cammi, 
 J. W. Ochterski, R. L. Martin, K. Morokuma, O. Farkas, 
 J. B. Foresman, and D. J. Fox, Gaussian, Inc., Wallingford CT, 2016.
 
 ******************************************
 Gaussian 16:  ES64L-G16RevA.03 25-Dec-2016
                24-Jan-2026 
 ******************************************
 %nprocshared=16
 Will use up to   16 processors via shared memory.
 %mem=16GB
 %chk=DDL-LR-16.chk
 --------------------------------------------------------------------
 #p CAM-B3LYP TZVP em=gd3bj td(nstates=6,root=1) scrf=(Solvent=Water)
 --------------------------------------------------------------------
 1/38=1,172=1/1;
 2/12=2,17=6,18=5,40=1/2;
 3/5=19,7=101,11=9,25=1,30=1,70=2201,72=1,74=-40,124=41/1,2,3,8;
 4//1;
 5/5=2,38=5,53=1/2;
 8/6=1,10=1,107=1,108=6/1;
 9/8=1,41=6,42=1,70=2/14;
 6/7=2,8=2,9=2,10=2/1;
 99/5=1,9=1/99;
 Leave Link    1 at Sat Jan 24 16:47:37 2026, MaxMem=  2147483648 cpu:               0.4 elap:               0.1
 (Enter /data/home/wyx/g16/l101.exe)
 -------------------
 Title Card Required
 -------------------
 Symbolic Z-matrix:
 Charge =  0 Multiplicity = 1
 O                     2.74899  -1.55794   0.72648 
 O                    -3.2157   -1.638    -1.13358 
 N                    -0.71353   1.51267   0.14542 
 H                    -1.02164   2.46986   0.08962 
 C                    -1.24762  -0.7579   -0.14907 
 C                     0.64055   1.29712   0.29271 
 C                    -1.61915   0.54118  -0.2186 
 C                    -2.14934  -1.83325  -0.55901 
 C                     0.09379  -1.10924   0.45379 
 H                    -0.02416  -1.41727   1.5013 
 H                     0.52294  -1.9739   -0.04718 
 C                     1.09186   0.02426   0.36577 
 C                     2.49299  -0.38987   0.44881 
 C                    -2.94018   1.08156  -0.66271 
 H                    -3.04404   2.12347  -0.36051 
 H                    -3.02909   1.02616  -1.74776 
 H                    -3.76074   0.50153  -0.25201 
 C                    -1.72563  -3.24847  -0.25186 
 H                    -2.55597  -3.92001  -0.4538 
 H                    -0.87962  -3.53262  -0.88118 
 H                    -1.40452  -3.35648   0.78457 
 C                     3.64654   0.54109   0.16609 
 H                     3.44527   1.23592  -0.64488 
 H                     3.89255   1.12019   1.05772 
 H                     4.51128  -0.06923  -0.08362 
 C                     1.41968   2.57615   0.34604 
 H                     2.27199   2.51675   1.01161 
 H                     1.77437   2.85531  -0.64723 
 H                     0.77813   3.38097   0.70306 
 
 ITRead=  0  0  0  0  0  0  0  0  0  0  0  0  0  0  0  0  0  0  0  0
 ITRead=  0  0  0  0  0  0  0  0  0
 MicOpt= -1 -1 -1 -1 -1 -1 -1 -1 -1 -1 -1 -1 -1 -1 -1 -1 -1 -1 -1 -1
 MicOpt= -1 -1 -1 -1 -1 -1 -1 -1 -1
 NAtoms=     29 NQM=       29 NQMF=       0 NMMI=      0 NMMIF=      0
                NMic=       0 NMicF=      0.
                    Isotopes and Nuclear Properties:
 (Nuclear quadrupole moments (NQMom) in fm**2, nuclear magnetic moments (NMagM)
  in nuclear magnetons)

  Atom         1           2           3           4           5           6           7           8           9          10
 IAtWgt=          16          16          14           1          12          12          12          12          12           1
 AtmWgt=  15.9949146  15.9949146  14.0030740   1.0078250  12.0000000  12.0000000  12.0000000  12.0000000  12.0000000   1.0078250
 NucSpn=           0           0           2           1           0           0           0           0           0           1
 AtZEff=  -0.0000000  -0.0000000  -0.0000000  -0.0000000  -0.0000000  -0.0000000  -0.0000000  -0.0000000  -0.0000000  -0.0000000
 NQMom=    0.0000000   0.0000000   2.0440000   0.0000000   0.0000000   0.0000000   0.0000000   0.0000000   0.0000000   0.0000000
 NMagM=    0.0000000   0.0000000   0.4037610   2.7928460   0.0000000   0.0000000   0.0000000   0.0000000   0.0000000   2.7928460
 AtZNuc=   8.0000000   8.0000000   7.0000000   1.0000000   6.0000000   6.0000000   6.0000000   6.0000000   6.0000000   1.0000000

  Atom        11          12          13          14          15          16          17          18          19          20
 IAtWgt=           1          12          12          12           1           1           1          12           1           1
 AtmWgt=   1.0078250  12.0000000  12.0000000  12.0000000   1.0078250   1.0078250   1.0078250  12.0000000   1.0078250   1.0078250
 NucSpn=           1           0           0           0           1           1           1           0           1           1
 AtZEff=  -0.0000000  -0.0000000  -0.0000000  -0.0000000  -0.0000000  -0.0000000  -0.0000000  -0.0000000  -0.0000000  -0.0000000
 NQMom=    0.0000000   0.0000000   0.0000000   0.0000000   0.0000000   0.0000000   0.0000000   0.0000000   0.0000000   0.0000000
 NMagM=    2.7928460   0.0000000   0.0000000   0.0000000   2.7928460   2.7928460   2.7928460   0.0000000   2.7928460   2.7928460
 AtZNuc=   1.0000000   6.0000000   6.0000000   6.0000000   1.0000000   1.0000000   1.0000000   6.0000000   1.0000000   1.0000000

  Atom        21          22          23          24          25          26          27          28          29
 IAtWgt=           1          12           1           1           1          12           1           1           1
 AtmWgt=   1.0078250  12.0000000   1.0078250   1.0078250   1.0078250  12.0000000   1.0078250   1.0078250   1.0078250
 NucSpn=           1           0           1           1           1           0           1           1           1
 AtZEff=  -0.0000000  -0.0000000  -0.0000000  -0.0000000  -0.0000000  -0.0000000  -0.0000000  -0.0000000  -0.0000000
 NQMom=    0.0000000   0.0000000   0.0000000   0.0000000   0.0000000   0.0000000   0.0000000   0.0000000   0.0000000
 NMagM=    2.7928460   0.0000000   2.7928460   2.7928460   2.7928460   0.0000000   2.7928460   2.7928460   2.7928460
 AtZNuc=   1.0000000   6.0000000   1.0000000   1.0000000   1.0000000   6.0000000   1.0000000   1.0000000   1.0000000
 Leave Link  101 at Sat Jan 24 16:47:37 2026, MaxMem=  2147483648 cpu:               0.8 elap:               0.1
 (Enter /data/home/wyx/g16/l202.exe)
                          Input orientation:                          
 ---------------------------------------------------------------------
 Center     Atomic      Atomic             Coordinates (Angstroms)
 Number     Number       Type             X           Y           Z
 ---------------------------------------------------------------------
      1          8           0        2.748993   -1.557937    0.726476
      2          8           0       -3.215698   -1.637996   -1.133583
      3          7           0       -0.713528    1.512669    0.145422
      4          1           0       -1.021637    2.469859    0.089615
      5          6           0       -1.247623   -0.757904   -0.149065
      6          6           0        0.640547    1.297118    0.292714
      7          6           0       -1.619146    0.541177   -0.218595
      8          6           0       -2.149335   -1.833250   -0.559007
      9          6           0        0.093792   -1.109240    0.453791
     10          1           0       -0.024157   -1.417270    1.501295
     11          1           0        0.522943   -1.973897   -0.047176
     12          6           0        1.091860    0.024264    0.365771
     13          6           0        2.492986   -0.389869    0.448813
     14          6           0       -2.940178    1.081555   -0.662710
     15          1           0       -3.044043    2.123474   -0.360508
     16          1           0       -3.029087    1.026156   -1.747756
     17          1           0       -3.760742    0.501530   -0.252011
     18          6           0       -1.725631   -3.248470   -0.251855
     19          1           0       -2.555972   -3.920006   -0.453795
     20          1           0       -0.879616   -3.532621   -0.881184
     21          1           0       -1.404524   -3.356476    0.784567
     22          6           0        3.646539    0.541087    0.166088
     23          1           0        3.445266    1.235920   -0.644882
     24          1           0        3.892547    1.120187    1.057723
     25          1           0        4.511278   -0.069226   -0.083622
     26          6           0        1.419679    2.576145    0.346037
     27          1           0        2.271987    2.516745    1.011606
     28          1           0        1.774372    2.855310   -0.647229
     29          1           0        0.778129    3.380967    0.703060
 ---------------------------------------------------------------------
                    Distance matrix (angstroms):
                    1          2          3          4          5
     1  O    0.000000
     2  O    6.248501   0.000000
     3  N    4.664257   4.221777   0.000000
     4  H    5.553952   4.815038   1.007104   0.000000
     5  C    4.168880   2.370054   2.351060   3.244456   0.000000
     6  C    3.575616   5.051717   1.379013   2.044365   2.825504
     7  C    4.937619   2.852188   1.377116   2.042505   1.352951
     8  C    5.071674   1.226944   3.708495   4.495460   1.462021
     9  C    2.706618   3.708377   2.760664   3.766531   1.512041
    10  H    2.882793   4.144543   3.301237   4.254125   2.157619
    11  H    2.393086   3.907755   3.704335   4.706528   2.150331
    12  C    2.319387   4.854506   2.350176   3.244082   2.519925
    13  C    1.227607   6.053996   3.740779   4.545288   3.805925
    14  C    6.423661   2.773732   2.407677   2.484790   2.551898
    15  H    6.949359   3.843926   2.461777   2.100647   3.402083
    16  H    6.795997   2.740390   3.030286   3.080595   2.985347
    17  H    6.897499   2.377354   3.235099   3.390239   2.812924
    18  C    4.882345   2.364608   4.883710   5.771611   2.538105
    19  H    5.925796   2.470814   5.767809   6.593925   3.435626
    20  H    4.432917   3.018375   5.151355   6.082137   2.893178
    21  H    4.526568   3.148464   4.959290   5.880114   2.765658
    22  C    2.350644   7.316273   4.467055   5.051522   5.073413
    23  H    3.189209   7.270947   4.242256   4.692048   5.122926
    24  H    2.930834   7.933255   4.711928   5.187297   5.604008
    25  H    2.445029   7.954220   5.463831   6.090165   5.800302
    26  C    4.359179   6.437001   2.392028   2.457046   4.298315
    27  H    4.112404   7.209604   3.266763   3.420559   4.945517
    28  H    4.723738   6.732543   2.936090   2.917050   4.736659
    29  H    5.317671   6.671874   2.454901   2.108457   4.686154
                    6          7          8          9         10
     6  C    0.000000
     7  C    2.437026   0.000000
     8  C    4.278794   2.456600   0.000000
     9  C    2.472943   2.471869   2.565457   0.000000
    10  H    3.044733   3.055737   2.989024   1.098207   0.000000
    11  H    3.290729   3.308100   2.724486   1.087552   1.734046
    12  C    1.352471   2.821035   3.848496   1.512851   2.147773
    13  C    2.510343   4.268713   4.964896   2.504726   2.915352
    14  C    3.712263   1.494782   3.021965   3.905270   4.407973
    15  H    3.832201   2.134042   4.061474   4.578158   5.012274
    16  H    4.207511   2.135760   3.219206   4.377111   5.055321
    17  H    4.505666   2.142224   2.853432   4.236764   4.551697
    18  C    5.153419   3.791289   1.508879   2.895607   3.053169
    19  H    6.163878   4.564550   2.128608   3.968043   4.061545
    20  H    5.197626   4.193061   2.145658   2.932995   3.298898
    21  H    5.106875   4.030396   2.163366   2.721109   2.485887
    22  C    3.102194   5.279718   6.305188   3.927896   4.369433
    23  H    2.957918   5.129586   6.381750   4.235473   4.866455
    24  H    3.345452   5.687091   6.916715   4.445854   4.687858
    25  H    4.122024   6.162216   6.906630   4.569970   4.989925
    26  C    1.498599   3.700589   5.744539   3.918118   4.400755
    27  H    2.160068   4.534003   6.398232   4.266551   4.581326
    28  H    2.144065   4.129758   6.114397   4.444575   5.109384
    29  H    2.128318   3.828940   6.111540   4.548891   4.929901
                   11         12         13         14         15
    11  H    0.000000
    12  C    2.118216   0.000000
    13  C    2.576086   1.463406   0.000000
    14  C    4.659171   4.293363   5.737582   0.000000
    15  H    5.441509   4.694663   6.134377   1.089821   0.000000
    16  H    4.950677   4.738458   6.109282   1.090091   1.768838
    17  H    4.951732   4.914996   6.355695   1.085554   1.776550
    18  C    2.592781   4.362397   5.143857   4.515866   5.532431
    19  H    3.665023   5.434669   6.226439   5.020645   6.063874
    20  H    2.256626   4.253592   4.797940   5.058089   6.078426
    21  H    2.513653   4.223355   4.909590   4.914159   5.833444
    22  C    4.015903   2.614070   1.509072   6.660620   6.895298
    23  H    4.381798   2.833381   2.178577   6.387334   6.555894
    24  H    4.706207   3.086048   2.147047   7.046099   7.150821
    25  H    4.419945   3.450089   2.111824   7.561999   7.871942
    26  C    4.654206   2.572927   3.155913   4.718021   4.541908
    27  H    4.934171   2.832360   2.968835   5.659485   5.504320
    28  H    5.024677   3.083312   3.499843   5.037204   4.882102
    29  H    5.413182   3.388163   4.150251   4.580222   4.161906
                   16         17         18         19         20
    16  H    0.000000
    17  H    1.745796   0.000000
    18  C    4.712658   4.266635   0.000000
    19  H    5.134461   4.587174   1.086833   0.000000
    20  H    5.114061   4.997111   1.092034   1.772822   0.000000
    21  H    5.315950   4.637938   1.090388   1.782397   1.755358
    22  C    6.961471   7.419177   6.587536   7.665295   6.178831
    23  H    6.570965   7.253980   6.855830   7.914224   6.442005
    24  H    7.469175   7.789157   7.236303   8.322958   6.941291
    25  H    7.799122   8.293397   7.002494   8.056771   6.457008
    26  C    5.155381   5.612348   6.646547   7.658036   6.641525
    27  H    6.159328   6.484723   7.128463   8.178530   7.078848
    28  H    5.256442   6.027766   7.047161   8.043271   6.921275
    29  H    5.103580   5.459365   7.150532   8.109177   7.283931
                   21         22         23         24         25
    21  H    0.000000
    22  C    6.409895   0.000000
    23  H    6.830365   1.086727   0.000000
    24  H    6.940756   1.091279   1.764176   0.000000
    25  H    6.823231   1.087479   1.776176   1.760738   0.000000
    26  C    6.585167   3.022044   2.623190   2.956584   4.091525
    27  H    6.932749   2.550984   2.400218   2.139793   3.591823
    28  H    7.123321   3.085794   2.326868   3.225551   4.044900
    29  H    7.082638   4.071981   3.678559   3.864778   5.143841
                   26         27         28         29
    26  C    0.000000
    27  H    1.083023   0.000000
    28  H    1.091017   1.764647   0.000000
    29  H    1.089399   1.753195   1.758436   0.000000
 Stoichiometry    C11H15NO2
 Framework group  C1[X(C11H15NO2)]
 Deg. of freedom    81
 Full point group                 C1      NOp   1
 Largest Abelian subgroup         C1      NOp   1
 Largest concise Abelian subgroup C1      NOp   1
                         Standard orientation:                         
 ---------------------------------------------------------------------
 Center     Atomic      Atomic             Coordinates (Angstroms)
 Number     Number       Type             X           Y           Z
 ---------------------------------------------------------------------
      1          8           0       -2.285616   -2.280481   -0.172671
      2          8           0        3.584909   -0.246540    0.493507
      3          7           0       -0.028220    1.799998   -0.268318
      4          1           0       -0.058966    2.806628   -0.271301
      5          6           0        1.289881   -0.138463   -0.088148
      6          6           0       -1.231089    1.136024   -0.150330
      7          6           0        1.203994    1.211759   -0.089231
      8          6           0        2.562197   -0.822745    0.136519
      9          6           0        0.061284   -0.955052   -0.419808
     10          1           0        0.082655   -1.272387   -1.470951
     11          1           0        0.051033   -1.879439    0.153057
     12          6           0       -1.228363   -0.216381   -0.137155
     13          6           0       -2.395386   -1.078716    0.052560
     14          6           0        2.320453    2.189193    0.091083
     15          1           0        2.006863    3.184467   -0.223243
     16          1           0        2.620259    2.236142    1.138084
     17          1           0        3.199146    1.891213   -0.472418
     18          6           0        2.595833   -2.314804   -0.085618
     19          1           0        3.626977   -2.656413   -0.050244
     20          1           0        2.027352   -2.824106    0.695394
     21          1           0        2.146263   -2.589807   -1.040189
     22          6           0       -3.723944   -0.569975    0.555960
     23          1           0       -3.625631    0.202546    1.313933
     24          1           0       -4.311127   -0.164427   -0.269653
     25          1           0       -4.268498   -1.416561    0.967499
     26          6           0       -2.394134    2.075578   -0.048524
     27          1           0       -3.282228    1.692753   -0.536041
     28          1           0       -2.634032    2.283299    0.995323
     29          1           0       -2.141226    3.023767   -0.521564
 ---------------------------------------------------------------------
 Rotational constants (GHZ):           1.0780881           0.4908019           0.3474928
 Leave Link  202 at Sat Jan 24 16:47:37 2026, MaxMem=  2147483648 cpu:               0.0 elap:               0.0
 (Enter /data/home/wyx/g16/l301.exe)
 Standard basis: TZVP (5D, 7F)
 Ernie: Thresh=  0.10000D-02 Tol=  0.10000D-05 Strict=F.
 There are   370 symmetry adapted cartesian basis functions of A   symmetry.
 There are   356 symmetry adapted basis functions of A   symmetry.
   356 basis functions,   610 primitive gaussians,   370 cartesian basis functions
    52 alpha electrons       52 beta electrons
       nuclear repulsion energy       900.7655814919 Hartrees.
 IExCor=20419 DFT=T Ex+Corr=CAM-B3LYP ExCW=0 ScaHFX=  1.000000
 ScaDFX=  1.000000  1.000000  1.000000  0.810000 ScalE2=  1.000000  1.000000
 IRadAn=      5 IRanWt=     -1 IRanGd=            0 ICorTp=0 IEmpDi=141
 HFx  wShort=  0.000000 wLong=  0.330000 cFull=  0.190000 cShort=  0.000000 cLong=  0.460000
 DFx  wShort=  0.000000 wLong=  0.330000 cFull=  0.190000 cShort=  0.000000 cLong=  0.460000
 NAtoms=   29 NActive=   29 NUniq=   29 SFac= 1.00D+00 NAtFMM=   60 NAOKFM=F Big=F
 Integral buffers will be    131072 words long.
 Raffenetti 1 integral format.
 Two-electron integral symmetry is turned on.
 R6Disp:  Grimme-D3(BJ) Dispersion energy=       -0.0262203187 Hartrees.
 Nuclear repulsion after empirical dispersion term =      900.7393611732 Hartrees.
 ------------------------------------------------------------------------------
 Polarizable Continuum Model (PCM)
 =================================
 Model                : PCM.
 Atomic radii         : UFF (Universal Force Field).
 Polarization charges : Total charges.
 Charge compensation  : None.
 Solution method      : On-the-fly selection.
 Cavity type          : Scaled VdW (van der Waals Surface) (Alpha=1.100).
 Cavity algorithm     : GePol (No added spheres)
                        Default sphere list used, NSphG=   29.
                        Lebedev-Laikov grids with approx.  5.0 points / Ang**2.
                        Smoothing algorithm: York/Karplus (Gamma=1.0000).
                        Polarization charges: spherical gaussians, with
                                              point-specific exponents (IZeta= 3).
                        Self-potential: point-specific (ISelfS= 7).
                        Self-field    : sphere-specific E.n sum rule (ISelfD= 2).
 Solvent              : Water, Eps=  78.355300 Eps(inf)=   1.777849
 ------------------------------------------------------------------------------
 GePol: Number of generator spheres                  =      29
 GePol: Total number of spheres                      =      29
 GePol: Number of exposed spheres                    =      29 (100.00%)
 GePol: Number of points                             =    2091
 GePol: Average weight of points                     =       0.13
 GePol: Minimum weight of points                     =   0.43D-09
 GePol: Maximum weight of points                     =    0.20577
 GePol: Number of points with low weight             =     133
 GePol: Fraction of low-weight points (<1% of avg)   =       6.36%
 GePol: Cavity surface area                          =    268.679 Ang**2
 GePol: Cavity volume                                =    286.746 Ang**3
 Leave Link  301 at Sat Jan 24 16:47:37 2026, MaxMem=  2147483648 cpu:               0.6 elap:               0.0
 (Enter /data/home/wyx/g16/l302.exe)
 NPDir=0 NMtPBC=     1 NCelOv=     1 NCel=       1 NClECP=     1 NCelD=      1
         NCelK=      1 NCelE2=     1 NClLst=     1 CellRange=     0.0.
 One-electron integrals computed using PRISM.
 One-electron integral symmetry used in STVInt
 NBasis=   356 RedAO= T EigKep=  4.72D-05  NBF=   356
 NBsUse=   356 1.00D-06 EigRej= -1.00D+00 NBFU=   356
 Precomputing XC quadrature grid using
 IXCGrd= 4 IRadAn=           5 IRanWt=          -1 IRanGd=           0 AccXCQ= 0.00D+00.
 Generated NRdTot=       0 NPtTot=           0 NUsed=           0 NTot=          32
 NSgBfM=   366   366   366   366   366 MxSgAt=    29 MxSgA2=    29.
 Leave Link  302 at Sat Jan 24 16:47:38 2026, MaxMem=  2147483648 cpu:               3.1 elap:               0.2
 (Enter /data/home/wyx/g16/l303.exe)
 DipDrv:  MaxL=1.
 Leave Link  303 at Sat Jan 24 16:47:38 2026, MaxMem=  2147483648 cpu:               0.6 elap:               0.0
 (Enter /data/home/wyx/g16/l308.exe)
 Leave Link  308 at Sat Jan 24 16:47:38 2026, MaxMem=  2147483648 cpu:               0.7 elap:               0.1
 (Enter /data/home/wyx/g16/l401.exe)
 ExpMin= 9.52D-02 ExpMax= 2.70D+04 ExpMxC= 9.22D+02 IAcc=3 IRadAn=         5 AccDes= 0.00D+00
 Harris functional with IExCor=20419 and IRadAn=       5 diagonalized for initial guess.
 HarFok:  IExCor=20419 AccDes= 0.00D+00 IRadAn=         5 IDoV= 1 UseB2=F ITyADJ=14
 ICtDFT=  3500011 ScaDFX=  1.000000  1.000000  1.000000  1.000000
 FoFCou: FMM=F IPFlag=           0 FMFlag=      100000 FMFlg1=           0
         NFxFlg=           0 DoJE=T BraDBF=F KetDBF=T FulRan=T
         wScrn=  0.000000 ICntrl=       500 IOpCl=  0 I1Cent=   200000004 NGrid=           0
         NMat0=    1 NMatS0=      1 NMatT0=    0 NMatD0=    1 NMtDS0=    0 NMtDT0=    0
 Petite list used in FoFCou.
 Harris En= -608.713552566358    
 JPrj=0 DoOrth=F DoCkMO=F.
 Leave Link  401 at Sat Jan 24 16:47:39 2026, MaxMem=  2147483648 cpu:              11.8 elap:               0.8
 (Enter /data/home/wyx/g16/l502.exe)
 Integral symmetry usage will be decided dynamically.
 Closed shell SCF:
 Using DIIS extrapolation, IDIIS=  1040.
 NGot=  2147483648 LenX=  2147200095 LenY=  2147062754
 Requested convergence on RMS density matrix=1.00D-08 within 128 cycles.
 Requested convergence on MAX density matrix=1.00D-06.
 Requested convergence on             energy=1.00D-06.
 No special actions if energy rises.
 Fock matrices will be formed incrementally for  20 cycles.

 Cycle   1  Pass 1  IDiag  1:
 FoFJK:  IHMeth= 1 ICntrl=       0 DoSepK=T KAlg= 0 I1Cent=           0 FoldK=F
 IRaf=         1 NMat=       1 IRICut=       1 DoRegI=T DoRafI=F ISym2E= 0 IDoP0=0 IntGTp=1.
 FoFCou: FMM=F IPFlag=           0 FMFlag=      100000 FMFlg1=           0
         NFxFlg=           0 DoJE=T BraDBF=F KetDBF=F FulRan=T
         wScrn=  0.000000 ICntrl=       500 IOpCl=  0 I1Cent=           0 NGrid=           0
         NMat0=    1 NMatS0=      1 NMatT0=    0 NMatD0=    1 NMtDS0=    0 NMtDT0=    0
 Symmetry not used in FoFCou.
 Inv3:  Mode=1 IEnd=    13116843.
 Iteration    1 A*A^-1 deviation from unit magnitude is 3.11D-15 for    370.
 Iteration    1 A*A^-1 deviation from orthogonality  is 2.18D-15 for    815    313.
 Iteration    1 A^-1*A deviation from unit magnitude is 3.11D-15 for    370.
 Iteration    1 A^-1*A deviation from orthogonality  is 1.67D-15 for   1857   1477.
 E= -633.137199206306    
 DIIS: error= 4.14D-02 at cycle   1 NSaved=   1.
 NSaved= 1 IEnMin= 1 EnMin= -633.137199206306     IErMin= 1 ErrMin= 4.14D-02
 ErrMax= 4.14D-02  0.00D+00 EMaxC= 1.00D-01 BMatC= 1.09D+00 BMatP= 1.09D+00
 IDIUse=3 WtCom= 5.86D-01 WtEn= 4.14D-01
 Coeff-Com:  0.100D+01
 Coeff-En:   0.100D+01
 Coeff:      0.100D+01
 Gap=     0.234 Goal=   None    Shift=    0.000
 GapD=    0.234 DampG=1.000 DampE=0.500 DampFc=0.5000 IDamp=-1.
 Damping current iteration by 5.00D-01
 RMSDP=4.03D-03 MaxDP=1.94D-01              OVMax= 1.37D-01

 Cycle   2  Pass 1  IDiag  1:
 RMSU=  1.78D-03    CP:  9.29D-01
 E= -633.231947597814     Delta-E=       -0.094748391508 Rises=F Damp=T
 DIIS: error= 1.89D-02 at cycle   2 NSaved=   2.
 NSaved= 2 IEnMin= 2 EnMin= -633.231947597814     IErMin= 2 ErrMin= 1.89D-02
 ErrMax= 1.89D-02  0.00D+00 EMaxC= 1.00D-01 BMatC= 2.23D-01 BMatP= 1.09D+00
 IDIUse=3 WtCom= 8.11D-01 WtEn= 1.89D-01
 Coeff-Com: -0.598D+00 0.160D+01
 Coeff-En:   0.000D+00 0.100D+01
 Coeff:     -0.485D+00 0.148D+01
 Gap=     0.248 Goal=   None    Shift=    0.000
 RMSDP=1.41D-03 MaxDP=4.18D-02 DE=-9.47D-02 OVMax= 1.31D-01

 Cycle   3  Pass 1  IDiag  1:
 RMSU=  1.31D-03    CP:  9.08D-01  1.23D+00
 E= -633.280870216820     Delta-E=       -0.048922619006 Rises=F Damp=F
 DIIS: error= 9.80D-03 at cycle   3 NSaved=   3.
 NSaved= 3 IEnMin= 3 EnMin= -633.280870216820     IErMin= 3 ErrMin= 9.80D-03
 ErrMax= 9.80D-03  0.00D+00 EMaxC= 1.00D-01 BMatC= 6.26D-02 BMatP= 2.23D-01
 IDIUse=3 WtCom= 9.02D-01 WtEn= 9.80D-02
 Coeff-Com: -0.365D+00 0.798D+00 0.566D+00
 Coeff-En:   0.000D+00 0.000D+00 0.100D+01
 Coeff:     -0.329D+00 0.720D+00 0.609D+00
 Gap=     0.244 Goal=   None    Shift=    0.000
 RMSDP=1.31D-03 MaxDP=7.39D-02 DE=-4.89D-02 OVMax= 7.21D-02

 Cycle   4  Pass 1  IDiag  1:
 RMSU=  4.95D-04    CP:  8.60D-01  1.71D+00  5.60D-01
 E= -633.328092415119     Delta-E=       -0.047222198299 Rises=F Damp=F
 DIIS: error= 3.55D-03 at cycle   4 NSaved=   4.
 NSaved= 4 IEnMin= 4 EnMin= -633.328092415119     IErMin= 4 ErrMin= 3.55D-03
 ErrMax= 3.55D-03  0.00D+00 EMaxC= 1.00D-01 BMatC= 5.74D-03 BMatP= 6.26D-02
 IDIUse=3 WtCom= 9.64D-01 WtEn= 3.55D-02
 Coeff-Com: -0.171D+00 0.369D+00 0.351D+00 0.451D+00
 Coeff-En:   0.000D+00 0.000D+00 0.000D+00 0.100D+01
 Coeff:     -0.165D+00 0.356D+00 0.339D+00 0.470D+00
 Gap=     0.239 Goal=   None    Shift=    0.000
 RMSDP=2.95D-04 MaxDP=1.88D-02 DE=-4.72D-02 OVMax= 1.30D-02

 Cycle   5  Pass 1  IDiag  1:
 RMSU=  9.30D-05    CP:  8.70D-01  1.65D+00  6.77D-01  6.73D-01
 E= -633.332415402651     Delta-E=       -0.004322987532 Rises=F Damp=F
 DIIS: error= 3.91D-04 at cycle   5 NSaved=   5.
 NSaved= 5 IEnMin= 5 EnMin= -633.332415402651     IErMin= 5 ErrMin= 3.91D-04
 ErrMax= 3.91D-04  0.00D+00 EMaxC= 1.00D-01 BMatC= 6.04D-05 BMatP= 5.74D-03
 IDIUse=3 WtCom= 9.96D-01 WtEn= 3.91D-03
 Coeff-Com: -0.290D-01 0.618D-01 0.696D-01 0.144D+00 0.753D+00
 Coeff-En:   0.000D+00 0.000D+00 0.000D+00 0.000D+00 0.100D+01
 Coeff:     -0.289D-01 0.616D-01 0.693D-01 0.144D+00 0.754D+00
 Gap=     0.240 Goal=   None    Shift=    0.000
 RMSDP=1.04D-04 MaxDP=5.41D-03 DE=-4.32D-03 OVMax= 1.75D-03

 Cycle   6  Pass 1  IDiag  1:
 RMSU=  4.83D-05    CP:  8.66D-01  1.68D+00  6.84D-01  7.88D-01  1.12D+00
 E= -633.332452388725     Delta-E=       -0.000036986074 Rises=F Damp=F
 DIIS: error= 3.46D-04 at cycle   6 NSaved=   6.
 NSaved= 6 IEnMin= 6 EnMin= -633.332452388725     IErMin= 6 ErrMin= 3.46D-04
 ErrMax= 3.46D-04  0.00D+00 EMaxC= 1.00D-01 BMatC= 2.25D-05 BMatP= 6.04D-05
 IDIUse=3 WtCom= 9.97D-01 WtEn= 3.46D-03
 Coeff-Com:  0.175D-01-0.381D-01-0.293D-01-0.105D-01 0.437D+00 0.624D+00
 Coeff-En:   0.000D+00 0.000D+00 0.000D+00 0.000D+00 0.138D+00 0.862D+00
 Coeff:      0.174D-01-0.380D-01-0.292D-01-0.105D-01 0.435D+00 0.625D+00
 Gap=     0.240 Goal=   None    Shift=    0.000
 RMSDP=2.33D-05 MaxDP=8.42D-04 DE=-3.70D-05 OVMax= 2.73D-03

 Cycle   7  Pass 1  IDiag  1:
 RMSU=  1.70D-05    CP:  8.66D-01  1.68D+00  6.88D-01  7.88D-01  1.23D+00
                    CP:  8.01D-01
 E= -633.332473443478     Delta-E=       -0.000021054753 Rises=F Damp=F
 DIIS: error= 3.59D-05 at cycle   7 NSaved=   7.
 NSaved= 7 IEnMin= 7 EnMin= -633.332473443478     IErMin= 7 ErrMin= 3.59D-05
 ErrMax= 3.59D-05  0.00D+00 EMaxC= 1.00D-01 BMatC= 7.45D-07 BMatP= 2.25D-05
 IDIUse=1 WtCom= 1.00D+00 WtEn= 0.00D+00
 Coeff-Com:  0.382D-02-0.821D-02-0.711D-02-0.107D-01-0.803D-02 0.135D+00
 Coeff-Com:  0.895D+00
 Coeff:      0.382D-02-0.821D-02-0.711D-02-0.107D-01-0.803D-02 0.135D+00
 Coeff:      0.895D+00
 Gap=     0.240 Goal=   None    Shift=    0.000
 RMSDP=1.46D-05 MaxDP=8.09D-04 DE=-2.11D-05 OVMax= 6.25D-04

 Cycle   8  Pass 1  IDiag  1:
 RMSU=  4.50D-06    CP:  8.66D-01  1.68D+00  6.89D-01  8.04D-01  1.29D+00
                    CP:  9.34D-01  1.07D+00
 E= -633.332474635288     Delta-E=       -0.000001191810 Rises=F Damp=F
 DIIS: error= 2.11D-05 at cycle   8 NSaved=   8.
 NSaved= 8 IEnMin= 8 EnMin= -633.332474635288     IErMin= 8 ErrMin= 2.11D-05
 ErrMax= 2.11D-05  0.00D+00 EMaxC= 1.00D-01 BMatC= 9.78D-08 BMatP= 7.45D-07
 IDIUse=1 WtCom= 1.00D+00 WtEn= 0.00D+00
 Coeff-Com: -0.522D-03 0.120D-02 0.621D-03-0.359D-02-0.623D-01-0.146D-01
 Coeff-Com:  0.305D+00 0.775D+00
 Coeff:     -0.522D-03 0.120D-02 0.621D-03-0.359D-02-0.623D-01-0.146D-01
 Coeff:      0.305D+00 0.775D+00
 Gap=     0.240 Goal=   None    Shift=    0.000
 RMSDP=3.88D-06 MaxDP=2.21D-04 DE=-1.19D-06 OVMax= 3.66D-04

 Cycle   9  Pass 1  IDiag  1:
 RMSU=  1.27D-06    CP:  8.65D-01  1.68D+00  6.89D-01  8.08D-01  1.30D+00
                    CP:  9.65D-01  1.17D+00  1.22D+00
 E= -633.332474807521     Delta-E=       -0.000000172233 Rises=F Damp=F
 DIIS: error= 4.46D-06 at cycle   9 NSaved=   9.
 NSaved= 9 IEnMin= 9 EnMin= -633.332474807521     IErMin= 9 ErrMin= 4.46D-06
 ErrMax= 4.46D-06  0.00D+00 EMaxC= 1.00D-01 BMatC= 1.50D-08 BMatP= 9.78D-08
 IDIUse=1 WtCom= 1.00D+00 WtEn= 0.00D+00
 Coeff-Com: -0.846D-03 0.184D-02 0.153D-02 0.529D-03-0.210D-01-0.194D-01
 Coeff-Com: -0.416D-01 0.271D+00 0.808D+00
 Coeff:     -0.846D-03 0.184D-02 0.153D-02 0.529D-03-0.210D-01-0.194D-01
 Coeff:     -0.416D-01 0.271D+00 0.808D+00
 Gap=     0.240 Goal=   None    Shift=    0.000
 RMSDP=1.74D-06 MaxDP=1.01D-04 DE=-1.72D-07 OVMax= 1.08D-04

 Cycle  10  Pass 1  IDiag  1:
 RMSU=  6.78D-07    CP:  8.65D-01  1.68D+00  6.89D-01  8.09D-01  1.30D+00
                    CP:  9.83D-01  1.19D+00  1.36D+00  1.20D+00
 E= -633.332474830578     Delta-E=       -0.000000023058 Rises=F Damp=F
 DIIS: error= 1.32D-06 at cycle  10 NSaved=  10.
 NSaved=10 IEnMin=10 EnMin= -633.332474830578     IErMin=10 ErrMin= 1.32D-06
 ErrMax= 1.32D-06  0.00D+00 EMaxC= 1.00D-01 BMatC= 8.72D-10 BMatP= 1.50D-08
 IDIUse=1 WtCom= 1.00D+00 WtEn= 0.00D+00
 Coeff-Com: -0.162D-03 0.348D-03 0.326D-03 0.304D-03-0.127D-02-0.248D-02
 Coeff-Com: -0.368D-01 0.178D-01 0.204D+00 0.818D+00
 Coeff:     -0.162D-03 0.348D-03 0.326D-03 0.304D-03-0.127D-02-0.248D-02
 Coeff:     -0.368D-01 0.178D-01 0.204D+00 0.818D+00
 Gap=     0.240 Goal=   None    Shift=    0.000
 RMSDP=3.74D-07 MaxDP=1.60D-05 DE=-2.31D-08 OVMax= 2.95D-05

 Cycle  11  Pass 1  IDiag  1:
 RMSU=  2.18D-07    CP:  8.65D-01  1.68D+00  6.89D-01  8.10D-01  1.31D+00
                    CP:  9.85D-01  1.19D+00  1.40D+00  1.27D+00  9.46D-01
 E= -633.332474831831     Delta-E=       -0.000000001253 Rises=F Damp=F
 DIIS: error= 8.44D-07 at cycle  11 NSaved=  11.
 NSaved=11 IEnMin=11 EnMin= -633.332474831831     IErMin=11 ErrMin= 8.44D-07
 ErrMax= 8.44D-07  0.00D+00 EMaxC= 1.00D-01 BMatC= 2.92D-10 BMatP= 8.72D-10
 IDIUse=1 WtCom= 1.00D+00 WtEn= 0.00D+00
 Coeff-Com:  0.225D-04-0.519D-04-0.205D-04 0.975D-04 0.213D-02 0.150D-02
 Coeff-Com: -0.144D-01-0.258D-01-0.110D-01 0.430D+00 0.617D+00
 Coeff:      0.225D-04-0.519D-04-0.205D-04 0.975D-04 0.213D-02 0.150D-02
 Coeff:     -0.144D-01-0.258D-01-0.110D-01 0.430D+00 0.617D+00
 Gap=     0.240 Goal=   None    Shift=    0.000
 RMSDP=1.60D-07 MaxDP=1.04D-05 DE=-1.25D-09 OVMax= 7.15D-06

 Cycle  12  Pass 1  IDiag  1:
 RMSU=  8.12D-08    CP:  8.65D-01  1.68D+00  6.89D-01  8.10D-01  1.31D+00
                    CP:  9.86D-01  1.20D+00  1.41D+00  1.29D+00  1.06D+00
                    CP:  8.38D-01
 E= -633.332474832118     Delta-E=       -0.000000000287 Rises=F Damp=F
 DIIS: error= 2.63D-07 at cycle  12 NSaved=  12.
 NSaved=12 IEnMin=12 EnMin= -633.332474832118     IErMin=12 ErrMin= 2.63D-07
 ErrMax= 2.63D-07  0.00D+00 EMaxC= 1.00D-01 BMatC= 2.57D-11 BMatP= 2.92D-10
 IDIUse=1 WtCom= 1.00D+00 WtEn= 0.00D+00
 Coeff-Com:  0.236D-04-0.523D-04-0.358D-04 0.206D-04 0.111D-02 0.937D-03
 Coeff-Com: -0.347D-02-0.129D-01-0.276D-01 0.131D+00 0.287D+00 0.623D+00
 Coeff:      0.236D-04-0.523D-04-0.358D-04 0.206D-04 0.111D-02 0.937D-03
 Coeff:     -0.347D-02-0.129D-01-0.276D-01 0.131D+00 0.287D+00 0.623D+00
 Gap=     0.240 Goal=   None    Shift=    0.000
 RMSDP=3.56D-08 MaxDP=1.42D-06 DE=-2.87D-10 OVMax= 1.82D-06

 Cycle  13  Pass 1  IDiag  1:
 RMSU=  2.10D-08    CP:  8.65D-01  1.68D+00  6.89D-01  8.10D-01  1.31D+00
                    CP:  9.86D-01  1.20D+00  1.41D+00  1.30D+00  1.06D+00
                    CP:  9.46D-01  9.42D-01
 E= -633.332474832146     Delta-E=       -0.000000000028 Rises=F Damp=F
 DIIS: error= 8.92D-08 at cycle  13 NSaved=  13.
 NSaved=13 IEnMin=13 EnMin= -633.332474832146     IErMin=13 ErrMin= 8.92D-08
 ErrMax= 8.92D-08  0.00D+00 EMaxC= 1.00D-01 BMatC= 3.42D-12 BMatP= 2.57D-11
 IDIUse=1 WtCom= 1.00D+00 WtEn= 0.00D+00
 Coeff-Com:  0.564D-05-0.120D-04-0.117D-04-0.133D-04 0.154D-04 0.765D-04
 Coeff-Com:  0.148D-02 0.616D-03-0.106D-01-0.326D-01-0.135D-01 0.259D+00
 Coeff-Com:  0.796D+00
 Coeff:      0.564D-05-0.120D-04-0.117D-04-0.133D-04 0.154D-04 0.765D-04
 Coeff:      0.148D-02 0.616D-03-0.106D-01-0.326D-01-0.135D-01 0.259D+00
 Coeff:      0.796D+00
 Gap=     0.240 Goal=   None    Shift=    0.000
 RMSDP=1.79D-08 MaxDP=1.57D-06 DE=-2.81D-11 OVMax= 1.33D-06

 Cycle  14  Pass 1  IDiag  1:
 RMSU=  1.03D-08    CP:  8.65D-01  1.68D+00  6.89D-01  8.10D-01  1.31D+00
                    CP:  9.86D-01  1.20D+00  1.41D+00  1.30D+00  1.08D+00
                    CP:  9.71D-01  1.07D+00  1.01D+00
 E= -633.332474832142     Delta-E=        0.000000000005 Rises=F Damp=F
 DIIS: error= 3.16D-08 at cycle  14 NSaved=  14.
 NSaved=14 IEnMin=13 EnMin= -633.332474832146     IErMin=14 ErrMin= 3.16D-08
 ErrMax= 3.16D-08  0.00D+00 EMaxC= 1.00D-01 BMatC= 1.94D-13 BMatP= 3.42D-12
 IDIUse=1 WtCom= 1.00D+00 WtEn= 0.00D+00
 Coeff-Com: -0.103D-05 0.237D-05 0.126D-05-0.371D-05-0.872D-04-0.547D-04
 Coeff-Com:  0.495D-03 0.137D-02 0.501D-03-0.151D-01-0.274D-01-0.222D-01
 Coeff-Com:  0.105D+00 0.958D+00
 Coeff:     -0.103D-05 0.237D-05 0.126D-05-0.371D-05-0.872D-04-0.547D-04
 Coeff:      0.495D-03 0.137D-02 0.501D-03-0.151D-01-0.274D-01-0.222D-01
 Coeff:      0.105D+00 0.958D+00
 Gap=     0.240 Goal=   None    Shift=    0.000
 RMSDP=5.72D-09 MaxDP=2.59D-07 DE= 4.55D-12 OVMax= 7.43D-07

 Error on total polarization charges =  0.01549
 SCF Done:  E(RCAM-B3LYP) =  -633.332474832     A.U. after   14 cycles
            NFock= 14  Conv=0.57D-08     -V/T= 2.0042
 KE= 6.306979078993D+02 PE=-3.277557943865D+03 EE= 1.112788199960D+03
 Leave Link  502 at Sat Jan 24 16:48:34 2026, MaxMem=  2147483648 cpu:             876.9 elap:              55.3
 (Enter /data/home/wyx/g16/l801.exe)
 DoSCS=F DFT=T ScalE2(SS,OS)=  1.000000  1.000000
 ExpMin= 9.52D-02 ExpMax= 2.70D+04 ExpMxC= 9.22D+02 IAcc=3 IRadAn=         5 AccDes= 0.00D+00
 HarFok:  IExCor=  205 AccDes= 0.00D+00 IRadAn=         5 IDoV=-2 UseB2=F ITyADJ=14
 ICtDFT= 12500011 ScaDFX=  1.000000  1.000000  1.000000  1.000000
 Largest valence mixing into a core orbital is  5.65D-05
 Largest core mixing into a valence orbital is  1.21D-05
 Range of M.O.s used for correlation:    15   356
 NBasis=   356 NAE=    52 NBE=    52 NFC=    14 NFV=     0
 NROrb=    342 NOA=    38 NOB=    38 NVA=   304 NVB=   304

 **** Warning!!: The largest alpha MO coefficient is  0.50827790D+02

 Leave Link  801 at Sat Jan 24 16:48:35 2026, MaxMem=  2147483648 cpu:               1.0 elap:               0.1
 (Enter /data/home/wyx/g16/l914.exe)
 RHF ground state
 Two-electron integrals replicated using symmetry.
 MDV=  2147483648 DFT=T DoStab=F Mixed=T DoRPA=T DoScal=F NonHer=T
 NEqPCM:  Using non-equilibrium solvation (IEInf=1, Eps=  78.3553, EpsInf=   1.7778)
 Inv3:  Mode=1 IEnd=    13116843.
 Iteration    1 A*A^-1 deviation from unit magnitude is 3.77D-15 for   1626.
 Iteration    1 A*A^-1 deviation from orthogonality  is 2.07D-15 for   1363     45.
 Iteration    1 A^-1*A deviation from unit magnitude is 3.77D-15 for   1626.
 Iteration    1 A^-1*A deviation from orthogonality  is 2.05D-15 for   1511   1268.
 Making orbital integer symmetry assigments:
 Orbital symmetries:
       Occupied  (A) (A) (A) (A) (A) (A) (A) (A) (A) (A) (A) (A)
                 (A) (A) (A) (A) (A) (A) (A) (A) (A) (A) (A) (A)
                 (A) (A) (A) (A) (A) (A) (A) (A) (A) (A) (A) (A)
                 (A) (A) (A) (A) (A) (A) (A) (A) (A) (A) (A) (A)
                 (A) (A) (A) (A)
       Virtual   (A) (A) (A) (A) (A) (A) (A) (A) (A) (A) (A) (A)
                 (A) (A) (A) (A) (A) (A) (A) (A) (A) (A) (A) (A)
                 (A) (A) (A) (A) (A) (A) (A) (A) (A) (A) (A) (A)
                 (A) (A) (A) (A) (A) (A) (A) (A) (A) (A) (A) (A)
                 (A) (A) (A) (A) (A) (A) (A) (A) (A) (A) (A) (A)
                 (A) (A) (A) (A) (A) (A) (A) (A) (A) (A) (A) (A)
                 (A) (A) (A) (A) (A) (A) (A) (A) (A) (A) (A) (A)
                 (A) (A) (A) (A) (A) (A) (A) (A) (A) (A) (A) (A)
                 (A) (A) (A) (A) (A) (A) (A) (A) (A) (A) (A) (A)
                 (A) (A) (A) (A) (A) (A) (A) (A) (A) (A) (A) (A)
                 (A) (A) (A) (A) (A) (A) (A) (A) (A) (A) (A) (A)
                 (A) (A) (A) (A) (A) (A) (A) (A) (A) (A) (A) (A)
                 (A) (A) (A) (A) (A) (A) (A) (A) (A) (A) (A) (A)
                 (A) (A) (A) (A) (A) (A) (A) (A) (A) (A) (A) (A)
                 (A) (A) (A) (A) (A) (A) (A) (A) (A) (A) (A) (A)
                 (A) (A) (A) (A) (A) (A) (A) (A) (A) (A) (A) (A)
                 (A) (A) (A) (A) (A) (A) (A) (A) (A) (A) (A) (A)
                 (A) (A) (A) (A) (A) (A) (A) (A) (A) (A) (A) (A)
                 (A) (A) (A) (A) (A) (A) (A) (A) (A) (A) (A) (A)
                 (A) (A) (A) (A) (A) (A) (A) (A) (A) (A) (A) (A)
                 (A) (A) (A) (A) (A) (A) (A) (A) (A) (A) (A) (A)
                 (A) (A) (A) (A) (A) (A) (A) (A) (A) (A) (A) (A)
                 (A) (A) (A) (A) (A) (A) (A) (A) (A) (A) (A) (A)
                 (A) (A) (A) (A) (A) (A) (A) (A) (A) (A) (A) (A)
                 (A) (A) (A) (A) (A) (A) (A) (A) (A) (A) (A) (A)
                 (A) (A) (A) (A)
    24 initial guesses have been made.
 Convergence on wavefunction:    0.001000000000000
 Davidson Disk Diagonalization:  ConvIn= 1.00D-03 SkipCon=T Conv= 1.00D-03.
 Max sub-space:  2000 roots to seek:    24 dimension of matrix:        23104
 Iteration     1 Dimension    24 NMult     0 NNew     24
 CISAX will form    24 AO SS matrices at one time.
 NMat=    24 NSing=    24 JSym2X= 0.
 FoFJK:  IHMeth= 1 ICntrl=       0 DoSepK=T KAlg= 0 I1Cent=           0 FoldK=F
 IRaf=         1 NMat=      48 IRICut=       1 DoRegI=T DoRafI=F ISym2E= 0 IDoP0=3 IntGTp=3.
 New state      2 was old state      3
 New state      3 was old state      4
 New state      4 was old state      2
 New state      5 was old state      6
 New state      6 was old state      5
 Excitation Energies [eV] at current iteration:
 Root      1 :     4.014275368728637
 Root      2 :     4.384705203893347
 Root      3 :     4.567369269094512
 Root      4 :     5.574287341878137
 Root      5 :     6.268678386412254
 Root      6 :     6.508136318262390
 Root      7 :     6.836166895816685
 Root      8 :     6.892194463704340
 Root      9 :     7.039441280532214
 Root     10 :     7.168892415980030
 Root     11 :     7.253651776257056
 Root     12 :     7.476955626235660
 Root     13 :     7.638222817356234
 Root     14 :     7.690862769958118
 Root     15 :     7.838318416425935
 Root     16 :     8.062305447551427
 Root     17 :     8.178339341530981
 Root     18 :     8.303108002949138
 Root     19 :     8.371282268062059
 Root     20 :     8.687332282409658
 Root     21 :     8.823438595661882
 Root     22 :     8.974383141766808
 Root     23 :     9.104390656664329
 Root     24 :     9.239989790294638
 Iteration     2 Dimension    36 NMult    24 NNew     12
 CISAX will form    12 AO SS matrices at one time.
 NMat=    12 NSing=    12 JSym2X= 0.
 Root      1 not converged, maximum delta is    0.050927982068775
 Root      2 not converged, maximum delta is    0.072167810105413
 Root      3 not converged, maximum delta is    0.086850260900412
 Root      4 not converged, maximum delta is    0.264422957582098
 New state      5 was old state      6
 Root      5 not converged, maximum delta is    0.333205381402928
 New state      6 was old state      5
 Root      6 not converged, maximum delta is    0.200421456678929
 Excitation Energies [eV] at current iteration:
 Root      1 :     3.577269305672361   Change is   -0.437006063056276
 Root      2 :     4.143114469768856   Change is   -0.241590734124491
 Root      3 :     4.294700753489007   Change is   -0.272668515605506
 Root      4 :     5.222774690256230   Change is   -0.351512651621907
 Root      5 :     5.671243684484671   Change is   -0.836892633777719
 Root      6 :     6.149735558510133   Change is   -0.118942827902121
 Iteration     3 Dimension    48 NMult    36 NNew     12
 CISAX will form    12 AO SS matrices at one time.
 NMat=    12 NSing=    12 JSym2X= 0.
 Root      1 not converged, maximum delta is    0.008777713234415
 Root      2 not converged, maximum delta is    0.010927773944310
 Root      3 not converged, maximum delta is    0.012599807924782
 Root      4 not converged, maximum delta is    0.019194356733261
 Root      5 not converged, maximum delta is    0.020640467851075
 Root      6 not converged, maximum delta is    0.017783631660335
 Excitation Energies [eV] at current iteration:
 Root      1 :     3.559571592258591   Change is   -0.017697713413771
 Root      2 :     4.129518870561900   Change is   -0.013595599206956
 Root      3 :     4.280702680861310   Change is   -0.013998072627697
 Root      4 :     5.200672567655242   Change is   -0.022102122600988
 Root      5 :     5.645930906197576   Change is   -0.025312778287094
 Root      6 :     6.138688635089799   Change is   -0.011046923420334
 Iteration     4 Dimension    60 NMult    48 NNew     12
 CISAX will form    12 AO SS matrices at one time.
 NMat=    12 NSing=    12 JSym2X= 0.
 Root      1 not converged, maximum delta is    0.002101292871858
 Root      2 not converged, maximum delta is    0.002181508997954
 Root      3 not converged, maximum delta is    0.001998886476716
 Root      4 not converged, maximum delta is    0.002248859983553
 Root      5 not converged, maximum delta is    0.002342395473436
 Root      6 not converged, maximum delta is    0.003340350874838
 Excitation Energies [eV] at current iteration:
 Root      1 :     3.558095679451279   Change is   -0.001475912807311
 Root      2 :     4.128627172827779   Change is   -0.000891697734121
 Root      3 :     4.279902706361206   Change is   -0.000799974500105
 Root      4 :     5.199029149309955   Change is   -0.001643418345287
 Root      5 :     5.643816784592286   Change is   -0.002114121605291
 Root      6 :     6.137867641393395   Change is   -0.000820993696404
 Iteration     5 Dimension    72 NMult    60 NNew     12
 CISAX will form    12 AO SS matrices at one time.
 NMat=    12 NSing=    12 JSym2X= 0.
 Root      1 has converged.
 Root      2 has converged.
 Root      3 has converged.
 Root      4 has converged.
 Root      5 not converged, maximum delta is    0.001091688906677
 Root      6 not converged, maximum delta is    0.001031620320956
 Excitation Energies [eV] at current iteration:
 Root      1 :     3.558012677894155   Change is   -0.000083001557124
 Root      2 :     4.128578336663387   Change is   -0.000048836164392
 Root      3 :     4.279856476050611   Change is   -0.000046230310594
 Root      4 :     5.198872091504631   Change is   -0.000157057805323
 Root      5 :     5.643597861000853   Change is   -0.000218923591433
 Root      6 :     6.137804133281914   Change is   -0.000063508111481
 Iteration     6 Dimension    76 NMult    72 NNew      4
 CISAX will form     4 AO SS matrices at one time.
 NMat=     4 NSing=     4 JSym2X= 0.
 Root      1 has converged.
 Root      2 has converged.
 Root      3 has converged.
 Root      4 has converged.
 Root      5 has converged.
 Root      6 has converged.
 Excitation Energies [eV] at current iteration:
 Root      1 :     3.558012465611048   Change is   -0.000000212283108
 Root      2 :     4.128578015463289   Change is   -0.000000321200098
 Root      3 :     4.279856407841132   Change is   -0.000000068209479
 Root      4 :     5.198866770490532   Change is   -0.000005321014100
 Root      5 :     5.643583098455147   Change is   -0.000014762545706
 Root      6 :     6.137799320862764   Change is   -0.000004812419149
 Convergence achieved on expansion vectors.
 ***********************************************************************
 Excited states from <AA,BB:AA,BB> singles matrix:
 ***********************************************************************
 
 1PDM for each excited state written to RWF  633
 Ground to excited state transition densities written to RWF  633
 Ground to excited state transition electric dipole moments (Au):
       state          X           Y           Z        Dip. S.      Osc.
         1         1.4695      0.1466      0.0397      2.1824      0.1902
         2         0.1874     -0.0004      0.0442      0.0371      0.0037
         3         0.0051      0.1181     -0.0370      0.0153      0.0016
         4         0.1414     -1.3086      0.1320      1.7498      0.2229
         5         0.0835     -1.4601      0.0604      2.1424      0.2962
         6        -0.0287      0.2349      0.0881      0.0638      0.0096
 Ground to excited state transition velocity dipole moments (Au):
       state          X           Y           Z        Dip. S.      Osc.
         1        -0.1843     -0.0148     -0.0061      0.0342      0.1745
         2        -0.0274      0.0003     -0.0038      0.0008      0.0034
         3        -0.0010     -0.0174      0.0024      0.0003      0.0013
         4        -0.0289      0.2377     -0.0200      0.0577      0.2014
         5        -0.0177      0.2964     -0.0126      0.0883      0.2839
         6         0.0072     -0.0488     -0.0388      0.0039      0.0116
 Ground to excited state transition magnetic dipole moments (Au):
       state          X           Y           Z
         1        -0.1056     -0.0149      1.4102
         2         0.7987      0.1519      0.4393
         3         0.1449      0.9975      0.1726
         4         0.0550      0.0878     -0.0472
         5         0.2271      0.1147     -0.2580
         6        -0.0010      0.0060     -0.0121
 Ground to excited state transition velocity quadrupole moments (Au):
       state          XX          YY          ZZ          XY          XZ          YZ
         1        -0.1476      0.0879     -0.0022      0.5256     -0.0683      0.0076
         2        -0.0002     -0.0055      0.0053      0.0758     -0.0238      0.0793
         3         0.0050     -0.0080      0.0288      0.0434     -0.0621      0.0052
         4        -1.1026      0.2338     -0.0140     -0.0512     -0.0770     -0.0523
         5        -0.7110      0.2818      0.0506     -0.1726     -0.0787      0.0392
         6        -0.2080     -0.2205      0.2057     -0.0136     -0.0309      0.0592
 <0|del|b> * <b|rxdel|0> + <0|del|b> * <b|delr+rdel|0>
 Rotatory Strengths (R) in cgs (10**-40 erg-esu-cm/Gauss)
       state          XX          YY          ZZ    R(velocity)    E-M Angle
         1       -33.8867     34.3335     59.7403     20.0624       87.56
         2        -4.4584    -59.3257    -45.8903    -36.5581      156.90
         3       -40.3872      0.3701    -36.9840    -25.6670      161.77
         4        76.1505     -0.2901     -1.0034     24.9523       42.31
         5       106.9513     -6.2261     12.5043     37.7432       72.04
         6        -1.2518      0.5617      1.2305      0.1802       78.32
 1/2[<0|r|b>*<b|rxdel|0> + (<0|rxdel|b>*<b|r|0>)*]
 Rotatory Strengths (R) in cgs (10**-40 erg-esu-cm/Gauss)
       state          XX          YY          ZZ     R(length)
         1       109.7264      1.5494    -39.6218     23.8847
         2      -105.8354      0.0466    -13.7455    -39.8448
         3        -0.5182    -83.3062      4.5140    -26.4368
         4        -5.4964     81.2657      4.4012     26.7235
         5       -13.4109    118.4427     11.0299     38.6872
         6        -0.0213     -0.9925      0.7564     -0.0858
  1/2[<0|del|b>*<b|r|0> + (<0|r|b>*<b|del|0>)*] (Au)
       state          X           Y           Z        Dip. S.   Osc.(frdel)
         1        -0.2708     -0.0022     -0.0002      0.2732      0.1822
         2        -0.0051     -0.0000     -0.0002      0.0053      0.0035
         3        -0.0000     -0.0021     -0.0001      0.0022      0.0014
         4        -0.0041     -0.3110     -0.0026      0.3177      0.2118
         5        -0.0015     -0.4327     -0.0008      0.4350      0.2900
         6        -0.0002     -0.0115     -0.0034      0.0151      0.0101

 Excitation energies and oscillator strengths:
 
 Excited State   1:      Singlet-A      3.5580 eV  348.46 nm  f=0.1902  <S**2>=0.000
      52 -> 53         0.69746
 This state for optimization and/or second-order correction.
 Total Energy, E(TD-HF/TD-DFT) =  -633.201720280    
 Copying the excited state density for this state as the 1-particle RhoCI density.
 
 Excited State   2:      Singlet-A      4.1286 eV  300.31 nm  f=0.0037  <S**2>=0.000
      50 -> 53         0.12679
      50 -> 54         0.20425
      51 -> 53         0.55317
      51 -> 54         0.32069
 
 Excited State   3:      Singlet-A      4.2799 eV  289.69 nm  f=0.0016  <S**2>=0.000
      49 -> 53         0.26252
      49 -> 54        -0.17886
      50 -> 53         0.49906
      50 -> 54        -0.24577
      50 -> 58         0.10619
      51 -> 53        -0.11509
      51 -> 54         0.21696
 
 Excited State   4:      Singlet-A      5.1989 eV  238.48 nm  f=0.2229  <S**2>=0.000
      52 -> 54         0.69669
 
 Excited State   5:      Singlet-A      5.6436 eV  219.69 nm  f=0.2962  <S**2>=0.000
      49 -> 53         0.59772
      50 -> 53        -0.29224
      51 -> 53         0.17619
 
 Excited State   6:      Singlet-A      6.1378 eV  202.00 nm  f=0.0096  <S**2>=0.000
      52 -> 55         0.66972
      52 -> 56        -0.11393
 SavETr:  write IOETrn=   770 NScale= 10 NData=  16 NLR=1 NState=    6 LETran=     118.
 Leave Link  914 at Sat Jan 24 16:50:47 2026, MaxMem=  2147483648 cpu:            2102.5 elap:             132.1
 (Enter /data/home/wyx/g16/l601.exe)
 Copying SCF densities to generalized density rwf, IOpCl= 0 IROHF=0.

 **********************************************************************

            Population analysis using the SCF density.

 **********************************************************************

 Orbital symmetries:
       Occupied  (A) (A) (A) (A) (A) (A) (A) (A) (A) (A) (A) (A)
                 (A) (A) (A) (A) (A) (A) (A) (A) (A) (A) (A) (A)
                 (A) (A) (A) (A) (A) (A) (A) (A) (A) (A) (A) (A)
                 (A) (A) (A) (A) (A) (A) (A) (A) (A) (A) (A) (A)
                 (A) (A) (A) (A)
       Virtual   (A) (A) (A) (A) (A) (A) (A) (A) (A) (A) (A) (A)
                 (A) (A) (A) (A) (A) (A) (A) (A) (A) (A) (A) (A)
                 (A) (A) (A) (A) (A) (A) (A) (A) (A) (A) (A) (A)
                 (A) (A) (A) (A) (A) (A) (A) (A) (A) (A) (A) (A)
                 (A) (A) (A) (A) (A) (A) (A) (A) (A) (A) (A) (A)
                 (A) (A) (A) (A) (A) (A) (A) (A) (A) (A) (A) (A)
                 (A) (A) (A) (A) (A) (A) (A) (A) (A) (A) (A) (A)
                 (A) (A) (A) (A) (A) (A) (A) (A) (A) (A) (A) (A)
                 (A) (A) (A) (A) (A) (A) (A) (A) (A) (A) (A) (A)
                 (A) (A) (A) (A) (A) (A) (A) (A) (A) (A) (A) (A)
                 (A) (A) (A) (A) (A) (A) (A) (A) (A) (A) (A) (A)
                 (A) (A) (A) (A) (A) (A) (A) (A) (A) (A) (A) (A)
                 (A) (A) (A) (A) (A) (A) (A) (A) (A) (A) (A) (A)
                 (A) (A) (A) (A) (A) (A) (A) (A) (A) (A) (A) (A)
                 (A) (A) (A) (A) (A) (A) (A) (A) (A) (A) (A) (A)
                 (A) (A) (A) (A) (A) (A) (A) (A) (A) (A) (A) (A)
                 (A) (A) (A) (A) (A) (A) (A) (A) (A) (A) (A) (A)
                 (A) (A) (A) (A) (A) (A) (A) (A) (A) (A) (A) (A)
                 (A) (A) (A) (A) (A) (A) (A) (A) (A) (A) (A) (A)
                 (A) (A) (A) (A) (A) (A) (A) (A) (A) (A) (A) (A)
                 (A) (A) (A) (A) (A) (A) (A) (A) (A) (A) (A) (A)
                 (A) (A) (A) (A) (A) (A) (A) (A) (A) (A) (A) (A)
                 (A) (A) (A) (A) (A) (A) (A) (A) (A) (A) (A) (A)
                 (A) (A) (A) (A) (A) (A) (A) (A) (A) (A) (A) (A)
                 (A) (A) (A) (A) (A) (A) (A) (A) (A) (A) (A) (A)
                 (A) (A) (A) (A)
 The electronic state is 1-A.
 Alpha  occ. eigenvalues --  -19.18002 -19.17627 -14.43977 -10.33553 -10.33271
 Alpha  occ. eigenvalues --  -10.31932 -10.31454 -10.25582 -10.25014 -10.24916
 Alpha  occ. eigenvalues --  -10.24744 -10.24554 -10.24196 -10.23893  -1.12144
 Alpha  occ. eigenvalues --   -1.11765  -1.07347  -0.91144  -0.90233  -0.83822
 Alpha  occ. eigenvalues --   -0.82477  -0.81466  -0.78471  -0.73972  -0.70993
 Alpha  occ. eigenvalues --   -0.68598  -0.61564  -0.58158  -0.56776  -0.55170
 Alpha  occ. eigenvalues --   -0.54447  -0.54002  -0.52579  -0.51915  -0.50674
 Alpha  occ. eigenvalues --   -0.50132  -0.49511  -0.49058  -0.48490  -0.48139
 Alpha  occ. eigenvalues --   -0.46801  -0.45486  -0.44966  -0.43296  -0.43055
 Alpha  occ. eigenvalues --   -0.42475  -0.42182  -0.42014  -0.32842  -0.32372
 Alpha  occ. eigenvalues --   -0.31453  -0.26282
 Alpha virt. eigenvalues --   -0.02253   0.02395   0.06533   0.08255   0.08835
 Alpha virt. eigenvalues --    0.10144   0.10745   0.12033   0.12745   0.13597
 Alpha virt. eigenvalues --    0.14292   0.15074   0.15734   0.16187   0.16970
 Alpha virt. eigenvalues --    0.17478   0.17728   0.18040   0.18215   0.19196
 Alpha virt. eigenvalues --    0.19999   0.22115   0.22746   0.23429   0.23526
 Alpha virt. eigenvalues --    0.24187   0.24866   0.25592   0.25762   0.26460
 Alpha virt. eigenvalues --    0.26820   0.27193   0.28657   0.29262   0.30224
 Alpha virt. eigenvalues --    0.31548   0.32011   0.32794   0.33605   0.34346
 Alpha virt. eigenvalues --    0.35413   0.35836   0.36831   0.38090   0.38942
 Alpha virt. eigenvalues --    0.40070   0.40895   0.41871   0.42323   0.42733
 Alpha virt. eigenvalues --    0.43980   0.44136   0.45330   0.45958   0.46096
 Alpha virt. eigenvalues --    0.47281   0.47767   0.47981   0.48321   0.48899
 Alpha virt. eigenvalues --    0.49517   0.50034   0.50690   0.51292   0.51550
 Alpha virt. eigenvalues --    0.52774   0.53167   0.53390   0.54181   0.54448
 Alpha virt. eigenvalues --    0.54656   0.55863   0.56231   0.56634   0.58090
 Alpha virt. eigenvalues --    0.58476   0.59266   0.60552   0.60975   0.62348
 Alpha virt. eigenvalues --    0.63078   0.65408   0.65882   0.66507   0.67830
 Alpha virt. eigenvalues --    0.68715   0.70147   0.71344   0.72380   0.73099
 Alpha virt. eigenvalues --    0.73614   0.73800   0.74937   0.76294   0.77408
 Alpha virt. eigenvalues --    0.78169   0.79583   0.81749   0.83508   0.84289
 Alpha virt. eigenvalues --    0.88946   0.92731   0.97960   0.99183   1.25093
 Alpha virt. eigenvalues --    1.25808   1.27313   1.27628   1.29324   1.31619
 Alpha virt. eigenvalues --    1.32387   1.32919   1.34078   1.35353   1.35944
 Alpha virt. eigenvalues --    1.36492   1.36992   1.38142   1.39294   1.39852
 Alpha virt. eigenvalues --    1.40061   1.40321   1.41178   1.41655   1.41797
 Alpha virt. eigenvalues --    1.43254   1.44107   1.44720   1.45245   1.46878
 Alpha virt. eigenvalues --    1.48042   1.48868   1.49556   1.50603   1.51099
 Alpha virt. eigenvalues --    1.52152   1.52562   1.54171   1.54306   1.57489
 Alpha virt. eigenvalues --    1.58160   1.60319   1.60648   1.61135   1.62131
 Alpha virt. eigenvalues --    1.62600   1.63286   1.64260   1.65226   1.65826
 Alpha virt. eigenvalues --    1.67165   1.67598   1.67932   1.68026   1.68805
 Alpha virt. eigenvalues --    1.68957   1.69973   1.70754   1.72311   1.72469
 Alpha virt. eigenvalues --    1.73148   1.75090   1.76026   1.76803   1.78670
 Alpha virt. eigenvalues --    1.79667   1.83503   1.84628   1.86150   1.86569
 Alpha virt. eigenvalues --    1.87023   1.87146   1.88444   1.89368   1.90979
 Alpha virt. eigenvalues --    1.91543   1.94408   1.95408   1.97907   1.99498
 Alpha virt. eigenvalues --    2.00772   2.03720   2.04281   2.06303   2.09370
 Alpha virt. eigenvalues --    2.11342   2.12859   2.14451   2.16374   2.19444
 Alpha virt. eigenvalues --    2.20640   2.21167   2.21733   2.22673   2.25844
 Alpha virt. eigenvalues --    2.26774   2.27411   2.28850   2.30244   2.31286
 Alpha virt. eigenvalues --    2.32578   2.34595   2.35677   2.36305   2.37688
 Alpha virt. eigenvalues --    2.39439   2.40062   2.41525   2.44133   2.44777
 Alpha virt. eigenvalues --    2.45701   2.47509   2.49725   2.50487   2.51899
 Alpha virt. eigenvalues --    2.53093   2.53276   2.54813   2.56783   2.58591
 Alpha virt. eigenvalues --    2.59007   2.59900   2.60722   2.61295   2.62440
 Alpha virt. eigenvalues --    2.64350   2.65360   2.67103   2.67657   2.69179
 Alpha virt. eigenvalues --    2.70257   2.71915   2.73033   2.73445   2.74597
 Alpha virt. eigenvalues --    2.76235   2.76608   2.77331   2.78036   2.79151
 Alpha virt. eigenvalues --    2.80638   2.81161   2.82578   2.83420   2.84435
 Alpha virt. eigenvalues --    2.85541   2.85851   2.87565   2.90472   2.91671
 Alpha virt. eigenvalues --    2.97531   2.99677   3.01186   3.03684   3.09943
 Alpha virt. eigenvalues --    3.12015   3.14707   3.16931   3.16987   3.19172
 Alpha virt. eigenvalues --    3.20325   3.22121   3.25084   3.26280   3.26960
 Alpha virt. eigenvalues --    3.27323   3.29238   3.33268   3.34512   3.36350
 Alpha virt. eigenvalues --    3.37086   3.38752   3.39641   3.40130   3.41346
 Alpha virt. eigenvalues --    3.42725   3.44675   3.45276   3.46146   3.47884
 Alpha virt. eigenvalues --    3.48121   3.49650   3.55223   3.58031   3.59358
 Alpha virt. eigenvalues --    3.60037   3.89561   3.99257   4.34141   4.35486
 Alpha virt. eigenvalues --   21.62836  21.78779  22.08094  22.10974  22.11535
 Alpha virt. eigenvalues --   22.14109  22.15371  22.17626  22.21138  22.24973
 Alpha virt. eigenvalues --   22.30665  31.93462  43.62567  43.64771
          Condensed to atoms (all electrons):
               1          2          3          4          5          6
     1  O    7.956414   0.000000  -0.000253   0.000017   0.015908   0.017539
     2  O    0.000000   7.980017   0.000377   0.000031  -0.203104   0.000858
     3  N   -0.000253   0.000377   6.399971   0.374868  -0.110846   0.331879
     4  H    0.000017   0.000031   0.374868   0.403208   0.016914  -0.045838
     5  C    0.015908  -0.203104  -0.110846   0.016914   6.938216  -0.051638
     6  C    0.017539   0.000858   0.331879  -0.045838  -0.051638   5.627518
     7  C   -0.000481  -0.027634   0.371267  -0.040562   0.341645  -0.084250
     8  C   -0.000117   0.714790   0.004880  -0.000591  -0.227525   0.025232
     9  C   -0.032883   0.017112   0.016020  -0.000291  -0.415112  -0.149786
    10  H    0.003155   0.000055   0.003870   0.000007  -0.029970  -0.014735
    11  H    0.018854   0.000002  -0.001318   0.000018  -0.103545   0.024331
    12  C   -0.217619  -0.002078  -0.094342   0.014735   0.122136  -0.168237
    13  C    0.708660  -0.000033  -0.000159   0.000343   0.072984   0.183347
    14  C   -0.000004  -0.015326  -0.035750  -0.008130  -0.063705   0.007713
    15  H   -0.000000   0.004157   0.003121   0.001020   0.016229   0.006302
    16  H   -0.000000   0.001470  -0.003323   0.000885  -0.003424  -0.002006
    17  H   -0.000000   0.002036   0.002022   0.000760  -0.009397  -0.000742
    18  C   -0.000132  -0.106216  -0.000588   0.000017  -0.272414   0.000548
    19  H   -0.000004   0.009532   0.000004  -0.000001   0.026311   0.000025
    20  H    0.000019   0.001172   0.000012  -0.000000   0.003768   0.000244
    21  H    0.000069   0.003391   0.000118   0.000000   0.039783  -0.001016
    22  C   -0.107180   0.000000   0.000000   0.000108   0.003891  -0.008314
    23  H    0.004669  -0.000000  -0.000101  -0.000051  -0.000553  -0.034327
    24  H    0.001194  -0.000000  -0.000042  -0.000017  -0.000114   0.011442
    25  H    0.007873   0.000000   0.000033  -0.000002  -0.000130  -0.001419
    26  C    0.000895   0.000002  -0.030409  -0.005831  -0.000507   0.178064
    27  H   -0.000228   0.000000   0.003323   0.000899   0.000107  -0.044609
    28  H   -0.000044  -0.000000  -0.002377   0.000430   0.000414  -0.035359
    29  H    0.000025  -0.000000  -0.000293   0.000783  -0.000603  -0.047992
               7          8          9         10         11         12
     1  O   -0.000481  -0.000117  -0.032883   0.003155   0.018854  -0.217619
     2  O   -0.027634   0.714790   0.017112   0.000055   0.000002  -0.002078
     3  N    0.371267   0.004880   0.016020   0.003870  -0.001318  -0.094342
     4  H   -0.040562  -0.000591  -0.000291   0.000007   0.000018   0.014735
     5  C    0.341645  -0.227525  -0.415112  -0.029970  -0.103545   0.122136
     6  C   -0.084250   0.025232  -0.149786  -0.014735   0.024331  -0.168237
     7  C    5.439646  -0.163580  -0.161989  -0.003748   0.018206  -0.009195
     8  C   -0.163580   5.327257   0.066305  -0.005376  -0.007570  -0.026370
     9  C   -0.161989   0.066305   6.197565   0.396356   0.517019   0.074306
    10  H   -0.003748  -0.005376   0.396356   0.548781  -0.034174  -0.024998
    11  H    0.018206  -0.007570   0.517019  -0.034174   0.504419  -0.104117
    12  C   -0.009195  -0.026370   0.074306  -0.024998  -0.104117   7.200062
    13  C    0.010667  -0.005270  -0.261310   0.003084  -0.001191  -0.367731
    14  C    0.248039  -0.043500   0.010193  -0.001319   0.000484  -0.004117
    15  H   -0.068771   0.005449  -0.000212   0.000078  -0.000002  -0.001080
    16  H   -0.026746  -0.001162   0.000560  -0.000068   0.000050   0.000910
    17  H   -0.032411  -0.008286  -0.000541   0.000192  -0.000055  -0.000077
    18  C    0.003209   0.314391  -0.001237  -0.008478   0.008540  -0.003594
    19  H    0.000289  -0.053935   0.000242  -0.000058   0.000449  -0.000206
    20  H    0.001808  -0.025610  -0.009357   0.001050  -0.002623  -0.003771
    21  H   -0.000649  -0.060531  -0.008606   0.002117  -0.004715   0.006176
    22  C   -0.000022  -0.000047   0.002394   0.001396   0.001359  -0.248607
    23  H    0.000021  -0.000012   0.003410  -0.000110  -0.000104   0.063819
    24  H    0.000046   0.000003  -0.001872   0.000131  -0.000115  -0.012058
    25  H    0.000004   0.000004   0.000228  -0.000030  -0.000153   0.024705
    26  C    0.002115   0.000350   0.018129  -0.000742   0.000023  -0.075197
    27  H   -0.000826   0.000004  -0.001007  -0.000077   0.000001  -0.007966
    28  H   -0.000839  -0.000010  -0.000161  -0.000025   0.000045  -0.020187
    29  H    0.003896  -0.000006  -0.000467   0.000099  -0.000009   0.024284
              13         14         15         16         17         18
     1  O    0.708660  -0.000004  -0.000000  -0.000000  -0.000000  -0.000132
     2  O   -0.000033  -0.015326   0.004157   0.001470   0.002036  -0.106216
     3  N   -0.000159  -0.035750   0.003121  -0.003323   0.002022  -0.000588
     4  H    0.000343  -0.008130   0.001020   0.000885   0.000760   0.000017
     5  C    0.072984  -0.063705   0.016229  -0.003424  -0.009397  -0.272414
     6  C    0.183347   0.007713   0.006302  -0.002006  -0.000742   0.000548
     7  C    0.010667   0.248039  -0.068771  -0.026746  -0.032411   0.003209
     8  C   -0.005270  -0.043500   0.005449  -0.001162  -0.008286   0.314391
     9  C   -0.261310   0.010193  -0.000212   0.000560  -0.000541  -0.001237
    10  H    0.003084  -0.001319   0.000078  -0.000068   0.000192  -0.008478
    11  H   -0.001191   0.000484  -0.000002   0.000050  -0.000055   0.008540
    12  C   -0.367731  -0.004117  -0.001080   0.000910  -0.000077  -0.003594
    13  C    5.411976  -0.000078  -0.000011  -0.000027   0.000001   0.000314
    14  C   -0.000078   5.082358   0.384804   0.409425   0.427276   0.001316
    15  H   -0.000011   0.384804   0.570067  -0.025057  -0.027397   0.000289
    16  H   -0.000027   0.409425  -0.025057   0.511228  -0.027360  -0.000064
    17  H    0.000001   0.427276  -0.027397  -0.027360   0.510957  -0.000260
    18  C    0.000314   0.001316   0.000289  -0.000064  -0.000260   5.356827
    19  H   -0.000012   0.000081  -0.000006  -0.000017   0.000029   0.388723
    20  H   -0.000023  -0.000282  -0.000006  -0.000006   0.000031   0.396231
    21  H    0.000418   0.000087  -0.000017   0.000004  -0.000044   0.381874
    22  C    0.284340  -0.000024   0.000002   0.000000  -0.000000   0.000022
    23  H   -0.088592  -0.000002   0.000000   0.000000   0.000000   0.000003
    24  H   -0.021619  -0.000000   0.000000   0.000000  -0.000000  -0.000002
    25  H   -0.042540   0.000000   0.000000  -0.000000   0.000000  -0.000001
    26  C   -0.054148   0.001465   0.000000  -0.000196   0.000060   0.000025
    27  H   -0.005839   0.000096  -0.000013   0.000001  -0.000001  -0.000000
    28  H    0.006303  -0.000106   0.000003  -0.000015   0.000004  -0.000001
    29  H   -0.000321  -0.000241   0.000134   0.000003  -0.000005   0.000000
              19         20         21         22         23         24
     1  O   -0.000004   0.000019   0.000069  -0.107180   0.004669   0.001194
     2  O    0.009532   0.001172   0.003391   0.000000  -0.000000  -0.000000
     3  N    0.000004   0.000012   0.000118   0.000000  -0.000101  -0.000042
     4  H   -0.000001  -0.000000   0.000000   0.000108  -0.000051  -0.000017
     5  C    0.026311   0.003768   0.039783   0.003891  -0.000553  -0.000114
     6  C    0.000025   0.000244  -0.001016  -0.008314  -0.034327   0.011442
     7  C    0.000289   0.001808  -0.000649  -0.000022   0.000021   0.000046
     8  C   -0.053935  -0.025610  -0.060531  -0.000047  -0.000012   0.000003
     9  C    0.000242  -0.009357  -0.008606   0.002394   0.003410  -0.001872
    10  H   -0.000058   0.001050   0.002117   0.001396  -0.000110   0.000131
    11  H    0.000449  -0.002623  -0.004715   0.001359  -0.000104  -0.000115
    12  C   -0.000206  -0.003771   0.006176  -0.248607   0.063819  -0.012058
    13  C   -0.000012  -0.000023   0.000418   0.284340  -0.088592  -0.021619
    14  C    0.000081  -0.000282   0.000087  -0.000024  -0.000002  -0.000000
    15  H   -0.000006  -0.000006  -0.000017   0.000002   0.000000   0.000000
    16  H   -0.000017  -0.000006   0.000004   0.000000   0.000000   0.000000
    17  H    0.000029   0.000031  -0.000044  -0.000000   0.000000  -0.000000
    18  C    0.388723   0.396231   0.381874   0.000022   0.000003  -0.000002
    19  H    0.507564  -0.009987  -0.020122  -0.000000   0.000000   0.000000
    20  H   -0.009987   0.501765  -0.026242  -0.000013  -0.000000   0.000000
    21  H   -0.020122  -0.026242   0.533117   0.000013  -0.000000  -0.000000
    22  C   -0.000000  -0.000013   0.000013   5.412374   0.400066   0.401252
    23  H    0.000000  -0.000000  -0.000000   0.400066   0.533890  -0.026118
    24  H    0.000000   0.000000  -0.000000   0.401252  -0.026118   0.490033
    25  H   -0.000000  -0.000000  -0.000000   0.383554  -0.021644  -0.008222
    26  C    0.000000   0.000006  -0.000014  -0.028193   0.015291  -0.015619
    27  H   -0.000000  -0.000000  -0.000000   0.009562  -0.010631  -0.000898
    28  H   -0.000000   0.000000  -0.000000  -0.011254  -0.001202   0.001158
    29  H    0.000000  -0.000000   0.000000   0.001935   0.000730   0.000212
              25         26         27         28         29
     1  O    0.007873   0.000895  -0.000228  -0.000044   0.000025
     2  O    0.000000   0.000002   0.000000  -0.000000  -0.000000
     3  N    0.000033  -0.030409   0.003323  -0.002377  -0.000293
     4  H   -0.000002  -0.005831   0.000899   0.000430   0.000783
     5  C   -0.000130  -0.000507   0.000107   0.000414  -0.000603
     6  C   -0.001419   0.178064  -0.044609  -0.035359  -0.047992
     7  C    0.000004   0.002115  -0.000826  -0.000839   0.003896
     8  C    0.000004   0.000350   0.000004  -0.000010  -0.000006
     9  C    0.000228   0.018129  -0.001007  -0.000161  -0.000467
    10  H   -0.000030  -0.000742  -0.000077  -0.000025   0.000099
    11  H   -0.000153   0.000023   0.000001   0.000045  -0.000009
    12  C    0.024705  -0.075197  -0.007966  -0.020187   0.024284
    13  C   -0.042540  -0.054148  -0.005839   0.006303  -0.000321
    14  C    0.000000   0.001465   0.000096  -0.000106  -0.000241
    15  H    0.000000   0.000000  -0.000013   0.000003   0.000134
    16  H   -0.000000  -0.000196   0.000001  -0.000015   0.000003
    17  H    0.000000   0.000060  -0.000001   0.000004  -0.000005
    18  C   -0.000001   0.000025  -0.000000  -0.000001   0.000000
    19  H   -0.000000   0.000000  -0.000000  -0.000000   0.000000
    20  H   -0.000000   0.000006  -0.000000   0.000000  -0.000000
    21  H   -0.000000  -0.000014  -0.000000  -0.000000   0.000000
    22  C    0.383554  -0.028193   0.009562  -0.011254   0.001935
    23  H   -0.021644   0.015291  -0.010631  -0.001202   0.000730
    24  H   -0.008222  -0.015619  -0.000898   0.001158   0.000212
    25  H    0.496821   0.001983   0.000906   0.000096  -0.000045
    26  C    0.001983   5.253647   0.426340   0.430562   0.388399
    27  H    0.000906   0.426340   0.509651  -0.024673  -0.026483
    28  H    0.000096   0.430562  -0.024673   0.476598  -0.018113
    29  H   -0.000045   0.388399  -0.026483  -0.018113   0.517322
 Mulliken charges:
               1
     1  O   -0.376347
     2  O   -0.380610
     3  N   -0.231963
     4  H    0.286269
     5  C   -0.105719
     6  C    0.275225
     7  C    0.180846
     8  C    0.170832
     9  C   -0.275008
    10  H    0.163536
    11  H    0.165891
    12  C   -0.139585
    13  C    0.166466
    14  C   -0.400753
    15  H    0.130916
    16  H    0.164933
    17  H    0.163208
    18  C   -0.459344
    19  H    0.151099
    20  H    0.171816
    21  H    0.154789
    22  C   -0.498615
    23  H    0.161546
    24  H    0.181226
    25  H    0.157979
    26  C   -0.506502
    27  H    0.172362
    28  H    0.198753
    29  H    0.156754
 Sum of Mulliken charges =  -0.00000
 Mulliken charges with hydrogens summed into heavy atoms:
               1
     1  O   -0.376347
     2  O   -0.380610
     3  N    0.054306
     5  C   -0.105719
     6  C    0.275225
     7  C    0.180846
     8  C    0.170832
     9  C    0.054419
    12  C   -0.139585
    13  C    0.166466
    14  C    0.058303
    18  C    0.018360
    22  C    0.002136
    26  C    0.021366
 Electronic spatial extent (au):  <R**2>=           3181.3148
 Charge=             -0.0000 electrons
 Dipole moment (field-independent basis, Debye):
    X=             -4.0063    Y=              7.4298    Z=             -0.4726  Tot=              8.4543
 Quadrupole moment (field-independent basis, Debye-Ang):
   XX=            -97.6159   YY=            -78.6643   ZZ=            -85.0268
   XY=            -12.7877   XZ=             -6.0544   YZ=             -1.4268
 Traceless Quadrupole moment (field-independent basis, Debye-Ang):
   XX=            -10.5136   YY=              8.4380   ZZ=              2.0756
   XY=            -12.7877   XZ=             -6.0544   YZ=             -1.4268
 Octapole moment (field-independent basis, Debye-Ang**2):
  XXX=           -108.2127  YYY=             64.8856  ZZZ=              2.0594  XYY=             34.2325
  XXY=             30.7904  XXZ=            -11.8839  XZZ=             -3.1359  YZZ=             -1.0903
  YYZ=              2.7333  XYZ=              5.1064
 Hexadecapole moment (field-independent basis, Debye-Ang**3):
 XXXX=          -3012.0911 YYYY=          -1271.0354 ZZZZ=           -161.7847 XXXY=            -39.9192
 XXXZ=            -70.7536 YYYX=            -87.8292 YYYZ=            -22.7046 ZZZX=              1.8162
 ZZZY=              6.3026 XXYY=           -691.3525 XXZZ=           -487.9708 YYZZ=           -242.4341
 XXYZ=             -5.5517 YYXZ=             -6.1879 ZZXY=              1.2128
 N-N= 9.007393611732D+02 E-N=-3.277557943971D+03  KE= 6.306979078993D+02
 Leave Link  601 at Sat Jan 24 16:50:48 2026, MaxMem=  2147483648 cpu:               0.7 elap:               0.1
 (Enter /data/home/wyx/g16/l9999.exe)
 Electronic transition elements 
                 1             2             3             4             5 
      1  -0.633202D+03 -0.633181D+03 -0.633175D+03 -0.633141D+03 -0.633125D+03
      2  -0.139674D+01 -0.164119D+00 -0.512522D-01  0.331826D+00  0.421891D+00
      3  -0.361254D+00 -0.639731D-01  0.109272D+00 -0.127848D+01 -0.140145D+01
      4  -0.317811D+00 -0.777348D-01  0.277937D-01 -0.717058D-01  0.187574D-01
      5   0.173776D+00  0.244690D-01  0.717167D-02 -0.564974D-01 -0.849618D-01
      6   0.486840D-01  0.954978D-02 -0.160730D-01  0.233306D+00  0.284743D+00
      7   0.406933D-01  0.874125D-02 -0.105332D-02  0.973176D-02 -0.338236D-02
      8   0.376237D+00 -0.702148D+00 -0.432989D+00 -0.891658D-01 -0.297863D+00
      9   0.249209D-01 -0.127490D+00  0.889333D+00  0.638175D-01  0.301730D-01
     10  -0.136301D+01 -0.587139D+00 -0.259698D+00  0.305681D-01  0.204151D+00
     11   0.231123D+00  0.442839D-01  0.526836D-01 -0.909897D+00 -0.654923D+00
     12  -0.275016D+00 -0.529606D-01 -0.341488D-01  0.112177D+00  0.277815D+00
     13  -0.180562D-01  0.819800D-02  0.719161D-02 -0.851138D-01 -0.148483D-02
     14  -0.464254D+00 -0.394284D-01 -0.234787D-01 -0.384656D+00 -0.168591D+00
     15  -0.164711D-01  0.122116D-01 -0.519139D-01 -0.268448D+00 -0.200754D+00
     16  -0.123442D+00 -0.922363D-01 -0.312428D-01 -0.523886D-01 -0.976635D-01
                 6 
      1  -0.633107D+03
      2  -0.347975D-01
      3   0.230868D+00
      4  -0.961441D-01
      5   0.213473D-02
      6  -0.483854D-01
      7   0.398696D-01
      8  -0.338616D-02
      9   0.594864D-02
     10   0.117245D-01
     11  -0.198804D+00
     12  -0.210020D+00
     13   0.186068D+00
     14   0.272387D-01
     15  -0.889549D-01
     16  -0.630094D-01
 1\1\GINC-CN012\SP\RCAM-B3LYP TD-FC\TZVP\C11H15N1O2\WYX\24-Jan-2026\0\\
 #p CAM-B3LYP TZVP em=gd3bj td(nstates=6,root=1) scrf=(Solvent=Water)\\
 Title Card Required\\0,1\O,0,2.748993,-1.557937,0.726476\O,0,-3.215698
 ,-1.637996,-1.133583\N,0,-0.713528,1.512669,0.145422\H,0,-1.021637,2.4
 69859,0.089615\C,0,-1.247623,-0.757904,-0.149065\C,0,0.640547,1.297118
 ,0.292714\C,0,-1.619146,0.541177,-0.218595\C,0,-2.149335,-1.83325,-0.5
 59007\C,0,0.093792,-1.10924,0.453791\H,0,-0.024157,-1.41727,1.501295\H
 ,0,0.522943,-1.973897,-0.047176\C,0,1.09186,0.024264,0.365771\C,0,2.49
 2986,-0.389869,0.448813\C,0,-2.940178,1.081555,-0.66271\H,0,-3.044043,
 2.123474,-0.360508\H,0,-3.029087,1.026156,-1.747756\H,0,-3.760742,0.50
 153,-0.252011\C,0,-1.725631,-3.24847,-0.251855\H,0,-2.555972,-3.920006
 ,-0.453795\H,0,-0.879616,-3.532621,-0.881184\H,0,-1.404524,-3.356476,0
 .784567\C,0,3.646539,0.541087,0.166088\H,0,3.445266,1.23592,-0.644882\
 H,0,3.892547,1.120187,1.057723\H,0,4.511278,-0.069226,-0.083622\C,0,1.
 419679,2.576145,0.346037\H,0,2.271987,2.516745,1.011606\H,0,1.774372,2
 .85531,-0.647229\H,0,0.778129,3.380967,0.70306\\Version=ES64L-G16RevA.
 03\State=1-A\HF=-633.3324748\RMSD=5.720e-09\PG=C01 [X(C11H15N1O2)]\\@


 IT IS BY EATING THE LIGHT OF A STAR THAT WE EXIST, 
 IN THE FINAL ANALYSIS, 
 JUST AS IT IS BY PERCEIVING THE LIGHT OF STARS
 THAT WE DEFINE THE WORLD AROUND US.

                                    -- GILBERT GROSVENOR
 Job cpu time:       0 days  0 hours 49 minutes 59.6 seconds.
 Elapsed time:       0 days  0 hours  3 minutes  8.9 seconds.
 File lengths (MBytes):  RWF=    827 Int=      0 D2E=      0 Chk=     34 Scr=      1
 Normal termination of Gaussian 16 at Sat Jan 24 16:50:50 2026.
