 Entering Gaussian System, Link 0=g16
 Input=DDL-S2-cLR-9.gjf
 Output=DDL-S2-cLR-9.log
 Initial command:
 /data/home/wyx/g16/l1.exe "/scr/tmp/wyx/13117/Gau-2024267.inp" -scrdir="/scr/tmp/wyx/13117/"
 Entering Link 1 = /data/home/wyx/g16/l1.exe PID=   2024268.
  
 Copyright (c) 1988,1990,1992,1993,1995,1998,2003,2009,2016,
            Gaussian, Inc.  All Rights Reserved.
  
 This is part of the Gaussian(R) 16 program.  It is based on
 the Gaussian(R) 09 system (copyright 2009, Gaussian, Inc.),
 the Gaussian(R) 03 system (copyright 2003, Gaussian, Inc.),
 the Gaussian(R) 98 system (copyright 1998, Gaussian, Inc.),
 the Gaussian(R) 94 system (copyright 1995, Gaussian, Inc.),
 the Gaussian 92(TM) system (copyright 1992, Gaussian, Inc.),
 the Gaussian 90(TM) system (copyright 1990, Gaussian, Inc.),
 the Gaussian 88(TM) system (copyright 1988, Gaussian, Inc.),
 the Gaussian 86(TM) system (copyright 1986, Carnegie Mellon
 University), and the Gaussian 82(TM) system (copyright 1983,
 Carnegie Mellon University). Gaussian is a federally registered
 trademark of Gaussian, Inc.
  
 This software contains proprietary and confidential information,
 including trade secrets, belonging to Gaussian, Inc.
  
 This software is provided under written license and may be
 used, copied, transmitted, or stored only in accord with that
 written license.
  
 The following legend is applicable only to US Government
 contracts under FAR:
  
                    RESTRICTED RIGHTS LEGEND
  
 Use, reproduction and disclosure by the US Government is
 subject to restrictions as set forth in subparagraphs (a)
 and (c) of the Commercial Computer Software - Restricted
 Rights clause in FAR 52.227-19.
  
 Gaussian, Inc.
 340 Quinnipiac St., Bldg. 40, Wallingford CT 06492
  
  
 ---------------------------------------------------------------
 Warning -- This program may not be used in any manner that
 competes with the business of Gaussian, Inc. or will provide
 assistance to any competitor of Gaussian, Inc.  The licensee
 of this program is prohibited from giving any competitor of
 Gaussian, Inc. access to this program.  By using this program,
 the user acknowledges that Gaussian, Inc. is engaged in the
 business of creating and licensing software in the field of
 computational chemistry and represents and warrants to the
 licensee that it is not a competitor of Gaussian, Inc. and that
 it will not use this program in any manner prohibited above.
 ---------------------------------------------------------------
  

 Cite this work as:
 Gaussian 16, Revision A.03,
 M. J. Frisch, G. W. Trucks, H. B. Schlegel, G. E. Scuseria, 
 M. A. Robb, J. R. Cheeseman, G. Scalmani, V. Barone, 
 G. A. Petersson, H. Nakatsuji, X. Li, M. Caricato, A. V. Marenich, 
 J. Bloino, B. G. Janesko, R. Gomperts, B. Mennucci, H. P. Hratchian, 
 J. V. Ortiz, A. F. Izmaylov, J. L. Sonnenberg, D. Williams-Young, 
 F. Ding, F. Lipparini, F. Egidi, J. Goings, B. Peng, A. Petrone, 
 T. Henderson, D. Ranasinghe, V. G. Zakrzewski, J. Gao, N. Rega, 
 G. Zheng, W. Liang, M. Hada, M. Ehara, K. Toyota, R. Fukuda, 
 J. Hasegawa, M. Ishida, T. Nakajima, Y. Honda, O. Kitao, H. Nakai, 
 T. Vreven, K. Throssell, J. A. Montgomery, Jr., J. E. Peralta, 
 F. Ogliaro, M. J. Bearpark, J. J. Heyd, E. N. Brothers, K. N. Kudin, 
 V. N. Staroverov, T. A. Keith, R. Kobayashi, J. Normand, 
 K. Raghavachari, A. P. Rendell, J. C. Burant, S. S. Iyengar, 
 J. Tomasi, M. Cossi, J. M. Millam, M. Klene, C. Adamo, R. Cammi, 
 J. W. Ochterski, R. L. Martin, K. Morokuma, O. Farkas, 
 J. B. Foresman, and D. J. Fox, Gaussian, Inc., Wallingford CT, 2016.
 
 ******************************************
 Gaussian 16:  ES64L-G16RevA.03 25-Dec-2016
                24-Jan-2026 
 ******************************************
 %nprocshared=16
 Will use up to   16 processors via shared memory.
 %mem=16GB
 %oldchk=DDL-LR-9.chk
 %chk=DDL-S2-cLR-9.chk
 Copying data from "DDL-LR-9.chk" to current chk file "DDL-S2-cLR-9.chk"
 IOpt=  2 FromEx=T IUOpen= 4 IOptOp= 5 NList=   0 IFRang= 0 IUIn= 4 IUOut= 2.
 ----------------------------------------------------------------------
 #p CAM-B3LYP TZVP em=gd3bj td(nstates=6,root=2) scrf=(Solvent=Water,Co
 rrectedLR,NonEquilibrium=Save) Geom=Check Guess=Read
 ----------------------------------------------------------------------
 1/29=2,30=1,38=1,172=1/1;
 2/12=2,40=1/2;
 3/5=19,7=101,11=9,14=-4,25=1,30=1,70=9002201,71=1,72=1,74=-40,116=-2,124=41/1,2,3,8;
 4/5=1/1;
 5/5=2,38=6,53=1/2;
 8/6=1,10=1,107=2,108=6/1;
 9/8=2,15=1,41=6,42=1,70=2,73=22/14;
 10/5=4,13=10,28=2,74=20/2;
 6/7=2,8=2,9=2,10=2,22=-1/1;
 99/5=1,9=1/99;
 Leave Link    1 at Sat Jan 24 20:00:23 2026, MaxMem=  2147483648 cpu:               0.8 elap:               0.1
 (Enter /data/home/wyx/g16/l101.exe)
 -------------------
 Title Card Required
 -------------------
 Structure from the checkpoint file:  "DDL-S2-cLR-9.chk"
 Charge =  0 Multiplicity = 1
 Z-Matrix found in chk file.
 O,0,2.731446,-1.559025,0.805109
 O,0,-3.266936,-1.651616,-1.004444
 N,0,-0.696354,1.51519,0.032481
 H,0,-1.00471,2.474313,-0.030318
 C,0,-1.250647,-0.760918,-0.163145
 C,0,0.642372,1.317886,0.242356
 C,0,-1.623792,0.560097,-0.258912
 C,0,-2.158305,-1.842646,-0.505858
 C,0,0.108873,-1.092933,0.355795
 H,0,0.033753,-1.473973,1.386387
 H,0,0.531527,-1.938118,-0.190234
 C,0,1.099331,0.025917,0.336047
 C,0,2.485909,-0.393094,0.485694
 C,0,-2.959338,1.093494,-0.642863
 H,0,-3.025359,2.161913,-0.451497
 H,0,-3.157484,0.926836,-1.697558
 H,0,-3.753387,0.593636,-0.101298
 C,0,-1.712386,-3.25696,-0.251985
 H,0,-2.563792,-3.924326,-0.318211
 H,0,-0.984234,-3.566158,-0.999507
 H,0,-1.24039,-3.37978,0.717833
 C,0,3.64832,0.531317,0.220912
 H,0,3.458863,1.239628,-0.581003
 H,0,3.899446,1.094936,1.121511
 H,0,4.508248,-0.083327,-0.036219
 C,0,1.415987,2.59013,0.359633
 H,0,2.199924,2.520853,1.103926
 H,0,1.874287,2.869886,-0.588494
 H,0,0.758828,3.406843,0.653862
 Recover connectivity data from disk.
 ITRead=  0  0  0  0  0  0  0  0  0  0  0  0  0  0  0  0  0  0  0  0
 ITRead=  0  0  0  0  0  0  0  0  0
 MicOpt= -1 -1 -1 -1 -1 -1 -1 -1 -1 -1 -1 -1 -1 -1 -1 -1 -1 -1 -1 -1
 MicOpt= -1 -1 -1 -1 -1 -1 -1 -1 -1
 NAtoms=     29 NQM=       29 NQMF=       0 NMMI=      0 NMMIF=      0
                NMic=       0 NMicF=      0.
                    Isotopes and Nuclear Properties:
 (Nuclear quadrupole moments (NQMom) in fm**2, nuclear magnetic moments (NMagM)
  in nuclear magnetons)

  Atom         1           2           3           4           5           6           7           8           9          10
 IAtWgt=          16          16          14           1          12          12          12          12          12           1
 AtmWgt=  15.9949146  15.9949146  14.0030740   1.0078250  12.0000000  12.0000000  12.0000000  12.0000000  12.0000000   1.0078250
 NucSpn=           0           0           2           1           0           0           0           0           0           1
 AtZEff=   5.6000000   5.6000000   4.5500000   1.0000000   3.6000000   3.6000000   3.6000000   3.6000000   3.6000000   1.0000000
 NQMom=    0.0000000   0.0000000   2.0440000   0.0000000   0.0000000   0.0000000   0.0000000   0.0000000   0.0000000   0.0000000
 NMagM=    0.0000000   0.0000000   0.4037610   2.7928460   0.0000000   0.0000000   0.0000000   0.0000000   0.0000000   2.7928460
 AtZNuc=   8.0000000   8.0000000   7.0000000   1.0000000   6.0000000   6.0000000   6.0000000   6.0000000   6.0000000   1.0000000

  Atom        11          12          13          14          15          16          17          18          19          20
 IAtWgt=           1          12          12          12           1           1           1          12           1           1
 AtmWgt=   1.0078250  12.0000000  12.0000000  12.0000000   1.0078250   1.0078250   1.0078250  12.0000000   1.0078250   1.0078250
 NucSpn=           1           0           0           0           1           1           1           0           1           1
 AtZEff=   1.0000000   3.6000000   3.6000000   3.6000000   1.0000000   1.0000000   1.0000000   3.6000000   1.0000000   1.0000000
 NQMom=    0.0000000   0.0000000   0.0000000   0.0000000   0.0000000   0.0000000   0.0000000   0.0000000   0.0000000   0.0000000
 NMagM=    2.7928460   0.0000000   0.0000000   0.0000000   2.7928460   2.7928460   2.7928460   0.0000000   2.7928460   2.7928460
 AtZNuc=   1.0000000   6.0000000   6.0000000   6.0000000   1.0000000   1.0000000   1.0000000   6.0000000   1.0000000   1.0000000

  Atom        21          22          23          24          25          26          27          28          29
 IAtWgt=           1          12           1           1           1          12           1           1           1
 AtmWgt=   1.0078250  12.0000000   1.0078250   1.0078250   1.0078250  12.0000000   1.0078250   1.0078250   1.0078250
 NucSpn=           1           0           1           1           1           0           1           1           1
 AtZEff=   1.0000000   3.6000000   1.0000000   1.0000000   1.0000000   3.6000000   1.0000000   1.0000000   1.0000000
 NQMom=    0.0000000   0.0000000   0.0000000   0.0000000   0.0000000   0.0000000   0.0000000   0.0000000   0.0000000
 NMagM=    2.7928460   0.0000000   2.7928460   2.7928460   2.7928460   0.0000000   2.7928460   2.7928460   2.7928460
 AtZNuc=   1.0000000   6.0000000   1.0000000   1.0000000   1.0000000   6.0000000   1.0000000   1.0000000   1.0000000
 Leave Link  101 at Sat Jan 24 20:00:25 2026, MaxMem=  2147483648 cpu:               0.9 elap:               0.1
 (Enter /data/home/wyx/g16/l202.exe)
                          Input orientation:                          
 ---------------------------------------------------------------------
 Center     Atomic      Atomic             Coordinates (Angstroms)
 Number     Number       Type             X           Y           Z
 ---------------------------------------------------------------------
      1          8           0        2.731446   -1.559025    0.805109
      2          8           0       -3.266936   -1.651616   -1.004444
      3          7           0       -0.696354    1.515190    0.032481
      4          1           0       -1.004710    2.474313   -0.030318
      5          6           0       -1.250647   -0.760918   -0.163145
      6          6           0        0.642372    1.317886    0.242356
      7          6           0       -1.623792    0.560097   -0.258912
      8          6           0       -2.158305   -1.842646   -0.505858
      9          6           0        0.108873   -1.092933    0.355795
     10          1           0        0.033753   -1.473973    1.386387
     11          1           0        0.531527   -1.938118   -0.190234
     12          6           0        1.099331    0.025917    0.336047
     13          6           0        2.485909   -0.393094    0.485694
     14          6           0       -2.959338    1.093494   -0.642863
     15          1           0       -3.025359    2.161913   -0.451497
     16          1           0       -3.157484    0.926836   -1.697558
     17          1           0       -3.753387    0.593636   -0.101298
     18          6           0       -1.712386   -3.256960   -0.251985
     19          1           0       -2.563792   -3.924326   -0.318211
     20          1           0       -0.984234   -3.566158   -0.999507
     21          1           0       -1.240390   -3.379780    0.717833
     22          6           0        3.648320    0.531317    0.220912
     23          1           0        3.458863    1.239628   -0.581003
     24          1           0        3.899446    1.094936    1.121511
     25          1           0        4.508248   -0.083327   -0.036219
     26          6           0        1.415987    2.590130    0.359633
     27          1           0        2.199924    2.520853    1.103926
     28          1           0        1.874287    2.869886   -0.588494
     29          1           0        0.758828    3.406843    0.653862
 ---------------------------------------------------------------------
                    Distance matrix (angstroms):
                    1          2          3          4          5
     1  O    0.000000
     2  O    6.266071   0.000000
     3  N    4.668786   4.208535   0.000000
     4  H    5.560991   4.805193   1.009428   0.000000
     5  C    4.175111   2.359353   2.350782   3.247283   0.000000
     6  C    3.599658   5.065090   1.369366   2.030900   2.840665
     7  C    4.958923   2.854368   1.362811   2.024782   1.376041
     8  C    5.070379   1.230505   3.701645   4.493668   1.453076
     9  C    2.701299   3.682182   2.748678   3.756913   1.492591
    10  H    2.760918   4.079483   3.361728   4.321391   2.135224
    11  H    2.444190   3.895297   3.671870   4.674949   2.136043
    12  C    2.322899   4.865729   2.352567   3.248978   2.527983
    13  C    1.233576   6.074505   3.738148   4.546725   3.810267
    14  C    6.443408   2.785855   2.398961   2.470312   2.566826
    15  H    6.968877   3.860973   2.465106   2.087584   3.431573
    16  H    6.864572   2.672228   3.065348   3.131902   2.973040
    17  H    6.892647   2.468494   3.195717   3.331247   2.846463
    18  C    4.873200   2.357955   4.887398   5.779051   2.539945
    19  H    5.907287   2.475992   5.761826   6.592132   3.428636
    20  H    4.592548   2.979299   5.193070   6.117764   2.939362
    21  H    4.370154   3.171699   4.972566   5.906410   2.763090
    22  C    2.356157   7.354418   4.458666   5.048667   5.081068
    23  H    3.206696   7.333142   4.209290   4.663817   5.133836
    24  H    2.916821   7.963684   4.741727   5.223039   5.622988
    25  H    2.458158   7.990649   5.444985   6.077357   5.800010
    26  C    4.375428   6.463968   2.392595   2.454638   4.314366
    27  H    4.125192   7.193141   3.247734   3.399758   4.927670
    28  H    4.721451   6.859240   2.971364   2.959166   4.809249
    29  H    5.345460   6.674186   2.466175   2.108976   4.698481
                    6          7          8          9         10
     6  C    0.000000
     7  C    2.441519   0.000000
     8  C    4.288657   2.473835   0.000000
     9  C    2.471748   2.472347   2.538624   0.000000
    10  H    3.077938   3.097080   2.919183   1.101342   0.000000
    11  H    3.286485   3.300181   2.709969   1.091385   1.717249
    12  C    1.373599   2.838084   3.848704   1.494397   2.118570
    13  C    2.526914   4.284000   4.965189   2.481320   2.827122
    14  C    3.715680   1.488494   3.046530   3.897653   4.434900
    15  H    3.827018   2.137123   4.097710   4.590115   5.094669
    16  H    4.284284   2.134575   3.176246   4.354861   5.045651
    17  H    4.468258   2.135683   2.939970   4.239163   4.564060
    18  C    5.168992   3.818091   1.504520   2.892990   2.985349
    19  H    6.170455   4.582266   2.129090   3.951482   3.956908
    20  H    5.295466   4.240695   2.143041   3.024660   3.332570
    21  H    5.083201   4.077212   2.168587   2.679786   2.387992
    22  C    3.107229   5.293980   6.315124   3.896674   4.294719
    23  H    2.935416   5.137985   6.407701   4.188182   4.792247
    24  H    3.380999   5.718197   6.926331   4.443145   4.648982
    25  H    4.121407   6.169725   6.910766   4.530726   4.896816
    26  C    1.493599   3.707275   5.759700   3.908134   4.413811
    27  H    2.148348   4.508070   6.373828   4.241656   4.553100
    28  H    2.148635   4.204796   6.202950   4.439854   5.114375
    29  H    2.132285   3.822826   6.116515   4.556234   4.988456
                   11         12         13         14         15
    11  H    0.000000
    12  C    2.111115   0.000000
    13  C    2.581392   1.456215   0.000000
    14  C    4.645609   4.309383   5.756240   0.000000
    15  H    5.434147   4.711239   6.146581   1.087428   0.000000
    16  H    4.908033   4.802882   6.193278   1.086010   1.759415
    17  H    4.977768   4.905349   6.344053   1.083358   1.764131
    18  C    2.603517   4.362203   5.135327   4.542480   5.579237
    19  H    3.680000   5.426872   6.214124   5.043845   6.105171
    20  H    2.367059   4.362104   4.931131   5.073518   6.105514
    21  H    2.458183   4.149557   4.781159   4.981612   5.938334
    22  C    3.997693   2.601159   1.508590   6.687548   6.902823
    23  H    4.338210   2.807395   2.179510   6.420162   6.550765
    24  H    4.718365   3.098451   2.148624   7.082086   7.180927
    25  H    4.390704   3.430923   2.111446   7.584047   7.872026
    26  C    4.646467   2.583799   3.171790   4.731637   4.535070
    27  H    4.933642   2.832958   2.992505   5.630862   5.463677
    28  H    5.007846   3.089254   3.489269   5.149996   4.952426
    29  H    5.415974   3.412859   4.177393   4.567038   4.134216
                   16         17         18         19         20
    16  H    0.000000
    17  H    1.736136   0.000000
    18  C    4.656408   4.360674   0.000000
    19  H    5.078271   4.676983   1.083815   0.000000
    20  H    5.039572   5.077290   1.088392   1.757115   0.000000
    21  H    5.296820   4.772228   1.085547   1.766723   1.746313
    22  C    7.082085   7.408979   6.581173   7.663794   6.303910
    23  H    6.717186   7.256995   6.860712   7.937749   6.558341
    24  H    7.601031   7.766107   7.233129   8.308985   7.076358
    25  H    7.908472   8.289579   6.986758   8.052735   6.574602
    26  C    5.283485   5.560654   6.659524   7.663958   6.745977
    27  H    6.252281   6.372491   7.108290   8.139766   7.184358
    28  H    5.506740   6.090106   7.107440   8.119785   7.054271
    29  H    5.197799   5.370706   7.164756   8.107451   7.375272
                   21         22         23         24         25
    21  H    0.000000
    22  C    6.280374   0.000000
    23  H    6.716315   1.086585   0.000000
    24  H    6.826709   1.091700   1.764540   0.000000
    25  H    6.669485   1.087833   1.774319   1.760478   0.000000
    26  C    6.544041   3.039945   2.623356   2.997271   4.106842
    27  H    6.841221   2.614540   2.462814   2.218541   3.661973
    28  H    7.103945   3.044870   2.273473   3.189958   3.995526
    29  H    7.075254   4.099422   3.675854   3.927734   5.168718
                   26         27         28         29
    26  C    0.000000
    27  H    1.083203   0.000000
    28  H    1.089609   1.758451   0.000000
    29  H    1.088783   1.750512   1.753859   0.000000
 Stoichiometry    C11H15NO2
 Framework group  C1[X(C11H15NO2)]
 Deg. of freedom    81
 Full point group                 C1      NOp   1
 RotChk:  IX=0 Diff= 7.48D-16
 Largest Abelian subgroup         C1      NOp   1
 Largest concise Abelian subgroup C1      NOp   1
                         Standard orientation:                         
 ---------------------------------------------------------------------
 Center     Atomic      Atomic             Coordinates (Angstroms)
 Number     Number       Type             X           Y           Z
 ---------------------------------------------------------------------
      1          8           0       -2.287903   -2.283204   -0.226257
      2          8           0        3.609900   -0.252973    0.371843
      3          7           0       -0.024127    1.799638   -0.168901
      4          1           0       -0.052867    2.808628   -0.176443
      5          6           0        1.293978   -0.144088   -0.065417
      6          6           0       -1.231349    1.155948   -0.110224
      7          6           0        1.208479    1.229266   -0.056596
      8          6           0        2.560533   -0.836306    0.102226
      9          6           0        0.057038   -0.944493   -0.304495
     10          1           0        0.068224   -1.355207   -1.326328
     11          1           0        0.052267   -1.838546    0.321420
     12          6           0       -1.232688   -0.217618   -0.100824
     13          6           0       -2.398061   -1.081213    0.028287
     14          6           0        2.330563    2.201133    0.053019
     15          1           0        1.994914    3.213882   -0.157166
     16          1           0        2.761524    2.188637    1.049781
     17          1           0        3.134541    1.952741   -0.629320
     18          6           0        2.581723   -2.333306   -0.046503
     19          1           0        3.605790   -2.674919   -0.142642
     20          1           0        2.149995   -2.808956    0.832113
     21          1           0        2.011398   -2.677316   -0.903707
     22          6           0       -3.736173   -0.575783    0.507705
     23          1           0       -3.655476    0.213183    1.250462
     24          1           0       -4.322490   -0.195790   -0.331131
     25          1           0       -4.275194   -1.419013    0.934084
     26          6           0       -2.397725    2.088559   -0.084836
     27          1           0       -3.233201    1.708705   -0.660179
     28          1           0       -2.743343    2.271197    0.932237
     29          1           0       -2.121074    3.052133   -0.509616
 ---------------------------------------------------------------------
 Rotational constants (GHZ):           1.0779213           0.4906093           0.3451492
 Leave Link  202 at Sat Jan 24 20:00:25 2026, MaxMem=  2147483648 cpu:               0.0 elap:               0.0
 (Enter /data/home/wyx/g16/l301.exe)
 Standard basis: TZVP (5D, 7F)
 Ernie: Thresh=  0.10000D-02 Tol=  0.10000D-05 Strict=F.
 There are   370 symmetry adapted cartesian basis functions of A   symmetry.
 There are   356 symmetry adapted basis functions of A   symmetry.
   356 basis functions,   610 primitive gaussians,   370 cartesian basis functions
    52 alpha electrons       52 beta electrons
       nuclear repulsion energy       900.4960122814 Hartrees.
 IExCor=20419 DFT=T Ex+Corr=CAM-B3LYP ExCW=0 ScaHFX=  1.000000
 ScaDFX=  1.000000  1.000000  1.000000  0.810000 ScalE2=  1.000000  1.000000
 IRadAn=      5 IRanWt=     -1 IRanGd=            0 ICorTp=0 IEmpDi=141
 HFx  wShort=  0.000000 wLong=  0.330000 cFull=  0.190000 cShort=  0.000000 cLong=  0.460000
 DFx  wShort=  0.000000 wLong=  0.330000 cFull=  0.190000 cShort=  0.000000 cLong=  0.460000
 NAtoms=   29 NActive=   29 NUniq=   29 SFac= 1.00D+00 NAtFMM=   60 NAOKFM=F Big=F
 Integral buffers will be    131072 words long.
 Raffenetti 1 integral format.
 Two-electron integral symmetry is turned on.
 R6Disp:  Grimme-D3(BJ) Dispersion energy=       -0.0261825771 Hartrees.
 Nuclear repulsion after empirical dispersion term =      900.4698297043 Hartrees.
 ------------------------------------------------------------------------------
 Polarizable Continuum Model (PCM)
 =================================
 Model                : PCM.
 Atomic radii         : UFF (Universal Force Field).
 Polarization charges : Total charges.
 Charge compensation  : None.
 Solution method      : On-the-fly selection.
 Cavity type          : Scaled VdW (van der Waals Surface) (Alpha=1.100).
 Cavity algorithm     : GePol (No added spheres)
                        Default sphere list used, NSphG=   29.
                        Lebedev-Laikov grids with approx.  5.0 points / Ang**2.
                        Smoothing algorithm: York/Karplus (Gamma=1.0000).
                        Polarization charges: spherical gaussians, with
                                              point-specific exponents (IZeta= 3).
                        Self-potential: point-specific (ISelfS= 7).
                        Self-field    : sphere-specific E.n sum rule (ISelfD= 2).
 1st derivatives      : Analytical E(r).r(x)/FMM algorithm (CHGder, D1EAlg=3).
                        Cavity 1st derivative terms included.
 Solvent              : Water, Eps=  78.355300 Eps(inf)=   1.777849
 ------------------------------------------------------------------------------
 GePol: Number of generator spheres                  =      29
 GePol: Total number of spheres                      =      29
 GePol: Number of exposed spheres                    =      29 (100.00%)
 GePol: Number of points                             =    2110
 GePol: Average weight of points                     =       0.13
 GePol: Minimum weight of points                     =   0.11D-09
 GePol: Maximum weight of points                     =    0.20577
 GePol: Number of points with low weight             =     135
 GePol: Fraction of low-weight points (<1% of avg)   =       6.40%
 GePol: Cavity surface area                          =    268.623 Ang**2
 GePol: Cavity volume                                =    286.684 Ang**3
 Leave Link  301 at Sat Jan 24 20:00:25 2026, MaxMem=  2147483648 cpu:               0.6 elap:               0.0
 (Enter /data/home/wyx/g16/l302.exe)
 NPDir=0 NMtPBC=     1 NCelOv=     1 NCel=       1 NClECP=     1 NCelD=      1
         NCelK=      1 NCelE2=     1 NClLst=     1 CellRange=     0.0.
 One-electron integrals computed using PRISM.
 One-electron integral symmetry used in STVInt
 NBasis=   356 RedAO= T EigKep=  4.65D-05  NBF=   356
 NBsUse=   356 1.00D-06 EigRej= -1.00D+00 NBFU=   356
 Precomputing XC quadrature grid using
 IXCGrd= 4 IRadAn=           5 IRanWt=          -1 IRanGd=           0 AccXCQ= 0.00D+00.
 Generated NRdTot=       0 NPtTot=           0 NUsed=           0 NTot=          32
 NSgBfM=   366   366   366   366   366 MxSgAt=    29 MxSgA2=    29.
 Leave Link  302 at Sat Jan 24 20:00:26 2026, MaxMem=  2147483648 cpu:               3.1 elap:               0.2
 (Enter /data/home/wyx/g16/l303.exe)
 DipDrv:  MaxL=1.
 Leave Link  303 at Sat Jan 24 20:00:26 2026, MaxMem=  2147483648 cpu:               0.6 elap:               0.0
 (Enter /data/home/wyx/g16/l308.exe)
 Leave Link  308 at Sat Jan 24 20:00:26 2026, MaxMem=  2147483648 cpu:               0.7 elap:               0.1
 (Enter /data/home/wyx/g16/l401.exe)
 Initial guess from the checkpoint file:  "DDL-S2-cLR-9.chk"
 B after Tr=     0.000000   -0.000000   -0.000000
         Rot=    1.000000   -0.000000   -0.000000    0.000000 Ang=   0.00 deg.
 Guess basis will be translated and rotated to current coordinates.
 GSVD:  received Info=                   1 from GESDD.
 JPrj=2 DoOrth=T DoCkMO=T.
 Leave Link  401 at Sat Jan 24 20:00:26 2026, MaxMem=  2147483648 cpu:               2.4 elap:               0.2
 (Enter /data/home/wyx/g16/l502.exe)
 Integral symmetry usage will be decided dynamically.
 Closed shell SCF:
 Using DIIS extrapolation, IDIIS=  1040.
 NGot=  2147483648 LenX=  2147200095 LenY=  2147062754
 Requested convergence on RMS density matrix=1.00D-08 within 128 cycles.
 Requested convergence on MAX density matrix=1.00D-06.
 Requested convergence on             energy=1.00D-06.
 No special actions if energy rises.
 Fock matrices will be formed incrementally for  20 cycles.

 Cycle   1  Pass 1  IDiag  1:
 FoFJK:  IHMeth= 1 ICntrl=       0 DoSepK=T KAlg= 0 I1Cent=           0 FoldK=F
 IRaf=         1 NMat=       1 IRICut=       1 DoRegI=T DoRafI=F ISym2E= 0 IDoP0=0 IntGTp=1.
 FoFCou: FMM=F IPFlag=           0 FMFlag=      100000 FMFlg1=           0
         NFxFlg=           0 DoJE=T BraDBF=F KetDBF=F FulRan=T
         wScrn=  0.000000 ICntrl=       500 IOpCl=  0 I1Cent=           0 NGrid=           0
         NMat0=    1 NMatS0=      1 NMatT0=    0 NMatD0=    1 NMtDS0=    0 NMtDT0=    0
 Symmetry not used in FoFCou.
 Inv3:  Mode=1 IEnd=    13356300.
 Iteration    1 A*A^-1 deviation from unit magnitude is 3.33D-15 for    873.
 Iteration    1 A*A^-1 deviation from orthogonality  is 1.76D-15 for   1754    694.
 Iteration    1 A^-1*A deviation from unit magnitude is 3.33D-15 for    873.
 Iteration    1 A^-1*A deviation from orthogonality  is 3.98D-15 for   1379   1350.
 E= -633.329960112343    
 DIIS: error= 1.35D-08 at cycle   1 NSaved=   1.
 NSaved= 1 IEnMin= 1 EnMin= -633.329960112343     IErMin= 1 ErrMin= 1.35D-08
 ErrMax= 1.35D-08  0.00D+00 EMaxC= 1.00D-01 BMatC= 5.24D-14 BMatP= 5.24D-14
 IDIUse=1 WtCom= 1.00D+00 WtEn= 0.00D+00
 Coeff-Com:  0.100D+01
 Coeff:      0.100D+01
 Gap=     0.228 Goal=   None    Shift=    0.000
 RMSDP=2.64D-09 MaxDP=7.12D-08              OVMax= 2.79D-07

 Error on total polarization charges =  0.01549
 SCF Done:  E(RCAM-B3LYP) =  -633.329960112     A.U. after    1 cycles
            NFock=  1  Conv=0.26D-08     -V/T= 2.0041
 KE= 6.307244359501D+02 PE=-3.276989685984D+03 EE= 1.112465460218D+03
 Leave Link  502 at Sat Jan 24 20:00:32 2026, MaxMem=  2147483648 cpu:              85.4 elap:               5.6
 (Enter /data/home/wyx/g16/l801.exe)
 DoSCS=F DFT=T ScalE2(SS,OS)=  1.000000  1.000000
 ExpMin= 9.52D-02 ExpMax= 2.70D+04 ExpMxC= 9.22D+02 IAcc=3 IRadAn=         5 AccDes= 0.00D+00
 HarFok:  IExCor=  205 AccDes= 0.00D+00 IRadAn=         5 IDoV=-2 UseB2=F ITyADJ=14
 ICtDFT= 12500011 ScaDFX=  1.000000  1.000000  1.000000  1.000000
 Largest valence mixing into a core orbital is  5.61D-05
 Largest core mixing into a valence orbital is  1.18D-05
 Range of M.O.s used for correlation:    15   356
 NBasis=   356 NAE=    52 NBE=    52 NFC=    14 NFV=     0
 NROrb=    342 NOA=    38 NOB=    38 NVA=   304 NVB=   304

 **** Warning!!: The largest alpha MO coefficient is  0.59070658D+02

 Leave Link  801 at Sat Jan 24 20:00:32 2026, MaxMem=  2147483648 cpu:               1.0 elap:               0.1
 (Enter /data/home/wyx/g16/l914.exe)
 RHF ground state
 Two-electron integrals replicated using symmetry.
 MDV=  2147483648 DFT=T DoStab=F Mixed=T DoRPA=T DoScal=F NonHer=T
 NEqPCM:  Using equilibrium solvation (IEInf=0, Eps=  78.3553, EpsInf=   1.7778)
 Making orbital integer symmetry assigments:
 Orbital symmetries:
       Occupied  (A) (A) (A) (A) (A) (A) (A) (A) (A) (A) (A) (A)
                 (A) (A) (A) (A) (A) (A) (A) (A) (A) (A) (A) (A)
                 (A) (A) (A) (A) (A) (A) (A) (A) (A) (A) (A) (A)
                 (A) (A) (A) (A) (A) (A) (A) (A) (A) (A) (A) (A)
                 (A) (A) (A) (A)
       Virtual   (A) (A) (A) (A) (A) (A) (A) (A) (A) (A) (A) (A)
                 (A) (A) (A) (A) (A) (A) (A) (A) (A) (A) (A) (A)
                 (A) (A) (A) (A) (A) (A) (A) (A) (A) (A) (A) (A)
                 (A) (A) (A) (A) (A) (A) (A) (A) (A) (A) (A) (A)
                 (A) (A) (A) (A) (A) (A) (A) (A) (A) (A) (A) (A)
                 (A) (A) (A) (A) (A) (A) (A) (A) (A) (A) (A) (A)
                 (A) (A) (A) (A) (A) (A) (A) (A) (A) (A) (A) (A)
                 (A) (A) (A) (A) (A) (A) (A) (A) (A) (A) (A) (A)
                 (A) (A) (A) (A) (A) (A) (A) (A) (A) (A) (A) (A)
                 (A) (A) (A) (A) (A) (A) (A) (A) (A) (A) (A) (A)
                 (A) (A) (A) (A) (A) (A) (A) (A) (A) (A) (A) (A)
                 (A) (A) (A) (A) (A) (A) (A) (A) (A) (A) (A) (A)
                 (A) (A) (A) (A) (A) (A) (A) (A) (A) (A) (A) (A)
                 (A) (A) (A) (A) (A) (A) (A) (A) (A) (A) (A) (A)
                 (A) (A) (A) (A) (A) (A) (A) (A) (A) (A) (A) (A)
                 (A) (A) (A) (A) (A) (A) (A) (A) (A) (A) (A) (A)
                 (A) (A) (A) (A) (A) (A) (A) (A) (A) (A) (A) (A)
                 (A) (A) (A) (A) (A) (A) (A) (A) (A) (A) (A) (A)
                 (A) (A) (A) (A) (A) (A) (A) (A) (A) (A) (A) (A)
                 (A) (A) (A) (A) (A) (A) (A) (A) (A) (A) (A) (A)
                 (A) (A) (A) (A) (A) (A) (A) (A) (A) (A) (A) (A)
                 (A) (A) (A) (A) (A) (A) (A) (A) (A) (A) (A) (A)
                 (A) (A) (A) (A) (A) (A) (A) (A) (A) (A) (A) (A)
                 (A) (A) (A) (A) (A) (A) (A) (A) (A) (A) (A) (A)
                 (A) (A) (A) (A) (A) (A) (A) (A) (A) (A) (A) (A)
                 (A) (A) (A) (A)
 PCM Corrected Linear-Response:
 Compute the excitation energies in the ground state reaction field.
    24 initial guesses have been made.
 Convergence on wavefunction:    0.000001000000000
 Davidson Disk Diagonalization:  ConvIn= 1.00D-06 SkipCon=T Conv= 1.00D-06.
 Max sub-space:  2000 roots to seek:    24 dimension of matrix:        23104
 Iteration     1 Dimension    24 NMult     0 NNew     24
 CISAX will form    24 AO SS matrices at one time.
 NMat=    24 NSing=    24 JSym2X= 0.
 FoFJK:  IHMeth= 1 ICntrl=       0 DoSepK=T KAlg= 0 I1Cent=           0 FoldK=F
 IRaf=         1 NMat=      48 IRICut=       1 DoRegI=T DoRafI=F ISym2E= 0 IDoP0=3 IntGTp=3.
 FoFCou: FMM=F IPFlag=           0 FMFlag=      100000 FMFlg1=           0
         NFxFlg=           0 DoJE=F BraDBF=F KetDBF=F FulRan=T
         wScrn=  0.000000 ICntrl=       500 IOpCl=  0 I1Cent=           0 NGrid=           0
         NMat0=   24 NMatS0=     24 NMatT0=    0 NMatD0=   24 NMtDS0=    0 NMtDT0=    0
 Symmetry not used in FoFCou.
 New state      2 was old state      3
 New state      3 was old state      4
 New state      4 was old state      2
 New state      5 was old state      6
 New state      6 was old state      5
 Excitation Energies [eV] at current iteration:
 Root      1 :     3.793694937583308
 Root      2 :     4.284954915322422
 Root      3 :     4.487382855504622
 Root      4 :     5.443145214417877
 Root      5 :     6.096337852833108
 Root      6 :     6.435080344857034
 Root      7 :     6.725365771038376
 Root      8 :     6.798331880934580
 Root      9 :     7.011321050447156
 Root     10 :     7.015427460101054
 Root     11 :     7.245435369153926
 Root     12 :     7.352310317717216
 Root     13 :     7.492243067682235
 Root     14 :     7.526807224988356
 Root     15 :     7.869818634410676
 Root     16 :     7.900392231733835
 Root     17 :     8.143892270374755
 Root     18 :     8.207746052284387
 Root     19 :     8.331060243680867
 Root     20 :     8.344243758177894
 Root     21 :     8.587015557873363
 Root     22 :     8.831866738866607
 Root     23 :     8.894803581045634
 Root     24 :     9.064894462302806
 Iteration     2 Dimension    36 NMult    24 NNew     12
 CISAX will form    12 AO SS matrices at one time.
 NMat=    12 NSing=    12 JSym2X= 0.
 Root      1 not converged, maximum delta is    0.038541981666421
 Root      2 not converged, maximum delta is    0.074466613927008
 Root      3 not converged, maximum delta is    0.085199455933115
 Root      4 not converged, maximum delta is    0.199034780769261
 New state      5 was old state      6
 Root      5 not converged, maximum delta is    0.191100448337782
 New state      6 was old state      5
 Root      6 not converged, maximum delta is    0.098177220967733
 Excitation Energies [eV] at current iteration:
 Root      1 :     3.325558980763011   Change is   -0.468135956820297
 Root      2 :     4.059401492210574   Change is   -0.225553423111848
 Root      3 :     4.223586026916849   Change is   -0.263796828587773
 Root      4 :     5.127184209453971   Change is   -0.315961004963906
 Root      5 :     5.591419781446766   Change is   -0.843660563410268
 Root      6 :     5.988666464842015   Change is   -0.107671387991093
 Iteration     3 Dimension    48 NMult    36 NNew     12
 CISAX will form    12 AO SS matrices at one time.
 NMat=    12 NSing=    12 JSym2X= 0.
 Root      1 not converged, maximum delta is    0.008700808971129
 Root      2 not converged, maximum delta is    0.013411157224903
 Root      3 not converged, maximum delta is    0.012380909853912
 Root      4 not converged, maximum delta is    0.021501603611926
 Root      5 not converged, maximum delta is    0.023965279851360
 Root      6 not converged, maximum delta is    0.007398665624128
 Excitation Energies [eV] at current iteration:
 Root      1 :     3.305438870443548   Change is   -0.020120110319463
 Root      2 :     4.046320653042484   Change is   -0.013080839168090
 Root      3 :     4.209764628743417   Change is   -0.013821398173431
 Root      4 :     5.106846914906360   Change is   -0.020337294547612
 Root      5 :     5.554525405632118   Change is   -0.036894375814648
 Root      6 :     5.983064357935933   Change is   -0.005602106906082
 Iteration     4 Dimension    60 NMult    48 NNew     12
 CISAX will form    12 AO SS matrices at one time.
 NMat=    12 NSing=    12 JSym2X= 0.
 Root      1 not converged, maximum delta is    0.002209251629594
 Root      2 not converged, maximum delta is    0.001966239952977
 Root      3 not converged, maximum delta is    0.002116634359194
 Root      4 not converged, maximum delta is    0.002433124758050
 Root      5 not converged, maximum delta is    0.003753436813870
 Root      6 not converged, maximum delta is    0.002139081041959
 Excitation Energies [eV] at current iteration:
 Root      1 :     3.303872110331755   Change is   -0.001566760111793
 Root      2 :     4.045571347046391   Change is   -0.000749305996093
 Root      3 :     4.208874326818621   Change is   -0.000890301924797
 Root      4 :     5.105028580468709   Change is   -0.001818334437650
 Root      5 :     5.550850148287953   Change is   -0.003675257344165
 Root      6 :     5.982692567926739   Change is   -0.000371790009195
 Iteration     5 Dimension    72 NMult    60 NNew     12
 CISAX will form    12 AO SS matrices at one time.
 NMat=    12 NSing=    12 JSym2X= 0.
 Root      1 not converged, maximum delta is    0.000745664111989
 Root      2 not converged, maximum delta is    0.000330359607319
 Root      3 not converged, maximum delta is    0.000524872243749
 Root      4 not converged, maximum delta is    0.000573695565257
 Root      5 not converged, maximum delta is    0.001012953474510
 Root      6 not converged, maximum delta is    0.000376950921317
 Excitation Energies [eV] at current iteration:
 Root      1 :     3.303780676717093   Change is   -0.000091433614662
 Root      2 :     4.045515958196588   Change is   -0.000055388849803
 Root      3 :     4.208824868448968   Change is   -0.000049458369653
 Root      4 :     5.104898238269504   Change is   -0.000130342199205
 Root      5 :     5.550561579173368   Change is   -0.000288569114586
 Root      6 :     5.982662250393996   Change is   -0.000030317532743
 Iteration     6 Dimension    84 NMult    72 NNew     12
 CISAX will form    12 AO SS matrices at one time.
 NMat=    12 NSing=    12 JSym2X= 0.
 Root      1 not converged, maximum delta is    0.000178877579079
 Root      2 not converged, maximum delta is    0.000103535304296
 Root      3 not converged, maximum delta is    0.000133138331231
 Root      4 not converged, maximum delta is    0.000350555599212
 Root      5 not converged, maximum delta is    0.000564014143592
 Root      6 not converged, maximum delta is    0.000192982493341
 Excitation Energies [eV] at current iteration:
 Root      1 :     3.303776109171328   Change is   -0.000004567545764
 Root      2 :     4.045512603894296   Change is   -0.000003354302292
 Root      3 :     4.208822160758008   Change is   -0.000002707690960
 Root      4 :     5.104887515717938   Change is   -0.000010722551566
 Root      5 :     5.550534773539111   Change is   -0.000026805634257
 Root      6 :     5.982659352304644   Change is   -0.000002898089351
 Iteration     7 Dimension    96 NMult    84 NNew     12
 CISAX will form    12 AO SS matrices at one time.
 NMat=    12 NSing=    12 JSym2X= 0.
 Root      1 not converged, maximum delta is    0.000018428116013
 Root      2 not converged, maximum delta is    0.000021604282013
 Root      3 not converged, maximum delta is    0.000030422486330
 Root      4 not converged, maximum delta is    0.000097433001291
 Root      5 not converged, maximum delta is    0.000193216200668
 Root      6 not converged, maximum delta is    0.000076200256349
 Excitation Energies [eV] at current iteration:
 Root      1 :     3.303775849191242   Change is   -0.000000259980086
 Root      2 :     4.045512428102211   Change is   -0.000000175792085
 Root      3 :     4.208822014252143   Change is   -0.000000146505865
 Root      4 :     5.104886625673418   Change is   -0.000000890044520
 Root      5 :     5.550531772110981   Change is   -0.000003001428130
 Root      6 :     5.982659084458181   Change is   -0.000000267846463
 Iteration     8 Dimension   108 NMult    96 NNew     12
 CISAX will form    12 AO SS matrices at one time.
 NMat=    12 NSing=    12 JSym2X= 0.
 Root      1 not converged, maximum delta is    0.000002417014520
 Root      2 not converged, maximum delta is    0.000002913262022
 Root      3 not converged, maximum delta is    0.000002873189213
 Root      4 not converged, maximum delta is    0.000017693726762
 Root      5 not converged, maximum delta is    0.000028086599281
 Root      6 not converged, maximum delta is    0.000018180423682
 Excitation Energies [eV] at current iteration:
 Root      1 :     3.303775840301006   Change is   -0.000000008890236
 Root      2 :     4.045512419324211   Change is   -0.000000008778000
 Root      3 :     4.208822005245752   Change is   -0.000000009006391
 Root      4 :     5.104886565102252   Change is   -0.000000060571167
 Root      5 :     5.550531553398069   Change is   -0.000000218712911
 Root      6 :     5.982659057429096   Change is   -0.000000027029085
 Iteration     9 Dimension   120 NMult   108 NNew     12
 CISAX will form    12 AO SS matrices at one time.
 NMat=    12 NSing=    12 JSym2X= 0.
 Root      1 has converged.
 Root      2 has converged.
 Root      3 has converged.
 Root      4 not converged, maximum delta is    0.000002949773937
 Root      5 not converged, maximum delta is    0.000006627664861
 Root      6 not converged, maximum delta is    0.000005939852648
 Excitation Energies [eV] at current iteration:
 Root      1 :     3.303775840021049   Change is   -0.000000000279958
 Root      2 :     4.045512419003774   Change is   -0.000000000320437
 Root      3 :     4.208822004938804   Change is   -0.000000000306948
 Root      4 :     5.104886562105693   Change is   -0.000000002996559
 Root      5 :     5.550531541430527   Change is   -0.000000011967542
 Root      6 :     5.982659055004901   Change is   -0.000000002424195
 Iteration    10 Dimension   126 NMult   120 NNew      6
 CISAX will form     6 AO SS matrices at one time.
 NMat=     6 NSing=     6 JSym2X= 0.
 Root      1 has converged.
 Root      2 has converged.
 Root      3 has converged.
 Root      4 has converged.
 Root      5 not converged, maximum delta is    0.000001154196024
 Root      6 not converged, maximum delta is    0.000001630317218
 Excitation Energies [eV] at current iteration:
 Root      1 :     3.303775840020252   Change is   -0.000000000000796
 Root      2 :     4.045512419001234   Change is   -0.000000000002540
 Root      3 :     4.208822004937729   Change is   -0.000000000001075
 Root      4 :     5.104886561983707   Change is   -0.000000000121986
 Root      5 :     5.550531540821005   Change is   -0.000000000609521
 Root      6 :     5.982659054819013   Change is   -0.000000000185888
 Iteration    11 Dimension   130 NMult   126 NNew      4
 CISAX will form     4 AO SS matrices at one time.
 NMat=     4 NSing=     4 JSym2X= 0.
 Root      1 has converged.
 Root      2 has converged.
 Root      3 has converged.
 Root      4 has converged.
 Root      5 has converged.
 Root      6 has converged.
 Excitation Energies [eV] at current iteration:
 Root      1 :     3.303775840020228   Change is   -0.000000000000025
 Root      2 :     4.045512419000767   Change is   -0.000000000000468
 Root      3 :     4.208822004937494   Change is   -0.000000000000234
 Root      4 :     5.104886561982146   Change is   -0.000000000001562
 Root      5 :     5.550531540791339   Change is   -0.000000000029666
 Root      6 :     5.982659054805437   Change is   -0.000000000013576
 Convergence achieved on expansion vectors.
 PCM Corrected Linear-Response:
 The state of interest is root number   2
 Excitation energy =    4.0455 eV, Total energy =  -633.181290266    
 Recompute the excitation energies using the linear response reaction field.
 Convergence on wavefunction:    0.000001000000000
 Davidson Disk Diagonalization:  ConvIn= 1.00D-06 SkipCon=T Conv= 1.00D-06.
 Max sub-space:  2000 roots to seek:     6 dimension of matrix:        23104
 Iteration     1 Dimension     6 NMult     0 NNew      6
 CISAX will form     6 AO SS matrices at one time.
 NMat=     6 NSing=     6 JSym2X= 0.
 Excitation Energies [eV] at current iteration:
 Root      1 :     3.384699166767405
 Root      2 :     4.071076080351239
 Root      3 :     4.234325416543331
 Root      4 :     5.167510759536475
 Root      5 :     5.691179348748949
 Root      6 :     5.943076625909905
 Iteration     2 Dimension    18 NMult     6 NNew     12
 CISAX will form    12 AO SS matrices at one time.
 NMat=    12 NSing=    12 JSym2X= 0.
 Root      1 not converged, maximum delta is    0.018050163164177
 Root      2 not converged, maximum delta is    0.012140202874386
 Root      3 not converged, maximum delta is    0.009809666019810
 Root      4 not converged, maximum delta is    0.228026989622711
 Root      5 not converged, maximum delta is    0.285379849544363
 Root      6 not converged, maximum delta is    0.065215507643399
 Excitation Energies [eV] at current iteration:
 Root      1 :     3.159252226953462   Change is   -0.225446939813943
 Root      2 :     4.039950483329428   Change is   -0.031125597021810
 Root      3 :     4.202195309796408   Change is   -0.032130106746924
 Root      4 :     4.935203942016882   Change is   -0.232306817519593
 Root      5 :     5.401700290294885   Change is   -0.289479058454064
 Root      6 :     5.918817263065725   Change is   -0.024259362844180
 Iteration     3 Dimension    30 NMult    18 NNew     12
 CISAX will form    12 AO SS matrices at one time.
 NMat=    12 NSing=    12 JSym2X= 0.
 Root      1 not converged, maximum delta is    0.002867255930821
 Root      2 not converged, maximum delta is    0.001101174628031
 Root      3 not converged, maximum delta is    0.001451660054773
 Root      4 not converged, maximum delta is    0.012414821757682
 Root      5 not converged, maximum delta is    0.013344107971640
 Root      6 not converged, maximum delta is    0.008948459577904
 Excitation Energies [eV] at current iteration:
 Root      1 :     3.155789439720073   Change is   -0.003462787233389
 Root      2 :     4.039615910277807   Change is   -0.000334573051621
 Root      3 :     4.201810407590036   Change is   -0.000384902206371
 Root      4 :     4.925022038776669   Change is   -0.010181903240213
 Root      5 :     5.393070010019295   Change is   -0.008630280275590
 Root      6 :     5.916813404863187   Change is   -0.002003858202538
 Iteration     4 Dimension    42 NMult    30 NNew     12
 CISAX will form    12 AO SS matrices at one time.
 NMat=    12 NSing=    12 JSym2X= 0.
 Root      1 not converged, maximum delta is    0.001747299433351
 Root      2 not converged, maximum delta is    0.000197256795454
 Root      3 not converged, maximum delta is    0.000232922596852
 Root      4 not converged, maximum delta is    0.002679188155690
 Root      5 not converged, maximum delta is    0.003694319283037
 Root      6 not converged, maximum delta is    0.009055801327356
 Excitation Energies [eV] at current iteration:
 Root      1 :     3.155359274816476   Change is   -0.000430164903597
 Root      2 :     4.039599898676938   Change is   -0.000016011600869
 Root      3 :     4.201786938480438   Change is   -0.000023469109599
 Root      4 :     4.923305149562313   Change is   -0.001716889214356
 Root      5 :     5.391683564377679   Change is   -0.001386445641616
 Root      6 :     5.916198326762176   Change is   -0.000615078101011
 Iteration     5 Dimension    54 NMult    42 NNew     12
 CISAX will form    12 AO SS matrices at one time.
 NMat=    12 NSing=    12 JSym2X= 0.
 Root      1 not converged, maximum delta is    0.000442179476863
 Root      2 not converged, maximum delta is    0.000084702838201
 Root      3 not converged, maximum delta is    0.000080267487037
 Root      4 not converged, maximum delta is    0.000732879439592
 Root      5 not converged, maximum delta is    0.000634297380231
 Root      6 not converged, maximum delta is    0.003537546095868
 Excitation Energies [eV] at current iteration:
 Root      1 :     3.155330089228924   Change is   -0.000029185587552
 Root      2 :     4.039598827567743   Change is   -0.000001071109195
 Root      3 :     4.201785046528942   Change is   -0.000001891951496
 Root      4 :     4.923154957410072   Change is   -0.000150192152241
 Root      5 :     5.391552617797014   Change is   -0.000130946580665
 Root      6 :     5.916080927234898   Change is   -0.000117399527279
 Iteration     6 Dimension    66 NMult    54 NNew     12
 CISAX will form    12 AO SS matrices at one time.
 NMat=    12 NSing=    12 JSym2X= 0.
 Root      1 not converged, maximum delta is    0.000072724245076
 Root      2 not converged, maximum delta is    0.000025235240220
 Root      3 not converged, maximum delta is    0.000032449759626
 Root      4 not converged, maximum delta is    0.000287621452531
 Root      5 not converged, maximum delta is    0.000345602240706
 Root      6 not converged, maximum delta is    0.000910859140448
 Excitation Energies [eV] at current iteration:
 Root      1 :     3.155328373955308   Change is   -0.000001715273615
 Root      2 :     4.039598715512470   Change is   -0.000000112055273
 Root      3 :     4.201784868443206   Change is   -0.000000178085736
 Root      4 :     4.923141181293038   Change is   -0.000013776117035
 Root      5 :     5.391538980890068   Change is   -0.000013636906946
 Root      6 :     5.916064632763024   Change is   -0.000016294471873
 Iteration     7 Dimension    78 NMult    66 NNew     12
 CISAX will form    12 AO SS matrices at one time.
 NMat=    12 NSing=    12 JSym2X= 0.
 Root      1 not converged, maximum delta is    0.000010848649135
 Root      2 not converged, maximum delta is    0.000006335892367
 Root      3 not converged, maximum delta is    0.000007594063745
 Root      4 not converged, maximum delta is    0.000088038924665
 Root      5 not converged, maximum delta is    0.000106320839383
 Root      6 not converged, maximum delta is    0.000147032885853
 Excitation Energies [eV] at current iteration:
 Root      1 :     3.155328309036236   Change is   -0.000000064919072
 Root      2 :     4.039598710248958   Change is   -0.000000005263512
 Root      3 :     4.201784859246371   Change is   -0.000000009196835
 Root      4 :     4.923140074093827   Change is   -0.000001107199210
 Root      5 :     5.391537821654854   Change is   -0.000001159235215
 Root      6 :     5.916063017791663   Change is   -0.000001614971362
 Iteration     8 Dimension    90 NMult    78 NNew     12
 CISAX will form    12 AO SS matrices at one time.
 NMat=    12 NSing=    12 JSym2X= 0.
 Root      1 not converged, maximum delta is    0.000002605219149
 Root      2 not converged, maximum delta is    0.000001498704620
 Root      3 not converged, maximum delta is    0.000001220300719
 Root      4 not converged, maximum delta is    0.000027530276808
 Root      5 not converged, maximum delta is    0.000034767616522
 Root      6 not converged, maximum delta is    0.000037644636848
 Excitation Energies [eV] at current iteration:
 Root      1 :     3.155328306109979   Change is   -0.000000002926257
 Root      2 :     4.039598710070464   Change is   -0.000000000178494
 Root      3 :     4.201784858779063   Change is   -0.000000000467308
 Root      4 :     4.923139987929042   Change is   -0.000000086164785
 Root      5 :     5.391537703084787   Change is   -0.000000118570067
 Root      6 :     5.916062849750825   Change is   -0.000000168040838
 Iteration     9 Dimension   102 NMult    90 NNew     12
 CISAX will form    12 AO SS matrices at one time.
 NMat=    12 NSing=    12 JSym2X= 0.
 Root      1 has converged.
 Root      2 has converged.
 Root      3 has converged.
 Root      4 not converged, maximum delta is    0.000006944800467
 Root      5 not converged, maximum delta is    0.000011141364135
 Root      6 not converged, maximum delta is    0.000023813656440
 Excitation Energies [eV] at current iteration:
 Root      1 :     3.155328305971504   Change is   -0.000000000138475
 Root      2 :     4.039598710062243   Change is   -0.000000000008222
 Root      3 :     4.201784858746292   Change is   -0.000000000032771
 Root      4 :     4.923139982345836   Change is   -0.000000005583207
 Root      5 :     5.391537692161884   Change is   -0.000000010922904
 Root      6 :     5.916062831602846   Change is   -0.000000018147978
 Iteration    10 Dimension   108 NMult   102 NNew      6
 CISAX will form     6 AO SS matrices at one time.
 NMat=     6 NSing=     6 JSym2X= 0.
 Root      1 has converged.
 Root      2 has converged.
 Root      3 has converged.
 Root      4 not converged, maximum delta is    0.000001397309486
 Root      5 not converged, maximum delta is    0.000002681952086
 Root      6 not converged, maximum delta is    0.000008838077304
 Excitation Energies [eV] at current iteration:
 Root      1 :     3.155328305970853   Change is   -0.000000000000651
 Root      2 :     4.039598710062080   Change is   -0.000000000000162
 Root      3 :     4.201784858745705   Change is   -0.000000000000587
 Root      4 :     4.923139982046588   Change is   -0.000000000299248
 Root      5 :     5.391537691370385   Change is   -0.000000000791498
 Root      6 :     5.916062829551766   Change is   -0.000000002051080
 Iteration    11 Dimension   114 NMult   108 NNew      6
 CISAX will form     6 AO SS matrices at one time.
 NMat=     6 NSing=     6 JSym2X= 0.
 Root      1 has converged.
 Root      2 has converged.
 Root      3 has converged.
 Root      4 has converged.
 Root      5 has converged.
 Root      6 not converged, maximum delta is    0.000001558940280
 Excitation Energies [eV] at current iteration:
 Root      1 :     3.155328305970671   Change is   -0.000000000000182
 Root      2 :     4.039598710061937   Change is   -0.000000000000143
 Root      3 :     4.201784858745490   Change is   -0.000000000000215
 Root      4 :     4.923139982028253   Change is   -0.000000000018335
 Root      5 :     5.391537691315083   Change is   -0.000000000055303
 Root      6 :     5.916062829367954   Change is   -0.000000000183812
 Iteration    12 Dimension   116 NMult   114 NNew      2
 CISAX will form     2 AO SS matrices at one time.
 NMat=     2 NSing=     2 JSym2X= 0.
 Root      1 has converged.
 Root      2 has converged.
 Root      3 has converged.
 Root      4 has converged.
 Root      5 has converged.
 Root      6 has converged.
 Excitation Energies [eV] at current iteration:
 Root      1 :     3.155328305970749   Change is    0.000000000000078
 Root      2 :     4.039598710061978   Change is    0.000000000000041
 Root      3 :     4.201784858745529   Change is    0.000000000000039
 Root      4 :     4.923139982028220   Change is   -0.000000000000033
 Root      5 :     5.391537691315022   Change is   -0.000000000000061
 Root      6 :     5.916062829354837   Change is   -0.000000000013117
 Convergence achieved on expansion vectors.
 ***********************************************************************
 Excited states from <AA,BB:AA,BB> singles matrix:
 ***********************************************************************
 
 1PDM for each excited state written to RWF  633
 Ground to excited state transition densities written to RWF  633
 Ground to excited state transition electric dipole moments (Au):
       state          X           Y           Z        Dip. S.      Osc.
         1         1.7169      0.2137      0.0569      2.9967      0.2317
         2         0.0903     -0.0232      0.0411      0.0104      0.0010
         3        -0.0315     -0.1613      0.0326      0.0281      0.0029
         4         0.2044     -1.9716      0.1044      3.9397      0.4752
         5         0.0713     -1.4544      0.0060      2.1203      0.2801
         6        -0.0275      0.2689      0.0453      0.0751      0.0109
 Ground to excited state transition velocity dipole moments (Au):
       state          X           Y           Z        Dip. S.      Osc.
         1        -0.1913     -0.0204     -0.0071      0.0371      0.2132
         2        -0.0129      0.0038     -0.0030      0.0002      0.0008
         3         0.0046      0.0229     -0.0016      0.0005      0.0024
         4        -0.0403      0.3423     -0.0150      0.1190      0.4386
         5        -0.0141      0.2833     -0.0024      0.0805      0.2708
         6         0.0069     -0.0550     -0.0298      0.0040      0.0121
 Ground to excited state transition magnetic dipole moments (Au):
       state          X           Y           Z
         1        -0.0490     -0.0302      1.4515
         2         0.8024      0.1269      0.2493
         3        -0.1737     -0.9863     -0.2071
         4         0.0616      0.1132     -0.1150
         5         0.1592      0.1045     -0.2653
         6         0.1026      0.0261     -0.0441
 Ground to excited state transition velocity quadrupole moments (Au):
       state          XX          YY          ZZ          XY          XZ          YZ
         1        -0.1887      0.1057      0.0031      0.5294     -0.0489      0.0160
         2         0.0122     -0.0088     -0.0019      0.0386     -0.0114      0.0866
         3        -0.0062      0.0057     -0.0255     -0.0639      0.0663     -0.0098
         4        -1.3999      0.3074      0.0071     -0.1222     -0.0937     -0.0400
         5        -0.3702      0.2568      0.0404     -0.2192     -0.0610      0.0273
         6        -0.2754     -0.2224      0.1863     -0.0238     -0.0407      0.1511
 <0|del|b> * <b|rxdel|0> + <0|del|b> * <b|delr+rdel|0>
 Rotatory Strengths (R) in cgs (10**-40 erg-esu-cm/Gauss)
       state          XX          YY          ZZ    R(velocity)    E-M Angle
         1       -44.3336     -0.8540     42.8082     -0.7931       90.08
         2        -0.8071    -28.7363    -20.8938    -16.8124      155.13
         3       -54.2907     -1.4046    -50.0257    -35.2403      164.38
         4       145.3391     -1.9106      5.0514     49.4933       50.39
         5        85.7658     -4.4987     18.6659     33.3110       72.41
         6        -2.6907      3.8505      0.7594      0.6397       85.31
 1/2[<0|r|b>*<b|rxdel|0> + (<0|rxdel|b>*<b|r|0>)*]
 Rotatory Strengths (R) in cgs (10**-40 erg-esu-cm/Gauss)
       state          XX          YY          ZZ     R(length)
         1        59.4370      4.5691    -58.4270      1.8597
         2       -51.2518      2.0832     -7.2497    -18.8061
         3        -3.8639   -112.5113      4.7785    -37.1989
         4        -8.9052    157.8028      8.4910     52.4629
         5        -8.0314    107.4929      1.1163     33.5259
         6         1.9983     -4.9588      1.4128     -0.5159
  1/2[<0|del|b>*<b|r|0> + (<0|r|b>*<b|del|0>)*] (Au)
       state          X           Y           Z        Dip. S.   Osc.(frdel)
         1        -0.3285     -0.0044     -0.0004      0.3333      0.2222
         2        -0.0012     -0.0001     -0.0001      0.0014      0.0009
         3        -0.0001     -0.0037     -0.0001      0.0039      0.0026
         4        -0.0082     -0.6749     -0.0016      0.6847      0.4565
         5        -0.0010     -0.4121     -0.0000      0.4131      0.2754
         6        -0.0002     -0.0148     -0.0014      0.0163      0.0109

 Excitation energies and oscillator strengths:
 
 Excited State   1:      Singlet-A      3.1553 eV  392.94 nm  f=0.2317  <S**2>=0.000
      52 -> 53         0.70028
 
 Excited State   2:      Singlet-A      4.0396 eV  306.92 nm  f=0.0010  <S**2>=0.000
      50 -> 54        -0.18725
      51 -> 53         0.57408
      51 -> 54         0.31256
 This state for optimization and/or second-order correction.
 Total Energy, E(TD-HF/TD-DFT) =  -633.181507591    
 Copying the excited state density for this state as the 1-particle RhoCI density.
 
 Excited State   3:      Singlet-A      4.2018 eV  295.08 nm  f=0.0029  <S**2>=0.000
      49 -> 53        -0.29687
      49 -> 54         0.18287
      50 -> 53         0.49924
      50 -> 54        -0.22706
      50 -> 58         0.10523
      51 -> 54        -0.20873
 
 Excited State   4:      Singlet-A      4.9231 eV  251.84 nm  f=0.4752  <S**2>=0.000
      49 -> 53         0.12706
      52 -> 54         0.68550
 
 Excited State   5:      Singlet-A      5.3915 eV  229.96 nm  f=0.2801  <S**2>=0.000
      49 -> 53         0.57382
      50 -> 53         0.34359
      51 -> 53         0.13127
      52 -> 54        -0.13702
 
 Excited State   6:      Singlet-A      5.9161 eV  209.57 nm  f=0.0109  <S**2>=0.000
      52 -> 55         0.65922
      52 -> 56        -0.16089
 SavETr:  write IOETrn=   770 NScale= 10 NData=  16 NLR=1 NState=    6 LETran=     118.
 The selected state is a singlet.
 CISGrd: IGrad=1 NXY=2 DFT=T
 CISAX will form     1 AO SS matrices at one time.
 NMat=     1 NSing=     1 JSym2X= 0.
 Leave Link  914 at Sat Jan 24 20:08:36 2026, MaxMem=  2147483648 cpu:            7715.6 elap:             483.7
 (Enter /data/home/wyx/g16/l1002.exe)
 Minotr:  Closed shell wavefunction.
          Computing CIS/TDA/TD derivatives.
          Using Z-Vector for PSCF gradient.
          Skipping F1 and S1 gradient terms here.
 NEqPCM:  Using equilibrium solvation (IEInf=0, Eps=  78.3553, EpsInf=   1.7778)
          Frozen-core window.
          Direct CPHF calculation.
          Differentiating once with respect to electric field.
                with respect to dipole field.
          Electric field/nuclear overlap derivatives assumed to be zero.
          Requested convergence is 1.0D-10 RMS, and 1.0D-09 maximum.
          NewPWx=F KeepS1=T KeepF1=T KeepIn=T MapXYZ=F SortEE=F KeepMc=T.
 Two-electron integral symmetry used by symmetrizing perturbed Fock matrices.
          MDV=    2147483648 using IRadAn=       5.
          Solving linear equations separately, MaxMat=     384.
          There are     1 degrees of freedom in the 1st order CPHF.  IDoFFX=0 NUNeed=     1.
 FoFJK:  IHMeth= 1 ICntrl=       0 DoSepK=T KAlg= 0 I1Cent=           0 FoldK=F
 IRaf=         1 NMat=       1 IRICut=       1 DoRegI=T DoRafI=F ISym2E=-1 IDoP0=0 IntGTp=1.
 FoFCou: FMM=F IPFlag=           0 FMFlag=      100000 FMFlg1=           0
         NFxFlg=           0 DoJE=T BraDBF=F KetDBF=F FulRan=T
         wScrn=  0.000000 ICntrl=       500 IOpCl=  0 I1Cent=           0 NGrid=           0
         NMat0=    1 NMatS0=      1 NMatT0=    0 NMatD0=    1 NMtDS0=    0 NMtDT0=    0
 Petite list used in FoFCou.
 LinEq1:  Iter=  0 NonCon=     1 RMS=7.83D-03 Max=3.27D-01 NDo=     1
 AX will form     1 AO Fock derivatives at one time.
 LinEq1:  Iter=  1 NonCon=     1 RMS=2.12D-03 Max=9.32D-02 NDo=     1
 LinEq1:  Iter=  2 NonCon=     1 RMS=1.50D-03 Max=8.96D-02 NDo=     1
 LinEq1:  Iter=  3 NonCon=     1 RMS=6.07D-04 Max=3.19D-02 NDo=     1
 LinEq1:  Iter=  4 NonCon=     1 RMS=3.22D-04 Max=1.40D-02 NDo=     1
 LinEq1:  Iter=  5 NonCon=     1 RMS=1.66D-04 Max=8.42D-03 NDo=     1
 LinEq1:  Iter=  6 NonCon=     1 RMS=8.33D-05 Max=2.69D-03 NDo=     1
 LinEq1:  Iter=  7 NonCon=     1 RMS=4.77D-05 Max=1.92D-03 NDo=     1
 LinEq1:  Iter=  8 NonCon=     1 RMS=2.12D-05 Max=7.69D-04 NDo=     1
 LinEq1:  Iter=  9 NonCon=     1 RMS=1.57D-05 Max=7.61D-04 NDo=     1
 LinEq1:  Iter= 10 NonCon=     1 RMS=6.09D-06 Max=1.12D-04 NDo=     1
 LinEq1:  Iter= 11 NonCon=     1 RMS=3.64D-06 Max=1.30D-04 NDo=     1
 LinEq1:  Iter= 12 NonCon=     1 RMS=1.16D-06 Max=3.51D-05 NDo=     1
 LinEq1:  Iter= 13 NonCon=     1 RMS=5.41D-07 Max=1.43D-05 NDo=     1
 LinEq1:  Iter= 14 NonCon=     1 RMS=2.01D-07 Max=4.52D-06 NDo=     1
 LinEq1:  Iter= 15 NonCon=     1 RMS=8.85D-08 Max=2.94D-06 NDo=     1
 LinEq1:  Iter= 16 NonCon=     1 RMS=3.51D-08 Max=1.64D-06 NDo=     1
 LinEq1:  Iter= 17 NonCon=     1 RMS=1.42D-08 Max=5.72D-07 NDo=     1
 LinEq1:  Iter= 18 NonCon=     1 RMS=5.96D-09 Max=1.63D-07 NDo=     1
 LinEq1:  Iter= 19 NonCon=     1 RMS=1.70D-09 Max=3.62D-08 NDo=     1
 LinEq1:  Iter= 20 NonCon=     1 RMS=4.57D-10 Max=1.29D-08 NDo=     1
 LinEq1:  Iter= 21 NonCon=     1 RMS=1.62D-10 Max=4.27D-09 NDo=     1
 LinEq1:  Iter= 22 NonCon=     1 RMS=6.86D-11 Max=1.83D-09 NDo=     1
 LinEq1:  Iter= 23 NonCon=     0 RMS=1.97D-11 Max=6.33D-10 NDo=     1
 Linear equations converged to 1.000D-10 1.000D-09 after    23 iterations.
 PCM Corrected Linear-Response - Equilibrium solvation:
 Corrected transition energy               =    3.9413          eV
 Total energy after correction             = -633.185121647     a.u.
 NEqPCM:  Using non-equilibrium solvation (IEInf=1, Eps=  78.3553, EpsInf=   1.7778)
 Inv3:  Mode=1 IEnd=    13356300.
 Iteration    1 A*A^-1 deviation from unit magnitude is 3.77D-15 for    503.
 Iteration    1 A*A^-1 deviation from orthogonality  is 1.95D-15 for   1834    208.
 Iteration    1 A^-1*A deviation from unit magnitude is 3.77D-15 for    503.
 Iteration    1 A^-1*A deviation from orthogonality  is 1.67D-15 for   1547   1152.
 NEqSol: Computing the dynamic-inertial partition of the PCM polarization charges.
 End of Minotr F.D. properties file   721 does not exist.
 End of Minotr F.D. properties file   722 does not exist.
 End of Minotr F.D. properties file   788 does not exist.
 Leave Link 1002 at Sat Jan 24 20:10:37 2026, MaxMem=  2147483648 cpu:            1905.5 elap:             119.9
 (Enter /data/home/wyx/g16/l601.exe)
 Copying SCF densities to generalized density rwf, IOpCl= 0 IROHF=0.

 **********************************************************************

            Population analysis using the CI density.

 **********************************************************************

 Orbital symmetries:
       Occupied  (A) (A) (A) (A) (A) (A) (A) (A) (A) (A) (A) (A)
                 (A) (A) (A) (A) (A) (A) (A) (A) (A) (A) (A) (A)
                 (A) (A) (A) (A) (A) (A) (A) (A) (A) (A) (A) (A)
                 (A) (A) (A) (A) (A) (A) (A) (A) (A) (A) (A) (A)
                 (A) (A) (A) (A)
       Virtual   (A) (A) (A) (A) (A) (A) (A) (A) (A) (A) (A) (A)
                 (A) (A) (A) (A) (A) (A) (A) (A) (A) (A) (A) (A)
                 (A) (A) (A) (A) (A) (A) (A) (A) (A) (A) (A) (A)
                 (A) (A) (A) (A) (A) (A) (A) (A) (A) (A) (A) (A)
                 (A) (A) (A) (A) (A) (A) (A) (A) (A) (A) (A) (A)
                 (A) (A) (A) (A) (A) (A) (A) (A) (A) (A) (A) (A)
                 (A) (A) (A) (A) (A) (A) (A) (A) (A) (A) (A) (A)
                 (A) (A) (A) (A) (A) (A) (A) (A) (A) (A) (A) (A)
                 (A) (A) (A) (A) (A) (A) (A) (A) (A) (A) (A) (A)
                 (A) (A) (A) (A) (A) (A) (A) (A) (A) (A) (A) (A)
                 (A) (A) (A) (A) (A) (A) (A) (A) (A) (A) (A) (A)
                 (A) (A) (A) (A) (A) (A) (A) (A) (A) (A) (A) (A)
                 (A) (A) (A) (A) (A) (A) (A) (A) (A) (A) (A) (A)
                 (A) (A) (A) (A) (A) (A) (A) (A) (A) (A) (A) (A)
                 (A) (A) (A) (A) (A) (A) (A) (A) (A) (A) (A) (A)
                 (A) (A) (A) (A) (A) (A) (A) (A) (A) (A) (A) (A)
                 (A) (A) (A) (A) (A) (A) (A) (A) (A) (A) (A) (A)
                 (A) (A) (A) (A) (A) (A) (A) (A) (A) (A) (A) (A)
                 (A) (A) (A) (A) (A) (A) (A) (A) (A) (A) (A) (A)
                 (A) (A) (A) (A) (A) (A) (A) (A) (A) (A) (A) (A)
                 (A) (A) (A) (A) (A) (A) (A) (A) (A) (A) (A) (A)
                 (A) (A) (A) (A) (A) (A) (A) (A) (A) (A) (A) (A)
                 (A) (A) (A) (A) (A) (A) (A) (A) (A) (A) (A) (A)
                 (A) (A) (A) (A) (A) (A) (A) (A) (A) (A) (A) (A)
                 (A) (A) (A) (A) (A) (A) (A) (A) (A) (A) (A) (A)
                 (A) (A) (A) (A)
 The electronic state is 1-A.
 Alpha  occ. eigenvalues --  -19.17935 -19.17313 -14.44362 -10.33458 -10.33052
 Alpha  occ. eigenvalues --  -10.32387 -10.31882 -10.25686 -10.25156 -10.24784
 Alpha  occ. eigenvalues --  -10.24686 -10.24622 -10.24149 -10.23710  -1.11760
 Alpha  occ. eigenvalues --   -1.11389  -1.08012  -0.91326  -0.90454  -0.83964
 Alpha  occ. eigenvalues --   -0.82594  -0.81607  -0.78579  -0.73913  -0.71673
 Alpha  occ. eigenvalues --   -0.68715  -0.61672  -0.58267  -0.56940  -0.55183
 Alpha  occ. eigenvalues --   -0.54553  -0.54052  -0.52597  -0.51865  -0.50813
 Alpha  occ. eigenvalues --   -0.49968  -0.49564  -0.49222  -0.48488  -0.48141
 Alpha  occ. eigenvalues --   -0.46972  -0.45405  -0.45100  -0.43635  -0.43136
 Alpha  occ. eigenvalues --   -0.42391  -0.42199  -0.41882  -0.32758  -0.32322
 Alpha  occ. eigenvalues --   -0.31401  -0.25669
 Alpha virt. eigenvalues --   -0.02856   0.02481   0.06511   0.08226   0.08749
 Alpha virt. eigenvalues --    0.10000   0.10757   0.11846   0.12681   0.13612
 Alpha virt. eigenvalues --    0.14014   0.15106   0.15732   0.16279   0.16992
 Alpha virt. eigenvalues --    0.17508   0.17969   0.18026   0.18290   0.19212
 Alpha virt. eigenvalues --    0.20078   0.22116   0.22999   0.23457   0.23757
 Alpha virt. eigenvalues --    0.24213   0.24798   0.25745   0.26082   0.26691
 Alpha virt. eigenvalues --    0.27014   0.27758   0.28912   0.29019   0.30213
 Alpha virt. eigenvalues --    0.31755   0.32010   0.32510   0.33601   0.34535
 Alpha virt. eigenvalues --    0.35131   0.36001   0.36646   0.38152   0.38546
 Alpha virt. eigenvalues --    0.39716   0.41013   0.41597   0.42096   0.42615
 Alpha virt. eigenvalues --    0.44151   0.44545   0.45460   0.46207   0.46257
 Alpha virt. eigenvalues --    0.47366   0.47893   0.48040   0.48322   0.49181
 Alpha virt. eigenvalues --    0.49614   0.50458   0.50905   0.51459   0.51636
 Alpha virt. eigenvalues --    0.52720   0.53098   0.53518   0.53907   0.54347
 Alpha virt. eigenvalues --    0.54630   0.55755   0.56091   0.56596   0.58477
 Alpha virt. eigenvalues --    0.58705   0.59378   0.60845   0.61142   0.62897
 Alpha virt. eigenvalues --    0.63590   0.65681   0.66275   0.66405   0.67835
 Alpha virt. eigenvalues --    0.68618   0.69961   0.71375   0.71941   0.72663
 Alpha virt. eigenvalues --    0.73252   0.74123   0.74769   0.75962   0.77765
 Alpha virt. eigenvalues --    0.78576   0.79832   0.82469   0.85431   0.86350
 Alpha virt. eigenvalues --    0.89803   0.93963   1.00602   1.01705   1.23535
 Alpha virt. eigenvalues --    1.25237   1.27228   1.27992   1.29533   1.31172
 Alpha virt. eigenvalues --    1.32611   1.32859   1.34097   1.34932   1.36228
 Alpha virt. eigenvalues --    1.36520   1.37431   1.38512   1.39171   1.39874
 Alpha virt. eigenvalues --    1.40078   1.40736   1.40809   1.41460   1.41831
 Alpha virt. eigenvalues --    1.43496   1.44046   1.44288   1.45155   1.47306
 Alpha virt. eigenvalues --    1.48079   1.49614   1.49736   1.50358   1.51150
 Alpha virt. eigenvalues --    1.51431   1.52485   1.52933   1.54656   1.57899
 Alpha virt. eigenvalues --    1.58460   1.60525   1.60751   1.61354   1.62498
 Alpha virt. eigenvalues --    1.62788   1.63285   1.64322   1.65040   1.65792
 Alpha virt. eigenvalues --    1.66954   1.67287   1.67852   1.68362   1.68499
 Alpha virt. eigenvalues --    1.68988   1.69998   1.70291   1.71625   1.72363
 Alpha virt. eigenvalues --    1.73873   1.75092   1.76180   1.76583   1.78654
 Alpha virt. eigenvalues --    1.80780   1.83211   1.84431   1.86276   1.86686
 Alpha virt. eigenvalues --    1.86916   1.87712   1.88507   1.89274   1.90632
 Alpha virt. eigenvalues --    1.91409   1.94691   1.95386   1.98841   1.99761
 Alpha virt. eigenvalues --    2.01358   2.03914   2.05176   2.06937   2.09678
 Alpha virt. eigenvalues --    2.11043   2.12533   2.15260   2.17386   2.19837
 Alpha virt. eigenvalues --    2.20360   2.21495   2.22040   2.23156   2.26093
 Alpha virt. eigenvalues --    2.27265   2.27838   2.29409   2.31260   2.32196
 Alpha virt. eigenvalues --    2.33701   2.34455   2.36756   2.37836   2.38379
 Alpha virt. eigenvalues --    2.39635   2.40311   2.41596   2.43397   2.45059
 Alpha virt. eigenvalues --    2.46151   2.47796   2.50109   2.50628   2.51594
 Alpha virt. eigenvalues --    2.52427   2.53895   2.54988   2.56920   2.58163
 Alpha virt. eigenvalues --    2.59091   2.60591   2.61567   2.62582   2.63240
 Alpha virt. eigenvalues --    2.64624   2.65918   2.66910   2.67588   2.68816
 Alpha virt. eigenvalues --    2.71844   2.72216   2.73178   2.74076   2.75441
 Alpha virt. eigenvalues --    2.75889   2.76923   2.77409   2.77984   2.79268
 Alpha virt. eigenvalues --    2.80645   2.81846   2.83176   2.83937   2.84337
 Alpha virt. eigenvalues --    2.85515   2.86552   2.88440   2.89724   2.91810
 Alpha virt. eigenvalues --    2.97453   2.99367   3.00803   3.05732   3.10779
 Alpha virt. eigenvalues --    3.12585   3.15447   3.17474   3.18184   3.20873
 Alpha virt. eigenvalues --    3.21591   3.22900   3.24360   3.25839   3.26845
 Alpha virt. eigenvalues --    3.27524   3.29801   3.33302   3.34378   3.36801
 Alpha virt. eigenvalues --    3.37471   3.39060   3.39831   3.40496   3.41940
 Alpha virt. eigenvalues --    3.42578   3.44917   3.45562   3.47198   3.48168
 Alpha virt. eigenvalues --    3.49444   3.50039   3.55390   3.58453   3.59817
 Alpha virt. eigenvalues --    3.60634   3.90646   4.00439   4.33457   4.35964
 Alpha virt. eigenvalues --   21.65655  21.80156  22.08315  22.10975  22.11914
 Alpha virt. eigenvalues --   22.15112  22.15447  22.18727  22.20306  22.24617
 Alpha virt. eigenvalues --   22.29007  31.92375  43.63346  43.65955
          Condensed to atoms (all electrons):
               1          2          3          4          5          6
     1  O    7.980887   0.000000  -0.000216   0.000019   0.018525   0.012964
     2  O    0.000000   7.980470   0.000798   0.000023  -0.102597   0.000201
     3  N   -0.000216   0.000798   6.374859   0.370945  -0.092750   0.384524
     4  H    0.000019   0.000023   0.370945   0.412765   0.017122  -0.046367
     5  C    0.018525  -0.102597  -0.092750   0.017122   6.082833  -0.089009
     6  C    0.012964   0.000201   0.384524  -0.046367  -0.089009   5.587654
     7  C   -0.000456   0.006539   0.327748  -0.039565   0.316296  -0.113486
     8  C   -0.000089   0.315982   0.014582  -0.000993   0.330118   0.018043
     9  C   -0.018741   0.010704   0.001449  -0.000233  -0.435315  -0.072658
    10  H    0.006630   0.000002   0.004282   0.000031  -0.030740  -0.020532
    11  H    0.014183   0.000011  -0.001164   0.000023  -0.110404   0.025489
    12  C   -0.238959  -0.000759  -0.100868   0.015959   0.200609  -0.116661
    13  C    0.703827   0.000029   0.000445   0.000502   0.084919   0.142661
    14  C   -0.000007   0.009967  -0.029868  -0.008700  -0.094019   0.013175
    15  H    0.000000   0.000795   0.004508   0.002241   0.015600   0.003943
    16  H   -0.000000  -0.002384  -0.001774   0.000733  -0.000120  -0.000804
    17  H    0.000000  -0.001104   0.000645   0.000691   0.002809  -0.001293
    18  C    0.000124  -0.048312  -0.000336   0.000016  -0.027511  -0.000485
    19  H   -0.000004   0.000789  -0.000002  -0.000001   0.010159   0.000098
    20  H   -0.000097   0.002587  -0.000021   0.000000  -0.016904  -0.000061
    21  H    0.000031   0.002357   0.000041   0.000000  -0.010259  -0.000525
    22  C   -0.105562   0.000000   0.000007   0.000119   0.004367  -0.017574
    23  H    0.005024  -0.000000   0.000056  -0.000055  -0.000710  -0.027842
    24  H    0.001773  -0.000000  -0.000010  -0.000014  -0.000058   0.010565
    25  H    0.007289  -0.000000   0.000035  -0.000003  -0.000171  -0.001136
    26  C    0.000784   0.000002  -0.030434  -0.007002  -0.003161   0.176670
    27  H   -0.000312   0.000000   0.001665   0.000823  -0.000097  -0.057611
    28  H   -0.000053   0.000000  -0.003507   0.000519   0.000493  -0.034101
    29  H    0.000027  -0.000000   0.001331   0.001571  -0.000328  -0.047034
               7          8          9         10         11         12
     1  O   -0.000456  -0.000089  -0.018741   0.006630   0.014183  -0.238959
     2  O    0.006539   0.315982   0.010704   0.000002   0.000011  -0.000759
     3  N    0.327748   0.014582   0.001449   0.004282  -0.001164  -0.100868
     4  H   -0.039565  -0.000993  -0.000233   0.000031   0.000023   0.015959
     5  C    0.316296   0.330118  -0.435315  -0.030740  -0.110404   0.200609
     6  C   -0.113486   0.018043  -0.072658  -0.020532   0.025489  -0.116661
     7  C    5.506741  -0.120103  -0.072054  -0.009349   0.017542  -0.019065
     8  C   -0.120103   5.368114  -0.021846  -0.006022  -0.012458  -0.019586
     9  C   -0.072054  -0.021846   6.422705   0.392313   0.532850  -0.172636
    10  H   -0.009349  -0.006022   0.392313   0.575513  -0.046149  -0.013178
    11  H    0.017542  -0.012458   0.532850  -0.046149   0.528439  -0.112107
    12  C   -0.019065  -0.019586  -0.172636  -0.013178  -0.112107   7.404220
    13  C    0.009569  -0.003212  -0.287605   0.001709   0.000595  -0.379900
    14  C    0.209293  -0.016421   0.014954  -0.001123   0.000590  -0.005956
    15  H   -0.059242   0.000657  -0.000908   0.000063  -0.000004  -0.000068
    16  H   -0.047963  -0.004986   0.001285  -0.000071   0.000062  -0.000045
    17  H   -0.053986  -0.012974  -0.000303   0.000165  -0.000062   0.000236
    18  C    0.013335   0.190851  -0.027691  -0.011806   0.009198  -0.002018
    19  H   -0.000154  -0.045944   0.002870  -0.000210   0.000598  -0.000913
    20  H   -0.000996  -0.050361  -0.010752   0.001364  -0.001400   0.002774
    21  H    0.000494  -0.035049   0.004907   0.003117  -0.006452   0.002435
    22  C    0.000077  -0.000046   0.002648   0.002445   0.000030  -0.251896
    23  H   -0.000000  -0.000004   0.003557  -0.000162  -0.000029   0.062728
    24  H    0.000024  -0.000001  -0.002568   0.000171  -0.000133  -0.012822
    25  H    0.000007   0.000002   0.000750  -0.000086  -0.000071   0.023400
    26  C    0.002857   0.000415   0.030405  -0.001000   0.000053  -0.088497
    27  H   -0.000916   0.000006   0.001222  -0.000130   0.000015  -0.003829
    28  H    0.000090  -0.000028  -0.001694  -0.000008   0.000045  -0.016417
    29  H    0.003646  -0.000011  -0.001089   0.000106  -0.000013   0.022255
              13         14         15         16         17         18
     1  O    0.703827  -0.000007   0.000000  -0.000000   0.000000   0.000124
     2  O    0.000029   0.009967   0.000795  -0.002384  -0.001104  -0.048312
     3  N    0.000445  -0.029868   0.004508  -0.001774   0.000645  -0.000336
     4  H    0.000502  -0.008700   0.002241   0.000733   0.000691   0.000016
     5  C    0.084919  -0.094019   0.015600  -0.000120   0.002809  -0.027511
     6  C    0.142661   0.013175   0.003943  -0.000804  -0.001293  -0.000485
     7  C    0.009569   0.209293  -0.059242  -0.047963  -0.053986   0.013335
     8  C   -0.003212  -0.016421   0.000657  -0.004986  -0.012974   0.190851
     9  C   -0.287605   0.014954  -0.000908   0.001285  -0.000303  -0.027691
    10  H    0.001709  -0.001123   0.000063  -0.000071   0.000165  -0.011806
    11  H    0.000595   0.000590  -0.000004   0.000062  -0.000062   0.009198
    12  C   -0.379900  -0.005956  -0.000068  -0.000045   0.000236  -0.002018
    13  C    5.499858  -0.000186   0.000013  -0.000019   0.000001   0.000750
    14  C   -0.000186   5.112687   0.401104   0.424147   0.442269   0.002461
    15  H    0.000013   0.401104   0.535303  -0.021705  -0.022861   0.000014
    16  H   -0.000019   0.424147  -0.021705   0.523822  -0.035052  -0.000556
    17  H    0.000001   0.442269  -0.022861  -0.035052   0.518038  -0.000478
    18  C    0.000750   0.002461   0.000014  -0.000556  -0.000478   5.090033
    19  H   -0.000045  -0.000004   0.000003   0.000031   0.000059   0.399006
    20  H    0.000001  -0.000240   0.000001  -0.000039  -0.000006   0.433447
    21  H    0.000109  -0.000270  -0.000002   0.000028   0.000021   0.407083
    22  C    0.289477  -0.000021   0.000002  -0.000000  -0.000000   0.000015
    23  H   -0.093594   0.000002  -0.000000   0.000000   0.000000   0.000002
    24  H   -0.025787  -0.000001   0.000000  -0.000000  -0.000000  -0.000002
    25  H   -0.040436   0.000001  -0.000000   0.000000   0.000000  -0.000000
    26  C   -0.055615   0.001395  -0.000082  -0.000063   0.000051   0.000018
    27  H   -0.004580   0.000085  -0.000013   0.000002  -0.000001   0.000001
    28  H    0.006916  -0.000159   0.000007  -0.000017   0.000003  -0.000001
    29  H   -0.000422  -0.000246   0.000121  -0.000001  -0.000007  -0.000000
              19         20         21         22         23         24
     1  O   -0.000004  -0.000097   0.000031  -0.105562   0.005024   0.001773
     2  O    0.000789   0.002587   0.002357   0.000000  -0.000000  -0.000000
     3  N   -0.000002  -0.000021   0.000041   0.000007   0.000056  -0.000010
     4  H   -0.000001   0.000000   0.000000   0.000119  -0.000055  -0.000014
     5  C    0.010159  -0.016904  -0.010259   0.004367  -0.000710  -0.000058
     6  C    0.000098  -0.000061  -0.000525  -0.017574  -0.027842   0.010565
     7  C   -0.000154  -0.000996   0.000494   0.000077  -0.000000   0.000024
     8  C   -0.045944  -0.050361  -0.035049  -0.000046  -0.000004  -0.000001
     9  C    0.002870  -0.010752   0.004907   0.002648   0.003557  -0.002568
    10  H   -0.000210   0.001364   0.003117   0.002445  -0.000162   0.000171
    11  H    0.000598  -0.001400  -0.006452   0.000030  -0.000029  -0.000133
    12  C   -0.000913   0.002774   0.002435  -0.251896   0.062728  -0.012822
    13  C   -0.000045   0.000001   0.000109   0.289477  -0.093594  -0.025787
    14  C   -0.000004  -0.000240  -0.000270  -0.000021   0.000002  -0.000001
    15  H    0.000003   0.000001  -0.000002   0.000002  -0.000000   0.000000
    16  H    0.000031  -0.000039   0.000028  -0.000000   0.000000  -0.000000
    17  H    0.000059  -0.000006   0.000021  -0.000000   0.000000  -0.000000
    18  C    0.399006   0.433447   0.407083   0.000015   0.000002  -0.000002
    19  H    0.513098  -0.027462  -0.018690  -0.000001   0.000000  -0.000000
    20  H   -0.027462   0.523570  -0.037581   0.000001  -0.000000   0.000000
    21  H   -0.018690  -0.037581   0.513855   0.000012  -0.000000  -0.000000
    22  C   -0.000001   0.000001   0.000012   5.415222   0.397904   0.404979
    23  H    0.000000  -0.000000  -0.000000   0.397904   0.541271  -0.026725
    24  H   -0.000000   0.000000  -0.000000   0.404979  -0.026725   0.497992
    25  H    0.000000  -0.000001   0.000000   0.380561  -0.022027  -0.010698
    26  C    0.000001  -0.000005  -0.000006  -0.032094   0.015038  -0.012117
    27  H    0.000000  -0.000000   0.000000   0.005302  -0.008289  -0.001581
    28  H   -0.000000   0.000001  -0.000000  -0.010527  -0.001999   0.001274
    29  H   -0.000000   0.000000   0.000000   0.002003   0.000656   0.000192
              25         26         27         28         29
     1  O    0.007289   0.000784  -0.000312  -0.000053   0.000027
     2  O   -0.000000   0.000002   0.000000   0.000000  -0.000000
     3  N    0.000035  -0.030434   0.001665  -0.003507   0.001331
     4  H   -0.000003  -0.007002   0.000823   0.000519   0.001571
     5  C   -0.000171  -0.003161  -0.000097   0.000493  -0.000328
     6  C   -0.001136   0.176670  -0.057611  -0.034101  -0.047034
     7  C    0.000007   0.002857  -0.000916   0.000090   0.003646
     8  C    0.000002   0.000415   0.000006  -0.000028  -0.000011
     9  C    0.000750   0.030405   0.001222  -0.001694  -0.001089
    10  H   -0.000086  -0.001000  -0.000130  -0.000008   0.000106
    11  H   -0.000071   0.000053   0.000015   0.000045  -0.000013
    12  C    0.023400  -0.088497  -0.003829  -0.016417   0.022255
    13  C   -0.040436  -0.055615  -0.004580   0.006916  -0.000422
    14  C    0.000001   0.001395   0.000085  -0.000159  -0.000246
    15  H   -0.000000  -0.000082  -0.000013   0.000007   0.000121
    16  H    0.000000  -0.000063   0.000002  -0.000017  -0.000001
    17  H    0.000000   0.000051  -0.000001   0.000003  -0.000007
    18  C   -0.000000   0.000018   0.000001  -0.000001  -0.000000
    19  H    0.000000   0.000001   0.000000  -0.000000  -0.000000
    20  H   -0.000001  -0.000005  -0.000000   0.000001   0.000000
    21  H    0.000000  -0.000006   0.000000  -0.000000   0.000000
    22  C    0.380561  -0.032094   0.005302  -0.010527   0.002003
    23  H   -0.022027   0.015038  -0.008289  -0.001999   0.000656
    24  H   -0.010698  -0.012117  -0.001581   0.001274   0.000192
    25  H    0.505025   0.002056   0.000880   0.000029  -0.000046
    26  C    0.002056   5.264901   0.437266   0.422984   0.387779
    27  H    0.000880   0.437266   0.519652  -0.030713  -0.026702
    28  H    0.000029   0.422984  -0.030713   0.493722  -0.017124
    29  H   -0.000046   0.387779  -0.026702  -0.017124   0.519646
 Mulliken charges:
               1
     1  O   -0.387595
     2  O   -0.176100
     3  N   -0.226968
     4  H    0.278831
     5  C   -0.069698
     6  C    0.271193
     7  C    0.123079
     8  C    0.111363
     9  C   -0.296525
    10  H    0.152653
    11  H    0.160721
    12  C   -0.178435
    13  C    0.150020
    14  C   -0.474908
    15  H    0.140512
    16  H    0.165490
    17  H    0.163139
    18  C   -0.427156
    19  H    0.166717
    20  H    0.182180
    21  H    0.174343
    22  C   -0.487450
    23  H    0.155196
    24  H    0.175545
    25  H    0.154639
    26  C   -0.512599
    27  H    0.167854
    28  H    0.190266
    29  H    0.153691
 Sum of Mulliken charges =  -0.00000
 Mulliken charges with hydrogens summed into heavy atoms:
               1
     1  O   -0.387595
     2  O   -0.176100
     3  N    0.051863
     5  C   -0.069698
     6  C    0.271193
     7  C    0.123079
     8  C    0.111363
     9  C    0.016849
    12  C   -0.178435
    13  C    0.150020
    14  C   -0.005767
    18  C    0.096083
    22  C   -0.002069
    26  C   -0.000787
 Electronic spatial extent (au):  <R**2>=           3185.0510
 Charge=             -0.0000 electrons
 Dipole moment (field-independent basis, Debye):
    X=             -0.1375    Y=              6.4123    Z=              0.2424  Tot=              6.4183
 Quadrupole moment (field-independent basis, Debye-Ang):
   XX=            -86.8217   YY=            -78.4747   ZZ=            -86.2506
   XY=            -16.2866   XZ=             -3.4682   YZ=             -1.7956
 Traceless Quadrupole moment (field-independent basis, Debye-Ang):
   XX=             -2.9727   YY=              5.3743   ZZ=             -2.4016
   XY=            -16.2866   XZ=             -3.4682   YZ=             -1.7956
 Octapole moment (field-independent basis, Debye-Ang**2):
  XXX=            -43.3694  YYY=             57.8145  ZZZ=              1.8473  XYY=             43.6563
  XXY=             19.6501  XXZ=             -1.3012  XZZ=             -1.3018  YZZ=             -1.8437
  YYZ=              3.1694  XYZ=              5.1056
 Hexadecapole moment (field-independent basis, Debye-Ang**3):
 XXXX=          -2818.8644 YYYY=          -1272.8059 ZZZZ=           -153.2731 XXXY=            -91.0302
 XXXZ=            -30.3063 YYYX=           -110.7610 YYYZ=            -19.6736 ZZZX=              3.7450
 ZZZY=              4.2292 XXYY=           -680.9099 XXZZ=           -485.4355 YYZZ=           -245.8122
 XXYZ=            -10.2064 YYXZ=             -9.5264 ZZXY=             -1.2795
 N-N= 9.004698297043D+02 E-N=-3.277200649619D+03  KE= 6.308228134522D+02
 No NMR shielding tensors so no spin-rotation constants.
 Leave Link  601 at Sat Jan 24 20:10:38 2026, MaxMem=  2147483648 cpu:               1.8 elap:               0.1
 (Enter /data/home/wyx/g16/l9999.exe)
 Electronic transition elements 
                 1             2             3             4             5 
      1  -0.633214D+03 -0.633182D+03 -0.633176D+03 -0.633149D+03 -0.633132D+03
      2  -0.164449D+01 -0.676422D-01  0.887466D-01  0.483248D+00  0.415883D+00
      3  -0.380921D+00 -0.528040D-01 -0.141412D+00 -0.192513D+01 -0.139257D+01
      4  -0.383665D+00 -0.549987D-01 -0.142169D-01  0.781365D-02  0.899106D-01
      5   0.181996D+00  0.100424D-01 -0.121168D-01 -0.788418D-01 -0.810652D-01
      6   0.456631D-01  0.793241D-02  0.200389D-01  0.335867D+00  0.271377D+00
      7   0.432931D-01  0.498543D-02 -0.991022D-03 -0.354619D-02 -0.162750D-01
      8   0.340011D+00 -0.733804D+00  0.445621D+00 -0.116829D+00 -0.233565D+00
      9  -0.249015D-01 -0.154617D+00 -0.867290D+00  0.866603D-01  0.468039D-01
     10  -0.141209D+01 -0.399650D+00  0.308363D+00  0.930680D-01  0.223409D+00
     11   0.189480D+00  0.257546D-01 -0.673695D-01 -0.119473D+01 -0.401086D+00
     12  -0.265955D+00 -0.324934D-01  0.455815D-01  0.189552D+00  0.323773D+00
     13  -0.335171D-02  0.819204D-02 -0.418907D-02 -0.801861D-01  0.439407D-02
     14  -0.486597D+00 -0.573428D-02  0.390026D-01 -0.442902D+00 -0.210959D-01
     15   0.110222D-02  0.240760D-01  0.504033D-01 -0.338143D+00 -0.136443D+00
     16  -0.127129D+00 -0.878578D-01  0.395161D-01 -0.842364D-01 -0.540452D-01
                 6 
      1  -0.633113D+03
      2  -0.545312D-01
      3   0.261935D+00
      4  -0.595622D-01
      5   0.592121D-02
      6  -0.538480D-01
      7   0.320444D-01
      8  -0.111968D+00
      9  -0.981266D-02
     10   0.226129D-01
     11  -0.271209D+00
     12  -0.216153D+00
     13   0.175824D+00
     14   0.314100D-01
     15  -0.792360D-01
     16  -0.149112D+00
 1\1\GINC-CN012\SP\RCAM-B3LYP TD-FC\TZVP\C11H15N1O2\WYX\24-Jan-2026\0\\
 #p CAM-B3LYP TZVP em=gd3bj td(nstates=6,root=2) scrf=(Solvent=Water,Co
 rrectedLR,NonEquilibrium=Save) Geom=Check Guess=Read\\Title Card Requi
 red\\0,1\O,0,2.731446,-1.559025,0.805109\O,0,-3.266936,-1.651616,-1.00
 4444\N,0,-0.696354,1.51519,0.032481\H,0,-1.00471,2.474313,-0.030318\C,
 0,-1.250647,-0.760918,-0.163145\C,0,0.642372,1.317886,0.242356\C,0,-1.
 623792,0.560097,-0.258912\C,0,-2.158305,-1.842646,-0.505858\C,0,0.1088
 73,-1.092933,0.355795\H,0,0.033753,-1.473973,1.386387\H,0,0.531527,-1.
 938118,-0.190234\C,0,1.099331,0.025917,0.336047\C,0,2.485909,-0.393094
 ,0.485694\C,0,-2.959338,1.093494,-0.642863\H,0,-3.025359,2.161913,-0.4
 51497\H,0,-3.157484,0.926836,-1.697558\H,0,-3.753387,0.593636,-0.10129
 8\C,0,-1.712386,-3.25696,-0.251985\H,0,-2.563792,-3.924326,-0.318211\H
 ,0,-0.984234,-3.566158,-0.999507\H,0,-1.24039,-3.37978,0.717833\C,0,3.
 64832,0.531317,0.220912\H,0,3.458863,1.239628,-0.581003\H,0,3.899446,1
 .094936,1.121511\H,0,4.508248,-0.083327,-0.036219\C,0,1.415987,2.59013
 ,0.359633\H,0,2.199924,2.520853,1.103926\H,0,1.874287,2.869886,-0.5884
 94\H,0,0.758828,3.406843,0.653862\\Version=ES64L-G16RevA.03\State=1-A\
 HF=-633.3299601\RMSD=2.640e-09\Dipole=-0.7649763,2.39105,-0.2722493\Qu
 adrupole=-7.7966285,11.0069278,-3.2102993,7.1320889,-4.1459341,1.70058
 46\PG=C01 [X(C11H15N1O2)]\\@


 IN SO FAR AS QUANTUM MECHANICS IS CORRECT, CHEMICAL 
 QUESTIONS ARE PROBLEMS IN APPLIED MATHEMATICS.

                    -- EYRING, WALTER, & KIMBALL, 1944
 Job cpu time:       0 days  2 hours 41 minutes 58.8 seconds.
 Elapsed time:       0 days  0 hours 10 minutes 10.2 seconds.
 File lengths (MBytes):  RWF=    735 Int=      0 D2E=      0 Chk=     67 Scr=      1
 Normal termination of Gaussian 16 at Sat Jan 24 20:10:39 2026.
