 Entering Gaussian System, Link 0=g16
 Input=no-s0-freq.gjf
 Output=no-s0-freq.log
 Initial command:
 /data/home/wyx/g16/l1.exe "/scr/tmp/wyx/16269/Gau-203139.inp" -scrdir="/scr/tmp/wyx/16269/"
 Entering Link 1 = /data/home/wyx/g16/l1.exe PID=    203140.
  
 Copyright (c) 1988,1990,1992,1993,1995,1998,2003,2009,2016,
            Gaussian, Inc.  All Rights Reserved.
  
 This is part of the Gaussian(R) 16 program.  It is based on
 the Gaussian(R) 09 system (copyright 2009, Gaussian, Inc.),
 the Gaussian(R) 03 system (copyright 2003, Gaussian, Inc.),
 the Gaussian(R) 98 system (copyright 1998, Gaussian, Inc.),
 the Gaussian(R) 94 system (copyright 1995, Gaussian, Inc.),
 the Gaussian 92(TM) system (copyright 1992, Gaussian, Inc.),
 the Gaussian 90(TM) system (copyright 1990, Gaussian, Inc.),
 the Gaussian 88(TM) system (copyright 1988, Gaussian, Inc.),
 the Gaussian 86(TM) system (copyright 1986, Carnegie Mellon
 University), and the Gaussian 82(TM) system (copyright 1983,
 Carnegie Mellon University). Gaussian is a federally registered
 trademark of Gaussian, Inc.
  
 This software contains proprietary and confidential information,
 including trade secrets, belonging to Gaussian, Inc.
  
 This software is provided under written license and may be
 used, copied, transmitted, or stored only in accord with that
 written license.
  
 The following legend is applicable only to US Government
 contracts under FAR:
  
                    RESTRICTED RIGHTS LEGEND
  
 Use, reproduction and disclosure by the US Government is
 subject to restrictions as set forth in subparagraphs (a)
 and (c) of the Commercial Computer Software - Restricted
 Rights clause in FAR 52.227-19.
  
 Gaussian, Inc.
 340 Quinnipiac St., Bldg. 40, Wallingford CT 06492
  
  
 ---------------------------------------------------------------
 Warning -- This program may not be used in any manner that
 competes with the business of Gaussian, Inc. or will provide
 assistance to any competitor of Gaussian, Inc.  The licensee
 of this program is prohibited from giving any competitor of
 Gaussian, Inc. access to this program.  By using this program,
 the user acknowledges that Gaussian, Inc. is engaged in the
 business of creating and licensing software in the field of
 computational chemistry and represents and warrants to the
 licensee that it is not a competitor of Gaussian, Inc. and that
 it will not use this program in any manner prohibited above.
 ---------------------------------------------------------------
  

 Cite this work as:
 Gaussian 16, Revision A.03,
 M. J. Frisch, G. W. Trucks, H. B. Schlegel, G. E. Scuseria, 
 M. A. Robb, J. R. Cheeseman, G. Scalmani, V. Barone, 
 G. A. Petersson, H. Nakatsuji, X. Li, M. Caricato, A. V. Marenich, 
 J. Bloino, B. G. Janesko, R. Gomperts, B. Mennucci, H. P. Hratchian, 
 J. V. Ortiz, A. F. Izmaylov, J. L. Sonnenberg, D. Williams-Young, 
 F. Ding, F. Lipparini, F. Egidi, J. Goings, B. Peng, A. Petrone, 
 T. Henderson, D. Ranasinghe, V. G. Zakrzewski, J. Gao, N. Rega, 
 G. Zheng, W. Liang, M. Hada, M. Ehara, K. Toyota, R. Fukuda, 
 J. Hasegawa, M. Ishida, T. Nakajima, Y. Honda, O. Kitao, H. Nakai, 
 T. Vreven, K. Throssell, J. A. Montgomery, Jr., J. E. Peralta, 
 F. Ogliaro, M. J. Bearpark, J. J. Heyd, E. N. Brothers, K. N. Kudin, 
 V. N. Staroverov, T. A. Keith, R. Kobayashi, J. Normand, 
 K. Raghavachari, A. P. Rendell, J. C. Burant, S. S. Iyengar, 
 J. Tomasi, M. Cossi, J. M. Millam, M. Klene, C. Adamo, R. Cammi, 
 J. W. Ochterski, R. L. Martin, K. Morokuma, O. Farkas, 
 J. B. Foresman, and D. J. Fox, Gaussian, Inc., Wallingford CT, 2016.
 
 ******************************************
 Gaussian 16:  ES64L-G16RevA.03 25-Dec-2016
                28-Jun-2026 
 ******************************************
 %nprocshared=16
 Will use up to   16 processors via shared memory.
 %mem=16GB
 %chk=no-s0-freq.chk
 -------------------------------------------------
 #p freq=intmodes cam-b3lyp tzvp geom=connectivity
 -------------------------------------------------
 1/10=4,18=20,30=1,38=1,57=2/1,3;
 2/9=110,12=2,17=6,18=5,40=1/2;
 3/5=19,7=101,11=2,25=1,30=1,71=2,74=-40,140=1/1,2,3;
 4//1;
 5/5=2,38=5,98=1/2;
 8/6=4,10=90,11=11/1;
 11/6=1,8=1,9=11,15=111,16=1/1,2,10;
 10/6=1/2;
 6/7=2,8=2,9=2,10=2,28=1/1;
 7/8=21,10=1,25=1/1,2,3,16;
 1/10=4,18=20,30=1/3;
 99//99;
 Leave Link    1 at Sun Jun 28 19:35:51 2026, MaxMem=  2147483648 cpu:               0.4 elap:               0.1
 (Enter /data/home/wyx/g16/l101.exe)
 -------------------
 Title Card Required
 -------------------
 Symbolic Z-matrix:
 Charge =  0 Multiplicity = 1
 O                    -0.58562   2.14215  -0.09184 
 O                    -1.2999    7.80558   2.57021 
 N                    -4.01624   4.6942    1.76249 
 H                    -4.99537   4.82653   1.94282 
 C                    -1.85283   5.63189   1.80399 
 C                    -3.61802   3.49098   1.2223 
 C                    -3.17815   5.7611    2.01352 
 C                    -0.93128   6.7378    2.11125 
 C                    -1.27935   4.34457   1.25727 
 H                    -0.69264   4.53517   0.35818 
 H                    -0.55585   3.91168   1.95655 
 C                    -2.31659   3.29182   0.93197 
 C                    -1.74869   2.10694   0.27011 
 C                    -3.90113   6.97623   2.49373 
 H                    -4.97804   6.85045   2.37508 
 H                    -3.68608   7.17866   3.53977 
 H                    -3.57658   7.85414   1.94648 
 C                     0.53827   6.50303   1.86036 
 H                     1.07875   7.41475   2.08995 
 H                     0.91106   5.6922    2.48897 
 H                     0.72806   6.21415   0.82812 
 C                    -2.5282    0.83265   0.03808 
 H                    -2.90328   0.41252   0.97179 
 H                    -3.37542   0.98028  -0.62928 
 H                    -1.84012   0.12759  -0.41665 
 C                    -4.76634   2.5429    1.03546 
 H                    -4.92161   2.29041  -0.00947 
 H                    -4.5979    1.62084   1.58158 
 H                    -5.69105   2.98166   1.4082 
 
 ITRead=  0  0  0  0  0  0  0  0  0  0  0  0  0  0  0  0  0  0  0  0
 ITRead=  0  0  0  0  0  0  0  0  0
 MicOpt= -1 -1 -1 -1 -1 -1 -1 -1 -1 -1 -1 -1 -1 -1 -1 -1 -1 -1 -1 -1
 MicOpt= -1 -1 -1 -1 -1 -1 -1 -1 -1
 NAtoms=     29 NQM=       29 NQMF=       0 NMMI=      0 NMMIF=      0
                NMic=       0 NMicF=      0.
                    Isotopes and Nuclear Properties:
 (Nuclear quadrupole moments (NQMom) in fm**2, nuclear magnetic moments (NMagM)
  in nuclear magnetons)

  Atom         1           2           3           4           5           6           7           8           9          10
 IAtWgt=          16          16          14           1          12          12          12          12          12           1
 AtmWgt=  15.9949146  15.9949146  14.0030740   1.0078250  12.0000000  12.0000000  12.0000000  12.0000000  12.0000000   1.0078250
 NucSpn=           0           0           2           1           0           0           0           0           0           1
 AtZEff=  -0.0000000  -0.0000000  -0.0000000  -0.0000000  -0.0000000  -0.0000000  -0.0000000  -0.0000000  -0.0000000  -0.0000000
 NQMom=    0.0000000   0.0000000   2.0440000   0.0000000   0.0000000   0.0000000   0.0000000   0.0000000   0.0000000   0.0000000
 NMagM=    0.0000000   0.0000000   0.4037610   2.7928460   0.0000000   0.0000000   0.0000000   0.0000000   0.0000000   2.7928460
 AtZNuc=   8.0000000   8.0000000   7.0000000   1.0000000   6.0000000   6.0000000   6.0000000   6.0000000   6.0000000   1.0000000

  Atom        11          12          13          14          15          16          17          18          19          20
 IAtWgt=           1          12          12          12           1           1           1          12           1           1
 AtmWgt=   1.0078250  12.0000000  12.0000000  12.0000000   1.0078250   1.0078250   1.0078250  12.0000000   1.0078250   1.0078250
 NucSpn=           1           0           0           0           1           1           1           0           1           1
 AtZEff=  -0.0000000  -0.0000000  -0.0000000  -0.0000000  -0.0000000  -0.0000000  -0.0000000  -0.0000000  -0.0000000  -0.0000000
 NQMom=    0.0000000   0.0000000   0.0000000   0.0000000   0.0000000   0.0000000   0.0000000   0.0000000   0.0000000   0.0000000
 NMagM=    2.7928460   0.0000000   0.0000000   0.0000000   2.7928460   2.7928460   2.7928460   0.0000000   2.7928460   2.7928460
 AtZNuc=   1.0000000   6.0000000   6.0000000   6.0000000   1.0000000   1.0000000   1.0000000   6.0000000   1.0000000   1.0000000

  Atom        21          22          23          24          25          26          27          28          29
 IAtWgt=           1          12           1           1           1          12           1           1           1
 AtmWgt=   1.0078250  12.0000000   1.0078250   1.0078250   1.0078250  12.0000000   1.0078250   1.0078250   1.0078250
 NucSpn=           1           0           1           1           1           0           1           1           1
 AtZEff=  -0.0000000  -0.0000000  -0.0000000  -0.0000000  -0.0000000  -0.0000000  -0.0000000  -0.0000000  -0.0000000
 NQMom=    0.0000000   0.0000000   0.0000000   0.0000000   0.0000000   0.0000000   0.0000000   0.0000000   0.0000000
 NMagM=    2.7928460   0.0000000   2.7928460   2.7928460   2.7928460   0.0000000   2.7928460   2.7928460   2.7928460
 AtZNuc=   1.0000000   6.0000000   1.0000000   1.0000000   1.0000000   6.0000000   1.0000000   1.0000000   1.0000000
 Leave Link  101 at Sun Jun 28 19:35:52 2026, MaxMem=  2147483648 cpu:               5.1 elap:               0.3
 (Enter /data/home/wyx/g16/l103.exe)

 GradGradGradGradGradGradGradGradGradGradGradGradGradGradGradGradGradGrad
 Berny optimization.
 Initialization pass.
                           ----------------------------
                           !    Initial Parameters    !
                           ! (Angstroms and Degrees)  !
 --------------------------                            --------------------------
 ! Name  Definition              Value          Derivative Info.                !
 --------------------------------------------------------------------------------
 ! R1    R(1,13)                 1.2186         calculate D2E/DX2 analytically  !
 ! R2    R(2,8)                  1.2193         calculate D2E/DX2 analytically  !
 ! R3    R(3,4)                  1.0044         calculate D2E/DX2 analytically  !
 ! R4    R(3,6)                  1.3777         calculate D2E/DX2 analytically  !
 ! R5    R(3,7)                  1.3797         calculate D2E/DX2 analytically  !
 ! R6    R(5,7)                  1.348          calculate D2E/DX2 analytically  !
 ! R7    R(5,8)                  1.472          calculate D2E/DX2 analytically  !
 ! R8    R(5,9)                  1.5116         calculate D2E/DX2 analytically  !
 ! R9    R(6,12)                 1.3482         calculate D2E/DX2 analytically  !
 ! R10   R(6,26)                 1.5008         calculate D2E/DX2 analytically  !
 ! R11   R(7,14)                 1.4933         calculate D2E/DX2 analytically  !
 ! R12   R(8,18)                 1.5092         calculate D2E/DX2 analytically  !
 ! R13   R(9,10)                 1.0904         calculate D2E/DX2 analytically  !
 ! R14   R(9,11)                 1.0954         calculate D2E/DX2 analytically  !
 ! R15   R(9,12)                 1.5133         calculate D2E/DX2 analytically  !
 ! R16   R(12,13)                1.4712         calculate D2E/DX2 analytically  !
 ! R17   R(13,22)                1.5117         calculate D2E/DX2 analytically  !
 ! R18   R(14,15)                1.0907         calculate D2E/DX2 analytically  !
 ! R19   R(14,16)                1.0869         calculate D2E/DX2 analytically  !
 ! R20   R(14,17)                1.0842         calculate D2E/DX2 analytically  !
 ! R21   R(18,19)                1.0845         calculate D2E/DX2 analytically  !
 ! R22   R(18,20)                1.0916         calculate D2E/DX2 analytically  !
 ! R23   R(18,21)                1.0886         calculate D2E/DX2 analytically  !
 ! R24   R(22,23)                1.0904         calculate D2E/DX2 analytically  !
 ! R25   R(22,24)                1.0885         calculate D2E/DX2 analytically  !
 ! R26   R(22,25)                1.0851         calculate D2E/DX2 analytically  !
 ! R27   R(26,27)                1.0862         calculate D2E/DX2 analytically  !
 ! R28   R(26,28)                1.0848         calculate D2E/DX2 analytically  !
 ! R29   R(26,29)                1.0893         calculate D2E/DX2 analytically  !
 ! A1    A(4,3,6)              117.8556         calculate D2E/DX2 analytically  !
 ! A2    A(4,3,7)              117.2341         calculate D2E/DX2 analytically  !
 ! A3    A(6,3,7)              124.8258         calculate D2E/DX2 analytically  !
 ! A4    A(7,5,8)              120.7357         calculate D2E/DX2 analytically  !
 ! A5    A(7,5,9)              120.7207         calculate D2E/DX2 analytically  !
 ! A6    A(8,5,9)              118.5423         calculate D2E/DX2 analytically  !
 ! A7    A(3,6,12)             119.5024         calculate D2E/DX2 analytically  !
 ! A8    A(3,6,26)             112.2939         calculate D2E/DX2 analytically  !
 ! A9    A(12,6,26)            128.2037         calculate D2E/DX2 analytically  !
 ! A10   A(3,7,5)              119.6574         calculate D2E/DX2 analytically  !
 ! A11   A(3,7,14)             113.1818         calculate D2E/DX2 analytically  !
 ! A12   A(5,7,14)             127.1572         calculate D2E/DX2 analytically  !
 ! A13   A(2,8,5)              123.1783         calculate D2E/DX2 analytically  !
 ! A14   A(2,8,18)             119.5504         calculate D2E/DX2 analytically  !
 ! A15   A(5,8,18)             117.2614         calculate D2E/DX2 analytically  !
 ! A16   A(5,9,10)             110.7022         calculate D2E/DX2 analytically  !
 ! A17   A(5,9,11)             110.8698         calculate D2E/DX2 analytically  !
 ! A18   A(5,9,12)             114.215          calculate D2E/DX2 analytically  !
 ! A19   A(10,9,11)            103.8916         calculate D2E/DX2 analytically  !
 ! A20   A(10,9,12)            108.2502         calculate D2E/DX2 analytically  !
 ! A21   A(11,9,12)            108.3624         calculate D2E/DX2 analytically  !
 ! A22   A(6,12,9)             120.8363         calculate D2E/DX2 analytically  !
 ! A23   A(6,12,13)            126.048          calculate D2E/DX2 analytically  !
 ! A24   A(9,12,13)            113.1041         calculate D2E/DX2 analytically  !
 ! A25   A(1,13,12)            118.6051         calculate D2E/DX2 analytically  !
 ! A26   A(1,13,22)            118.0938         calculate D2E/DX2 analytically  !
 ! A27   A(12,13,22)           123.2904         calculate D2E/DX2 analytically  !
 ! A28   A(7,14,15)            110.4391         calculate D2E/DX2 analytically  !
 ! A29   A(7,14,16)            111.4232         calculate D2E/DX2 analytically  !
 ! A30   A(7,14,17)            110.5885         calculate D2E/DX2 analytically  !
 ! A31   A(15,14,16)           108.7545         calculate D2E/DX2 analytically  !
 ! A32   A(15,14,17)           109.5127         calculate D2E/DX2 analytically  !
 ! A33   A(16,14,17)           106.0051         calculate D2E/DX2 analytically  !
 ! A34   A(8,18,19)            108.6216         calculate D2E/DX2 analytically  !
 ! A35   A(8,18,20)            110.6314         calculate D2E/DX2 analytically  !
 ! A36   A(8,18,21)            111.6346         calculate D2E/DX2 analytically  !
 ! A37   A(19,18,20)           109.4125         calculate D2E/DX2 analytically  !
 ! A38   A(19,18,21)           109.6922         calculate D2E/DX2 analytically  !
 ! A39   A(20,18,21)           106.8222         calculate D2E/DX2 analytically  !
 ! A40   A(13,22,23)           111.7603         calculate D2E/DX2 analytically  !
 ! A41   A(13,22,24)           112.4021         calculate D2E/DX2 analytically  !
 ! A42   A(13,22,25)           106.5622         calculate D2E/DX2 analytically  !
 ! A43   A(23,22,24)           108.0291         calculate D2E/DX2 analytically  !
 ! A44   A(23,22,25)           109.0647         calculate D2E/DX2 analytically  !
 ! A45   A(24,22,25)           108.9506         calculate D2E/DX2 analytically  !
 ! A46   A(6,26,27)            112.0857         calculate D2E/DX2 analytically  !
 ! A47   A(6,26,28)            110.8217         calculate D2E/DX2 analytically  !
 ! A48   A(6,26,29)            110.6394         calculate D2E/DX2 analytically  !
 ! A49   A(27,26,28)           107.9945         calculate D2E/DX2 analytically  !
 ! A50   A(27,26,29)           107.5468         calculate D2E/DX2 analytically  !
 ! A51   A(28,26,29)           107.5727         calculate D2E/DX2 analytically  !
 ! D1    D(4,3,6,12)           178.149          calculate D2E/DX2 analytically  !
 ! D2    D(4,3,6,26)            -1.8904         calculate D2E/DX2 analytically  !
 ! D3    D(7,3,6,12)             1.5938         calculate D2E/DX2 analytically  !
 ! D4    D(7,3,6,26)          -178.4456         calculate D2E/DX2 analytically  !
 ! D5    D(4,3,7,5)            179.2013         calculate D2E/DX2 analytically  !
 ! D6    D(4,3,7,14)            -1.4386         calculate D2E/DX2 analytically  !
 ! D7    D(6,3,7,5)             -4.2241         calculate D2E/DX2 analytically  !
 ! D8    D(6,3,7,14)           175.136          calculate D2E/DX2 analytically  !
 ! D9    D(8,5,7,3)           -177.7094         calculate D2E/DX2 analytically  !
 ! D10   D(8,5,7,14)             3.0287         calculate D2E/DX2 analytically  !
 ! D11   D(9,5,7,3)              1.8648         calculate D2E/DX2 analytically  !
 ! D12   D(9,5,7,14)          -177.3971         calculate D2E/DX2 analytically  !
 ! D13   D(7,5,8,2)              0.5129         calculate D2E/DX2 analytically  !
 ! D14   D(7,5,8,18)           179.3613         calculate D2E/DX2 analytically  !
 ! D15   D(9,5,8,2)           -179.0704         calculate D2E/DX2 analytically  !
 ! D16   D(9,5,8,18)            -0.222          calculate D2E/DX2 analytically  !
 ! D17   D(7,5,9,10)           124.8786         calculate D2E/DX2 analytically  !
 ! D18   D(7,5,9,11)          -120.365          calculate D2E/DX2 analytically  !
 ! D19   D(7,5,9,12)             2.396          calculate D2E/DX2 analytically  !
 ! D20   D(8,5,9,10)           -55.5381         calculate D2E/DX2 analytically  !
 ! D21   D(8,5,9,11)            59.2183         calculate D2E/DX2 analytically  !
 ! D22   D(8,5,9,12)          -178.0206         calculate D2E/DX2 analytically  !
 ! D23   D(3,6,12,9)             3.1642         calculate D2E/DX2 analytically  !
 ! D24   D(3,6,12,13)         -175.5074         calculate D2E/DX2 analytically  !
 ! D25   D(26,6,12,9)         -176.7894         calculate D2E/DX2 analytically  !
 ! D26   D(26,6,12,13)           4.5389         calculate D2E/DX2 analytically  !
 ! D27   D(3,6,26,27)          117.5293         calculate D2E/DX2 analytically  !
 ! D28   D(3,6,26,28)         -121.7406         calculate D2E/DX2 analytically  !
 ! D29   D(3,6,26,29)           -2.5045         calculate D2E/DX2 analytically  !
 ! D30   D(12,6,26,27)         -62.5144         calculate D2E/DX2 analytically  !
 ! D31   D(12,6,26,28)          58.2158         calculate D2E/DX2 analytically  !
 ! D32   D(12,6,26,29)         177.4518         calculate D2E/DX2 analytically  !
 ! D33   D(3,7,14,15)          -10.7837         calculate D2E/DX2 analytically  !
 ! D34   D(3,7,14,16)          110.2007         calculate D2E/DX2 analytically  !
 ! D35   D(3,7,14,17)         -132.1677         calculate D2E/DX2 analytically  !
 ! D36   D(5,7,14,15)          168.5186         calculate D2E/DX2 analytically  !
 ! D37   D(5,7,14,16)          -70.497          calculate D2E/DX2 analytically  !
 ! D38   D(5,7,14,17)           47.1346         calculate D2E/DX2 analytically  !
 ! D39   D(2,8,18,19)           -3.6129         calculate D2E/DX2 analytically  !
 ! D40   D(2,8,18,20)          116.4949         calculate D2E/DX2 analytically  !
 ! D41   D(2,8,18,21)         -124.689          calculate D2E/DX2 analytically  !
 ! D42   D(5,8,18,19)          177.4951         calculate D2E/DX2 analytically  !
 ! D43   D(5,8,18,20)          -62.3971         calculate D2E/DX2 analytically  !
 ! D44   D(5,8,18,21)           56.419          calculate D2E/DX2 analytically  !
 ! D45   D(5,9,12,6)            -4.9595         calculate D2E/DX2 analytically  !
 ! D46   D(5,9,12,13)          173.8728         calculate D2E/DX2 analytically  !
 ! D47   D(10,9,12,6)         -128.7701         calculate D2E/DX2 analytically  !
 ! D48   D(10,9,12,13)          50.0623         calculate D2E/DX2 analytically  !
 ! D49   D(11,9,12,6)          119.155          calculate D2E/DX2 analytically  !
 ! D50   D(11,9,12,13)         -62.0126         calculate D2E/DX2 analytically  !
 ! D51   D(6,12,13,1)          170.102          calculate D2E/DX2 analytically  !
 ! D52   D(6,12,13,22)         -11.1119         calculate D2E/DX2 analytically  !
 ! D53   D(9,12,13,1)           -8.658          calculate D2E/DX2 analytically  !
 ! D54   D(9,12,13,22)         170.1282         calculate D2E/DX2 analytically  !
 ! D55   D(1,13,22,23)         120.773          calculate D2E/DX2 analytically  !
 ! D56   D(1,13,22,24)        -117.5594         calculate D2E/DX2 analytically  !
 ! D57   D(1,13,22,25)           1.7192         calculate D2E/DX2 analytically  !
 ! D58   D(12,13,22,23)        -58.019          calculate D2E/DX2 analytically  !
 ! D59   D(12,13,22,24)         63.6486         calculate D2E/DX2 analytically  !
 ! D60   D(12,13,22,25)       -177.0728         calculate D2E/DX2 analytically  !
 --------------------------------------------------------------------------------
 Trust Radius=3.00D-01 FncErr=1.00D-07 GrdErr=1.00D-07 EigMax=2.50D+02 EigMin=1.00D-04
 Number of steps in this run=      2 maximum allowed number of steps=      2.
 GradGradGradGradGradGradGradGradGradGradGradGradGradGradGradGradGradGrad

 Leave Link  103 at Sun Jun 28 19:35:52 2026, MaxMem=  2147483648 cpu:               0.2 elap:               0.0
 (Enter /data/home/wyx/g16/l202.exe)
                          Input orientation:                          
 ---------------------------------------------------------------------
 Center     Atomic      Atomic             Coordinates (Angstroms)
 Number     Number       Type             X           Y           Z
 ---------------------------------------------------------------------
      1          8           0       -0.585624    2.142152   -0.091840
      2          8           0       -1.299899    7.805576    2.570213
      3          7           0       -4.016237    4.694204    1.762494
      4          1           0       -4.995370    4.826532    1.942816
      5          6           0       -1.852829    5.631893    1.803991
      6          6           0       -3.618017    3.490983    1.222303
      7          6           0       -3.178149    5.761102    2.013515
      8          6           0       -0.931278    6.737800    2.111248
      9          6           0       -1.279347    4.344575    1.257266
     10          1           0       -0.692644    4.535168    0.358179
     11          1           0       -0.555854    3.911684    1.956550
     12          6           0       -2.316592    3.291820    0.931970
     13          6           0       -1.748689    2.106944    0.270110
     14          6           0       -3.901126    6.976229    2.493730
     15          1           0       -4.978042    6.850449    2.375075
     16          1           0       -3.686082    7.178664    3.539774
     17          1           0       -3.576579    7.854144    1.946479
     18          6           0        0.538274    6.503033    1.860358
     19          1           0        1.078749    7.414755    2.089947
     20          1           0        0.911060    5.692198    2.488965
     21          1           0        0.728059    6.214153    0.828120
     22          6           0       -2.528205    0.832648    0.038082
     23          1           0       -2.903284    0.412517    0.971790
     24          1           0       -3.375423    0.980278   -0.629276
     25          1           0       -1.840116    0.127595   -0.416653
     26          6           0       -4.766344    2.542899    1.035462
     27          1           0       -4.921607    2.290408   -0.009469
     28          1           0       -4.597900    1.620836    1.581584
     29          1           0       -5.691050    2.981657    1.408200
 ---------------------------------------------------------------------
                    Distance matrix (angstroms):
                    1          2          3          4          5
     1  O    0.000000
     2  O    6.298499   0.000000
     3  N    4.660540   4.208508   0.000000
     4  H    5.549016   4.787989   1.004355   0.000000
     5  C    4.168726   2.370174   2.358244   3.247067   0.000000
     6  C    3.569555   5.079985   1.377725   2.049373   2.835092
     7  C    4.924480   2.831538   1.379737   2.044679   1.347987
     8  C    5.108136   1.219293   3.716838   4.494236   1.471969
     9  C    2.674323   3.701727   2.805007   3.809342   1.511614
    10  H    2.437313   3.994674   3.611601   4.594499   2.153882
    11  H    2.707034   4.011556   3.553061   4.532818   2.159754
    12  C    2.316500   4.908309   2.354834   3.248538   2.539968
    13  C    1.218592   6.161679   3.750053   4.553575   3.845634
    14  C    6.406717   2.731309   2.399082   2.474282   2.545290
    15  H    6.895438   3.805139   2.439204   2.069635   3.402642
    16  H    6.940311   2.650837   3.072502   3.130022   2.960787
    17  H    6.762204   2.361075   3.195680   3.343563   2.816028
    18  C    4.908310   2.362074   4.901531   5.782618   2.545474
    19  H    5.943961   2.457918   5.785111   6.604201   3.443039
    20  H    4.637181   3.059625   5.079568   5.994462   2.848141
    21  H    4.376446   3.111291   5.068693   5.993803   2.819988
    22  C    2.346338   7.519451   4.483241   5.066165   5.158228
    23  H    3.081314   7.731955   4.494076   4.980286   5.388683
    24  H    3.069490   7.818518   4.463682   4.902403   5.465949
    25  H    2.395348   8.256185   5.508003   6.132107   5.935378
    26  C    4.348543   6.485944   2.391516   2.467939   4.315216
    27  H    4.339299   7.084392   3.120542   3.201372   4.885853
    28  H    4.378410   7.078503   3.133154   3.250378   4.865538
    29  H    5.387046   6.625909   2.421433   2.042878   4.681062
                    6          7          8          9         10
     6  C    0.000000
     7  C    2.443960   0.000000
     8  C    4.307042   2.451922   0.000000
     9  C    2.489823   2.486747   2.564754   0.000000
    10  H    3.224103   3.228124   2.825205   1.090369   0.000000
    11  H    3.176940   3.209365   2.855137   1.095370   1.721114
    12  C    1.348209   2.830084   3.896738   1.513271   2.124231
    13  C    2.513289   4.293680   5.050027   2.490332   2.649388
    14  C    3.720701   1.493263   3.003854   3.915121   4.562205
    15  H    3.803231   2.134717   4.056919   4.605350   5.271910
    16  H    4.355949   2.144049   3.134325   4.362829   5.106005
    17  H    4.423044   2.131681   2.875933   4.250807   4.674974
    18  C    5.172457   3.792851   1.509187   2.885551   2.764813
    19  H    6.181295   4.567449   2.121068   3.959795   3.798536
    20  H    5.192525   4.117333   2.151781   2.851500   2.907032
    21  H    5.143871   4.107174   2.161949   2.776539   2.249051
    22  C    3.107542   5.349245   6.459026   3.921694   4.144925
    23  H    3.170261   5.456015   6.722825   4.263772   4.718019
    24  H    3.129031   5.466218   6.828863   4.389883   4.561756
    25  H    4.142401   6.279526   7.135200   4.571585   4.619930
    26  C    1.500809   3.719648   5.784656   3.931206   4.585071
    27  H    2.158238   4.379250   6.340305   4.369242   4.801900
    28  H    2.141659   4.398188   6.317276   4.305430   5.024050
    29  H    2.142764   3.795575   6.103959   4.619897   5.338539
                   11         12         13         14         15
    11  H    0.000000
    12  C    2.129365   0.000000
    13  C    2.742995   1.471225   0.000000
    14  C    4.568462   4.304034   5.769524   0.000000
    15  H    5.326091   4.672227   6.112319   1.090710   0.000000
    16  H    4.793546   4.876854   6.337708   1.086937   1.770144
    17  H    4.966676   4.840619   6.259529   1.084227   1.776287
    18  C    2.814509   4.395913   5.204295   4.509251   5.551160
    19  H    3.867975   5.465148   6.283237   5.015426   6.089701
    20  H    2.367601   4.313211   4.985141   4.980551   6.003002
    21  H    2.867604   4.221459   4.828542   4.978390   5.946220
    22  C    4.129304   2.625137   1.511725   6.757123   6.904865
    23  H    4.327164   2.938738   2.167147   6.811337   6.908024
    24  H    4.819710   2.983595   2.173600   6.780926   6.786267
    25  H    4.647661   3.472482   2.097099   7.721521   7.926985
    26  C    4.522190   2.563762   3.143575   4.746532   4.516012
    27  H    5.055053   2.945375   3.190491   5.409649   5.146184
    28  H    4.661193   2.901474   3.173999   5.477019   5.303111
    29  H    5.247464   3.421982   4.195543   4.509857   4.051022
                   16         17         18         19         20
    16  H    0.000000
    17  H    1.734028   0.000000
    18  C    4.595878   4.331851   0.000000
    19  H    4.986116   4.678218   1.084464   0.000000
    20  H    4.944441   5.010709   1.091590   1.776102   0.000000
    21  H    5.269534   4.740275   1.088570   1.776692   1.750523
    22  C    7.339921   7.351359   6.699048   7.781028   6.438214
    23  H    7.279290   7.535327   7.051827   8.132540   6.687755
    24  H    7.476461   7.343365   7.212220   8.284704   7.092218
    25  H    8.293279   8.264336   7.175495   8.240480   6.853933
    26  C    5.378556   5.518588   6.670988   7.681929   6.653095
    27  H    6.165930   6.048966   7.145122   8.165216   7.199608
    28  H    5.962833   6.326956   7.091815   8.127255   6.909991
    29  H    5.116480   5.338713   7.170008   8.120795   7.218237
                   21         22         23         24         25
    21  H    0.000000
    22  C    6.339401   0.000000
    23  H    6.845895   1.090415   0.000000
    24  H    6.808525   1.088549   1.763145   0.000000
    25  H    6.722438   1.085058   1.771802   1.769024   0.000000
    26  C    6.611321   2.988142   2.830826   2.673537   4.062652
    27  H    6.929362   2.802802   2.926256   2.119266   3.786706
    28  H    7.073338   2.699496   2.168780   2.606274   3.718614
    29  H    7.210443   4.061902   3.816094   3.676813   5.128884
                   26         27         28         29
    26  C    0.000000
    27  H    1.086158   0.000000
    28  H    1.084815   1.756292   0.000000
    29  H    1.089277   1.754894   1.754102   0.000000
 Stoichiometry    C11H15NO2
 Framework group  C1[X(C11H15NO2)]
 Deg. of freedom    81
 Full point group                 C1      NOp   1
 Largest Abelian subgroup         C1      NOp   1
 Largest concise Abelian subgroup C1      NOp   1
                         Standard orientation:                         
 ---------------------------------------------------------------------
 Center     Atomic      Atomic             Coordinates (Angstroms)
 Number     Number       Type             X           Y           Z
 ---------------------------------------------------------------------
      1          8           0       -2.276873   -2.266899   -0.245011
      2          8           0        3.669713   -0.205250   -0.002497
      3          7           0       -0.027165    1.805673    0.026294
      4          1           0       -0.049949    2.809532    0.004479
      5          6           0        1.300475   -0.143346    0.022160
      6          6           0       -1.230306    1.134455    0.032866
      7          6           0        1.212161    1.201066   -0.020578
      8          6           0        2.612107   -0.811411    0.024227
      9          6           0        0.054703   -0.997650    0.078668
     10          1           0        0.048277   -1.724095   -0.734437
     11          1           0        0.045817   -1.615319    0.983235
     12          6           0       -1.238518   -0.213699    0.023996
     13          6           0       -2.430439   -1.071657   -0.063955
     14          6           0        2.337872    2.175791   -0.132476
     15          1           0        1.956647    3.174977   -0.346819
     16          1           0        2.922601    2.213794    0.782991
     17          1           0        3.026094    1.875288   -0.914524
     18          6           0        2.619814   -2.319209    0.088505
     19          1           0        3.647162   -2.662739    0.037478
     20          1           0        2.166798   -2.666846    1.018825
     21          1           0        2.045293   -2.758538   -0.725068
     22          6           0       -3.841326   -0.549771    0.085530
     23          1           0       -3.989410   -0.054093    1.045416
     24          1           0       -4.109259    0.152981   -0.701421
     25          1           0       -4.497796   -1.411712    0.026742
     26          6           0       -2.403934    2.069712    0.050782
     27          1           0       -3.021678    1.966862   -0.836660
     28          1           0       -3.029723    1.886607    0.917779
     29          1           0       -2.069091    3.105094    0.099641
 ---------------------------------------------------------------------
 Rotational constants (GHZ):           1.1121016           0.4813546           0.3401878
 Leave Link  202 at Sun Jun 28 19:35:52 2026, MaxMem=  2147483648 cpu:               0.2 elap:               0.0
 (Enter /data/home/wyx/g16/l301.exe)
 Standard basis: TZVP (5D, 7F)
 Ernie: Thresh=  0.10000D-02 Tol=  0.10000D-05 Strict=F.
 There are   370 symmetry adapted cartesian basis functions of A   symmetry.
 There are   356 symmetry adapted basis functions of A   symmetry.
   356 basis functions,   610 primitive gaussians,   370 cartesian basis functions
    52 alpha electrons       52 beta electrons
       nuclear repulsion energy       899.9012755035 Hartrees.
 IExCor=20419 DFT=T Ex+Corr=CAM-B3LYP ExCW=0 ScaHFX=  1.000000
 ScaDFX=  1.000000  1.000000  1.000000  0.810000 ScalE2=  1.000000  1.000000
 IRadAn=      5 IRanWt=     -1 IRanGd=            0 ICorTp=0 IEmpDi=  4
 HFx  wShort=  0.000000 wLong=  0.330000 cFull=  0.190000 cShort=  0.000000 cLong=  0.460000
 DFx  wShort=  0.000000 wLong=  0.330000 cFull=  0.190000 cShort=  0.000000 cLong=  0.460000
 NAtoms=   29 NActive=   29 NUniq=   29 SFac= 1.00D+00 NAtFMM=   60 NAOKFM=F Big=F
 Integral buffers will be    131072 words long.
 Raffenetti 2 integral format.
 Two-electron integral symmetry is turned on.
 Leave Link  301 at Sun Jun 28 19:35:52 2026, MaxMem=  2147483648 cpu:               1.0 elap:               0.1
 (Enter /data/home/wyx/g16/l302.exe)
 NPDir=0 NMtPBC=     1 NCelOv=     1 NCel=       1 NClECP=     1 NCelD=      1
         NCelK=      1 NCelE2=     1 NClLst=     1 CellRange=     0.0.
 One-electron integrals computed using PRISM.
 One-electron integral symmetry used in STVInt
 NBasis=   356 RedAO= T EigKep=  3.45D-05  NBF=   356
 NBsUse=   356 1.00D-06 EigRej= -1.00D+00 NBFU=   356
 Precomputing XC quadrature grid using
 IXCGrd= 4 IRadAn=           5 IRanWt=          -1 IRanGd=           0 AccXCQ= 0.00D+00.
 Generated NRdTot=       0 NPtTot=           0 NUsed=           0 NTot=          32
 NSgBfM=   366   366   366   366   366 MxSgAt=    29 MxSgA2=    29.
 Leave Link  302 at Sun Jun 28 19:35:53 2026, MaxMem=  2147483648 cpu:               4.3 elap:               0.3
 (Enter /data/home/wyx/g16/l303.exe)
 DipDrv:  MaxL=1.
 Leave Link  303 at Sun Jun 28 19:35:53 2026, MaxMem=  2147483648 cpu:               0.9 elap:               0.1
 (Enter /data/home/wyx/g16/l401.exe)
 ExpMin= 9.52D-02 ExpMax= 2.70D+04 ExpMxC= 9.22D+02 IAcc=3 IRadAn=         5 AccDes= 0.00D+00
 Harris functional with IExCor=20419 and IRadAn=       5 diagonalized for initial guess.
 HarFok:  IExCor=20419 AccDes= 0.00D+00 IRadAn=         5 IDoV= 1 UseB2=F ITyADJ=14
 ICtDFT=  3500011 ScaDFX=  1.000000  1.000000  1.000000  1.000000
 FoFCou: FMM=F IPFlag=           0 FMFlag=      100000 FMFlg1=           0
         NFxFlg=           0 DoJE=T BraDBF=F KetDBF=T FulRan=T
         wScrn=  0.000000 ICntrl=       500 IOpCl=  0 I1Cent=   200000004 NGrid=           0
         NMat0=    1 NMatS0=      1 NMatT0=    0 NMatD0=    1 NMtDS0=    0 NMtDT0=    0
 Petite list used in FoFCou.
 Harris En= -608.682814679025    
 JPrj=0 DoOrth=F DoCkMO=F.
 Leave Link  401 at Sun Jun 28 19:35:54 2026, MaxMem=  2147483648 cpu:              13.4 elap:               0.9
 (Enter /data/home/wyx/g16/l502.exe)
 Integral symmetry usage will be decided dynamically.
 Closed shell SCF:
 Using DIIS extrapolation, IDIIS=  1040.
 NGot=  2147483648 LenX=  2147200095 LenY=  2147062754
 Requested convergence on RMS density matrix=1.00D-08 within 128 cycles.
 Requested convergence on MAX density matrix=1.00D-06.
 Requested convergence on             energy=1.00D-06.
 No special actions if energy rises.
 Fock matrices will be formed incrementally for  20 cycles.
 Integral accuracy reduced to 1.0D-05 until final iterations.

 Cycle   1  Pass 0  IDiag  1:
 FoFJK:  IHMeth= 1 ICntrl=       0 DoSepK=T KAlg= 0 I1Cent=           0 FoldK=F
 IRaf=         1 NMat=       1 IRICut=       1 DoRegI=T DoRafI=F ISym2E= 0 IDoP0=0 IntGTp=1.
 FoFCou: FMM=F IPFlag=           0 FMFlag=      100000 FMFlg1=           0
         NFxFlg=           0 DoJE=T BraDBF=F KetDBF=F FulRan=T
         wScrn=  0.000000 ICntrl=       500 IOpCl=  0 I1Cent=           0 NGrid=           0
         NMat0=    1 NMatS0=      1 NMatT0=    0 NMatD0=    1 NMtDS0=    0 NMtDT0=    0
 Symmetry not used in FoFCou.
 E= -633.078053728322    
 DIIS: error= 4.51D-02 at cycle   1 NSaved=   1.
 NSaved= 1 IEnMin= 1 EnMin= -633.078053728322     IErMin= 1 ErrMin= 4.51D-02
 ErrMax= 4.51D-02  0.00D+00 EMaxC= 1.00D-01 BMatC= 1.10D+00 BMatP= 1.10D+00
 IDIUse=3 WtCom= 5.49D-01 WtEn= 4.51D-01
 Coeff-Com:  0.100D+01
 Coeff-En:   0.100D+01
 Coeff:      0.100D+01
 Gap=     0.236 Goal=   None    Shift=    0.000
 GapD=    0.236 DampG=1.000 DampE=0.500 DampFc=0.5000 IDamp=-1.
 Damping current iteration by 5.00D-01
 RMSDP=4.06D-03 MaxDP=1.49D-01              OVMax= 1.80D-01

 Cycle   2  Pass 0  IDiag  1:
 RMSU=  1.93D-03    CP:  9.52D-01
 E= -633.177678145238     Delta-E=       -0.099624416916 Rises=F Damp=T
 DIIS: error= 2.10D-02 at cycle   2 NSaved=   2.
 NSaved= 2 IEnMin= 2 EnMin= -633.177678145238     IErMin= 2 ErrMin= 2.10D-02
 ErrMax= 2.10D-02  0.00D+00 EMaxC= 1.00D-01 BMatC= 2.26D-01 BMatP= 1.10D+00
 IDIUse=3 WtCom= 7.90D-01 WtEn= 2.10D-01
 Coeff-Com: -0.578D+00 0.158D+01
 Coeff-En:   0.000D+00 0.100D+01
 Coeff:     -0.457D+00 0.146D+01
 Gap=     0.244 Goal=   None    Shift=    0.000
 RMSDP=2.24D-03 MaxDP=1.07D-01 DE=-9.96D-02 OVMax= 1.80D-01

 Cycle   3  Pass 0  IDiag  1:
 RMSU=  2.08D-03    CP:  9.02D-01  1.27D+00
 E= -633.220489295646     Delta-E=       -0.042811150408 Rises=F Damp=F
 DIIS: error= 1.94D-02 at cycle   3 NSaved=   3.
 NSaved= 3 IEnMin= 3 EnMin= -633.220489295646     IErMin= 3 ErrMin= 1.94D-02
 ErrMax= 1.94D-02  0.00D+00 EMaxC= 1.00D-01 BMatC= 7.49D-02 BMatP= 2.26D-01
 IDIUse=3 WtCom= 8.06D-01 WtEn= 1.94D-01
 Coeff-Com: -0.368D+00 0.812D+00 0.556D+00
 Coeff-En:   0.000D+00 0.109D+00 0.891D+00
 Coeff:     -0.296D+00 0.676D+00 0.621D+00
 Gap=     0.249 Goal=   None    Shift=    0.000
 RMSDP=1.42D-03 MaxDP=6.36D-02 DE=-4.28D-02 OVMax= 1.12D-01

 Cycle   4  Pass 0  IDiag  1:
 RMSU=  6.80D-04    CP:  8.80D-01  1.62D+00  5.21D-01
 E= -633.277690720050     Delta-E=       -0.057201424404 Rises=F Damp=F
 DIIS: error= 7.53D-03 at cycle   4 NSaved=   4.
 NSaved= 4 IEnMin= 4 EnMin= -633.277690720050     IErMin= 4 ErrMin= 7.53D-03
 ErrMax= 7.53D-03  0.00D+00 EMaxC= 1.00D-01 BMatC= 1.13D-02 BMatP= 7.49D-02
 IDIUse=3 WtCom= 9.25D-01 WtEn= 7.53D-02
 Coeff-Com: -0.155D+00 0.337D+00 0.369D+00 0.449D+00
 Coeff-En:   0.000D+00 0.000D+00 0.108D+00 0.892D+00
 Coeff:     -0.143D+00 0.312D+00 0.349D+00 0.482D+00
 Gap=     0.239 Goal=   None    Shift=    0.000
 RMSDP=4.63D-04 MaxDP=1.53D-02 DE=-5.72D-02 OVMax= 3.24D-02

 Cycle   5  Pass 0  IDiag  1:
 RMSU=  1.76D-04    CP:  8.80D-01  1.56D+00  6.97D-01  7.23D-01
 E= -633.287430631638     Delta-E=       -0.009739911588 Rises=F Damp=F
 DIIS: error= 6.46D-04 at cycle   5 NSaved=   5.
 NSaved= 5 IEnMin= 5 EnMin= -633.287430631638     IErMin= 5 ErrMin= 6.46D-04
 ErrMax= 6.46D-04  0.00D+00 EMaxC= 1.00D-01 BMatC= 1.10D-04 BMatP= 1.13D-02
 IDIUse=3 WtCom= 9.94D-01 WtEn= 6.46D-03
 Coeff-Com: -0.902D-02 0.192D-01 0.422D-01 0.133D+00 0.814D+00
 Coeff-En:   0.000D+00 0.000D+00 0.000D+00 0.000D+00 0.100D+01
 Coeff:     -0.896D-02 0.190D-01 0.419D-01 0.132D+00 0.816D+00
 Gap=     0.240 Goal=   None    Shift=    0.000
 RMSDP=1.05D-04 MaxDP=6.98D-03 DE=-9.74D-03 OVMax= 4.13D-03

 Cycle   6  Pass 0  IDiag  1:
 RMSU=  6.28D-05    CP:  8.77D-01  1.58D+00  6.97D-01  8.12D-01  9.29D-01
 E= -633.287515674022     Delta-E=       -0.000085042384 Rises=F Damp=F
 DIIS: error= 3.70D-04 at cycle   6 NSaved=   6.
 NSaved= 6 IEnMin= 6 EnMin= -633.287515674022     IErMin= 6 ErrMin= 3.70D-04
 ErrMax= 3.70D-04  0.00D+00 EMaxC= 1.00D-01 BMatC= 3.71D-05 BMatP= 1.10D-04
 IDIUse=3 WtCom= 9.96D-01 WtEn= 3.70D-03
 Coeff-Com:  0.160D-01-0.351D-01-0.254D-01 0.138D-01 0.495D+00 0.536D+00
 Coeff-En:   0.000D+00 0.000D+00 0.000D+00 0.000D+00 0.649D-01 0.935D+00
 Coeff:      0.159D-01-0.349D-01-0.254D-01 0.138D-01 0.493D+00 0.537D+00
 Gap=     0.241 Goal=   None    Shift=    0.000
 RMSDP=4.12D-05 MaxDP=2.98D-03 DE=-8.50D-05 OVMax= 1.88D-03

 Cycle   7  Pass 0  IDiag  1:
 RMSU=  2.48D-05    CP:  8.77D-01  1.58D+00  7.02D-01  8.13D-01  1.07D+00
                    CP:  7.13D-01
 E= -633.287544644225     Delta-E=       -0.000028970203 Rises=F Damp=F
 DIIS: error= 6.42D-05 at cycle   7 NSaved=   7.
 NSaved= 7 IEnMin= 7 EnMin= -633.287544644225     IErMin= 7 ErrMin= 6.42D-05
 ErrMax= 6.42D-05  0.00D+00 EMaxC= 1.00D-01 BMatC= 1.58D-06 BMatP= 3.71D-05
 IDIUse=1 WtCom= 1.00D+00 WtEn= 0.00D+00
 Coeff-Com:  0.581D-02-0.126D-01-0.110D-01-0.749D-02 0.951D-01 0.210D+00
 Coeff-Com:  0.720D+00
 Coeff:      0.581D-02-0.126D-01-0.110D-01-0.749D-02 0.951D-01 0.210D+00
 Coeff:      0.720D+00
 Gap=     0.241 Goal=   None    Shift=    0.000
 RMSDP=1.46D-05 MaxDP=8.46D-04 DE=-2.90D-05 OVMax= 4.37D-04

 Cycle   8  Pass 0  IDiag  1:
 RMSU=  7.48D-06    CP:  8.76D-01  1.58D+00  7.04D-01  8.22D-01  1.10D+00
                    CP:  8.22D-01  9.66D-01
 E= -633.287546194456     Delta-E=       -0.000001550232 Rises=F Damp=F
 DIIS: error= 3.27D-05 at cycle   8 NSaved=   8.
 NSaved= 8 IEnMin= 8 EnMin= -633.287546194456     IErMin= 8 ErrMin= 3.27D-05
 ErrMax= 3.27D-05  0.00D+00 EMaxC= 1.00D-01 BMatC= 1.87D-07 BMatP= 1.58D-06
 IDIUse=1 WtCom= 1.00D+00 WtEn= 0.00D+00
 Coeff-Com:  0.439D-03-0.909D-03-0.169D-02-0.692D-02-0.373D-01 0.116D-01
 Coeff-Com:  0.268D+00 0.767D+00
 Coeff:      0.439D-03-0.909D-03-0.169D-02-0.692D-02-0.373D-01 0.116D-01
 Coeff:      0.268D+00 0.767D+00
 Gap=     0.241 Goal=   None    Shift=    0.000
 RMSDP=7.49D-06 MaxDP=4.05D-04 DE=-1.55D-06 OVMax= 3.75D-04

 Initial convergence to 1.0D-05 achieved.  Increase integral accuracy.
 Cycle   9  Pass 1  IDiag  1:
 E= -633.287523608884     Delta-E=        0.000022585572 Rises=F Damp=F
 DIIS: error= 9.97D-05 at cycle   1 NSaved=   1.
 NSaved= 1 IEnMin= 1 EnMin= -633.287523608884     IErMin= 1 ErrMin= 9.97D-05
 ErrMax= 9.97D-05  0.00D+00 EMaxC= 1.00D-01 BMatC= 1.93D-06 BMatP= 1.93D-06
 IDIUse=1 WtCom= 1.00D+00 WtEn= 0.00D+00
 Coeff-Com:  0.100D+01
 Coeff:      0.100D+01
 Gap=     0.241 Goal=   None    Shift=    0.000
 RMSDP=7.49D-06 MaxDP=4.05D-04 DE= 2.26D-05 OVMax= 2.87D-04

 Cycle  10  Pass 1  IDiag  1:
 RMSU=  2.10D-04    CP:  1.00D+00
 E= -633.287525262623     Delta-E=       -0.000001653739 Rises=F Damp=F
 DIIS: error= 7.91D-06 at cycle   2 NSaved=   2.
 NSaved= 2 IEnMin= 2 EnMin= -633.287525262623     IErMin= 2 ErrMin= 7.91D-06
 ErrMax= 7.91D-06  0.00D+00 EMaxC= 1.00D-01 BMatC= 3.06D-08 BMatP= 1.93D-06
 IDIUse=1 WtCom= 1.00D+00 WtEn= 0.00D+00
 Coeff-Com:  0.151D-02 0.998D+00
 Coeff:      0.151D-02 0.998D+00
 Gap=     0.241 Goal=   None    Shift=    0.000
 RMSDP=1.18D-05 MaxDP=3.65D-04 DE=-1.65D-06 OVMax= 8.64D-05

 Cycle  11  Pass 1  IDiag  1:
 RMSU=  3.32D-06    CP:  1.00D+00  1.05D+00
 E= -633.287525253009     Delta-E=        0.000000009614 Rises=F Damp=F
 DIIS: error= 1.28D-05 at cycle   3 NSaved=   3.
 NSaved= 3 IEnMin= 2 EnMin= -633.287525262623     IErMin= 2 ErrMin= 7.91D-06
 ErrMax= 1.28D-05  0.00D+00 EMaxC= 1.00D-01 BMatC= 4.97D-08 BMatP= 3.06D-08
 IDIUse=1 WtCom= 1.00D+00 WtEn= 0.00D+00
 Coeff-Com: -0.145D-01 0.571D+00 0.444D+00
 Coeff:     -0.145D-01 0.571D+00 0.444D+00
 Gap=     0.241 Goal=   None    Shift=    0.000
 RMSDP=1.28D-06 MaxDP=1.05D-04 DE= 9.61D-09 OVMax= 5.38D-05

 Cycle  12  Pass 1  IDiag  1:
 RMSU=  1.04D-06    CP:  1.00D+00  1.06D+00  8.93D-01
 E= -633.287525291843     Delta-E=       -0.000000038834 Rises=F Damp=F
 DIIS: error= 1.50D-06 at cycle   4 NSaved=   4.
 NSaved= 4 IEnMin= 4 EnMin= -633.287525291843     IErMin= 4 ErrMin= 1.50D-06
 ErrMax= 1.50D-06  0.00D+00 EMaxC= 1.00D-01 BMatC= 8.15D-10 BMatP= 3.06D-08
 IDIUse=1 WtCom= 1.00D+00 WtEn= 0.00D+00
 Coeff-Com: -0.664D-02 0.232D+00 0.203D+00 0.571D+00
 Coeff:     -0.664D-02 0.232D+00 0.203D+00 0.571D+00
 Gap=     0.241 Goal=   None    Shift=    0.000
 RMSDP=2.81D-07 MaxDP=2.82D-05 DE=-3.88D-08 OVMax= 8.72D-06

 Cycle  13  Pass 1  IDiag  1:
 RMSU=  1.76D-07    CP:  1.00D+00  1.06D+00  9.31D-01  9.24D-01
 E= -633.287525292467     Delta-E=       -0.000000000624 Rises=F Damp=F
 DIIS: error= 9.12D-07 at cycle   5 NSaved=   5.
 NSaved= 5 IEnMin= 5 EnMin= -633.287525292467     IErMin= 5 ErrMin= 9.12D-07
 ErrMax= 9.12D-07  0.00D+00 EMaxC= 1.00D-01 BMatC= 1.23D-10 BMatP= 8.15D-10
 IDIUse=1 WtCom= 1.00D+00 WtEn= 0.00D+00
 Coeff-Com:  0.900D-03-0.475D-01-0.261D-01 0.256D+00 0.817D+00
 Coeff:      0.900D-03-0.475D-01-0.261D-01 0.256D+00 0.817D+00
 Gap=     0.241 Goal=   None    Shift=    0.000
 RMSDP=2.17D-07 MaxDP=7.93D-06 DE=-6.24D-10 OVMax= 9.70D-06

 Cycle  14  Pass 1  IDiag  1:
 RMSU=  8.71D-08    CP:  1.00D+00  1.06D+00  9.57D-01  1.01D+00  1.02D+00
 E= -633.287525292643     Delta-E=       -0.000000000176 Rises=F Damp=F
 DIIS: error= 2.34D-07 at cycle   6 NSaved=   6.
 NSaved= 6 IEnMin= 6 EnMin= -633.287525292643     IErMin= 6 ErrMin= 2.34D-07
 ErrMax= 2.34D-07  0.00D+00 EMaxC= 1.00D-01 BMatC= 1.12D-11 BMatP= 1.23D-10
 IDIUse=1 WtCom= 1.00D+00 WtEn= 0.00D+00
 Coeff-Com:  0.937D-03-0.397D-01-0.282D-01 0.522D-01 0.308D+00 0.706D+00
 Coeff:      0.937D-03-0.397D-01-0.282D-01 0.522D-01 0.308D+00 0.706D+00
 Gap=     0.241 Goal=   None    Shift=    0.000
 RMSDP=4.41D-08 MaxDP=3.78D-06 DE=-1.76D-10 OVMax= 1.85D-06

 Cycle  15  Pass 1  IDiag  1:
 RMSU=  3.19D-08    CP:  1.00D+00  1.06D+00  9.59D-01  1.01D+00  1.16D+00
                    CP:  1.00D+00
 E= -633.287525292651     Delta-E=       -0.000000000008 Rises=F Damp=F
 DIIS: error= 2.41D-07 at cycle   7 NSaved=   7.
 NSaved= 7 IEnMin= 7 EnMin= -633.287525292651     IErMin= 6 ErrMin= 2.34D-07
 ErrMax= 2.41D-07  0.00D+00 EMaxC= 1.00D-01 BMatC= 3.08D-12 BMatP= 1.12D-11
 IDIUse=1 WtCom= 1.00D+00 WtEn= 0.00D+00
 Coeff-Com:  0.293D-03-0.101D-01-0.862D-02-0.230D-01-0.992D-02 0.371D+00
 Coeff-Com:  0.680D+00
 Coeff:      0.293D-03-0.101D-01-0.862D-02-0.230D-01-0.992D-02 0.371D+00
 Coeff:      0.680D+00
 Gap=     0.241 Goal=   None    Shift=    0.000
 RMSDP=1.69D-08 MaxDP=4.99D-07 DE=-7.73D-12 OVMax= 1.90D-06

 Cycle  16  Pass 1  IDiag  1:
 RMSU=  8.25D-09    CP:  1.00D+00  1.06D+00  9.59D-01  1.01D+00  1.17D+00
                    CP:  1.10D+00  1.17D+00
 E= -633.287525292661     Delta-E=       -0.000000000010 Rises=F Damp=F
 DIIS: error= 3.77D-08 at cycle   8 NSaved=   8.
 NSaved= 8 IEnMin= 8 EnMin= -633.287525292661     IErMin= 8 ErrMin= 3.77D-08
 ErrMax= 3.77D-08  0.00D+00 EMaxC= 1.00D-01 BMatC= 3.54D-13 BMatP= 3.08D-12
 IDIUse=1 WtCom= 1.00D+00 WtEn= 0.00D+00
 Coeff-Com: -0.281D-04 0.211D-02 0.870D-03-0.185D-01-0.592D-01 0.206D-01
 Coeff-Com:  0.267D+00 0.788D+00
 Coeff:     -0.281D-04 0.211D-02 0.870D-03-0.185D-01-0.592D-01 0.206D-01
 Coeff:      0.267D+00 0.788D+00
 Gap=     0.241 Goal=   None    Shift=    0.000
 RMSDP=1.07D-08 MaxDP=4.96D-07 DE=-9.78D-12 OVMax= 4.32D-07

 Cycle  17  Pass 1  IDiag  1:
 RMSU=  3.91D-09    CP:  1.00D+00  1.06D+00  9.58D-01  1.00D+00  1.19D+00
                    CP:  1.12D+00  1.31D+00  1.06D+00
 E= -633.287525292650     Delta-E=        0.000000000011 Rises=F Damp=F
 DIIS: error= 8.10D-09 at cycle   9 NSaved=   9.
 NSaved= 9 IEnMin= 8 EnMin= -633.287525292661     IErMin= 9 ErrMin= 8.10D-09
 ErrMax= 8.10D-09  0.00D+00 EMaxC= 1.00D-01 BMatC= 2.14D-14 BMatP= 3.54D-13
 IDIUse=1 WtCom= 1.00D+00 WtEn= 0.00D+00
 Coeff-Com: -0.267D-04 0.134D-02 0.806D-03-0.520D-02-0.208D-01-0.112D-01
 Coeff-Com:  0.640D-01 0.306D+00 0.665D+00
 Coeff:     -0.267D-04 0.134D-02 0.806D-03-0.520D-02-0.208D-01-0.112D-01
 Coeff:      0.640D-01 0.306D+00 0.665D+00
 Gap=     0.241 Goal=   None    Shift=    0.000
 RMSDP=1.76D-09 MaxDP=7.44D-08 DE= 1.11D-11 OVMax= 1.05D-07

 SCF Done:  E(RCAM-B3LYP) =  -633.287525293     A.U. after   17 cycles
            NFock= 17  Conv=0.18D-08     -V/T= 2.0040
 KE= 6.307782037738D+02 PE=-3.275817667043D+03 EE= 1.111850662473D+03
 Leave Link  502 at Sun Jun 28 19:36:43 2026, MaxMem=  2147483648 cpu:             770.7 elap:              48.3
 (Enter /data/home/wyx/g16/l801.exe)
 DoSCS=F DFT=T ScalE2(SS,OS)=  1.000000  1.000000
 Range of M.O.s used for correlation:     1   356
 NBasis=   356 NAE=    52 NBE=    52 NFC=     0 NFV=     0
 NROrb=    356 NOA=    52 NOB=    52 NVA=   304 NVB=   304

 **** Warning!!: The largest alpha MO coefficient is  0.50027573D+02

 Leave Link  801 at Sun Jun 28 19:36:43 2026, MaxMem=  2147483648 cpu:               0.4 elap:               0.1
 (Enter /data/home/wyx/g16/l1101.exe)
 Using compressed storage, NAtomX=    29.
 Will process     30 centers per pass.
 Leave Link 1101 at Sun Jun 28 19:36:43 2026, MaxMem=  2147483648 cpu:               5.6 elap:               0.4
 (Enter /data/home/wyx/g16/l1102.exe)
 Symmetrizing basis deriv contribution to polar:
 IMax=3 JMax=2 DiffMx= 0.00D+00
 Leave Link 1102 at Sun Jun 28 19:36:44 2026, MaxMem=  2147483648 cpu:               0.8 elap:               0.1
 (Enter /data/home/wyx/g16/l1110.exe)
 Forming Gx(P) for the SCF density, NAtomX=    29.
 Integral derivatives from FoFJK, PRISM(SPDF).
 Do as many integral derivatives as possible in FoFJK.
 G2DrvN: MDV=    2147481424.
 G2DrvN: will do    30 centers at a time, making    1 passes.
 Calling FoFCou, ICntrl=  3107 FMM=F I1Cent=   0 AccDes= 0.00D+00.
 FoFJK:  IHMeth= 1 ICntrl=    3107 DoSepK=T KAlg= 0 I1Cent=           0 FoldK=F
 IRaf=         1 NMat=       1 IRICut=       1 DoRegI=T DoRafI=F ISym2E= 0 IDoP0=0 IntGTp=1.
 FoFCou: FMM=F IPFlag=           0 FMFlag=      100000 FMFlg1=           0
         NFxFlg=           0 DoJE=F BraDBF=F KetDBF=F FulRan=T
         wScrn=  0.000000 ICntrl=      3507 IOpCl=  0 I1Cent=           0 NGrid=           0
         NMat0=    1 NMatS0=      1 NMatT0=    0 NMatD0=    1 NMtDS0=    0 NMtDT0=    0
 Symmetry not used in FoFCou.
 End of G2Drv F.D. properties file   721 does not exist.
 End of G2Drv F.D. properties file   722 does not exist.
 End of G2Drv F.D. properties file   788 does not exist.
 Leave Link 1110 at Sun Jun 28 19:37:35 2026, MaxMem=  2147483648 cpu:             822.5 elap:              51.6
 (Enter /data/home/wyx/g16/l1002.exe)
 Minotr:  Closed shell wavefunction.
          IDoAtm=11111111111111111111111111111
          Direct CPHF calculation.
          Differentiating once with respect to electric field.
                with respect to dipole field.
          Differentiating once with respect to nuclear coordinates.
          Requested convergence is 1.0D-08 RMS, and 1.0D-07 maximum.
          Secondary convergence is 1.0D-12 RMS, and 1.0D-12 maximum.
          NewPWx=T KeepS1=F KeepF1=F KeepIn=T MapXYZ=F SortEE=F KeepMc=T.
         8748 words used for storage of precomputed grid.
 Two-electron integrals replicated using symmetry.
          MDV=    2147483648 using IRadAn=       1.
          Solving linear equations simultaneously, MaxMat=     384.
 FoF2E skips out because all densities are zero.
 CalDSu exits because no D1Ps are significant.
 FoFJK:  IHMeth= 1 ICntrl=       0 DoSepK=T KAlg= 0 I1Cent=           0 FoldK=F
 IRaf=         1 NMat=      87 IRICut=       1 DoRegI=T DoRafI=F ISym2E= 2 IDoP0=3 IntGTp=3.
 FoFCou: FMM=F IPFlag=           0 FMFlag=      100000 FMFlg1=           0
         NFxFlg=           0 DoJE=F BraDBF=F KetDBF=F FulRan=T
         wScrn=  0.000000 ICntrl=       500 IOpCl=  0 I1Cent=           0 NGrid=           0
         NMat0=   87 NMatS0=     87 NMatT0=    0 NMatD0=   87 NMtDS0=    0 NMtDT0=    0
 Integrals replicated using symmetry in FoFCou.
          There are    90 degrees of freedom in the 1st order CPHF.  IDoFFX=6 NUNeed=     3.
     87 vectors produced by pass  0 Test12= 1.76D-14 1.11D-09 XBig12= 1.08D+02 5.18D+00.
 AX will form    87 AO Fock derivatives at one time.
     87 vectors produced by pass  1 Test12= 1.76D-14 1.11D-09 XBig12= 1.74D+01 5.81D-01.
     87 vectors produced by pass  2 Test12= 1.76D-14 1.11D-09 XBig12= 2.62D-01 1.11D-01.
     87 vectors produced by pass  3 Test12= 1.76D-14 1.11D-09 XBig12= 1.98D-03 4.14D-03.
     87 vectors produced by pass  4 Test12= 1.76D-14 1.11D-09 XBig12= 1.15D-05 3.63D-04.
     87 vectors produced by pass  5 Test12= 1.76D-14 1.11D-09 XBig12= 5.28D-08 1.89D-05.
     67 vectors produced by pass  6 Test12= 1.76D-14 1.11D-09 XBig12= 2.27D-10 2.08D-06.
     12 vectors produced by pass  7 Test12= 1.76D-14 1.11D-09 XBig12= 9.79D-13 1.84D-07.
      3 vectors produced by pass  8 Test12= 1.76D-14 1.11D-09 XBig12= 4.57D-15 1.36D-08.
 InvSVY:  IOpt=1 It=  1 EMax= 5.33D-15
 Solved reduced A of dimension   604 with    90 vectors.
 FullF1:  Do perturbations      1 to       3.
 Isotropic polarizability for W=    0.000000      140.86 Bohr**3.
 End of Minotr F.D. properties file   721 does not exist.
 End of Minotr F.D. properties file   722 does not exist.
 End of Minotr F.D. properties file   788 does not exist.
 Leave Link 1002 at Sun Jun 28 19:40:28 2026, MaxMem=  2147483648 cpu:            2746.7 elap:             172.1
 (Enter /data/home/wyx/g16/l601.exe)
 Copying SCF densities to generalized density rwf, IOpCl= 0 IROHF=0.

 **********************************************************************

            Population analysis using the SCF density.

 **********************************************************************

 Orbital symmetries:
       Occupied  (A) (A) (A) (A) (A) (A) (A) (A) (A) (A) (A) (A)
                 (A) (A) (A) (A) (A) (A) (A) (A) (A) (A) (A) (A)
                 (A) (A) (A) (A) (A) (A) (A) (A) (A) (A) (A) (A)
                 (A) (A) (A) (A) (A) (A) (A) (A) (A) (A) (A) (A)
                 (A) (A) (A) (A)
       Virtual   (A) (A) (A) (A) (A) (A) (A) (A) (A) (A) (A) (A)
                 (A) (A) (A) (A) (A) (A) (A) (A) (A) (A) (A) (A)
                 (A) (A) (A) (A) (A) (A) (A) (A) (A) (A) (A) (A)
                 (A) (A) (A) (A) (A) (A) (A) (A) (A) (A) (A) (A)
                 (A) (A) (A) (A) (A) (A) (A) (A) (A) (A) (A) (A)
                 (A) (A) (A) (A) (A) (A) (A) (A) (A) (A) (A) (A)
                 (A) (A) (A) (A) (A) (A) (A) (A) (A) (A) (A) (A)
                 (A) (A) (A) (A) (A) (A) (A) (A) (A) (A) (A) (A)
                 (A) (A) (A) (A) (A) (A) (A) (A) (A) (A) (A) (A)
                 (A) (A) (A) (A) (A) (A) (A) (A) (A) (A) (A) (A)
                 (A) (A) (A) (A) (A) (A) (A) (A) (A) (A) (A) (A)
                 (A) (A) (A) (A) (A) (A) (A) (A) (A) (A) (A) (A)
                 (A) (A) (A) (A) (A) (A) (A) (A) (A) (A) (A) (A)
                 (A) (A) (A) (A) (A) (A) (A) (A) (A) (A) (A) (A)
                 (A) (A) (A) (A) (A) (A) (A) (A) (A) (A) (A) (A)
                 (A) (A) (A) (A) (A) (A) (A) (A) (A) (A) (A) (A)
                 (A) (A) (A) (A) (A) (A) (A) (A) (A) (A) (A) (A)
                 (A) (A) (A) (A) (A) (A) (A) (A) (A) (A) (A) (A)
                 (A) (A) (A) (A) (A) (A) (A) (A) (A) (A) (A) (A)
                 (A) (A) (A) (A) (A) (A) (A) (A) (A) (A) (A) (A)
                 (A) (A) (A) (A) (A) (A) (A) (A) (A) (A) (A) (A)
                 (A) (A) (A) (A) (A) (A) (A) (A) (A) (A) (A) (A)
                 (A) (A) (A) (A) (A) (A) (A) (A) (A) (A) (A) (A)
                 (A) (A) (A) (A) (A) (A) (A) (A) (A) (A) (A) (A)
                 (A) (A) (A) (A) (A) (A) (A) (A) (A) (A) (A) (A)
                 (A) (A) (A) (A)
 The electronic state is 1-A.
 Alpha  occ. eigenvalues --  -19.17373 -19.16672 -14.44399 -10.33047 -10.32403
 Alpha  occ. eigenvalues --  -10.32261 -10.31254 -10.27455 -10.25298 -10.25045
 Alpha  occ. eigenvalues --  -10.24802 -10.24726 -10.24485 -10.23380  -1.11869
 Alpha  occ. eigenvalues --   -1.11118  -1.07718  -0.91688  -0.90155  -0.83973
 Alpha  occ. eigenvalues --   -0.82909  -0.81855  -0.78614  -0.74481  -0.71411
 Alpha  occ. eigenvalues --   -0.68385  -0.61632  -0.58398  -0.56858  -0.55401
 Alpha  occ. eigenvalues --   -0.55124  -0.53979  -0.52612  -0.52414  -0.50894
 Alpha  occ. eigenvalues --   -0.49956  -0.49586  -0.49349  -0.48770  -0.48172
 Alpha  occ. eigenvalues --   -0.47077  -0.45562  -0.44994  -0.43981  -0.43306
 Alpha  occ. eigenvalues --   -0.42377  -0.41909  -0.41653  -0.33104  -0.31637
 Alpha  occ. eigenvalues --   -0.30430  -0.25888
 Alpha virt. eigenvalues --   -0.01826   0.03255   0.04690   0.06692   0.07925
 Alpha virt. eigenvalues --    0.08953   0.10406   0.11848   0.12346   0.12943
 Alpha virt. eigenvalues --    0.13334   0.13835   0.15102   0.16365   0.16741
 Alpha virt. eigenvalues --    0.17070   0.17344   0.18410   0.18511   0.19272
 Alpha virt. eigenvalues --    0.19734   0.21896   0.22543   0.23184   0.23858
 Alpha virt. eigenvalues --    0.24231   0.24678   0.25847   0.26133   0.26848
 Alpha virt. eigenvalues --    0.26961   0.27432   0.27469   0.28620   0.29497
 Alpha virt. eigenvalues --    0.30259   0.31171   0.32097   0.32939   0.34826
 Alpha virt. eigenvalues --    0.34873   0.36129   0.36474   0.37250   0.38652
 Alpha virt. eigenvalues --    0.39440   0.41146   0.41632   0.41963   0.42700
 Alpha virt. eigenvalues --    0.43797   0.45270   0.45742   0.46129   0.46351
 Alpha virt. eigenvalues --    0.46806   0.47731   0.48353   0.48903   0.49337
 Alpha virt. eigenvalues --    0.49772   0.50367   0.50556   0.51467   0.52269
 Alpha virt. eigenvalues --    0.52557   0.52846   0.53494   0.53704   0.54512
 Alpha virt. eigenvalues --    0.54857   0.55339   0.55961   0.57122   0.57631
 Alpha virt. eigenvalues --    0.58150   0.59931   0.60907   0.62218   0.63480
 Alpha virt. eigenvalues --    0.64741   0.65309   0.66738   0.68319   0.68578
 Alpha virt. eigenvalues --    0.69320   0.70084   0.71137   0.71522   0.73566
 Alpha virt. eigenvalues --    0.74384   0.75488   0.76300   0.78680   0.80631
 Alpha virt. eigenvalues --    0.81150   0.83405   0.86045   0.87817   0.90986
 Alpha virt. eigenvalues --    0.93633   0.97574   1.01080   1.02389   1.19391
 Alpha virt. eigenvalues --    1.23421   1.23940   1.26316   1.29483   1.29826
 Alpha virt. eigenvalues --    1.32225   1.32634   1.33960   1.35363   1.35848
 Alpha virt. eigenvalues --    1.36302   1.36998   1.37321   1.38016   1.39104
 Alpha virt. eigenvalues --    1.39282   1.40263   1.40426   1.41530   1.42042
 Alpha virt. eigenvalues --    1.43065   1.43528   1.44626   1.45084   1.45824
 Alpha virt. eigenvalues --    1.47667   1.48897   1.49967   1.51150   1.51556
 Alpha virt. eigenvalues --    1.52520   1.53256   1.55376   1.56457   1.57880
 Alpha virt. eigenvalues --    1.58192   1.59455   1.60157   1.61090   1.61247
 Alpha virt. eigenvalues --    1.61750   1.62907   1.63250   1.63657   1.64164
 Alpha virt. eigenvalues --    1.65058   1.65277   1.65865   1.66690   1.67748
 Alpha virt. eigenvalues --    1.67852   1.69217   1.69683   1.70407   1.72374
 Alpha virt. eigenvalues --    1.73838   1.73966   1.74892   1.77426   1.78050
 Alpha virt. eigenvalues --    1.79957   1.81945   1.82353   1.83199   1.86324
 Alpha virt. eigenvalues --    1.86679   1.86969   1.89575   1.89716   1.90705
 Alpha virt. eigenvalues --    1.91404   1.93123   1.94130   1.98000   1.99709
 Alpha virt. eigenvalues --    2.01002   2.03416   2.04000   2.06596   2.09085
 Alpha virt. eigenvalues --    2.09908   2.12815   2.14453   2.16231   2.17004
 Alpha virt. eigenvalues --    2.19281   2.20310   2.22548   2.24423   2.25395
 Alpha virt. eigenvalues --    2.26400   2.27584   2.29407   2.30586   2.32526
 Alpha virt. eigenvalues --    2.32899   2.34201   2.36497   2.38292   2.39147
 Alpha virt. eigenvalues --    2.40516   2.42593   2.43146   2.43873   2.46482
 Alpha virt. eigenvalues --    2.47081   2.47883   2.49986   2.50822   2.51791
 Alpha virt. eigenvalues --    2.52530   2.53644   2.55185   2.56015   2.56197
 Alpha virt. eigenvalues --    2.57119   2.57904   2.60909   2.62302   2.62882
 Alpha virt. eigenvalues --    2.63860   2.65017   2.65713   2.67328   2.69042
 Alpha virt. eigenvalues --    2.71191   2.72955   2.74252   2.74950   2.75499
 Alpha virt. eigenvalues --    2.77005   2.77394   2.78329   2.78506   2.79216
 Alpha virt. eigenvalues --    2.80924   2.81905   2.83329   2.84237   2.84981
 Alpha virt. eigenvalues --    2.85356   2.85603   2.88967   2.91901   2.93382
 Alpha virt. eigenvalues --    2.97319   2.99193   3.02661   3.06059   3.09714
 Alpha virt. eigenvalues --    3.12929   3.15142   3.19736   3.20504   3.20880
 Alpha virt. eigenvalues --    3.22522   3.26079   3.27197   3.28266   3.28807
 Alpha virt. eigenvalues --    3.30611   3.32745   3.34000   3.35936   3.37641
 Alpha virt. eigenvalues --    3.37957   3.38350   3.38847   3.39081   3.40584
 Alpha virt. eigenvalues --    3.41332   3.42931   3.46317   3.47009   3.47440
 Alpha virt. eigenvalues --    3.51120   3.54323   3.58838   3.61258   3.63196
 Alpha virt. eigenvalues --    3.64889   3.93487   4.00998   4.37668   4.39366
 Alpha virt. eigenvalues --   21.65820  21.79925  22.10301  22.11247  22.13682
 Alpha virt. eigenvalues --   22.15142  22.16964  22.20707  22.21822  22.27985
 Alpha virt. eigenvalues --   22.32273  31.92342  43.64089  43.66555
          Condensed to atoms (all electrons):
               1          2          3          4          5          6
     1  O    7.853253   0.000000  -0.000122   0.000022   0.012814   0.020066
     2  O    0.000000   7.909310   0.000478   0.000048  -0.185308   0.001368
     3  N   -0.000122   0.000478   6.407638   0.371602  -0.124017   0.331147
     4  H    0.000022   0.000048   0.371602   0.447375   0.017575  -0.046835
     5  C    0.012814  -0.185308  -0.124017   0.017575   7.019376  -0.059728
     6  C    0.020066   0.001368   0.331147  -0.046835  -0.059728   5.622759
     7  C   -0.000341  -0.034910   0.366346  -0.046746   0.401076  -0.102966
     8  C   -0.000479   0.692594   0.003871  -0.000634  -0.235640   0.024100
     9  C   -0.005692   0.021867   0.029258   0.000370  -0.530609  -0.114767
    10  H    0.009904  -0.000078  -0.000109   0.000027  -0.117353   0.007116
    11  H    0.004656   0.000026   0.000737   0.000032  -0.059457   0.019673
    12  C   -0.227416  -0.003494  -0.091412   0.017981   0.200677  -0.172161
    13  C    0.737233   0.000000  -0.000386   0.000558   0.057473   0.155881
    14  C   -0.000009   0.008318  -0.037694  -0.009590  -0.107018   0.013421
    15  H   -0.000000   0.004872   0.002112   0.002479   0.024060   0.007264
    16  H   -0.000000  -0.001073  -0.002198   0.000842  -0.011317  -0.001461
    17  H    0.000000   0.000914   0.001054   0.000896  -0.001964  -0.001322
    18  C    0.000366  -0.106390  -0.000697   0.000024  -0.267842   0.000089
    19  H   -0.000000   0.009155   0.000007  -0.000001   0.020071  -0.000005
    20  H    0.000022   0.001785   0.000074   0.000000   0.017075  -0.000058
    21  H   -0.000079   0.002580   0.000033  -0.000000   0.021368  -0.000292
    22  C   -0.124130  -0.000000   0.000042   0.000185   0.000826   0.017446
    23  H    0.003633   0.000000   0.000130  -0.000028  -0.000236  -0.011294
    24  H    0.002156   0.000000   0.000189  -0.000043  -0.000121  -0.003431
    25  H    0.011032  -0.000000   0.000006  -0.000004  -0.000032  -0.003331
    26  C   -0.000100   0.000011  -0.023094  -0.011659  -0.002048   0.208688
    27  H    0.000058  -0.000000  -0.002435   0.000564   0.000316  -0.055025
    28  H   -0.000038  -0.000000  -0.002676   0.000815   0.000706  -0.039387
    29  H    0.000006   0.000000   0.004211   0.003372  -0.000819  -0.058557
               7          8          9         10         11         12
     1  O   -0.000341  -0.000479  -0.005692   0.009904   0.004656  -0.227416
     2  O   -0.034910   0.692594   0.021867  -0.000078   0.000026  -0.003494
     3  N    0.366346   0.003871   0.029258  -0.000109   0.000737  -0.091412
     4  H   -0.046746  -0.000634   0.000370   0.000027   0.000032   0.017981
     5  C    0.401076  -0.235640  -0.530609  -0.117353  -0.059457   0.200677
     6  C   -0.102966   0.024100  -0.114767   0.007116   0.019673  -0.172161
     7  C    5.447559  -0.204826  -0.172507   0.002336   0.011402  -0.034494
     8  C   -0.204826   5.316244   0.170530   0.002292  -0.008478  -0.039604
     9  C   -0.172507   0.170530   6.033248   0.535023   0.419136   0.010893
    10  H    0.002336   0.002292   0.535023   0.501263  -0.037454  -0.063362
    11  H    0.011402  -0.008478   0.419136  -0.037454   0.556084  -0.043078
    12  C   -0.034494  -0.039604   0.010893  -0.063362  -0.043078   7.446004
    13  C    0.017447  -0.006059  -0.160014  -0.001815  -0.007851  -0.503292
    14  C    0.294194  -0.017427   0.009992   0.000189  -0.000084  -0.001647
    15  H   -0.100625   0.006205   0.000559   0.000034  -0.000008  -0.001857
    16  H   -0.008881  -0.003204  -0.000494  -0.000033   0.000087   0.000459
    17  H   -0.029858  -0.010354   0.000761   0.000065  -0.000052   0.000243
    18  C    0.008078   0.300475  -0.026159  -0.009803   0.001458  -0.003253
    19  H   -0.000593  -0.047035   0.000105   0.000134  -0.000024   0.000113
    20  H    0.000547  -0.034832  -0.009788  -0.000601   0.002355   0.001717
    21  H    0.001499  -0.047214  -0.000501   0.002416  -0.002258   0.000033
    22  C   -0.001411   0.000124   0.001437   0.003897  -0.002347  -0.315937
    23  H   -0.000083   0.000012  -0.001500  -0.000218   0.000274   0.048616
    24  H    0.000123  -0.000007   0.000535   0.000020  -0.000102   0.003823
    25  H    0.000016  -0.000001   0.000366  -0.000066  -0.000038   0.021767
    26  C    0.013174   0.000395   0.013987  -0.000636   0.000711  -0.136089
    27  H   -0.001232   0.000001   0.000298   0.000023  -0.000005  -0.004613
    28  H   -0.001487  -0.000001  -0.000664   0.000018  -0.000063   0.006168
    29  H    0.004358   0.000012  -0.000733  -0.000002   0.000025   0.018474
              13         14         15         16         17         18
     1  O    0.737233  -0.000009  -0.000000  -0.000000   0.000000   0.000366
     2  O    0.000000   0.008318   0.004872  -0.001073   0.000914  -0.106390
     3  N   -0.000386  -0.037694   0.002112  -0.002198   0.001054  -0.000697
     4  H    0.000558  -0.009590   0.002479   0.000842   0.000896   0.000024
     5  C    0.057473  -0.107018   0.024060  -0.011317  -0.001964  -0.267842
     6  C    0.155881   0.013421   0.007264  -0.001461  -0.001322   0.000089
     7  C    0.017447   0.294194  -0.100625  -0.008881  -0.029858   0.008078
     8  C   -0.006059  -0.017427   0.006205  -0.003204  -0.010354   0.300475
     9  C   -0.160014   0.009992   0.000559  -0.000494   0.000761  -0.026159
    10  H   -0.001815   0.000189   0.000034  -0.000033   0.000065  -0.009803
    11  H   -0.007851  -0.000084  -0.000008   0.000087  -0.000052   0.001458
    12  C   -0.503292  -0.001647  -0.001857   0.000459   0.000243  -0.003253
    13  C    5.540103  -0.000037  -0.000047  -0.000003   0.000004   0.001035
    14  C   -0.000037   5.021264   0.387868   0.405998   0.425454   0.003260
    15  H   -0.000047   0.387868   0.635738  -0.032141  -0.031111   0.000334
    16  H   -0.000003   0.405998  -0.032141   0.506216  -0.019760  -0.000346
    17  H    0.000004   0.425454  -0.031111  -0.019760   0.487795  -0.000336
    18  C    0.001035   0.003260   0.000334  -0.000346  -0.000336   5.344881
    19  H   -0.000007  -0.000004  -0.000006  -0.000003   0.000018   0.391490
    20  H   -0.000151  -0.000339  -0.000013  -0.000009   0.000039   0.385940
    21  H    0.000296   0.000023  -0.000013   0.000018  -0.000059   0.385512
    22  C    0.165358  -0.000015   0.000003   0.000000  -0.000000  -0.000033
    23  H   -0.083970   0.000002  -0.000000   0.000000   0.000000  -0.000003
    24  H    0.003681  -0.000000   0.000000  -0.000000  -0.000000   0.000002
    25  H   -0.046104   0.000000   0.000000   0.000000  -0.000000   0.000000
    26  C   -0.003854   0.000049  -0.000004  -0.000023  -0.000005   0.000044
    27  H   -0.000057  -0.000005  -0.000018   0.000003  -0.000002  -0.000001
    28  H   -0.009358  -0.000067   0.000012  -0.000002   0.000001  -0.000002
    29  H    0.000296   0.000234   0.000062  -0.000011  -0.000006   0.000001
              19         20         21         22         23         24
     1  O   -0.000000   0.000022  -0.000079  -0.124130   0.003633   0.002156
     2  O    0.009155   0.001785   0.002580  -0.000000   0.000000   0.000000
     3  N    0.000007   0.000074   0.000033   0.000042   0.000130   0.000189
     4  H   -0.000001   0.000000  -0.000000   0.000185  -0.000028  -0.000043
     5  C    0.020071   0.017075   0.021368   0.000826  -0.000236  -0.000121
     6  C   -0.000005  -0.000058  -0.000292   0.017446  -0.011294  -0.003431
     7  C   -0.000593   0.000547   0.001499  -0.001411  -0.000083   0.000123
     8  C   -0.047035  -0.034832  -0.047214   0.000124   0.000012  -0.000007
     9  C    0.000105  -0.009788  -0.000501   0.001437  -0.001500   0.000535
    10  H    0.000134  -0.000601   0.002416   0.003897  -0.000218   0.000020
    11  H   -0.000024   0.002355  -0.002258  -0.002347   0.000274  -0.000102
    12  C    0.000113   0.001717   0.000033  -0.315937   0.048616   0.003823
    13  C   -0.000007  -0.000151   0.000296   0.165358  -0.083970   0.003681
    14  C   -0.000004  -0.000339   0.000023  -0.000015   0.000002  -0.000000
    15  H   -0.000006  -0.000013  -0.000013   0.000003  -0.000000   0.000000
    16  H   -0.000003  -0.000009   0.000018   0.000000   0.000000  -0.000000
    17  H    0.000018   0.000039  -0.000059  -0.000000   0.000000  -0.000000
    18  C    0.391490   0.385940   0.385512  -0.000033  -0.000003   0.000002
    19  H    0.494243  -0.013950  -0.016372  -0.000000  -0.000000   0.000000
    20  H   -0.013950   0.544319  -0.032900  -0.000005   0.000000  -0.000000
    21  H   -0.016372  -0.032900   0.547256   0.000016  -0.000000  -0.000000
    22  C   -0.000000  -0.000005   0.000016   5.657165   0.412816   0.320892
    23  H   -0.000000   0.000000  -0.000000   0.412816   0.543133  -0.037860
    24  H    0.000000  -0.000000  -0.000000   0.320892  -0.037860   0.588808
    25  H    0.000000  -0.000000  -0.000000   0.391104  -0.011652  -0.013219
    26  C   -0.000000  -0.000002  -0.000004  -0.075838  -0.009831   0.020923
    27  H   -0.000000  -0.000000   0.000000  -0.006912   0.001282  -0.004985
    28  H    0.000000   0.000000   0.000000   0.007321  -0.000746  -0.005176
    29  H   -0.000000  -0.000000  -0.000000   0.001180   0.000177   0.000938
              25         26         27         28         29
     1  O    0.011032  -0.000100   0.000058  -0.000038   0.000006
     2  O   -0.000000   0.000011  -0.000000  -0.000000   0.000000
     3  N    0.000006  -0.023094  -0.002435  -0.002676   0.004211
     4  H   -0.000004  -0.011659   0.000564   0.000815   0.003372
     5  C   -0.000032  -0.002048   0.000316   0.000706  -0.000819
     6  C   -0.003331   0.208688  -0.055025  -0.039387  -0.058557
     7  C    0.000016   0.013174  -0.001232  -0.001487   0.004358
     8  C   -0.000001   0.000395   0.000001  -0.000001   0.000012
     9  C    0.000366   0.013987   0.000298  -0.000664  -0.000733
    10  H   -0.000066  -0.000636   0.000023   0.000018  -0.000002
    11  H   -0.000038   0.000711  -0.000005  -0.000063   0.000025
    12  C    0.021767  -0.136089  -0.004613   0.006168   0.018474
    13  C   -0.046104  -0.003854  -0.000057  -0.009358   0.000296
    14  C    0.000000   0.000049  -0.000005  -0.000067   0.000234
    15  H    0.000000  -0.000004  -0.000018   0.000012   0.000062
    16  H    0.000000  -0.000023   0.000003  -0.000002  -0.000011
    17  H   -0.000000  -0.000005  -0.000002   0.000001  -0.000006
    18  C    0.000000   0.000044  -0.000001  -0.000002   0.000001
    19  H    0.000000  -0.000000  -0.000000   0.000000  -0.000000
    20  H   -0.000000  -0.000002  -0.000000   0.000000  -0.000000
    21  H   -0.000000  -0.000004   0.000000   0.000000  -0.000000
    22  C    0.391104  -0.075838  -0.006912   0.007321   0.001180
    23  H   -0.011652  -0.009831   0.001282  -0.000746   0.000177
    24  H   -0.013219   0.020923  -0.004985  -0.005176   0.000938
    25  H    0.474515   0.002017   0.000077   0.000281  -0.000022
    26  C    0.002017   5.247234   0.440314   0.414367   0.392559
    27  H    0.000077   0.440314   0.507920  -0.035124  -0.019512
    28  H    0.000281   0.414367  -0.035124   0.523435  -0.022267
    29  H   -0.000022   0.392559  -0.019512  -0.022267   0.548921
 Mulliken charges:
               1
     1  O   -0.296815
     2  O   -0.322074
     3  N   -0.234097
     4  H    0.250772
     5  C   -0.089904
     6  C    0.241599
     7  C    0.172805
     8  C    0.138942
     9  C   -0.224936
    10  H    0.166774
    11  H    0.144643
    12  C   -0.135259
    13  C    0.143640
    14  C   -0.396330
    15  H    0.094241
    16  H    0.167337
    17  H    0.177584
    18  C   -0.408126
    19  H    0.162666
    20  H    0.138774
    21  H    0.138642
    22  C   -0.453187
    23  H    0.147346
    24  H    0.122855
    25  H    0.173289
    26  C   -0.491284
    27  H    0.179071
    28  H    0.163930
    29  H    0.127104
 Sum of Mulliken charges =  -0.00000
 Mulliken charges with hydrogens summed into heavy atoms:
               1
     1  O   -0.296815
     2  O   -0.322074
     3  N    0.016675
     5  C   -0.089904
     6  C    0.241599
     7  C    0.172805
     8  C    0.138942
     9  C    0.086481
    12  C   -0.135259
    13  C    0.143640
    14  C    0.042831
    18  C    0.031956
    22  C   -0.009698
    26  C   -0.021179
 APT charges:
               1
     1  O   -0.781625
     2  O   -0.833093
     3  N   -1.087916
     4  H    0.206621
     5  C   -0.580022
     6  C    0.735268
     7  C    0.689974
     8  C    1.083892
     9  C    0.118072
    10  H    0.008881
    11  H   -0.019964
    12  C   -0.565734
    13  C    1.034639
    14  C    0.010658
    15  H   -0.010671
    16  H    0.019209
    17  H    0.041064
    18  C   -0.125281
    19  H    0.022002
    20  H    0.028078
    21  H    0.031336
    22  C   -0.121323
    23  H    0.012111
    24  H    0.015635
    25  H    0.025688
    26  C    0.006222
    27  H    0.012607
    28  H    0.015736
    29  H    0.007936
 Sum of APT charges =  -0.00000
 APT charges with hydrogens summed into heavy atoms:
               1
     1  O   -0.781625
     2  O   -0.833093
     3  N   -0.881295
     5  C   -0.580022
     6  C    0.735268
     7  C    0.689974
     8  C    1.083892
     9  C    0.106989
    12  C   -0.565734
    13  C    1.034639
    14  C    0.060260
    18  C   -0.043865
    22  C   -0.067890
    26  C    0.042502
 Electronic spatial extent (au):  <R**2>=           3217.8633
 Charge=             -0.0000 electrons
 Dipole moment (field-independent basis, Debye):
    X=             -3.0960    Y=              5.0498    Z=              0.4629  Tot=              5.9414
 Quadrupole moment (field-independent basis, Debye-Ang):
   XX=            -95.1567   YY=            -80.6534   ZZ=            -84.6825
   XY=            -10.0112   XZ=             -1.1335   YZ=             -1.4795
 Traceless Quadrupole moment (field-independent basis, Debye-Ang):
   XX=             -8.3258   YY=              6.1774   ZZ=              2.1484
   XY=            -10.0112   XZ=             -1.1335   YZ=             -1.4795
 Octapole moment (field-independent basis, Debye-Ang**2):
  XXX=            -89.2261  YYY=             45.8978  ZZZ=             -0.0899  XYY=             29.6633
  XXY=             18.6352  XXZ=              1.9848  XZZ=              0.8443  YZZ=             -3.2735
  YYZ=              2.5826  XYZ=              2.6816
 Hexadecapole moment (field-independent basis, Debye-Ang**3):
 XXXX=          -3093.3231 YYYY=          -1296.7019 ZZZZ=           -127.6742 XXXY=            -16.1850
 XXXZ=             -4.6072 YYYX=            -63.0832 YYYZ=             -6.0342 ZZZX=              1.1320
 ZZZY=              1.2482 XXYY=           -697.6201 XXZZ=           -484.6617 YYZZ=           -241.6417
 XXYZ=             -7.1980 YYXZ=             -5.5898 ZZXY=              1.2774
 N-N= 8.999012755035D+02 E-N=-3.275817667018D+03  KE= 6.307782037738D+02
  Exact polarizability: 172.152   1.040 163.786   0.053   0.306  86.645
 Approx polarizability: 172.816   4.016 205.008   0.198   2.101 117.879
 No NMR shielding tensors so no spin-rotation constants.
 Leave Link  601 at Sun Jun 28 19:40:28 2026, MaxMem=  2147483648 cpu:               2.5 elap:               0.2
 (Enter /data/home/wyx/g16/l701.exe)
 ... and contract with generalized density number  0.
 Compute integral second derivatives.
 Leave Link  701 at Sun Jun 28 19:40:28 2026, MaxMem=  2147483648 cpu:               2.9 elap:               0.2
 (Enter /data/home/wyx/g16/l702.exe)
 L702 exits ... SP integral derivatives will be done elsewhere.
 Leave Link  702 at Sun Jun 28 19:40:28 2026, MaxMem=  2147483648 cpu:               0.4 elap:               0.0
 (Enter /data/home/wyx/g16/l703.exe)
 Integral derivatives from FoFJK, PRISM(SPDF).
 Compute integral second derivatives, UseDBF=F ICtDFT=           0.
 Calling FoFJK, ICntrl=    100127 FMM=F ISym2X=0 I1Cent= 0 IOpClX= 0 NMat=1 NMatS=1 NMatT=0.
 FoFJK:  IHMeth= 1 ICntrl=  100127 DoSepK=T KAlg= 0 I1Cent=           0 FoldK=F
 IRaf=         1 NMat=       1 IRICut=       1 DoRegI=T DoRafI=F ISym2E= 0 IDoP0=0 IntGTp=1.
 FoFCou: FMM=F IPFlag=           0 FMFlag=      100000 FMFlg1=         800
         NFxFlg=           0 DoJE=F BraDBF=F KetDBF=F FulRan=T
         wScrn=  0.000000 ICntrl=    100527 IOpCl=  0 I1Cent=           0 NGrid=           0
         NMat0=    1 NMatS0=      1 NMatT0=    0 NMatD0=    1 NMtDS0=    0 NMtDT0=    0
 Symmetry not used in FoFCou.
 Leave Link  703 at Sun Jun 28 19:42:13 2026, MaxMem=  2147483648 cpu:            1664.0 elap:             104.3
 (Enter /data/home/wyx/g16/l716.exe)
 Dipole        =-1.21807152D+00 1.98672877D+00 1.82133256D-01
 Polarizability= 1.72152431D+02 1.04035899D+00 1.63786044D+02
                 5.34774221D-02 3.06135454D-01 8.66449347D+01
 Full mass-weighted force constant matrix:
 Low frequencies ---  -94.7420  -74.0523  -52.5580  -23.6401  -20.1933  -19.4672
 Low frequencies ---   -0.0011   -0.0010   -0.0009
 ******    3 imaginary frequencies (negative Signs) ****** 
 Diagonal vibrational polarizability:
       33.8063047      20.9540409      84.2791164
 Harmonic frequencies (cm**-1), IR intensities (KM/Mole), Raman scattering
 activities (A**4/AMU), depolarization ratios for plane and unpolarized
 incident light, reduced masses (AMU), force constants (mDyne/A),
[...]
 0000934,-0.00001141,0.00000448,-0.00000041,-0.00000625,-0.00000201,0.0
 0000436,0.00000254,0.00000780,0.00000371,0.00000870,-0.00000771,-0.073
 85128,-0.03580467,0.08360653,0.08156799,-0.00382636,-0.00261549,-0.003
 14999,0.00002363,-0.00003409,0.00001258,0.00062209,-0.00052987,-0.0000
 5686,-0.00005548,-0.00012579,0.00000712,0.00011428,0.00002097,0.000014
 39,-0.00126434,-0.00056160,0.00049156,0.00000748,0.00003710,0.00007109
 ,-0.00002064,0.00007551,-0.00007557,-0.00032025,0.00018322,-0.00033657
 ,0.00002454,0.00014851,0.00003465,0.00000552,-0.00015475,0.00008757,0.
 00098630,-0.00018112,-0.00327496,-0.00653806,-0.00479871,0.02837126,0.
 00001119,0.00001529,-0.00001660,0.00000694,-0.00000298,0.00000132,-0.0
 0000256,-0.00000410,0.00000277,-0.00000403,0.00000341,0.00000218,0.000
 01624,-0.00000409,0.00000927,0.00000272,-0.00000380,0.00000047,0.00000
 261,0.00000663,0.00000757,-0.00000268,0.00001054,-0.00000275,-0.034760
 21,-0.08881299,0.08918896,0.03901364,0.08940956,-0.00159970,0.00041745
 ,-0.00056844,-0.00001082,-0.00002290,0.00000055,-0.00016768,-0.0004016
 8,-0.00012853,-0.00000911,0.00003866,0.00008985,-0.00007915,-0.0000675
 7,0.00003747,0.00062685,0.00026257,0.00026267,0.00017404,0.00016782,-0
 .00005166,0.00005315,0.00008366,0.00000520,-0.00012725,0.00019637,0.00
 003948,-0.00004619,-0.00004096,-0.00000597,-0.00003921,-0.00001054,-0.
 00003406,0.00047362,0.00021667,-0.00051068,-0.00151641,-0.00262152,0.0
 0755551,-0.00000166,-0.00000676,0.00000837,-0.00001006,0.00000795,0.00
 000024,-0.00000646,0.00000196,0.00000246,-0.00000362,-0.00000186,-0.00
 000269,-0.00000800,0.00000075,0.00000033,-0.00000264,0.00000111,0.0000
 0160,-0.00000241,0.00000011,-0.00000340,-0.00000383,-0.00000345,0.0000
 0384,0.07998540,0.08744201,-0.24471383,-0.08937973,-0.09550218,0.26497
 275,-0.00123483,-0.00465765,0.00100054,-0.00000030,-0.00004476,-0.0000
 2464,0.00000946,0.00023425,-0.00007849,0.00001581,-0.00002237,0.000027
 38,0.00001311,0.00004031,0.00002501,-0.00044183,-0.00042297,-0.0003025
 4,-0.00006128,-0.00003824,-0.00012461,0.00000959,0.00000785,0.00004583
 ,-0.00008317,-0.00025770,0.00016335,0.00002792,-0.00002061,-0.00011988
 ,0.00001983,0.00003980,0.00000592,0.00035116,-0.00056539,0.00084375,-0
 .01268966,0.00512137,-0.00751732,-0.00000232,-0.00001068,0.00000953,0.
 00000698,-0.00000204,-0.00000062,0.00000353,-0.00000120,-0.00000251,0.
 00000324,-0.00000557,-0.00000374,-0.00000583,-0.00000737,-0.00000734,0
 .00000018,-0.00000629,-0.00000436,0.00000440,0.00000253,0.00001024,0.0
 0000715,0.00001189,-0.00000737,-0.21069468,0.03178983,-0.13516431,0.00
 967374,-0.00107354,0.00778429,0.23079609,-0.00247214,-0.00459271,0.003
 14108,0.00000386,-0.00003255,-0.00004236,0.00042652,-0.00057566,-0.000
 64645,-0.00006962,-0.00003541,-0.00009975,0.00004084,-0.00008611,-0.00
 002458,-0.00093621,-0.00014554,-0.00002911,0.00014067,0.00016249,0.000
 04709,0.00004154,0.00005813,0.00010707,-0.00027253,-0.00007045,0.00030
 221,0.00002974,0.00006762,-0.00012366,0.00004410,0.00008321,-0.0000068
 2,0.00265845,-0.00186685,0.00163088,-0.02136104,0.01237584,-0.01860280
 ,0.00000224,0.00000097,0.00001167,0.00000218,0.00000402,-0.00000166,-0
 .00000231,0.00000278,0.00000330,-0.00000366,0.00000194,-0.00000265,0.0
 0000253,0.00000368,-0.00000097,-0.00000247,0.00000115,-0.00000328,-0.0
 0000450,0.00000263,0.00000048,0.00000212,0.00000654,0.00000110,0.02876
 037,-0.05262922,0.01969936,0.01082204,-0.00194809,0.00711443,-0.035017
 55,0.05329365,0.00048015,0.00018872,-0.00033410,0.00002068,0.00000758,
 -0.00000734,0.00058338,-0.00019343,-0.00035130,-0.00004230,-0.00015808
 ,-0.00002731,0.00008134,0.00001834,-0.00001788,-0.00158699,-0.00028267
 ,0.00030091,-0.00002554,0.00005057,0.00000040,-0.00003852,-0.00003252,
 0.00002278,-0.00005363,-0.00008924,-0.00003690,0.00002661,0.00006902,-
 0.00003232,0.00006253,0.00006360,0.00000755,0.00096291,-0.00125990,0.0
 0031196,-0.00123626,0.00267352,-0.00252613,0.00000328,0.00000912,-0.00
 000607,0.00001242,-0.00000683,0.00000044,0.00000113,0.00000187,0.00000
 193,0.00000251,0.00000521,0.00000250,0.00001554,0.00000403,0.00000187,
 0.00000173,0.00000121,-0.00000176,0.00000149,0.00000342,0.00000198,0.0
 0000034,0.00000331,-0.00000056,-0.13160345,0.02161706,-0.14717418,-0.0
 2226506,0.00341982,-0.01663071,0.14327766,-0.02577534,0.15582314,0.001
 10279,-0.00041374,-0.00081774,-0.00001803,0.00000887,-0.00000276,0.000
 24223,0.00014682,-0.00001040,-0.00001942,-0.00008354,-0.00003791,-0.00
 010903,-0.00009806,-0.00001459,-0.00044631,-0.00027317,0.00009850,-0.0
 0015961,-0.00008090,-0.00001339,0.00003118,-0.00010482,-0.00002184,0.0
 0047290,-0.00061195,-0.00033620,0.00006450,0.00001182,0.00000969,0.000
 03799,0.00003976,-0.00000530,-0.00220170,-0.00180560,-0.00007158,0.010
 10437,-0.01415241,-0.00781192,0.00000627,0.00001005,0.00000178,0.00000
 935,-0.00000752,0.00000037,0.00000225,-0.00000013,0.00000046,0.0000029
 2,0.00000192,0.00000116,0.00000370,0.00000072,-0.00000618,0.00000055,0
 .00000109,0.00000342,-0.00000041,-0.00000219,-0.00000303,0.00000140,-0
 .00000351,0.00000126,-0.16321099,0.12088430,0.07680143,-0.00574836,0.0
 0561469,0.00249206,-0.01353570,0.01454386,0.01114303,0.17408079,0.0014
 0982,0.00512250,0.00172241,-0.00005899,-0.00018777,-0.00006273,0.00013
 937,-0.00014259,-0.00008692,0.00000649,-0.00003327,-0.00001049,-0.0005
 8398,-0.00024193,-0.00002663,-0.00059869,0.00044023,0.00029694,0.00001
 488,0.00007813,0.00003723,0.00024863,0.00008303,-0.00000918,0.00100218
 ,-0.00082804,-0.00056080,0.00000852,-0.00002903,0.00005152,-0.00003273
 ,0.00000029,-0.00005933,-0.00481108,-0.00225738,-0.00003773,0.02079019
 ,-0.02536962,-0.01510790,-0.00000131,-0.00000657,-0.00000741,0.0000106
 3,-0.00000031,-0.00000062,0.00000312,-0.00000616,-0.00000159,-0.000000
 59,-0.00000264,-0.00000229,-0.00003236,-0.00001451,-0.00000318,-0.0000
 0645,-0.00000874,-0.00000187,0.00000727,0.00000104,0.00000341,0.000006
 37,0.00000255,-0.00000270,0.11503327,-0.16427430,-0.07444400,-0.009479
 26,0.01006895,0.00473147,0.00154335,-0.00244648,-0.00056487,-0.1244311
 0,0.17953157,0.00000296,0.00239494,-0.00011233,-0.00002487,-0.00006394
 ,-0.00004471,-0.00002493,-0.00020251,-0.00013442,-0.00000401,-0.000004
 46,-0.00000822,-0.00020717,-0.00008277,0.00006969,-0.00013943,0.000212
 62,0.00019701,0.00013095,0.00012618,-0.00002550,0.00010465,0.00005479,
 0.00007121,0.00026829,-0.00014721,0.00004086,-0.00004671,-0.00003971,0
 .00002220,0.00000449,0.00002182,-0.00002784,-0.00074575,-0.00057726,0.
 00076541,0.00417311,-0.00528226,-0.00334463,-0.00000260,-0.00001402,0.
 00000732,0.00000018,0.00000306,0.00000274,-0.00000223,-0.00000040,0.00
 000004,0.00000126,-0.00000161,-0.00000030,-0.00001869,-0.00000205,-0.0
 0000802,-0.00000119,-0.00000491,0.00000242,-0.00000038,0.00000034,-0.0
 0000076,0.00000431,-0.00000010,0.00000012,0.07496921,-0.07636269,-0.09
 876387,0.01637796,-0.01862642,-0.01015039,-0.01272017,0.01454490,0.010
 26987,-0.08193903,0.08405216,0.10087548,-0.00032381,-0.00077885,-0.000
 01301,0.00002904,-0.00004211,-0.00000719,0.00401186,-0.00250810,0.0001
 0853,0.00238736,0.00389312,0.00043581,-0.00027430,0.00025966,0.0001345
 4,-0.16921015,-0.07145959,-0.01318149,-0.00090182,0.00238409,0.0020296
 6,-0.00008152,0.00002038,-0.00012541,-0.00099376,0.00179681,0.00267900
 ,-0.00072137,-0.00056681,-0.00032667,-0.00029421,-0.00007555,0.0000286
 1,-0.02018437,-0.02104626,-0.00500622,0.00132695,0.00156591,-0.0004939
 3,0.00062922,0.00024728,-0.00004954,-0.00009130,-0.00003956,-0.0000324
 9,-0.00002989,0.00006740,0.00003739,-0.00009611,0.00010921,0.00005639,
 -0.00001597,-0.00007662,0.00004305,0.00000632,-0.00002003,-0.00001919,
 0.00002114,0.00000419,0.00002562,0.00000985,0.00001735,-0.00004374,-0.
 00296467,0.00336499,0.00212637,-0.00021877,0.00014212,0.00096120,-0.00
 128123,0.00076239,-0.00070955,-0.00094344,-0.00028095,-0.00015116,0.53
 579351,-0.00127524,0.00031867,0.00003960,-0.00005008,-0.00006731,-0.00
 006508,-0.02791120,-0.03595200,-0.01260939,-0.00235003,-0.00060938,0.0
 0136978,-0.00059832,-0.00078893,-0.00004293,-0.05226195,-0.13592193,-0
 .01721081,0.00281036,0.00010851,-0.00281172,0.00018709,0.00025681,0.00
 039142,0.00247208,0.00070568,-0.00332996,0.00062057,0.00056775,0.00024
 038,-0.00006540,-0.00023827,-0.00003689,-0.00316775,0.01173839,0.00439
 064,0.00196949,-0.00197011,0.00073690,-0.00070356,-0.00048940,0.000082
 97,0.00007688,0.00006101,0.00003489,0.00001423,-0.00007779,-0.00004236
 ,0.00011821,-0.00013431,-0.00010359,-0.00008464,0.00003561,-0.00008115
 ,-0.00002704,0.00001031,0.00002015,-0.00002235,-0.00002701,-0.00000942
 ,-0.00000459,-0.00001691,0.00003452,0.00031466,-0.00187907,-0.00113972
 ,0.00116310,-0.00047250,-0.00116981,0.00172491,-0.00095966,0.00035395,
 0.00028664,0.00020008,0.00024501,-0.04440873,0.56671948,-0.00029551,-0
 .00030078,0.00078744,0.00003398,-0.00005094,0.00009635,-0.01111620,-0.
 01597456,0.00269424,-0.00161655,0.00007768,-0.00273811,-0.00030062,0.0
 0000940,-0.00057166,-0.00339208,-0.01260040,-0.07929027,0.00235647,-0.
 00252273,0.00408739,-0.00004531,0.00033191,-0.00062747,0.00232615,-0.0
 0383485,0.00702942,-0.00056322,-0.00086538,-0.00036818,0.00098789,0.00
 119643,0.00010768,0.00153097,0.00633594,0.00722820,-0.00035058,0.00167
 719,-0.00522984,-0.00042436,-0.00021154,-0.00025708,0.00004374,0.00004
 097,-0.00001502,0.00005829,-0.00011200,0.00003380,0.00001025,-0.000123
 10,-0.00001143,-0.00000181,-0.00005523,0.00019518,-0.00001377,0.000014
 87,-0.00002241,0.00000810,0.00003061,-0.00004600,-0.00001848,-0.000023
 20,-0.00003372,0.00086011,-0.00163868,0.00082579,0.00005268,0.00000824
 ,-0.00079510,0.00146281,-0.00119401,0.00005235,0.00024842,0.00040734,-
 0.00052705,-0.00969355,0.00819302,0.57047085,-0.00064990,0.00063422,0.
 00037691,0.00000846,0.00003391,0.00002224,-0.00195326,0.00081959,0.000
 26651,-0.00002351,-0.00055895,0.00012444,0.00025044,0.00032368,0.00003
 899,-0.00232462,-0.00568708,-0.02545945,-0.00012986,-0.00107780,-0.000
 05273,-0.00008474,-0.00012310,-0.00007502,0.00017454,-0.00043024,0.001
 21447,-0.00017264,-0.00031224,-0.00007565,0.00009950,0.00004333,-0.000
 04946,-0.00092512,0.00068125,0.00162633,-0.00007829,-0.00207434,-0.001
 89874,-0.00013168,-0.00005770,-0.00000807,0.00003169,-0.00001031,0.000
 01328,0.00001104,-0.00003036,-0.00000728,0.00003102,-0.00004748,-0.000
 01715,-0.00000530,-0.00001679,0.00001523,0.00000320,-0.00000525,-0.000
 01304,0.00001156,0.00000348,0.00000687,0.00001353,0.00000463,-0.000023
 42,-0.00093961,0.00048814,0.00011526,0.00015575,-0.00014866,-0.0000170
 7,-0.00086093,0.00159904,0.00101321,0.00026361,0.00002954,0.00017946,-
 0.05162342,-0.00939476,-0.03617708,0.05500300,0.00001827,-0.00023033,0
 .00007933,-0.00000054,-0.00010995,-0.00001834,-0.00265039,-0.00236745,
 0.00035741,-0.00030473,0.00045380,-0.00056939,-0.00014527,-0.00002922,
 -0.00003519,-0.00276014,-0.00675852,-0.02117680,0.00037442,-0.00070344
 ,0.00054143,0.00004274,0.00017775,-0.00007816,0.00004792,-0.00047864,0
 .00074519,-0.00008740,-0.00014977,-0.00007937,0.00008494,0.00008536,0.
 00000581,0.00107307,0.00021683,0.00022775,-0.00028646,0.00088790,-0.00
 066578,-0.00014752,-0.00009579,-0.00002474,0.00001996,0.00002675,-0.00
 001401,0.00001926,-0.00003395,0.00000281,0.00000162,-0.00005965,-0.000
 02668,-0.00001788,-0.00002814,0.00002579,-0.00000760,-0.00000487,-0.00
 000492,0.00000799,0.00000496,0.00000237,-0.00000315,0.00000634,-0.0000
 0837,0.00065791,-0.00024558,0.00030280,-0.00018294,-0.00001199,0.00036
 135,0.00149482,-0.00042082,-0.00078355,-0.00012472,-0.00004047,0.00006
 609,-0.00906223,-0.05762978,-0.06255177,0.01092270,0.06344612,0.000403
 18,0.00041773,-0.00011355,-0.00001288,-0.00005418,-0.00001429,-0.00067
 144,0.00056181,-0.00010775,-0.00012053,0.00030752,-0.00014346,-0.00006
 624,-0.00004325,0.00001327,-0.00143237,-0.00148409,0.00057311,0.000003
 65,0.00013854,-0.00008246,0.00004951,0.00009553,0.00001090,-0.00018361
 ,-0.00002837,0.00009609,-0.00000277,-0.00007493,-0.00004743,-0.0000031
 6,-0.00000349,-0.00003673,0.00083134,-0.00048241,0.00076381,-0.0004494
 1,-0.00081246,-0.00024751,-0.00001762,-0.00002424,0.00005480,-0.000002
 62,0.00001245,-0.00000927,0.00000132,0.00000800,0.00000105,-0.00000049
 ,-0.00001399,-0.00000747,-0.00001595,-0.00000669,0.00000135,-0.0000038
 0,-0.00000354,-0.00000052,0.00000286,0.00000065,-0.00000081,0.00000148
 ,0.00000027,-0.00000012,0.00154445,-0.00073630,-0.00071591,-0.00043930
 ,0.00005044,-0.00036231,0.00105852,-0.00054344,0.00090560,0.00048350,-
 0.00002947,0.00029341,-0.03607068,-0.06077756,-0.30648817,0.03722043,0
 .06895135,0.32984989,-0.00059857,0.00064769,0.00033329,0.00000102,0.00
 001806,0.00000416,-0.00218135,-0.00019786,0.00025606,-0.00012105,-0.00
 042624,-0.00037850,0.00021348,0.00021280,0.00004404,0.00573628,-0.0234
 5839,0.01374882,-0.00019159,-0.00082314,-0.00075675,-0.00004007,-0.000
 10087,0.00001112,-0.00000409,0.00041556,-0.00092812,0.00012190,0.00001
 277,0.00005466,-0.00018737,-0.00027243,-0.00007468,-0.00106424,0.00165
 717,-0.00011117,0.00039672,-0.00270702,-0.00015482,-0.00016434,-0.0000
 7821,0.00002926,0.00004840,-0.00000670,-0.00000943,0.00002920,-0.00001
 869,-0.00001862,0.00002465,-0.00002536,-0.00001860,-0.00001747,-0.0000
 0351,-0.00003183,0.00000512,-0.00001032,0.00000760,0.00001115,-0.00000
 915,0.00001496,0.00001175,0.00000756,-0.00000603,-0.00108469,0.0003285
 7,0.00120346,-0.00095699,0.00150352,0.00039472,-0.00007441,0.00019483,
 -0.00012851,-0.00005641,0.00014078,-0.00023969,-0.05446577,0.03943171,
 -0.02343046,-0.00115951,0.00346350,-0.00127811,0.05949205,0.00003979,0
 .00019797,0.00002329,-0.00002066,-0.00009608,-0.00005666,-0.00273123,-
 0.00139946,-0.00023298,-0.00019834,0.00010462,0.00067182,-0.00007199,-
 0.00009981,-0.00002228,0.00173593,-0.01836437,0.00842111,0.00006886,-0
 .00016351,-0.00068420,0.00008210,0.00012084,0.00015391,-0.00018875,0.0
 0019935,-0.00073028,0.00007402,0.00008128,0.00006602,-0.00008820,-0.00
 018332,-0.00001696,0.00103739,0.00088954,-0.00110614,-0.00012622,-0.00
 068328,0.00074326,-0.00010767,-0.00007024,0.00000609,0.00000643,0.0000
 2051,0.00001813,-0.00000252,-0.00004259,-0.00002276,0.00001290,-0.0000
 2189,-0.00002366,-0.00003310,-0.00000791,-0.00003327,-0.00000707,-0.00
 000746,0.00000318,-0.00000235,-0.00000094,0.00000844,0.00000784,0.0000
 0545,0.00000107,0.00138787,-0.00055101,-0.00109700,0.00124443,-0.00009
 427,-0.00067260,-0.00006824,-0.00014795,0.00012491,0.00026396,0.000174
 50,-0.00018813,0.03932833,-0.24797721,0.12326722,-0.00108202,0.0075878
 2,-0.00412135,-0.04246408,0.27048076,-0.00017302,-0.00054400,-0.000229
 60,0.00000123,-0.00003365,-0.00002348,-0.00091615,-0.00162642,-0.00142
 873,-0.00006735,0.00005980,0.00043897,-0.00009138,-0.00009993,-0.00001
 174,0.00119121,-0.00617546,0.00344201,0.00004009,0.00008152,-0.0005328
 8,0.00002234,0.00003629,0.00007925,0.00008240,-0.00003703,-0.00019993,
 0.00002065,0.00008554,-0.00001089,-0.00000940,0.00002660,0.00001308,0.
 00068075,-0.00034462,0.00050378,0.00018189,0.00152733,0.00090375,-0.00
 002526,-0.00005042,0.00004223,0.00000201,0.00000955,0.00000466,-0.0000
 0849,-0.00000905,-0.00000360,0.00000840,-0.00001286,-0.00001134,0.0000
 0064,-0.00000025,-0.00001216,-0.00000335,0.00000113,0.00000041,-0.0000
 0751,0.00000273,0.00000236,-0.00000170,0.00000224,0.00000111,-0.000576
 50,0.00034662,0.00005639,0.00077522,-0.00062654,0.00081308,-0.00003928
 ,0.00036293,-0.00103775,-0.00041481,-0.00019108,0.00016370,-0.02252333
 ,0.12179904,-0.11660877,-0.00562085,0.02758451,-0.01543734,0.02643173,
 -0.13050983,0.12234746,-0.00035706,0.00012136,0.00016648,0.00004438,0.
 00000779,-0.00000426,0.00227165,0.00351271,0.00071615,0.00044080,-0.00
 248300,-0.00059285,0.00055527,0.00067027,0.00013946,-0.02390464,0.0124
 6693,0.00953282,-0.00022201,-0.00093607,-0.00030521,-0.00010530,-0.000
 24488,-0.00005926,-0.00061897,0.00066564,0.00055719,-0.00022207,-0.000
 22209,-0.00010113,-0.00015226,-0.00019143,-0.00002907,-0.00091036,-0.0
 0440538,-0.00171536,0.00071363,-0.00040934,-0.00042738,-0.00007559,0.0
 0001374,-0.00003732,0.00008449,-0.00005859,-0.00000011,0.00002589,-0.0
 0001974,-0.00000836,0.00003182,-0.00000513,-0.00000063,0.00001719,-0.0
 0001772,-0.00000351,0.00002029,-0.00001778,-0.00001154,0.00002241,0.00
 000180,0.00003094,0.00002199,0.00002171,-0.00003308,0.00006637,0.00008
 499,-0.00004665,0.00002273,-0.00008067,0.00008564,0.00002399,0.0000647
 3,-0.00000015,0.00002263,-0.00007692,0.00005115,-0.23949937,0.09113572
 ,0.07745972,0.00500504,-0.00244818,-0.00082928,-0.00372380,0.00190258,
 0.00103982,0.26040091,0.00005883,0.00042926,0.00012774,0.00002116,0.00
 009712,0.00004208,-0.00287475,0.00015115,0.00076910,-0.00060963,-0.001
 07273,-0.00068012,0.00012389,0.00036114,0.00008938,-0.01964175,0.00759
 604,0.00847825,-0.00060460,0.00011612,0.00015679,-0.00013630,-0.000191
 47,-0.00006981,-0.00071603,0.00039056,-0.00005510,-0.00008169,-0.00009
 538,-0.00002833,-0.00016655,-0.00016849,-0.00003057,-0.00200446,-0.002
 74771,-0.00128922,-0.00014662,-0.00131035,-0.00026491,0.00008034,0.000
 04026,0.00000127,0.00002802,-0.00002583,-0.00001779,0.00001675,0.00002
 208,0.00000589,0.00000151,0.00002006,0.00001573,0.00000186,-0.00003039
 ,-0.00000987,0.00000385,-0.00000617,-0.00000138,0.00001525,-0.00000411
 ,0.00000908,0.00000956,0.00000285,-0.00001155,0.00075726,-0.00085955,-
 0.00040871,-0.00011614,0.00037654,-0.00052252,0.00021126,-0.00010714,0
 .00053118,0.00037888,0.00018694,-0.00012147,0.09640214,-0.09551073,-0.
 03953166,0.00547357,-0.00349527,-0.00130451,0.02256744,-0.00995133,-0.
 01166465,-0.09905303,0.10578654,0.00011940,0.00014707,-0.00001859,-0.0
 0000788,0.00004976,0.00000277,-0.00161128,-0.00044654,-0.00028030,-0.0
 0004552,-0.00028305,0.00116527,-0.00005852,0.00000732,0.00000774,-0.00
 434240,0.00173681,-0.00090094,-0.00022395,0.00017099,0.00017444,-0.000
 02966,-0.00004936,0.00001912,-0.00008390,-0.00032633,0.00067661,-0.000
 14545,-0.00011770,-0.00004259,0.00011384,0.00010840,0.00000863,-0.0004
 9984,-0.00066196,0.00030128,-0.00025839,-0.00025224,-0.00033318,0.0000
 7677,0.00004407,-0.00004428,-0.00002107,-0.00001117,0.00002763,-0.0000
 2253,-0.00000738,-0.00000680,0.00000642,0.00001560,0.00000458,-0.00000
 281,-0.00000923,-0.00000065,-0.00000304,0.00000280,-0.00000258,-0.0000
 0597,-0.00000142,-0.00000464,0.00000480,-0.00000295,-0.00000073,0.0000
 5845,-0.00011584,-0.00083170,-0.00014100,-0.00011283,0.00016436,0.0004
 0234,0.00013036,0.00048105,0.00022157,-0.00009168,0.00036658,0.0797809
 7,-0.03850187,-0.07997841,0.02726139,-0.01321693,-0.00874818,-0.014968
 57,0.00600963,0.00673595,-0.08557420,0.04578568,0.08105758\\-0.0008727
 7,0.00018685,-0.00104431,0.00035284,-0.00065794,-0.00045863,-0.0001870
 4,0.00012694,-0.00018041,-0.00003913,-0.00008067,0.00022008,0.00013279
 ,0.00000787,0.00020504,-0.00029726,0.00009268,-0.00045361,-0.00000400,
 0.00021147,0.00040192,0.00005735,0.00004004,0.00013265,0.00030608,0.00
 003137,0.00000264,-0.00008948,-0.00052798,0.00096816,0.00017370,0.0001
 1633,-0.00020289,0.00017608,0.00038654,-0.00082047,0.00022454,-0.00006
 901,0.00028608,0.00014593,-0.00123510,-0.00021848,0.00055245,-0.000079
 17,-0.00002392,-0.00100212,-0.00032710,-0.00170866,0.00033819,-0.00159
 132,0.00027804,-0.00010208,0.00000012,-0.00038315,-0.00079987,-0.00113
 665,-0.00049398,-0.00001171,0.00025753,-0.00008053,-0.00016113,0.00037
 669,0.00143430,-0.00068306,0.00065116,0.00017496,0.00002302,-0.0001967
 5,0.00016018,-0.00012134,-0.00005312,0.00022813,-0.00005457,0.00164106
 ,0.00055632,0.00031170,0.00032984,0.00044660,0.00061191,-0.00002693,0.
 00104303,0.00104299,0.00170957,-0.00041809,-0.00002401,-0.00018433,-0.
 00005102\\\@


 A SLIP OF THE FOOT YOU MAY SOON RECOVER, BUT A SLIP OF THE TONGUE
 YOU MAY NEVER GET OVER. -- BEN FRANKLIN
 Job cpu time:       0 days  1 hours 40 minutes 44.6 seconds.
 Elapsed time:       0 days  0 hours  6 minutes 19.4 seconds.
 File lengths (MBytes):  RWF=    351 Int=      0 D2E=      0 Chk=     11 Scr=      1
 Normal termination of Gaussian 16 at Sun Jun 28 19:42:14 2026.
