 Entering Gaussian System, Link 0=g16
 Input=no-s2-freq.gjf
 Output=no-s2-freq.log
 Initial command:
 /data/home/wyx/g16/l1.exe "/scr/tmp/wyx/16271/Gau-39689.inp" -scrdir="/scr/tmp/wyx/16271/"
 Entering Link 1 = /data/home/wyx/g16/l1.exe PID=     39690.
  
 Copyright (c) 1988,1990,1992,1993,1995,1998,2003,2009,2016,
            Gaussian, Inc.  All Rights Reserved.
  
 This is part of the Gaussian(R) 16 program.  It is based on
 the Gaussian(R) 09 system (copyright 2009, Gaussian, Inc.),
 the Gaussian(R) 03 system (copyright 2003, Gaussian, Inc.),
 the Gaussian(R) 98 system (copyright 1998, Gaussian, Inc.),
 the Gaussian(R) 94 system (copyright 1995, Gaussian, Inc.),
 the Gaussian 92(TM) system (copyright 1992, Gaussian, Inc.),
 the Gaussian 90(TM) system (copyright 1990, Gaussian, Inc.),
 the Gaussian 88(TM) system (copyright 1988, Gaussian, Inc.),
 the Gaussian 86(TM) system (copyright 1986, Carnegie Mellon
 University), and the Gaussian 82(TM) system (copyright 1983,
 Carnegie Mellon University). Gaussian is a federally registered
 trademark of Gaussian, Inc.
  
 This software contains proprietary and confidential information,
 including trade secrets, belonging to Gaussian, Inc.
  
 This software is provided under written license and may be
 used, copied, transmitted, or stored only in accord with that
 written license.
  
 The following legend is applicable only to US Government
 contracts under FAR:
  
                    RESTRICTED RIGHTS LEGEND
  
 Use, reproduction and disclosure by the US Government is
 subject to restrictions as set forth in subparagraphs (a)
 and (c) of the Commercial Computer Software - Restricted
 Rights clause in FAR 52.227-19.
  
 Gaussian, Inc.
 340 Quinnipiac St., Bldg. 40, Wallingford CT 06492
  
  
 ---------------------------------------------------------------
 Warning -- This program may not be used in any manner that
 competes with the business of Gaussian, Inc. or will provide
 assistance to any competitor of Gaussian, Inc.  The licensee
 of this program is prohibited from giving any competitor of
 Gaussian, Inc. access to this program.  By using this program,
 the user acknowledges that Gaussian, Inc. is engaged in the
 business of creating and licensing software in the field of
 computational chemistry and represents and warrants to the
 licensee that it is not a competitor of Gaussian, Inc. and that
 it will not use this program in any manner prohibited above.
 ---------------------------------------------------------------
  

 Cite this work as:
 Gaussian 16, Revision A.03,
 M. J. Frisch, G. W. Trucks, H. B. Schlegel, G. E. Scuseria, 
 M. A. Robb, J. R. Cheeseman, G. Scalmani, V. Barone, 
 G. A. Petersson, H. Nakatsuji, X. Li, M. Caricato, A. V. Marenich, 
 J. Bloino, B. G. Janesko, R. Gomperts, B. Mennucci, H. P. Hratchian, 
 J. V. Ortiz, A. F. Izmaylov, J. L. Sonnenberg, D. Williams-Young, 
 F. Ding, F. Lipparini, F. Egidi, J. Goings, B. Peng, A. Petrone, 
 T. Henderson, D. Ranasinghe, V. G. Zakrzewski, J. Gao, N. Rega, 
 G. Zheng, W. Liang, M. Hada, M. Ehara, K. Toyota, R. Fukuda, 
 J. Hasegawa, M. Ishida, T. Nakajima, Y. Honda, O. Kitao, H. Nakai, 
 T. Vreven, K. Throssell, J. A. Montgomery, Jr., J. E. Peralta, 
 F. Ogliaro, M. J. Bearpark, J. J. Heyd, E. N. Brothers, K. N. Kudin, 
 V. N. Staroverov, T. A. Keith, R. Kobayashi, J. Normand, 
 K. Raghavachari, A. P. Rendell, J. C. Burant, S. S. Iyengar, 
 J. Tomasi, M. Cossi, J. M. Millam, M. Klene, C. Adamo, R. Cammi, 
 J. W. Ochterski, R. L. Martin, K. Morokuma, O. Farkas, 
 J. B. Foresman, and D. J. Fox, Gaussian, Inc., Wallingford CT, 2016.
 
 ******************************************
 Gaussian 16:  ES64L-G16RevA.03 25-Dec-2016
                28-Jun-2026 
 ******************************************
 %nprocshared=16
 Will use up to   16 processors via shared memory.
 %mem=16GB
 %chk=no-s2-freq.chk
 ----------------------------------------------------------------------
 #p freq=intmodes td=(root=2,nstates=6) cam-b3lyp tzvp geom=connectivit
 y
 ----------------------------------------------------------------------
 1/10=4,18=20,30=1,38=1,57=2/1,3;
 2/9=110,12=2,17=6,18=5,40=1/2;
 3/5=19,7=101,11=9,25=1,30=1,71=2,74=-40,140=1/1,2,3,8;
 4//1;
 5/5=2,38=5,98=1/2;
 8/6=1,10=1,107=2,108=6/1;
 9/8=2,15=3,41=6,42=1,70=2/14;
 10/5=2004,20=4,28=2/2;
 11/6=1,8=1,12=-2,16=1,42=3/1,2,10;
 10/6=3,21=1,28=2/2,14;
 6/7=2,8=2,9=2,10=2/1;
 7/8=21,10=1,12=6,13=8,14=2,25=1,44=2/1,2,3,16;
 1/10=4,18=20,30=1/3;
 99//99;
 Leave Link    1 at Sun Jun 28 19:35:57 2026, MaxMem=  2147483648 cpu:               0.5 elap:               0.1
 (Enter /data/home/wyx/g16/l101.exe)
 -------------------
 Title Card Required
 -------------------
 Symbolic Z-matrix:
 Charge =  0 Multiplicity = 1
 O                    -0.51676   1.24302   0. 
 O                    -1.13188   6.87873   2.56785 
 N                    -3.9166    3.81947   1.88555 
 H                    -4.90165   3.97294   2.0491 
 C                    -1.73034   4.70214   1.91206 
 C                    -3.56853   2.56188   1.45668 
 C                    -3.11715   4.88521   2.0858 
 C                    -0.77541   5.75695   2.21896 
 C                    -1.25172   3.41486   1.40657 
 H                    -0.62554   3.5108    0.50085 
 H                    -0.47221   3.01775   2.08457 
 C                    -2.22579   2.34941   1.12971 
 C                    -1.63632   1.17183   0.50907 
 C                    -3.80384   6.14083   2.49562 
 H                    -4.88575   6.01977   2.42541 
 H                    -3.54691   6.42819   3.51421 
 H                    -3.50154   6.97051   1.86472 
 C                     0.70121   5.46397   2.07168 
 H                     1.2451    6.33346   2.42371 
 H                     1.01499   4.5906    2.64378 
 H                     0.96402   5.28639   1.02821 
 C                    -2.3418   -0.16459   0.49563 
 H                    -2.70356  -0.46004   1.48022 
 H                    -3.18715  -0.1584   -0.19232 
 H                    -1.62098  -0.89411   0.14248 
 C                    -4.70819   1.61349   1.2962 
 H                    -4.83743   1.29856   0.26014 
 H                    -4.5721    0.7128    1.89029 
 H                    -5.64509   2.07258   1.61552 
 
 ITRead=  0  0  0  0  0  0  0  0  0  0  0  0  0  0  0  0  0  0  0  0
 ITRead=  0  0  0  0  0  0  0  0  0
 MicOpt= -1 -1 -1 -1 -1 -1 -1 -1 -1 -1 -1 -1 -1 -1 -1 -1 -1 -1 -1 -1
 MicOpt= -1 -1 -1 -1 -1 -1 -1 -1 -1
 NAtoms=     29 NQM=       29 NQMF=       0 NMMI=      0 NMMIF=      0
                NMic=       0 NMicF=      0.
                    Isotopes and Nuclear Properties:
 (Nuclear quadrupole moments (NQMom) in fm**2, nuclear magnetic moments (NMagM)
  in nuclear magnetons)

  Atom         1           2           3           4           5           6           7           8           9          10
 IAtWgt=          16          16          14           1          12          12          12          12          12           1
 AtmWgt=  15.9949146  15.9949146  14.0030740   1.0078250  12.0000000  12.0000000  12.0000000  12.0000000  12.0000000   1.0078250
 NucSpn=           0           0           2           1           0           0           0           0           0           1
 AtZEff=  -0.0000000  -0.0000000  -0.0000000  -0.0000000  -0.0000000  -0.0000000  -0.0000000  -0.0000000  -0.0000000  -0.0000000
 NQMom=    0.0000000   0.0000000   2.0440000   0.0000000   0.0000000   0.0000000   0.0000000   0.0000000   0.0000000   0.0000000
 NMagM=    0.0000000   0.0000000   0.4037610   2.7928460   0.0000000   0.0000000   0.0000000   0.0000000   0.0000000   2.7928460
 AtZNuc=   8.0000000   8.0000000   7.0000000   1.0000000   6.0000000   6.0000000   6.0000000   6.0000000   6.0000000   1.0000000

  Atom        11          12          13          14          15          16          17          18          19          20
 IAtWgt=           1          12          12          12           1           1           1          12           1           1
 AtmWgt=   1.0078250  12.0000000  12.0000000  12.0000000   1.0078250   1.0078250   1.0078250  12.0000000   1.0078250   1.0078250
 NucSpn=           1           0           0           0           1           1           1           0           1           1
 AtZEff=  -0.0000000  -0.0000000  -0.0000000  -0.0000000  -0.0000000  -0.0000000  -0.0000000  -0.0000000  -0.0000000  -0.0000000
 NQMom=    0.0000000   0.0000000   0.0000000   0.0000000   0.0000000   0.0000000   0.0000000   0.0000000   0.0000000   0.0000000
 NMagM=    2.7928460   0.0000000   0.0000000   0.0000000   2.7928460   2.7928460   2.7928460   0.0000000   2.7928460   2.7928460
 AtZNuc=   1.0000000   6.0000000   6.0000000   6.0000000   1.0000000   1.0000000   1.0000000   6.0000000   1.0000000   1.0000000

  Atom        21          22          23          24          25          26          27          28          29
 IAtWgt=           1          12           1           1           1          12           1           1           1
 AtmWgt=   1.0078250  12.0000000   1.0078250   1.0078250   1.0078250  12.0000000   1.0078250   1.0078250   1.0078250
 NucSpn=           1           0           1           1           1           0           1           1           1
 AtZEff=  -0.0000000  -0.0000000  -0.0000000  -0.0000000  -0.0000000  -0.0000000  -0.0000000  -0.0000000  -0.0000000
 NQMom=    0.0000000   0.0000000   0.0000000   0.0000000   0.0000000   0.0000000   0.0000000   0.0000000   0.0000000
 NMagM=    2.7928460   0.0000000   2.7928460   2.7928460   2.7928460   0.0000000   2.7928460   2.7928460   2.7928460
 AtZNuc=   1.0000000   6.0000000   1.0000000   1.0000000   1.0000000   6.0000000   1.0000000   1.0000000   1.0000000
 Leave Link  101 at Sun Jun 28 19:35:58 2026, MaxMem=  2147483648 cpu:               5.1 elap:               0.3
 (Enter /data/home/wyx/g16/l103.exe)

 GradGradGradGradGradGradGradGradGradGradGradGradGradGradGradGradGradGrad
 Berny optimization.
 Initialization pass.
                           ----------------------------
                           !    Initial Parameters    !
                           ! (Angstroms and Degrees)  !
 --------------------------                            --------------------------
 ! Name  Definition              Value          Derivative Info.                !
 --------------------------------------------------------------------------------
 ! R1    R(1,13)                 1.2319         calculate D2E/DX2 analytically  !
 ! R2    R(2,8)                  1.2277         calculate D2E/DX2 analytically  !
 ! R3    R(3,4)                  1.0103         calculate D2E/DX2 analytically  !
 ! R4    R(3,6)                  1.3735         calculate D2E/DX2 analytically  !
 ! R5    R(3,7)                  1.3472         calculate D2E/DX2 analytically  !
 ! R6    R(5,7)                  1.4096         calculate D2E/DX2 analytically  !
 ! R7    R(5,8)                  1.4556         calculate D2E/DX2 analytically  !
 ! R8    R(5,9)                  1.4635         calculate D2E/DX2 analytically  !
 ! R9    R(6,12)                 1.3982         calculate D2E/DX2 analytically  !
 ! R10   R(6,26)                 1.4913         calculate D2E/DX2 analytically  !
 ! R11   R(7,14)                 1.4886         calculate D2E/DX2 analytically  !
 ! R12   R(8,18)                 1.5126         calculate D2E/DX2 analytically  !
 ! R13   R(9,10)                 1.1053         calculate D2E/DX2 analytically  !
 ! R14   R(9,11)                 1.1068         calculate D2E/DX2 analytically  !
 ! R15   R(9,12)                 1.4699         calculate D2E/DX2 analytically  !
 ! R16   R(12,13)                1.4558         calculate D2E/DX2 analytically  !
 ! R17   R(13,22)                1.5113         calculate D2E/DX2 analytically  !
 ! R18   R(14,15)                1.0909         calculate D2E/DX2 analytically  !
 ! R19   R(14,16)                1.0891         calculate D2E/DX2 analytically  !
 ! R20   R(14,17)                1.0853         calculate D2E/DX2 analytically  !
 ! R21   R(18,19)                1.0843         calculate D2E/DX2 analytically  !
 ! R22   R(18,20)                1.0902         calculate D2E/DX2 analytically  !
 ! R23   R(18,21)                1.0906         calculate D2E/DX2 analytically  !
 ! R24   R(22,23)                1.0898         calculate D2E/DX2 analytically  !
 ! R25   R(22,24)                1.0899         calculate D2E/DX2 analytically  !
 ! R26   R(22,25)                1.0847         calculate D2E/DX2 analytically  !
 ! R27   R(26,27)                1.0905         calculate D2E/DX2 analytically  !
 ! R28   R(26,28)                1.0875         calculate D2E/DX2 analytically  !
 ! R29   R(26,29)                1.0911         calculate D2E/DX2 analytically  !
 ! A1    A(4,3,6)              115.895          calculate D2E/DX2 analytically  !
 ! A2    A(4,3,7)              115.7448         calculate D2E/DX2 analytically  !
 ! A3    A(6,3,7)              128.3392         calculate D2E/DX2 analytically  !
 ! A4    A(7,5,8)              121.6911         calculate D2E/DX2 analytically  !
 ! A5    A(7,5,9)              118.5928         calculate D2E/DX2 analytically  !
 ! A6    A(8,5,9)              119.716          calculate D2E/DX2 analytically  !
 ! A7    A(3,6,12)             117.0976         calculate D2E/DX2 analytically  !
 ! A8    A(3,6,26)             114.9735         calculate D2E/DX2 analytically  !
 ! A9    A(12,6,26)            127.7398         calculate D2E/DX2 analytically  !
 ! A10   A(3,7,5)              117.5648         calculate D2E/DX2 analytically  !
 ! A11   A(3,7,14)             115.7485         calculate D2E/DX2 analytically  !
 ! A12   A(5,7,14)             126.6774         calculate D2E/DX2 analytically  !
 ! A13   A(2,8,5)              122.1132         calculate D2E/DX2 analytically  !
 ! A14   A(2,8,18)             119.2165         calculate D2E/DX2 analytically  !
 ! A15   A(5,8,18)             118.6561         calculate D2E/DX2 analytically  !
 ! A16   A(5,9,10)             113.0773         calculate D2E/DX2 analytically  !
 ! A17   A(5,9,11)             109.5326         calculate D2E/DX2 analytically  !
 ! A18   A(5,9,12)             119.0724         calculate D2E/DX2 analytically  !
 ! A19   A(10,9,11)             97.7076         calculate D2E/DX2 analytically  !
 ! A20   A(10,9,12)            106.4992         calculate D2E/DX2 analytically  !
 ! A21   A(11,9,12)            108.7858         calculate D2E/DX2 analytically  !
 ! A22   A(6,12,9)             118.8283         calculate D2E/DX2 analytically  !
 ! A23   A(6,12,13)            127.6949         calculate D2E/DX2 analytically  !
 ! A24   A(9,12,13)            113.4714         calculate D2E/DX2 analytically  !
 ! A25   A(1,13,12)            119.8286         calculate D2E/DX2 analytically  !
 ! A26   A(1,13,22)            118.1423         calculate D2E/DX2 analytically  !
 ! A27   A(12,13,22)           122.0108         calculate D2E/DX2 analytically  !
 ! A28   A(7,14,15)            110.2525         calculate D2E/DX2 analytically  !
 ! A29   A(7,14,16)            111.7902         calculate D2E/DX2 analytically  !
 ! A30   A(7,14,17)            110.8725         calculate D2E/DX2 analytically  !
 ! A31   A(15,14,16)           108.871          calculate D2E/DX2 analytically  !
 ! A32   A(15,14,17)           108.8849         calculate D2E/DX2 analytically  !
 ! A33   A(16,14,17)           106.0379         calculate D2E/DX2 analytically  !
 ! A34   A(8,18,19)            107.6216         calculate D2E/DX2 analytically  !
 ! A35   A(8,18,20)            112.6466         calculate D2E/DX2 analytically  !
 ! A36   A(8,18,21)            111.0965         calculate D2E/DX2 analytically  !
 ! A37   A(19,18,20)           109.1266         calculate D2E/DX2 analytically  !
 ! A38   A(19,18,21)           108.6824         calculate D2E/DX2 analytically  !
 ! A39   A(20,18,21)           107.5952         calculate D2E/DX2 analytically  !
 ! A40   A(13,22,23)           112.7481         calculate D2E/DX2 analytically  !
 ! A41   A(13,22,24)           111.2629         calculate D2E/DX2 analytically  !
 ! A42   A(13,22,25)           106.7043         calculate D2E/DX2 analytically  !
 ! A43   A(23,22,24)           108.3217         calculate D2E/DX2 analytically  !
 ! A44   A(23,22,25)           109.4161         calculate D2E/DX2 analytically  !
 ! A45   A(24,22,25)           108.2854         calculate D2E/DX2 analytically  !
 ! A46   A(6,26,27)            112.1131         calculate D2E/DX2 analytically  !
 ! A47   A(6,26,28)            111.8559         calculate D2E/DX2 analytically  !
 ! A48   A(6,26,29)            110.9235         calculate D2E/DX2 analytically  !
 ! A49   A(27,26,28)           107.1362         calculate D2E/DX2 analytically  !
 ! A50   A(27,26,29)           107.3248         calculate D2E/DX2 analytically  !
 ! A51   A(28,26,29)           107.2208         calculate D2E/DX2 analytically  !
 ! D1    D(4,3,6,12)           175.4926         calculate D2E/DX2 analytically  !
 ! D2    D(4,3,6,26)             0.1003         calculate D2E/DX2 analytically  !
 ! D3    D(7,3,6,12)            -2.7533         calculate D2E/DX2 analytically  !
 ! D4    D(7,3,6,26)          -178.1457         calculate D2E/DX2 analytically  !
 ! D5    D(4,3,7,5)            177.9259         calculate D2E/DX2 analytically  !
 ! D6    D(4,3,7,14)            -1.0431         calculate D2E/DX2 analytically  !
 ! D7    D(6,3,7,5)             -3.826          calculate D2E/DX2 analytically  !
 ! D8    D(6,3,7,14)           177.2051         calculate D2E/DX2 analytically  !
 ! D9    D(8,5,7,3)           -174.4712         calculate D2E/DX2 analytically  !
 ! D10   D(8,5,7,14)             4.3709         calculate D2E/DX2 analytically  !
 ! D11   D(9,5,7,3)              5.6697         calculate D2E/DX2 analytically  !
 ! D12   D(9,5,7,14)          -175.4882         calculate D2E/DX2 analytically  !
 ! D13   D(7,5,8,2)             -4.3445         calculate D2E/DX2 analytically  !
 ! D14   D(7,5,8,18)           177.0377         calculate D2E/DX2 analytically  !
 ! D15   D(9,5,8,2)            175.5131         calculate D2E/DX2 analytically  !
 ! D16   D(9,5,8,18)            -3.1047         calculate D2E/DX2 analytically  !
 ! D17   D(7,5,9,10)           124.6712         calculate D2E/DX2 analytically  !
 ! D18   D(7,5,9,11)          -127.5202         calculate D2E/DX2 analytically  !
 ! D19   D(7,5,9,12)            -1.4919         calculate D2E/DX2 analytically  !
 ! D20   D(8,5,9,10)           -55.1908         calculate D2E/DX2 analytically  !
 ! D21   D(8,5,9,11)            52.6178         calculate D2E/DX2 analytically  !
 ! D22   D(8,5,9,12)           178.6462         calculate D2E/DX2 analytically  !
 ! D23   D(3,6,12,9)             6.9527         calculate D2E/DX2 analytically  !
 ! D24   D(3,6,12,13)         -172.1393         calculate D2E/DX2 analytically  !
 ! D25   D(26,6,12,9)         -178.331          calculate D2E/DX2 analytically  !
 ! D26   D(26,6,12,13)           2.577          calculate D2E/DX2 analytically  !
 ! D27   D(3,6,26,27)          116.298          calculate D2E/DX2 analytically  !
 ! D28   D(3,6,26,28)         -123.3277         calculate D2E/DX2 analytically  !
 ! D29   D(3,6,26,29)           -3.6673         calculate D2E/DX2 analytically  !
 ! D30   D(12,6,26,27)         -58.5135         calculate D2E/DX2 analytically  !
 ! D31   D(12,6,26,28)          61.8609         calculate D2E/DX2 analytically  !
 ! D32   D(12,6,26,29)        -178.4788         calculate D2E/DX2 analytically  !
 ! D33   D(3,7,14,15)           -8.2742         calculate D2E/DX2 analytically  !
 ! D34   D(3,7,14,16)          112.9766         calculate D2E/DX2 analytically  !
 ! D35   D(3,7,14,17)         -128.9327         calculate D2E/DX2 analytically  !
 ! D36   D(5,7,14,15)          172.8655         calculate D2E/DX2 analytically  !
 ! D37   D(5,7,14,16)          -65.8838         calculate D2E/DX2 analytically  !
 ! D38   D(5,7,14,17)           52.207          calculate D2E/DX2 analytically  !
 ! D39   D(2,8,18,19)            6.1121         calculate D2E/DX2 analytically  !
 ! D40   D(2,8,18,20)          126.4455         calculate D2E/DX2 analytically  !
 ! D41   D(2,8,18,21)         -112.755          calculate D2E/DX2 analytically  !
 ! D42   D(5,8,18,19)         -175.2293         calculate D2E/DX2 analytically  !
 ! D43   D(5,8,18,20)          -54.8959         calculate D2E/DX2 analytically  !
 ! D44   D(5,8,18,21)           65.9036         calculate D2E/DX2 analytically  !
 ! D45   D(5,9,12,6)            -4.9655         calculate D2E/DX2 analytically  !
 ! D46   D(5,9,12,13)          174.2512         calculate D2E/DX2 analytically  !
 ! D47   D(10,9,12,6)         -134.1939         calculate D2E/DX2 analytically  !
 ! D48   D(10,9,12,13)          45.0229         calculate D2E/DX2 analytically  !
 ! D49   D(11,9,12,6)          121.4173         calculate D2E/DX2 analytically  !
 ! D50   D(11,9,12,13)         -59.366          calculate D2E/DX2 analytically  !
 ! D51   D(6,12,13,1)          162.9975         calculate D2E/DX2 analytically  !
 ! D52   D(6,12,13,22)         -18.5898         calculate D2E/DX2 analytically  !
 ! D53   D(9,12,13,1)          -16.1353         calculate D2E/DX2 analytically  !
 ! D54   D(9,12,13,22)         162.2774         calculate D2E/DX2 analytically  !
 ! D55   D(1,13,22,23)         128.6888         calculate D2E/DX2 analytically  !
 ! D56   D(1,13,22,24)        -109.3781         calculate D2E/DX2 analytically  !
 ! D57   D(1,13,22,25)           8.5447         calculate D2E/DX2 analytically  !
 ! D58   D(12,13,22,23)        -49.7496         calculate D2E/DX2 analytically  !
 ! D59   D(12,13,22,24)         72.1835         calculate D2E/DX2 analytically  !
 ! D60   D(12,13,22,25)       -169.8937         calculate D2E/DX2 analytically  !
 --------------------------------------------------------------------------------
 Trust Radius=3.00D-01 FncErr=1.00D-07 GrdErr=1.00D-07 EigMax=2.50D+02 EigMin=1.00D-04
 Number of steps in this run=      2 maximum allowed number of steps=      2.
 GradGradGradGradGradGradGradGradGradGradGradGradGradGradGradGradGradGrad

 Leave Link  103 at Sun Jun 28 19:35:58 2026, MaxMem=  2147483648 cpu:               0.2 elap:               0.0
 (Enter /data/home/wyx/g16/l202.exe)
                          Input orientation:                          
 ---------------------------------------------------------------------
 Center     Atomic      Atomic             Coordinates (Angstroms)
 Number     Number       Type             X           Y           Z
 ---------------------------------------------------------------------
      1          8           0       -0.516760    1.243017    0.000000
      2          8           0       -1.131878    6.878727    2.567845
      3          7           0       -3.916604    3.819470    1.885547
      4          1           0       -4.901650    3.972937    2.049098
      5          6           0       -1.730342    4.702138    1.912056
      6          6           0       -3.568531    2.561884    1.456677
      7          6           0       -3.117152    4.885212    2.085798
      8          6           0       -0.775414    5.756948    2.218962
      9          6           0       -1.251720    3.414857    1.406570
     10          1           0       -0.625540    3.510803    0.500847
     11          1           0       -0.472210    3.017752    2.084574
     12          6           0       -2.225786    2.349410    1.129709
     13          6           0       -1.636321    1.171833    0.509067
     14          6           0       -3.803842    6.140829    2.495622
     15          1           0       -4.885747    6.019773    2.425408
     16          1           0       -3.546913    6.428193    3.514209
     17          1           0       -3.501540    6.970510    1.864717
     18          6           0        0.701213    5.463967    2.071677
     19          1           0        1.245097    6.333462    2.423708
     20          1           0        1.014992    4.590601    2.643778
     21          1           0        0.964016    5.286387    1.028206
     22          6           0       -2.341803   -0.164593    0.495633
     23          1           0       -2.703559   -0.460039    1.480221
     24          1           0       -3.187148   -0.158398   -0.192318
     25          1           0       -1.620980   -0.894112    0.142484
     26          6           0       -4.708195    1.613488    1.296200
     27          1           0       -4.837428    1.298561    0.260143
     28          1           0       -4.572101    0.712796    1.890291
     29          1           0       -5.645092    2.072579    1.615522
 ---------------------------------------------------------------------
                    Distance matrix (angstroms):
                    1          2          3          4          5
     1  O    0.000000
     2  O    6.223618   0.000000
     3  N    4.663940   4.192766   0.000000
     4  H    5.556845   4.787890   1.010256   0.000000
     5  C    4.134520   2.350693   2.357869   3.256948   0.000000
     6  C    3.629687   5.080069   1.373538   2.029591   2.857796
     7  C    4.937426   2.854432   1.347230   2.004501   1.409590
     8  C    5.036494   1.227670   3.705680   4.498597   1.455576
     9  C    2.689887   3.655314   2.737652   3.747837   1.463451
    10  H    2.324980   3.983939   3.583821   4.571189   2.152064
    11  H    2.738087   3.946624   3.542063   4.531399   2.109458
    12  C    2.328329   4.876431   2.364579   3.262110   2.528411
    13  C    1.231923   6.087830   3.755578   4.569492   3.800036
    14  C    6.404811   2.772923   2.402835   2.470693   2.590325
    15  H    6.912890   3.853521   2.464147   2.081202   3.457784
    16  H    6.958271   2.632675   3.097523   3.163881   2.974238
    17  H    6.722370   2.473482   3.178327   3.313570   2.878349
    18  C    4.857131   2.368111   4.905431   5.797909   2.553100
    19  H    5.906871   2.442969   5.766535   6.595067   3.431653
    20  H    4.532344   3.138525   5.048782   5.978445   2.843364
    21  H    4.427047   3.049394   5.167914   6.097000   2.895186
    22  C    2.357499   7.440856   4.503845   5.107370   5.105410
    23  H    3.142220   7.583574   4.466538   4.980613   5.270835
    24  H    3.021907   7.833503   4.546764   5.003138   5.493222
    25  H    2.409756   8.157121   5.525035   6.171397   5.870380
    26  C    4.402898   6.490752   2.416672   2.484206   4.334356
    27  H    4.328849   7.084832   3.137648   3.218194   4.895624
    28  H    4.505566   7.093160   3.175078   3.280601   4.898052
    29  H    5.440393   6.661462   2.472289   2.086158   4.725228
                    6          7          8          9         10
     6  C    0.000000
     7  C    2.448957   0.000000
     8  C    4.311730   2.502278   0.000000
     9  C    2.469349   2.470452   2.524329   0.000000
    10  H    3.236550   3.257177   2.831881   1.105279   0.000000
    11  H    3.192064   3.237766   2.759201   1.106805   1.665773
    12  C    1.398219   2.852881   3.860229   1.469909   2.074871
    13  C    2.561961   4.297456   4.968720   2.446341   2.548044
    14  C    3.734116   1.488648   3.065172   3.889767   4.582332
    15  H    3.824983   2.128495   4.123898   4.585823   5.305490
    16  H    4.379755   2.146123   3.132003   4.334772   5.111354
    17  H    4.427976   2.131924   3.004993   4.232524   4.701180
    18  C    5.199137   3.862003   1.512600   2.907777   2.835953
    19  H    6.191201   4.608777   2.111103   3.973276   3.894109
    20  H    5.151076   4.180042   2.178621   2.837436   2.906796
    21  H    5.305703   4.235018   2.159848   2.924939   2.440798
    22  C    3.140405   5.350731   6.363025   3.851045   4.056368
    23  H    3.143366   5.395321   6.550909   4.138608   4.587475
    24  H    3.203837   5.534683   6.828034   4.366976   4.528283
    25  H    4.178991   6.278183   7.018785   4.505716   4.530188
    26  C    1.491322   3.722776   5.786754   3.899273   4.571702
    27  H    2.153550   4.376806   6.341462   4.318600   4.763607
    28  H    2.148092   4.423139   6.321893   4.308138   5.033363
    29  H    2.139336   3.810846   6.136162   4.598596   5.339184
                   11         12         13         14         15
    11  H    0.000000
    12  C    2.105582   0.000000
    13  C    2.691615   1.455800   0.000000
    14  C    4.585013   4.327914   5.773688   0.000000
    15  H    5.348608   4.714424   6.142773   1.090918   0.000000
    16  H    4.809237   4.905883   6.349060   1.089087   1.773350
    17  H    4.984925   4.849985   6.240311   1.085264   1.770397
    18  C    2.713127   4.376653   5.131104   4.575302   5.625670
    19  H    3.749412   5.440049   6.213762   5.053124   6.138864
    20  H    2.235695   4.221135   4.824358   5.064219   6.075273
    21  H    2.885371   4.337162   4.894978   5.061210   6.058858
    22  C    4.018387   2.595327   1.511264   6.774648   6.960033
    23  H    4.176026   2.871259   2.178335   6.768539   6.902412
    24  H    4.758472   2.993505   2.160213   6.876452   6.921526
    25  H    4.515979   3.443957   2.098272   7.732564   7.979489
    26  C    4.531783   2.594543   3.201726   4.770040   4.552140
    27  H    5.033815   2.946371   3.213271   5.432608   5.194281
    28  H    4.707406   2.960099   3.276782   5.515450   5.343101
    29  H    5.279401   3.464723   4.255095   4.551421   4.100349
                   16         17         18         19         20
    16  H    0.000000
    17  H    1.736949   0.000000
    18  C    4.588813   4.469411   0.000000
    19  H    4.915438   4.821708   1.084323   0.000000
    20  H    4.994534   5.164297   1.090195   1.771706   0.000000
    21  H    5.275643   4.845329   1.090611   1.767144   1.759770
    22  C    7.350437   7.357246   6.589731   7.668640   6.204391
    23  H    7.231604   7.483159   6.858290   7.914146   6.378907
    24  H    7.566436   7.426410   7.201112   8.284482   6.946540
    25  H    8.288178   8.267701   7.038433   8.102852   6.579278
    26  C    5.426742   5.520590   6.685002   7.680567   6.590450
    27  H    6.210274   6.044027   7.163017   8.187084   7.125311
    28  H    6.029418   6.348680   7.100308   8.106554   6.842567
    29  H    5.194106   5.352256   7.210075   8.141437   7.194058
                   21         22         23         24         25
    21  H    0.000000
    22  C    6.397285   0.000000
    23  H    6.832045   1.089757   0.000000
    24  H    6.954676   1.089919   1.766984   0.000000
    25  H    6.757609   1.084665   1.774806   1.762456   0.000000
    26  C    6.762839   3.066315   2.889973   2.769269   4.141258
    27  H    7.081626   2.902485   3.022360   2.247415   3.894508
    28  H    7.232532   2.772925   2.243914   2.648459   3.787624
    29  H    7.372504   4.143767   3.883951   3.779819   5.211964
                   26         27         28         29
    26  C    0.000000
    27  H    1.090548   0.000000
    28  H    1.087526   1.752399   0.000000
    29  H    1.091104   1.757406   1.753801   0.000000
 Stoichiometry    C11H15NO2
 Framework group  C1[X(C11H15NO2)]
 Deg. of freedom    81
 Full point group                 C1      NOp   1
 Largest Abelian subgroup         C1      NOp   1
 Largest concise Abelian subgroup C1      NOp   1
                         Standard orientation:                         
 ---------------------------------------------------------------------
 Center     Atomic      Atomic             Coordinates (Angstroms)
 Number     Number       Type             X           Y           Z
 ---------------------------------------------------------------------
      1          8           0       -2.241128   -2.255014   -0.465764
      2          8           0        3.636209   -0.257408   -0.018650
      3          7           0       -0.009624    1.812975    0.007729
      4          1           0       -0.029359    2.822770   -0.015528
      5          6           0        1.287980   -0.155704    0.016474
      6          6           0       -1.232394    1.190369    0.069411
      7          6           0        1.212516    1.249888   -0.058111
      8          6           0        2.565515   -0.850927    0.073675
      9          6           0        0.042573   -0.924063    0.033009
     10          1           0       -0.006813   -1.686372   -0.765795
     11          1           0        0.045509   -1.615036    0.897627
     12          6           0       -1.239898   -0.206345    0.004992
     13          6           0       -2.394296   -1.086025   -0.108500
     14          6           0        2.354975    2.196473   -0.179923
     15          1           0        1.988942    3.211190   -0.342621
     16          1           0        2.984172    2.187258    0.708973
     17          1           0        3.000476    1.919054   -1.007066
     18          6           0        2.566147   -2.356341    0.220940
     19          1           0        3.596835   -2.675084    0.329763
     20          1           0        1.994682   -2.693749    1.085872
     21          1           0        2.143081   -2.837293   -0.661744
     22          6           0       -3.791392   -0.622536    0.233875
     23          1           0       -3.846759   -0.133765    1.206298
     24          1           0       -4.174612    0.066794   -0.518381
     25          1           0       -4.420705   -1.505964    0.238005
     26          6           0       -2.406616    2.109505    0.090201
     27          1           0       -3.039254    1.987276   -0.789643
     28          1           0       -3.035008    1.943885    0.962214
     29          1           0       -2.085136    3.151829    0.116973
 ---------------------------------------------------------------------
 Rotational constants (GHZ):           1.0774487           0.4886874           0.3424116
 Leave Link  202 at Sun Jun 28 19:35:58 2026, MaxMem=  2147483648 cpu:               0.2 elap:               0.0
 (Enter /data/home/wyx/g16/l301.exe)
 Standard basis: TZVP (5D, 7F)
 Ernie: Thresh=  0.10000D-02 Tol=  0.10000D-05 Strict=F.
 There are   370 symmetry adapted cartesian basis functions of A   symmetry.
 There are   356 symmetry adapted basis functions of A   symmetry.
   356 basis functions,   610 primitive gaussians,   370 cartesian basis functions
    52 alpha electrons       52 beta electrons
       nuclear repulsion energy       899.0484967017 Hartrees.
 IExCor=20419 DFT=T Ex+Corr=CAM-B3LYP ExCW=0 ScaHFX=  1.000000
 ScaDFX=  1.000000  1.000000  1.000000  0.810000 ScalE2=  1.000000  1.000000
 IRadAn=      5 IRanWt=     -1 IRanGd=            0 ICorTp=0 IEmpDi=  4
 HFx  wShort=  0.000000 wLong=  0.330000 cFull=  0.190000 cShort=  0.000000 cLong=  0.460000
 DFx  wShort=  0.000000 wLong=  0.330000 cFull=  0.190000 cShort=  0.000000 cLong=  0.460000
 NAtoms=   29 NActive=   29 NUniq=   29 SFac= 1.00D+00 NAtFMM=   60 NAOKFM=F Big=F
 Integral buffers will be    131072 words long.
 Raffenetti 1 integral format.
 Two-electron integral symmetry is turned on.
 Leave Link  301 at Sun Jun 28 19:35:58 2026, MaxMem=  2147483648 cpu:               1.0 elap:               0.1
 (Enter /data/home/wyx/g16/l302.exe)
 NPDir=0 NMtPBC=     1 NCelOv=     1 NCel=       1 NClECP=     1 NCelD=      1
         NCelK=      1 NCelE2=     1 NClLst=     1 CellRange=     0.0.
 One-electron integrals computed using PRISM.
 One-electron integral symmetry used in STVInt
 NBasis=   356 RedAO= T EigKep=  3.42D-05  NBF=   356
 NBsUse=   356 1.00D-06 EigRej= -1.00D+00 NBFU=   356
 Precomputing XC quadrature grid using
 IXCGrd= 4 IRadAn=           5 IRanWt=          -1 IRanGd=           0 AccXCQ= 0.00D+00.
 Generated NRdTot=       0 NPtTot=           0 NUsed=           0 NTot=          32
 NSgBfM=   366   366   366   366   366 MxSgAt=    29 MxSgA2=    29.
 Leave Link  302 at Sun Jun 28 19:35:59 2026, MaxMem=  2147483648 cpu:               4.2 elap:               0.3
 (Enter /data/home/wyx/g16/l303.exe)
 DipDrv:  MaxL=1.
 Leave Link  303 at Sun Jun 28 19:35:59 2026, MaxMem=  2147483648 cpu:               0.8 elap:               0.1
 (Enter /data/home/wyx/g16/l308.exe)
 Leave Link  308 at Sun Jun 28 19:35:59 2026, MaxMem=  2147483648 cpu:               0.9 elap:               0.1
 (Enter /data/home/wyx/g16/l401.exe)
 ExpMin= 9.52D-02 ExpMax= 2.70D+04 ExpMxC= 9.22D+02 IAcc=3 IRadAn=         5 AccDes= 0.00D+00
 Harris functional with IExCor=20419 and IRadAn=       5 diagonalized for initial guess.
 HarFok:  IExCor=20419 AccDes= 0.00D+00 IRadAn=         5 IDoV= 1 UseB2=F ITyADJ=14
 ICtDFT=  3500011 ScaDFX=  1.000000  1.000000  1.000000  1.000000
 FoFCou: FMM=F IPFlag=           0 FMFlag=      100000 FMFlg1=           0
         NFxFlg=           0 DoJE=T BraDBF=F KetDBF=T FulRan=T
         wScrn=  0.000000 ICntrl=       500 IOpCl=  0 I1Cent=   200000004 NGrid=           0
         NMat0=    1 NMatS0=      1 NMatT0=    0 NMatD0=    1 NMtDS0=    0 NMtDT0=    0
 Petite list used in FoFCou.
 Harris En= -608.679145897082    
 JPrj=0 DoOrth=F DoCkMO=F.
 Leave Link  401 at Sun Jun 28 19:36:00 2026, MaxMem=  2147483648 cpu:              13.2 elap:               0.9
 (Enter /data/home/wyx/g16/l502.exe)
 Integral symmetry usage will be decided dynamically.
 Closed shell SCF:
 Using DIIS extrapolation, IDIIS=  1040.
 NGot=  2147483648 LenX=  2147200095 LenY=  2147062754
 Requested convergence on RMS density matrix=1.00D-08 within 128 cycles.
 Requested convergence on MAX density matrix=1.00D-06.
 Requested convergence on             energy=1.00D-06.
 No special actions if energy rises.
 Fock matrices will be formed incrementally for  20 cycles.
 Integral accuracy reduced to 1.0D-05 until final iterations.

 Cycle   1  Pass 0  IDiag  1:
 FoFJK:  IHMeth= 1 ICntrl=       0 DoSepK=T KAlg= 0 I1Cent=           0 FoldK=F
 IRaf=         1 NMat=       1 IRICut=       1 DoRegI=T DoRafI=F ISym2E= 0 IDoP0=0 IntGTp=1.
 FoFCou: FMM=F IPFlag=           0 FMFlag=      100000 FMFlg1=           0
         NFxFlg=           0 DoJE=T BraDBF=F KetDBF=F FulRan=T
         wScrn=  0.000000 ICntrl=       500 IOpCl=  0 I1Cent=           0 NGrid=           0
         NMat0=    1 NMatS0=      1 NMatT0=    0 NMatD0=    1 NMtDS0=    0 NMtDT0=    0
 Symmetry not used in FoFCou.
 E= -633.051145655312    
 DIIS: error= 4.20D-02 at cycle   1 NSaved=   1.
 NSaved= 1 IEnMin= 1 EnMin= -633.051145655312     IErMin= 1 ErrMin= 4.20D-02
 ErrMax= 4.20D-02  0.00D+00 EMaxC= 1.00D-01 BMatC= 1.11D+00 BMatP= 1.11D+00
 IDIUse=3 WtCom= 5.80D-01 WtEn= 4.20D-01
 Coeff-Com:  0.100D+01
 Coeff-En:   0.100D+01
 Coeff:      0.100D+01
 Gap=     0.192 Goal=   None    Shift=    0.000
 GapD=    0.192 DampG=1.000 DampE=0.500 DampFc=0.5000 IDamp=-1.
 Damping current iteration by 5.00D-01
 RMSDP=4.47D-03 MaxDP=1.87D-01              OVMax= 2.24D-01

 Cycle   2  Pass 0  IDiag  1:
 RMSU=  2.16D-03    CP:  9.58D-01
 E= -633.152345731232     Delta-E=       -0.101200075920 Rises=F Damp=T
 DIIS: error= 2.08D-02 at cycle   2 NSaved=   2.
 NSaved= 2 IEnMin= 2 EnMin= -633.152345731232     IErMin= 2 ErrMin= 2.08D-02
 ErrMax= 2.08D-02  0.00D+00 EMaxC= 1.00D-01 BMatC= 2.28D-01 BMatP= 1.11D+00
 IDIUse=3 WtCom= 7.92D-01 WtEn= 2.08D-01
 Coeff-Com: -0.532D+00 0.153D+01
 Coeff-En:   0.000D+00 0.100D+01
 Coeff:     -0.421D+00 0.142D+01
 Gap=     0.219 Goal=   None    Shift=    0.000
 RMSDP=2.66D-03 MaxDP=1.13D-01 DE=-1.01D-01 OVMax= 2.26D-01

 Cycle   3  Pass 0  IDiag  1:
 RMSU=  2.52D-03    CP:  8.97D-01  9.86D-01
 E= -633.179257108962     Delta-E=       -0.026911377730 Rises=F Damp=F
 DIIS: error= 1.89D-02 at cycle   3 NSaved=   3.
 NSaved= 3 IEnMin= 3 EnMin= -633.179257108962     IErMin= 3 ErrMin= 1.89D-02
 ErrMax= 1.89D-02  0.00D+00 EMaxC= 1.00D-01 BMatC= 1.01D-01 BMatP= 2.28D-01
 IDIUse=3 WtCom= 8.11D-01 WtEn= 1.89D-01
 Coeff-Com: -0.372D+00 0.827D+00 0.544D+00
 Coeff-En:   0.000D+00 0.340D+00 0.660D+00
 Coeff:     -0.301D+00 0.735D+00 0.566D+00
 Gap=     0.219 Goal=   None    Shift=    0.000
 RMSDP=1.66D-03 MaxDP=5.92D-02 DE=-2.69D-02 OVMax= 1.29D-01

 Cycle   4  Pass 0  IDiag  1:
 RMSU=  7.14D-04    CP:  8.86D-01  1.42D+00  5.41D-01
 E= -633.265903896741     Delta-E=       -0.086646787779 Rises=F Damp=F
 DIIS: error= 5.86D-03 at cycle   4 NSaved=   4.
 NSaved= 4 IEnMin= 4 EnMin= -633.265903896741     IErMin= 4 ErrMin= 5.86D-03
 ErrMax= 5.86D-03  0.00D+00 EMaxC= 1.00D-01 BMatC= 8.85D-03 BMatP= 1.01D-01
 IDIUse=3 WtCom= 9.41D-01 WtEn= 5.86D-02
 Coeff-Com: -0.147D+00 0.322D+00 0.325D+00 0.500D+00
 Coeff-En:   0.000D+00 0.000D+00 0.267D-01 0.973D+00
 Coeff:     -0.139D+00 0.303D+00 0.308D+00 0.528D+00
 Gap=     0.213 Goal=   None    Shift=    0.000
 RMSDP=4.94D-04 MaxDP=1.88D-02 DE=-8.66D-02 OVMax= 3.15D-02

 Cycle   5  Pass 0  IDiag  1:
 RMSU=  2.04D-04    CP:  8.80D-01  1.36D+00  6.96D-01  7.83D-01
 E= -633.273919353627     Delta-E=       -0.008015456886 Rises=F Damp=F
 DIIS: error= 8.12D-04 at cycle   5 NSaved=   5.
 NSaved= 5 IEnMin= 5 EnMin= -633.273919353627     IErMin= 5 ErrMin= 8.12D-04
 ErrMax= 8.12D-04  0.00D+00 EMaxC= 1.00D-01 BMatC= 1.22D-04 BMatP= 8.85D-03
 IDIUse=3 WtCom= 9.92D-01 WtEn= 8.12D-03
 Coeff-Com: -0.419D-02 0.874D-02 0.204D-01 0.128D+00 0.847D+00
 Coeff-En:   0.000D+00 0.000D+00 0.000D+00 0.000D+00 0.100D+01
 Coeff:     -0.415D-02 0.867D-02 0.202D-01 0.127D+00 0.848D+00
 Gap=     0.215 Goal=   None    Shift=    0.000
 RMSDP=1.12D-04 MaxDP=7.72D-03 DE=-8.02D-03 OVMax= 5.18D-03

 Cycle   6  Pass 0  IDiag  1:
 RMSU=  7.92D-05    CP:  8.78D-01  1.37D+00  6.95D-01  8.59D-01  8.70D-01
 E= -633.274020498468     Delta-E=       -0.000101144842 Rises=F Damp=F
 DIIS: error= 3.86D-04 at cycle   6 NSaved=   6.
 NSaved= 6 IEnMin= 6 EnMin= -633.274020498468     IErMin= 6 ErrMin= 3.86D-04
 ErrMax= 3.86D-04  0.00D+00 EMaxC= 1.00D-01 BMatC= 4.73D-05 BMatP= 1.22D-04
 IDIUse=3 WtCom= 9.96D-01 WtEn= 3.86D-03
 Coeff-Com:  0.144D-01-0.318D-01-0.248D-01 0.175D-01 0.531D+00 0.494D+00
 Coeff-En:   0.000D+00 0.000D+00 0.000D+00 0.000D+00 0.839D-01 0.916D+00
 Coeff:      0.144D-01-0.317D-01-0.247D-01 0.174D-01 0.529D+00 0.496D+00
 Gap=     0.215 Goal=   None    Shift=    0.000
 RMSDP=5.50D-05 MaxDP=4.99D-03 DE=-1.01D-04 OVMax= 1.44D-03

 Cycle   7  Pass 0  IDiag  1:
 RMSU=  2.75D-05    CP:  8.77D-01  1.37D+00  7.00D-01  8.66D-01  1.04D+00
                    CP:  6.61D-01
 E= -633.274055516632     Delta-E=       -0.000035018164 Rises=F Damp=F
 DIIS: error= 5.81D-05 at cycle   7 NSaved=   7.
 NSaved= 7 IEnMin= 7 EnMin= -633.274055516632     IErMin= 7 ErrMin= 5.81D-05
 ErrMax= 5.81D-05  0.00D+00 EMaxC= 1.00D-01 BMatC= 1.54D-06 BMatP= 4.73D-05
 IDIUse=1 WtCom= 1.00D+00 WtEn= 0.00D+00
 Coeff-Com:  0.493D-02-0.108D-01-0.914D-02-0.818D-02 0.923D-01 0.173D+00
 Coeff-Com:  0.757D+00
 Coeff:      0.493D-02-0.108D-01-0.914D-02-0.818D-02 0.923D-01 0.173D+00
 Coeff:      0.757D+00
 Gap=     0.215 Goal=   None    Shift=    0.000
 RMSDP=1.47D-05 MaxDP=9.50D-04 DE=-3.50D-05 OVMax= 5.80D-04

 Cycle   8  Pass 0  IDiag  1:
 RMSU=  7.80D-06    CP:  8.76D-01  1.37D+00  7.02D-01  8.73D-01  1.06D+00
                    CP:  7.45D-01  1.02D+00
 E= -633.274058015825     Delta-E=       -0.000002499193 Rises=F Damp=F
 DIIS: error= 2.21D-05 at cycle   8 NSaved=   8.
 NSaved= 8 IEnMin= 8 EnMin= -633.274058015825     IErMin= 8 ErrMin= 2.21D-05
 ErrMax= 2.21D-05  0.00D+00 EMaxC= 1.00D-01 BMatC= 2.24D-07 BMatP= 1.54D-06
 IDIUse=1 WtCom= 1.00D+00 WtEn= 0.00D+00
 Coeff-Com:  0.364D-03-0.751D-03-0.939D-03-0.745D-02-0.376D-01 0.218D-02
 Coeff-Com:  0.289D+00 0.755D+00
 Coeff:      0.364D-03-0.751D-03-0.939D-03-0.745D-02-0.376D-01 0.218D-02
 Coeff:      0.289D+00 0.755D+00
 Gap=     0.215 Goal=   None    Shift=    0.000
 RMSDP=7.52D-06 MaxDP=4.87D-04 DE=-2.50D-06 OVMax= 3.38D-04

 Initial convergence to 1.0D-05 achieved.  Increase integral accuracy.
 Cycle   9  Pass 1  IDiag  1:
 E= -633.274049041324     Delta-E=        0.000008974501 Rises=F Damp=F
 DIIS: error= 7.95D-05 at cycle   1 NSaved=   1.
 NSaved= 1 IEnMin= 1 EnMin= -633.274049041324     IErMin= 1 ErrMin= 7.95D-05
 ErrMax= 7.95D-05  0.00D+00 EMaxC= 1.00D-01 BMatC= 1.88D-06 BMatP= 1.88D-06
 IDIUse=1 WtCom= 1.00D+00 WtEn= 0.00D+00
 Coeff-Com:  0.100D+01
 Coeff:      0.100D+01
 Gap=     0.215 Goal=   None    Shift=    0.000
 RMSDP=7.52D-06 MaxDP=4.87D-04 DE= 8.97D-06 OVMax= 2.97D-04

 Cycle  10  Pass 1  IDiag  1:
 RMSU=  2.12D-04    CP:  9.99D-01
 E= -633.274050619975     Delta-E=       -0.000001578652 Rises=F Damp=F
 DIIS: error= 1.06D-05 at cycle   2 NSaved=   2.
 NSaved= 2 IEnMin= 2 EnMin= -633.274050619975     IErMin= 2 ErrMin= 1.06D-05
 ErrMax= 1.06D-05  0.00D+00 EMaxC= 1.00D-01 BMatC= 5.83D-08 BMatP= 1.88D-06
 IDIUse=1 WtCom= 1.00D+00 WtEn= 0.00D+00
 Coeff-Com:  0.238D-01 0.976D+00
 Coeff:      0.238D-01 0.976D+00
 Gap=     0.215 Goal=   None    Shift=    0.000
 RMSDP=1.26D-05 MaxDP=4.72D-04 DE=-1.58D-06 OVMax= 1.02D-04

 Cycle  11  Pass 1  IDiag  1:
 RMSU=  4.21D-06    CP:  9.99D-01  1.06D+00
 E= -633.274050582750     Delta-E=        0.000000037225 Rises=F Damp=F
 DIIS: error= 1.67D-05 at cycle   3 NSaved=   3.
 NSaved= 3 IEnMin= 2 EnMin= -633.274050619975     IErMin= 2 ErrMin= 1.06D-05
 ErrMax= 1.67D-05  0.00D+00 EMaxC= 1.00D-01 BMatC= 1.18D-07 BMatP= 5.83D-08
 IDIUse=1 WtCom= 1.00D+00 WtEn= 0.00D+00
 Coeff-Com: -0.144D-01 0.596D+00 0.419D+00
 Coeff:     -0.144D-01 0.596D+00 0.419D+00
 Gap=     0.215 Goal=   None    Shift=    0.000
 RMSDP=2.06D-06 MaxDP=1.53D-04 DE= 3.72D-08 OVMax= 6.70D-05

 Cycle  12  Pass 1  IDiag  1:
 RMSU=  1.41D-06    CP:  9.99D-01  1.06D+00  7.61D-01
 E= -633.274050668846     Delta-E=       -0.000000086095 Rises=F Damp=F
 DIIS: error= 1.97D-06 at cycle   4 NSaved=   4.
 NSaved= 4 IEnMin= 4 EnMin= -633.274050668846     IErMin= 4 ErrMin= 1.97D-06
 ErrMax= 1.97D-06  0.00D+00 EMaxC= 1.00D-01 BMatC= 1.61D-09 BMatP= 5.83D-08
 IDIUse=1 WtCom= 1.00D+00 WtEn= 0.00D+00
 Coeff-Com: -0.767D-02 0.267D+00 0.210D+00 0.531D+00
 Coeff:     -0.767D-02 0.267D+00 0.210D+00 0.531D+00
 Gap=     0.215 Goal=   None    Shift=    0.000
 RMSDP=3.84D-07 MaxDP=3.05D-05 DE=-8.61D-08 OVMax= 9.93D-06

 Cycle  13  Pass 1  IDiag  1:
 RMSU=  2.30D-07    CP:  9.99D-01  1.06D+00  8.06D-01  9.47D-01
 E= -633.274050670109     Delta-E=       -0.000000001263 Rises=F Damp=F
 DIIS: error= 1.10D-06 at cycle   5 NSaved=   5.
 NSaved= 5 IEnMin= 5 EnMin= -633.274050670109     IErMin= 5 ErrMin= 1.10D-06
 ErrMax= 1.10D-06  0.00D+00 EMaxC= 1.00D-01 BMatC= 1.15D-10 BMatP= 1.61D-09
 IDIUse=1 WtCom= 1.00D+00 WtEn= 0.00D+00
 Coeff-Com:  0.115D-02-0.600D-01-0.282D-01 0.147D+00 0.940D+00
 Coeff:      0.115D-02-0.600D-01-0.282D-01 0.147D+00 0.940D+00
 Gap=     0.215 Goal=   None    Shift=    0.000
 RMSDP=2.68D-07 MaxDP=1.07D-05 DE=-1.26D-09 OVMax= 1.40D-05

 Cycle  14  Pass 1  IDiag  1:
 RMSU=  1.13D-07    CP:  9.99D-01  1.06D+00  8.34D-01  1.01D+00  1.15D+00
 E= -633.274050670363     Delta-E=       -0.000000000254 Rises=F Damp=F
 DIIS: error= 2.64D-07 at cycle   6 NSaved=   6.
 NSaved= 6 IEnMin= 6 EnMin= -633.274050670363     IErMin= 6 ErrMin= 2.64D-07
 ErrMax= 2.64D-07  0.00D+00 EMaxC= 1.00D-01 BMatC= 1.76D-11 BMatP= 1.15D-10
 IDIUse=1 WtCom= 1.00D+00 WtEn= 0.00D+00
 Coeff-Com:  0.115D-02-0.480D-01-0.279D-01 0.104D-02 0.335D+00 0.738D+00
 Coeff:      0.115D-02-0.480D-01-0.279D-01 0.104D-02 0.335D+00 0.738D+00
 Gap=     0.215 Goal=   None    Shift=    0.000
 RMSDP=6.37D-08 MaxDP=4.29D-06 DE=-2.54D-10 OVMax= 3.12D-06

 Cycle  15  Pass 1  IDiag  1:
 RMSU=  4.17D-08    CP:  9.99D-01  1.06D+00  8.41D-01  1.00D+00  1.28D+00
                    CP:  1.10D+00
 E= -633.274050670395     Delta-E=       -0.000000000032 Rises=F Damp=F
 DIIS: error= 2.19D-07 at cycle   7 NSaved=   7.
 NSaved= 7 IEnMin= 7 EnMin= -633.274050670395     IErMin= 7 ErrMin= 2.19D-07
 ErrMax= 2.19D-07  0.00D+00 EMaxC= 1.00D-01 BMatC= 4.96D-12 BMatP= 1.76D-11
 IDIUse=1 WtCom= 1.00D+00 WtEn= 0.00D+00
 Coeff-Com:  0.354D-03-0.120D-01-0.752D-02-0.288D-01-0.226D-01 0.389D+00
 Coeff-Com:  0.681D+00
 Coeff:      0.354D-03-0.120D-01-0.752D-02-0.288D-01-0.226D-01 0.389D+00
 Coeff:      0.681D+00
 Gap=     0.215 Goal=   None    Shift=    0.000
 RMSDP=2.82D-08 MaxDP=1.52D-06 DE=-3.16D-11 OVMax= 2.31D-06

 Cycle  16  Pass 1  IDiag  1:
 RMSU=  1.25D-08    CP:  9.99D-01  1.06D+00  8.42D-01  9.97D-01  1.30D+00
                    CP:  1.25D+00  1.15D+00
 E= -633.274050670402     Delta-E=       -0.000000000008 Rises=F Damp=F
 DIIS: error= 3.96D-08 at cycle   8 NSaved=   8.
 NSaved= 8 IEnMin= 8 EnMin= -633.274050670402     IErMin= 8 ErrMin= 3.96D-08
 ErrMax= 3.96D-08  0.00D+00 EMaxC= 1.00D-01 BMatC= 6.14D-13 BMatP= 4.96D-12
 IDIUse=1 WtCom= 1.00D+00 WtEn= 0.00D+00
 Coeff-Com: -0.242D-04 0.228D-02 0.991D-03-0.134D-01-0.730D-01 0.521D-01
 Coeff-Com:  0.292D+00 0.739D+00
 Coeff:     -0.242D-04 0.228D-02 0.991D-03-0.134D-01-0.730D-01 0.521D-01
 Coeff:      0.292D+00 0.739D+00
 Gap=     0.215 Goal=   None    Shift=    0.000
 RMSDP=1.35D-08 MaxDP=6.30D-07 DE=-7.73D-12 OVMax= 7.56D-07

 Cycle  17  Pass 1  IDiag  1:
 RMSU=  5.71D-09    CP:  9.99D-01  1.06D+00  8.42D-01  9.94D-01  1.31D+00
                    CP:  1.27D+00  1.27D+00  1.01D+00
 E= -633.274050670398     Delta-E=        0.000000000004 Rises=F Damp=F
 DIIS: error= 1.66D-08 at cycle   9 NSaved=   9.
 NSaved= 9 IEnMin= 8 EnMin= -633.274050670402     IErMin= 9 ErrMin= 1.66D-08
 ErrMax= 1.66D-08  0.00D+00 EMaxC= 1.00D-01 BMatC= 1.06D-13 BMatP= 6.14D-13
 IDIUse=1 WtCom= 1.00D+00 WtEn= 0.00D+00
 Coeff-Com: -0.471D-04 0.229D-02 0.121D-02-0.291D-02-0.317D-01-0.914D-02
 Coeff-Com:  0.694D-01 0.370D+00 0.601D+00
 Coeff:     -0.471D-04 0.229D-02 0.121D-02-0.291D-02-0.317D-01-0.914D-02
 Coeff:      0.694D-01 0.370D+00 0.601D+00
 Gap=     0.215 Goal=   None    Shift=    0.000
 RMSDP=2.95D-09 MaxDP=2.51D-07 DE= 4.32D-12 OVMax= 2.30D-07

 SCF Done:  E(RCAM-B3LYP) =  -633.274050670     A.U. after   17 cycles
            NFock= 17  Conv=0.30D-08     -V/T= 2.0042
 KE= 6.306522785033D+02 PE=-3.273923945809D+03 EE= 1.110949119934D+03
 Leave Link  502 at Sun Jun 28 19:36:49 2026, MaxMem=  2147483648 cpu:             770.1 elap:              48.3
 (Enter /data/home/wyx/g16/l801.exe)
 DoSCS=F DFT=T ScalE2(SS,OS)=  1.000000  1.000000
 ExpMin= 9.52D-02 ExpMax= 2.70D+04 ExpMxC= 9.22D+02 IAcc=3 IRadAn=         5 AccDes= 0.00D+00
 HarFok:  IExCor=  205 AccDes= 0.00D+00 IRadAn=         5 IDoV=-2 UseB2=F ITyADJ=14
 ICtDFT= 12500011 ScaDFX=  1.000000  1.000000  1.000000  1.000000
 Largest valence mixing into a core orbital is  5.59D-05
 Largest core mixing into a valence orbital is  1.08D-05
 Range of M.O.s used for correlation:    15   356
 NBasis=   356 NAE=    52 NBE=    52 NFC=    14 NFV=     0
 NROrb=    342 NOA=    38 NOB=    38 NVA=   304 NVB=   304

 **** Warning!!: The largest alpha MO coefficient is  0.48901661D+02

 Leave Link  801 at Sun Jun 28 19:36:49 2026, MaxMem=  2147483648 cpu:               1.3 elap:               0.1
 (Enter /data/home/wyx/g16/l914.exe)
 RHF ground state
 Two-electron integrals replicated using symmetry.
 MDV=  2147483648 DFT=T DoStab=F Mixed=T DoRPA=T DoScal=F NonHer=T
 Making orbital integer symmetry assigments:
 Orbital symmetries:
       Occupied  (A) (A) (A) (A) (A) (A) (A) (A) (A) (A) (A) (A)
                 (A) (A) (A) (A) (A) (A) (A) (A) (A) (A) (A) (A)
                 (A) (A) (A) (A) (A) (A) (A) (A) (A) (A) (A) (A)
                 (A) (A) (A) (A) (A) (A) (A) (A) (A) (A) (A) (A)
                 (A) (A) (A) (A)
       Virtual   (A) (A) (A) (A) (A) (A) (A) (A) (A) (A) (A) (A)
                 (A) (A) (A) (A) (A) (A) (A) (A) (A) (A) (A) (A)
                 (A) (A) (A) (A) (A) (A) (A) (A) (A) (A) (A) (A)
                 (A) (A) (A) (A) (A) (A) (A) (A) (A) (A) (A) (A)
                 (A) (A) (A) (A) (A) (A) (A) (A) (A) (A) (A) (A)
                 (A) (A) (A) (A) (A) (A) (A) (A) (A) (A) (A) (A)
                 (A) (A) (A) (A) (A) (A) (A) (A) (A) (A) (A) (A)
                 (A) (A) (A) (A) (A) (A) (A) (A) (A) (A) (A) (A)
                 (A) (A) (A) (A) (A) (A) (A) (A) (A) (A) (A) (A)
                 (A) (A) (A) (A) (A) (A) (A) (A) (A) (A) (A) (A)
                 (A) (A) (A) (A) (A) (A) (A) (A) (A) (A) (A) (A)
                 (A) (A) (A) (A) (A) (A) (A) (A) (A) (A) (A) (A)
                 (A) (A) (A) (A) (A) (A) (A) (A) (A) (A) (A) (A)
                 (A) (A) (A) (A) (A) (A) (A) (A) (A) (A) (A) (A)
                 (A) (A) (A) (A) (A) (A) (A) (A) (A) (A) (A) (A)
                 (A) (A) (A) (A) (A) (A) (A) (A) (A) (A) (A) (A)
                 (A) (A) (A) (A) (A) (A) (A) (A) (A) (A) (A) (A)
                 (A) (A) (A) (A) (A) (A) (A) (A) (A) (A) (A) (A)
                 (A) (A) (A) (A) (A) (A) (A) (A) (A) (A) (A) (A)
                 (A) (A) (A) (A) (A) (A) (A) (A) (A) (A) (A) (A)
                 (A) (A) (A) (A) (A) (A) (A) (A) (A) (A) (A) (A)
                 (A) (A) (A) (A) (A) (A) (A) (A) (A) (A) (A) (A)
                 (A) (A) (A) (A) (A) (A) (A) (A) (A) (A) (A) (A)
                 (A) (A) (A) (A) (A) (A) (A) (A) (A) (A) (A) (A)
                 (A) (A) (A) (A) (A) (A) (A) (A) (A) (A) (A) (A)
                 (A) (A) (A) (A)
    24 initial guesses have been made.
 Convergence on wavefunction:    0.000001000000000
 Davidson Disk Diagonalization:  ConvIn= 1.00D-06 SkipCon=T Conv= 1.00D-06.
 Max sub-space:  2000 roots to seek:    24 dimension of matrix:        23104
 Iteration     1 Dimension    24 NMult     0 NNew     24
 CISAX will form    24 AO SS matrices at one time.
 NMat=    24 NSing=    24 JSym2X= 0.
 FoFJK:  IHMeth= 1 ICntrl=       0 DoSepK=T KAlg= 0 I1Cent=           0 FoldK=F
 IRaf=         1 NMat=      48 IRICut=       1 DoRegI=T DoRafI=F ISym2E= 0 IDoP0=3 IntGTp=3.
 FoFCou: FMM=F IPFlag=           0 FMFlag=      100000 FMFlg1=           0
         NFxFlg=           0 DoJE=F BraDBF=F KetDBF=F FulRan=T
         wScrn=  0.000000 ICntrl=       500 IOpCl=  0 I1Cent=           0 NGrid=           0
         NMat0=   24 NMatS0=     24 NMatT0=    0 NMatD0=   24 NMtDS0=    0 NMtDT0=    0
 Symmetry not used in FoFCou.
 New state      3 was old state      4
 New state      4 was old state      3
 New state      6 was old state      7
 Excitation Energies [eV] at current iteration:
 Root      1 :     3.390349211398358
 Root      2 :     4.059794064443931
 Root      3 :     4.302049842814260
 Root      4 :     5.288500878012282
 Root      5 :     5.377515231058305
 Root      6 :     6.006697394241538
 Root      7 :     6.297849292282641
 Root      8 :     6.439728440590939
 Root      9 :     6.494421631632766
 Root     10 :     6.756317681050624
 Root     11 :     6.951175465383270
 Root     12 :     7.072487029168825
 Root     13 :     7.419173013013046
 Root     14 :     7.477900345499223
 Root     15 :     7.564772746631069
 Root     16 :     7.663033263819520
 Root     17 :     7.673469263793913
 Root     18 :     7.687976675061621
 Root     19 :     7.851596535894320
 Root     20 :     7.926934857449806
 Root     21 :     7.997287146673483
 Root     22 :     8.413723618328198
 Root     23 :     8.557705019663896
 Root     24 :     8.673488603365399
 Iteration     2 Dimension    36 NMult    24 NNew     12
 CISAX will form    12 AO SS matrices at one time.
 NMat=    12 NSing=    12 JSym2X= 0.
 Root      1 not converged, maximum delta is    0.049656471411294
 Root      2 not converged, maximum delta is    0.073440431742692
 Root      3 not converged, maximum delta is    0.093498182820618
 Root      4 not converged, maximum delta is    0.105693063190404
 Root      5 not converged, maximum delta is    0.039958453803906
 Root      6 not converged, maximum delta is    0.334300928779108
 Excitation Energies [eV] at current iteration:
 Root      1 :     2.947883768162401   Change is   -0.442465443235957
 Root      2 :     3.834242723111822   Change is   -0.225551341332109
 Root      3 :     4.020568602910236   Change is   -0.281481239904024
 Root      4 :     5.001272406880802   Change is   -0.287228471131481
 Root      5 :     5.281238049115879   Change is   -0.096277181942426
 Root      6 :     5.770399064204356   Change is   -0.236298330037182
 Iteration     3 Dimension    48 NMult    36 NNew     12
 CISAX will form    12 AO SS matrices at one time.
 NMat=    12 NSing=    12 JSym2X= 0.
 Root      1 not converged, maximum delta is    0.008225684406270
 Root      2 not converged, maximum delta is    0.021888736937545
 Root      3 not converged, maximum delta is    0.018298914054190
 Root      4 not converged, maximum delta is    0.088041390538535
 Root      5 not converged, maximum delta is    0.017274464819370
 Root      6 not converged, maximum delta is    0.290556731609020
 Excitation Energies [eV] at current iteration:
 Root      1 :     2.930214380886360   Change is   -0.017669387276042
 Root      2 :     3.818329138838667   Change is   -0.015913584273155
 Root      3 :     3.999030580492778   Change is   -0.021538022417458
 Root      4 :     4.963523747516684   Change is   -0.037748659364117
 Root      5 :     5.278380389748742   Change is   -0.002857659367137
 Root      6 :     5.508900277159818   Change is   -0.261498787044538
 Iteration     4 Dimension    60 NMult    48 NNew     12
 CISAX will form    12 AO SS matrices at one time.
 NMat=    12 NSing=    12 JSym2X= 0.
 Root      1 not converged, maximum delta is    0.002144369875000
 Root      2 not converged, maximum delta is    0.002267378711083
 Root      3 not converged, maximum delta is    0.003580901133115
 Root      4 not converged, maximum delta is    0.012750540446176
 Root      5 not converged, maximum delta is    0.004123814965545
 Root      6 not converged, maximum delta is    0.022398507347989
 Excitation Energies [eV] at current iteration:
 Root      1 :     2.928767095223753   Change is   -0.001447285662607
 Root      2 :     3.817519782720852   Change is   -0.000809356117814
 Root      3 :     3.997520920740107   Change is   -0.001509659752671
 Root      4 :     4.958739078915552   Change is   -0.004784668601133
 Root      5 :     5.278211752446813   Change is   -0.000168637301929
 Root      6 :     5.479047110902758   Change is   -0.029853166257061
 Iteration     5 Dimension    72 NMult    60 NNew     12
 CISAX will form    12 AO SS matrices at one time.
 NMat=    12 NSing=    12 JSym2X= 0.
 Root      1 not converged, maximum delta is    0.000633780529510
 Root      2 not converged, maximum delta is    0.000450336787809
 Root      3 not converged, maximum delta is    0.000501377990177
 Root      4 not converged, maximum delta is    0.001208926314156
 Root      5 not converged, maximum delta is    0.000324653722139
 Root      6 not converged, maximum delta is    0.002924718357861
 Excitation Energies [eV] at current iteration:
 Root      1 :     2.928677730305403   Change is   -0.000089364918350
 Root      2 :     3.817460944791191   Change is   -0.000058837929661
 Root      3 :     3.997430788455999   Change is   -0.000090132284108
 Root      4 :     4.958335938637205   Change is   -0.000403140278346
 Root      5 :     5.278199428398285   Change is   -0.000012324048529
 Root      6 :     5.476673052841344   Change is   -0.002374058061414
 Iteration     6 Dimension    84 NMult    72 NNew     12
 CISAX will form    12 AO SS matrices at one time.
 NMat=    12 NSing=    12 JSym2X= 0.
 Root      1 not converged, maximum delta is    0.000113730153197
 Root      2 not converged, maximum delta is    0.000179743066717
 Root      3 not converged, maximum delta is    0.000212158738480
 Root      4 not converged, maximum delta is    0.000546667657753
 Root      5 not converged, maximum delta is    0.000071902492401
 Root      6 not converged, maximum delta is    0.001215362800520
 Excitation Energies [eV] at current iteration:
 Root      1 :     2.928672817405405   Change is   -0.000004912899997
 Root      2 :     3.817457986218437   Change is   -0.000002958572754
 Root      3 :     3.997423686093333   Change is   -0.000007102362665
 Root      4 :     4.958304725425659   Change is   -0.000031213211547
 Root      5 :     5.278198221162174   Change is   -0.000001207236111
 Root      6 :     5.476426116666591   Change is   -0.000246936174753
 Iteration     7 Dimension    96 NMult    84 NNew     12
 CISAX will form    12 AO SS matrices at one time.
 NMat=    12 NSing=    12 JSym2X= 0.
 Root      1 not converged, maximum delta is    0.000014691437782
 Root      2 not converged, maximum delta is    0.000051333326617
 Root      3 not converged, maximum delta is    0.000047010426543
 Root      4 not converged, maximum delta is    0.000299558365871
 Root      5 not converged, maximum delta is    0.000031231499780
 Root      6 not converged, maximum delta is    0.000815047010206
 Excitation Energies [eV] at current iteration:
 Root      1 :     2.928672591029672   Change is   -0.000000226375734
 Root      2 :     3.817457786336523   Change is   -0.000000199881914
 Root      3 :     3.997423363995862   Change is   -0.000000322097471
 Root      4 :     4.958301716892406   Change is   -0.000003008533253
 Root      5 :     5.278198113919923   Change is   -0.000000107242251
 Root      6 :     5.476400608065114   Change is   -0.000025508601478
 Iteration     8 Dimension   108 NMult    96 NNew     12
 CISAX will form    12 AO SS matrices at one time.
 NMat=    12 NSing=    12 JSym2X= 0.
 Root      1 not converged, maximum delta is    0.000002456881849
 Root      2 not converged, maximum delta is    0.000011696767071
 Root      3 not converged, maximum delta is    0.000008820327990
 Root      4 not converged, maximum delta is    0.000110365037765
 Root      5 not converged, maximum delta is    0.000011276123090
 Root      6 not converged, maximum delta is    0.000378544958352
 Excitation Energies [eV] at current iteration:
 Root      1 :     2.928672584597147   Change is   -0.000000006432524
 Root      2 :     3.817457772060165   Change is   -0.000000014276358
 Root      3 :     3.997423345395589   Change is   -0.000000018600273
 Root      4 :     4.958301399045451   Change is   -0.000000317846955
 Root      5 :     5.278198106267108   Change is   -0.000000007652814
 Root      6 :     5.476397829718197   Change is   -0.000002778346916
 Iteration     9 Dimension   120 NMult   108 NNew     12
 CISAX will form    12 AO SS matrices at one time.
 NMat=    12 NSing=    12 JSym2X= 0.
 Root      1 has converged.
 Root      2 not converged, maximum delta is    0.000001934804840
 Root      3 not converged, maximum delta is    0.000001189085333
 Root      4 not converged, maximum delta is    0.000020475013239
 Root      5 not converged, maximum delta is    0.000002524670390
 Root      6 not converged, maximum delta is    0.000089682640545
 Excitation Energies [eV] at current iteration:
 Root      1 :     2.928672584400518   Change is   -0.000000000196629
 Root      2 :     3.817457771443737   Change is   -0.000000000616428
 Root      3 :     3.997423344742297   Change is   -0.000000000653292
 Root      4 :     4.958301379229868   Change is   -0.000000019815582
 Root      5 :     5.278198105840402   Change is   -0.000000000426707
 Root      6 :     5.476397611305448   Change is   -0.000000218412749
 Iteration    10 Dimension   130 NMult   120 NNew     10
 CISAX will form    10 AO SS matrices at one time.
 NMat=    10 NSing=    10 JSym2X= 0.
 Root      1 has converged.
 Root      2 has converged.
 Root      3 has converged.
 Root      4 not converged, maximum delta is    0.000002003072623
 Root      5 has converged.
 Root      6 not converged, maximum delta is    0.000011568150304
 Excitation Energies [eV] at current iteration:
 Root      1 :     2.928672584398722   Change is   -0.000000000001796
 Root      2 :     3.817457771426617   Change is   -0.000000000017120
 Root      3 :     3.997423344721342   Change is   -0.000000000020956
 Root      4 :     4.958301378403119   Change is   -0.000000000826750
 Root      5 :     5.278198105820683   Change is   -0.000000000019718
 Root      6 :     5.476397599485147   Change is   -0.000000011820301
 Iteration    11 Dimension   134 NMult   130 NNew      4
 CISAX will form     4 AO SS matrices at one time.
 NMat=     4 NSing=     4 JSym2X= 0.
 Root      1 has converged.
 Root      2 has converged.
 Root      3 has converged.
 Root      4 has converged.
 Root      5 has converged.
 Root      6 not converged, maximum delta is    0.000001339994568
 Excitation Energies [eV] at current iteration:
 Root      1 :     2.928672584398441   Change is   -0.000000000000281
 Root      2 :     3.817457771426574   Change is   -0.000000000000043
 Root      3 :     3.997423344721218   Change is   -0.000000000000124
 Root      4 :     4.958301378368234   Change is   -0.000000000034884
 Root      5 :     5.278198105820373   Change is   -0.000000000000311
 Root      6 :     5.476397598941695   Change is   -0.000000000543452
 Iteration    12 Dimension   136 NMult   134 NNew      2
 CISAX will form     2 AO SS matrices at one time.
 NMat=     2 NSing=     2 JSym2X= 0.
 Root      1 has converged.
 Root      2 has converged.
 Root      3 has converged.
 Root      4 has converged.
 Root      5 has converged.
 Root      6 has converged.
 Excitation Energies [eV] at current iteration:
 Root      1 :     2.928672584398469   Change is    0.000000000000028
 Root      2 :     3.817457771426423   Change is   -0.000000000000151
 Root      3 :     3.997423344721136   Change is   -0.000000000000082
 Root      4 :     4.958301378367091   Change is   -0.000000000001143
 Root      5 :     5.278198105820310   Change is   -0.000000000000063
 Root      6 :     5.476397598913925   Change is   -0.000000000027770
 Convergence achieved on expansion vectors.
 ***********************************************************************
 Excited states from <AA,BB:AA,BB> singles matrix:
 ***********************************************************************
 
 1PDM for each excited state written to RWF  633
 Ground to excited state transition densities written to RWF  633
 Ground to excited state transition electric dipole moments (Au):
       state          X           Y           Z        Dip. S.      Osc.
         1         1.2086      0.0923      0.0742      1.4747      0.1058
         2        -0.1305     -0.0138      0.0228      0.0177      0.0017
         3         0.2438     -0.0292     -0.0117      0.0604      0.0059
         4         0.1398     -0.8923     -0.0141      0.8159      0.0991
         5         0.0781      0.0271      0.0651      0.0111      0.0014
         6         0.0651     -1.4520     -0.0432      2.1145      0.2837
 Ground to excited state transition velocity dipole moments (Au):
       state          X           Y           Z        Dip. S.      Osc.
         1        -0.1252     -0.0070     -0.0063      0.0158      0.0976
         2         0.0175      0.0004     -0.0013      0.0003      0.0015
         3        -0.0350      0.0067     -0.0008      0.0013      0.0058
         4        -0.0308      0.1524      0.0032      0.0242      0.0884
         5        -0.0149     -0.0033     -0.0271      0.0010      0.0033
         6        -0.0156      0.2845      0.0084      0.0812      0.2691
 Ground to excited state transition magnetic dipole moments (Au):
       state          X           Y           Z
         1         0.0830     -0.0667      1.4821
         2         0.7687      0.1760     -0.1826
         3         0.1489      0.9229      0.4214
         4        -0.0437     -0.1046     -0.0114
         5        -0.2511     -0.0150      0.0510
         6        -0.0437      0.0253     -0.2733
 Ground to excited state transition velocity quadrupole moments (Au):
       state          XX          YY          ZZ          XY          XZ          YZ
         1        -0.1144      0.0587      0.0094      0.4004      0.0053      0.0203
         2         0.0070      0.0153     -0.0132     -0.0594     -0.0166      0.0554
         3        -0.1048      0.0409      0.0136      0.1155     -0.0629      0.0067
         4        -0.9238      0.1522      0.0210      0.0651     -0.0328     -0.0280
         5         0.0705     -0.0069     -0.0057      0.0345     -0.0020     -0.1145
         6        -0.7461      0.3257      0.0365     -0.2045     -0.0779     -0.0761
 <0|del|b> * <b|rxdel|0> + <0|del|b> * <b|delr+rdel|0>
 Rotatory Strengths (R) in cgs (10**-40 erg-esu-cm/Gauss)
       state          XX          YY          ZZ    R(velocity)    E-M Angle
         1       -37.3956    -64.9406    -24.3683    -42.2348       95.94
         2         0.9819     36.6936     31.5664     23.0807       14.45
         3        14.7498    -13.6893      1.8048      0.9551       89.07
         4       -20.8959      3.8083    -39.7097    -18.9324      145.68
         5        -4.1450      9.0900      3.8002      2.9151       72.50
         6        44.5388      2.2603    -27.1708      6.5428       85.96
 1/2[<0|r|b>*<b|rxdel|0> + (<0|rxdel|b>*<b|r|0>)*]
 Rotatory Strengths (R) in cgs (10**-40 erg-esu-cm/Gauss)
       state          XX          YY          ZZ     R(length)
         1       -70.9657      4.3529    -77.7158    -48.1095
         2        70.9359      1.7210      2.9444     25.2004
         3       -25.6812     19.0413      3.4974     -1.0475
         4         4.3200    -66.0322     -0.1132    -20.6085
         5        13.8724      0.2869     -2.3463      3.9377
         6         2.0146     26.0253     -8.3519      6.5627
  1/2[<0|del|b>*<b|r|0> + (<0|r|b>*<b|del|0>)*] (Au)
       state          X           Y           Z        Dip. S.   Osc.(frdel)
         1        -0.1513     -0.0006     -0.0005      0.1524      0.1016
         2        -0.0023     -0.0000     -0.0000      0.0023      0.0015
         3        -0.0085     -0.0002      0.0000      0.0087      0.0058
         4        -0.0043     -0.1360     -0.0000      0.1403      0.0935
         5        -0.0012     -0.0001     -0.0018      0.0030      0.0020
         6        -0.0010     -0.4131     -0.0004      0.4145      0.2763

 Excitation energies and oscillator strengths:
 
 Excited State   1:      Singlet-A      2.9287 eV  423.35 nm  f=0.1058  <S**2>=0.000
      52 -> 53         0.70054
 
 Excited State   2:      Singlet-A      3.8175 eV  324.78 nm  f=0.0017  <S**2>=0.000
      50 -> 54         0.11513
      51 -> 53         0.58514
      51 -> 54         0.34440
 This state for optimization and/or second-order correction.
 Total Energy, E(TD-HF/TD-DFT) =  -633.133761679    
 Copying the excited state density for this state as the 1-particle RhoCI density.
 
 Excited State   3:      Singlet-A      3.9974 eV  310.16 nm  f=0.0059  <S**2>=0.000
      50 -> 53         0.58996
      50 -> 54        -0.29085
      50 -> 58         0.12224
      51 -> 54         0.14430
 
 Excited State   4:      Singlet-A      4.9583 eV  250.05 nm  f=0.0991  <S**2>=0.000
      49 -> 53        -0.15443
      52 -> 54         0.67855
 
 Excited State   5:      Singlet-A      5.2782 eV  234.90 nm  f=0.0014  <S**2>=0.000
      52 -> 55         0.68023
      52 -> 57         0.10125
 
 Excited State   6:      Singlet-A      5.4764 eV  226.40 nm  f=0.2837  <S**2>=0.000
      49 -> 53         0.66521
      52 -> 54         0.13786
 SavETr:  write IOETrn=   770 NScale= 10 NData=  16 NLR=1 NState=    6 LETran=     118.
 The selected state is a singlet.
 CISGrd: IGrad=3 NXY=2 DFT=T
 CISAX will form     1 AO SS matrices at one time.
 NMat=     1 NSing=     1 JSym2X= 0.
 Leave Link  914 at Sun Jun 28 19:40:26 2026, MaxMem=  2147483648 cpu:            3458.7 elap:             216.7
 (Enter /data/home/wyx/g16/l1002.exe)
 Minotr:  Closed shell wavefunction.
          Computing CIS/TDA/TD derivatives.
          Using Z-Vector for PSCF gradient.
          Skipping F1 and S1 gradient terms here.
          IDoAtm=11111111111111111111111111111
          Frozen-core window.
          Direct CPHF calculation.
          Differentiating once with respect to electric field.
                with respect to dipole field.
          Differentiating once with respect to nuclear coordinates.
          Requested convergence is 1.0D-10 RMS, and 1.0D-09 maximum.
          NewPWx=F KeepS1=T KeepF1=T KeepIn=T MapXYZ=F SortEE=F KeepMc=T.
 Two-electron integral symmetry used by symmetrizing perturbed Fock matrices.
          MDV=    2147483648 using IRadAn=       5.
          Solving linear equations separately, MaxMat=     384.
          There are     1 degrees of freedom in the 1st order CPHF.  IDoFFX=0 NUNeed=     1.
 FoFJK:  IHMeth= 1 ICntrl=       0 DoSepK=T KAlg= 0 I1Cent=           0 FoldK=F
 IRaf=         1 NMat=       1 IRICut=       1 DoRegI=T DoRafI=F ISym2E=-1 IDoP0=0 IntGTp=1.
 FoFCou: FMM=F IPFlag=           0 FMFlag=      100000 FMFlg1=           0
         NFxFlg=           0 DoJE=T BraDBF=F KetDBF=F FulRan=T
         wScrn=  0.000000 ICntrl=       500 IOpCl=  0 I1Cent=           0 NGrid=           0
         NMat0=    1 NMatS0=      1 NMatT0=    0 NMatD0=    1 NMtDS0=    0 NMtDT0=    0
 Petite list used in FoFCou.
 LinEq1:  Iter=  0 NonCon=     1 RMS=9.80D-03 Max=5.05D-01 NDo=     1
 AX will form     1 AO Fock derivatives at one time.
 LinEq1:  Iter=  1 NonCon=     1 RMS=2.89D-03 Max=1.24D-01 NDo=     1
 LinEq1:  Iter=  2 NonCon=     1 RMS=1.92D-03 Max=1.02D-01 NDo=     1
 LinEq1:  Iter=  3 NonCon=     1 RMS=8.86D-04 Max=4.53D-02 NDo=     1
 LinEq1:  Iter=  4 NonCon=     1 RMS=4.78D-04 Max=9.44D-03 NDo=     1
 LinEq1:  Iter=  5 NonCon=     1 RMS=2.57D-04 Max=9.57D-03 NDo=     1
 LinEq1:  Iter=  6 NonCon=     1 RMS=1.39D-04 Max=4.36D-03 NDo=     1
 LinEq1:  Iter=  7 NonCon=     1 RMS=7.74D-05 Max=3.24D-03 NDo=     1
 LinEq1:  Iter=  8 NonCon=     1 RMS=4.44D-05 Max=1.91D-03 NDo=     1
 LinEq1:  Iter=  9 NonCon=     1 RMS=3.04D-05 Max=1.34D-03 NDo=     1
 LinEq1:  Iter= 10 NonCon=     1 RMS=1.82D-05 Max=8.12D-04 NDo=     1
 LinEq1:  Iter= 11 NonCon=     1 RMS=7.45D-06 Max=2.24D-04 NDo=     1
 LinEq1:  Iter= 12 NonCon=     1 RMS=2.58D-06 Max=9.86D-05 NDo=     1
 LinEq1:  Iter= 13 NonCon=     1 RMS=1.28D-06 Max=3.68D-05 NDo=     1
 LinEq1:  Iter= 14 NonCon=     1 RMS=4.80D-07 Max=1.03D-05 NDo=     1
 LinEq1:  Iter= 15 NonCon=     1 RMS=1.92D-07 Max=4.25D-06 NDo=     1
 LinEq1:  Iter= 16 NonCon=     1 RMS=8.33D-08 Max=3.32D-06 NDo=     1
 LinEq1:  Iter= 17 NonCon=     1 RMS=2.61D-08 Max=1.05D-06 NDo=     1
 LinEq1:  Iter= 18 NonCon=     1 RMS=1.04D-08 Max=2.71D-07 NDo=     1
 LinEq1:  Iter= 19 NonCon=     1 RMS=4.41D-09 Max=1.09D-07 NDo=     1
 LinEq1:  Iter= 20 NonCon=     1 RMS=1.72D-09 Max=3.99D-08 NDo=     1
 LinEq1:  Iter= 21 NonCon=     1 RMS=6.83D-10 Max=1.95D-08 NDo=     1
 LinEq1:  Iter= 22 NonCon=     1 RMS=2.37D-10 Max=5.70D-09 NDo=     1
 LinEq1:  Iter= 23 NonCon=     1 RMS=8.36D-11 Max=1.99D-09 NDo=     1
 LinEq1:  Iter= 24 NonCon=     0 RMS=3.16D-11 Max=9.26D-10 NDo=     1
 Linear equations converged to 1.000D-10 1.000D-09 after    24 iterations.
          There are     1 degrees of freedom in the 1st order CPHF.  IDoFFX=0 NUNeed=     1.
 End of Minotr F.D. properties file   721 does not exist.
 End of Minotr F.D. properties file   722 does not exist.
 End of Minotr F.D. properties file   788 does not exist.
 Leave Link 1002 at Sun Jun 28 19:42:37 2026, MaxMem=  2147483648 cpu:            2072.4 elap:             130.2
 (Enter /data/home/wyx/g16/l1101.exe)
 Using compressed Sx but separate Hx and Fx, NAtomX=    29.
 Will process     30 centers per pass.
 Leave Link 1101 at Sun Jun 28 19:42:37 2026, MaxMem=  2147483648 cpu:               5.5 elap:               0.4
 (Enter /data/home/wyx/g16/l1102.exe)
 Use density number 6.
 Symmetrizing basis deriv contribution to polar:
 IMax=3 JMax=2 DiffMx= 0.00D+00
 Leave Link 1102 at Sun Jun 28 19:42:37 2026, MaxMem=  2147483648 cpu:               0.7 elap:               0.1
 (Enter /data/home/wyx/g16/l1110.exe)
 Forming Gx(P) for the SCF density, NAtomX=    29.
 Integral derivatives from FoFJK, PRISM(SPDF).
 Do as many integral derivatives as possible in FoFJK.
 G2DrvN: MDV=    2147481424.
 G2DrvN: will do    30 centers at a time, making    1 passes.
 Calling FoFCou, ICntrl=  3107 FMM=F I1Cent=   0 AccDes= 0.00D+00.
 FoFJK:  IHMeth= 1 ICntrl=    3107 DoSepK=T KAlg= 0 I1Cent=           0 FoldK=F
 IRaf=         1 NMat=       1 IRICut=       1 DoRegI=T DoRafI=F ISym2E= 0 IDoP0=0 IntGTp=1.
 FoFCou: FMM=F IPFlag=           0 FMFlag=      100000 FMFlg1=           0
         NFxFlg=           0 DoJE=F BraDBF=F KetDBF=F FulRan=T
         wScrn=  0.000000 ICntrl=      3507 IOpCl=  0 I1Cent=           0 NGrid=           0
         NMat0=    1 NMatS0=      1 NMatT0=    0 NMatD0=    1 NMtDS0=    0 NMtDT0=    0
 Symmetry not used in FoFCou.
 Forming Gx(P) for generalized density number  6 NAtomX=    29.
 Integral derivatives from FoFJK, PRISM(SPDF).
 Do as many integral derivatives as possible in FoFJK.
 G2DrvN: MDV=    2147481424.
 G2DrvN: will do    30 centers at a time, making    1 passes.
 Calling FoFCou, ICntrl=  3107 FMM=F I1Cent=   0 AccDes= 0.00D+00.
 Forming Gx(T) for CIS/TDA/TD state  2 NAtomX=    29.
 Integral derivatives from FoFJK, PRISM(SPDF).
 Do as many integral derivatives as possible in FoFJK.
 G2DrvN: MDV=    2147481424.
 G2DrvN: will do    30 centers at a time, making    1 passes.
 Calling FoFCou, ICntrl=  3107 FMM=F I1Cent=   0 AccDes= 0.00D+00.
 End of G2Drv F.D. properties file   721 does not exist.
 End of G2Drv F.D. properties file   722 does not exist.
 End of G2Drv F.D. properties file   788 does not exist.
 Leave Link 1110 at Sun Jun 28 19:45:15 2026, MaxMem=  2147483648 cpu:            2517.0 elap:             157.7
 (Enter /data/home/wyx/g16/l1002.exe)
 Minotr:  Closed shell wavefunction.
          IDoAtm=11111111111111111111111111111
          Frozen-core window.
          Direct CPHF calculation.
          Differentiating once with respect to electric field.
                with respect to dipole field.
          Differentiating once with respect to nuclear coordinates.
          Requested convergence is 1.0D-08 RMS, and 1.0D-07 maximum.
          Secondary convergence is 1.0D-12 RMS, and 1.0D-12 maximum.
          NewPWx=T KeepS1=T KeepF1=T KeepIn=T MapXYZ=F SortEE=F KeepMc=T.
         8776 words used for storage of precomputed grid.
 Two-electron integrals replicated using symmetry.
          MDV=    2147483648 using IRadAn=       1.
          Solving linear equations simultaneously, MaxMat=     384.
 FoF2E skips out because all densities are zero.
 CalDSu exits because no D1Ps are significant.
 FoFJK:  IHMeth= 1 ICntrl=       0 DoSepK=T KAlg= 0 I1Cent=           0 FoldK=F
 IRaf=         1 NMat=      87 IRICut=       1 DoRegI=T DoRafI=F ISym2E= 2 IDoP0=3 IntGTp=3.
 FoFCou: FMM=F IPFlag=           0 FMFlag=      100000 FMFlg1=           0
         NFxFlg=           0 DoJE=F BraDBF=F KetDBF=F FulRan=T
         wScrn=  0.000000 ICntrl=       500 IOpCl=  0 I1Cent=           0 NGrid=           0
         NMat0=   87 NMatS0=     87 NMatT0=    0 NMatD0=   87 NMtDS0=    0 NMtDT0=    0
 Integrals replicated using symmetry in FoFCou.
          There are    90 degrees of freedom in the 1st order CPHF.  IDoFFX=6 NUNeed=    90.
     87 vectors produced by pass  0 Test12= 1.76D-14 1.11D-09 XBig12= 1.19D+02 5.66D+00.
 AX will form    87 AO Fock derivatives at one time.
     87 vectors produced by pass  1 Test12= 1.76D-14 1.11D-09 XBig12= 2.07D+01 5.79D-01.
     87 vectors produced by pass  2 Test12= 1.76D-14 1.11D-09 XBig12= 3.28D-01 1.12D-01.
     87 vectors produced by pass  3 Test12= 1.76D-14 1.11D-09 XBig12= 2.61D-03 4.44D-03.
     87 vectors produced by pass  4 Test12= 1.76D-14 1.11D-09 XBig12= 1.54D-05 3.55D-04.
     87 vectors produced by pass  5 Test12= 1.76D-14 1.11D-09 XBig12= 6.89D-08 2.50D-05.
     66 vectors produced by pass  6 Test12= 1.76D-14 1.11D-09 XBig12= 3.01D-10 2.43D-06.
     14 vectors produced by pass  7 Test12= 1.76D-14 1.11D-09 XBig12= 1.29D-12 2.19D-07.
      3 vectors produced by pass  8 Test12= 1.76D-14 1.11D-09 XBig12= 5.11D-15 1.52D-08.
 InvSVY:  IOpt=1 It=  1 EMax= 8.88D-15
 Solved reduced A of dimension   605 with    90 vectors.
 FullF1:  Do perturbations      1 to      90.
[...]
 44,-0.00009240,0.00049654,0.00034022,-0.00011217,0.00014064,-0.0000520
 8,-0.00000761,-0.00013793,0.00011181,0.00008185,-0.00002537,0.00010931
 ,0.00001768,-0.07255149,-0.02207389,0.08474679,0.07894362,-0.00583370,
 -0.00335803,-0.00107325,-0.00048269,0.00230764,0.00057857,0.00029586,-
 0.00150704,-0.00035266,-0.00002911,-0.00012201,0.00000444,0.00076511,0
 .00109370,0.00045095,-0.00051212,0.00004614,0.00039440,-0.00008611,0.0
 0058685,0.00003721,-0.00031489,-0.00370550,-0.00086756,-0.00010461,0.0
 0019908,-0.00053748,-0.00004201,0.00007471,0.00011453,-0.00000559,-0.0
 0009010,0.00001939,0.00043819,-0.00011332,-0.00228612,-0.00518366,-0.0
 0226286,0.02810434,0.00012212,-0.00003809,0.00000018,0.00006591,0.0001
 0776,0.00001580,-0.00008429,-0.00000510,0.00010845,-0.00011423,0.00006
 270,-0.00008048,0.00035963,0.00027448,-0.00004791,0.00010273,-0.000037
 77,-0.00000720,-0.00012384,0.00006962,0.00005844,-0.00003891,0.0000723
 1,0.00000136,-0.02186890,-0.06839225,0.06564690,0.02582342,0.06783407,
 -0.00106155,0.00094002,0.00017653,0.00003471,-0.00005698,0.00002231,-0
 .00015036,-0.00020894,-0.00009800,-0.00000386,0.00005825,0.00007757,0.
 00013896,-0.00000099,-0.00005360,0.00051767,0.00033986,0.00006580,-0.0
 0009025,0.00007435,0.00003942,-0.00011616,0.00002289,-0.00008119,-0.00
 006319,0.00021645,0.00011564,-0.00007514,-0.00007701,0.00002139,-0.000
 04860,-0.00001093,-0.00008631,0.00029592,0.00007531,0.00046976,-0.0003
 0343,-0.00236146,0.00305344,0.00000180,-0.00003916,0.00005567,-0.00000
 830,0.00001170,-0.00000628,-0.00002551,0.00000738,-0.00000629,0.000020
 64,0.00001091,-0.00001733,0.00004501,0.00000736,0.00002311,0.00000100,
 0.00000267,-0.00000001,-0.00001923,0.00000046,-0.00000385,-0.00002317,
 -0.00000208,0.00000332,0.08180156,0.06502139,-0.26922051,-0.09085895,-
 0.06962734,0.29071575,-0.00167811,-0.00322759,0.00254304,-0.00051237,0
 .00219922,0.00056325,-0.00039464,-0.00104952,-0.00024903,0.00005301,-0
 .00005833,0.00003465,0.00040865,0.00095688,0.00048160,0.00007579,0.000
 29098,-0.00027493,0.00018909,0.00060024,-0.00018511,-0.00014449,-0.003
 54810,-0.00076509,0.00010592,-0.00043386,0.00022482,0.00005916,-0.0001
 6246,-0.00012029,0.00001654,0.00016324,-0.00006914,-0.00012651,0.00008
 707,0.00098753,-0.01045671,0.00084797,-0.00862632,0.00010482,-0.000016
 05,-0.00005450,0.00005651,0.00009496,0.00002155,-0.00005717,-0.0000107
 6,0.00010346,-0.00013680,0.00004392,-0.00006079,0.00032169,0.00023617,
 -0.00008799,0.00009448,-0.00003775,-0.00000657,-0.00008306,0.00007570,
 0.00006081,-0.00001390,0.00007540,0.00001550,-0.20775923,0.00404069,-0
 .13618803,0.00944197,0.00046152,0.00756333,0.22684977,0.00000006,-0.00
 319283,0.00311210,0.00010466,-0.00022121,-0.00009207,0.00093765,-0.000
 52889,-0.00050349,-0.00009726,-0.00005335,-0.00009494,0.00015957,-0.00
 012270,0.00008313,-0.00122195,-0.00003719,0.00012300,-0.00024885,0.000
 03305,-0.00001762,-0.00017822,0.00010775,0.00014555,-0.00011618,-0.000
 02357,0.00046168,0.00005844,-0.00002643,-0.00019439,-0.00002510,0.0000
 9781,-0.00010510,0.00308754,-0.00232078,0.00146622,-0.02432935,0.00671
 634,-0.02018234,-0.00000153,0.00005986,-0.00009357,0.00002025,0.000013
 46,0.00001723,0.00003811,-0.00001581,0.00002305,-0.00005666,-0.0000057
 1,-0.00000023,0.00006559,0.00006240,-0.00001471,0.00000006,-0.00000003
 ,-0.00000376,-0.00004894,-0.00000835,0.00000822,-0.00004975,-0.0000010
 8,0.00001522,-0.00002939,-0.04609407,-0.00130383,0.00751170,-0.0005128
 2,0.00486315,-0.00329081,0.04655056,0.00123077,0.00073933,-0.00155411,
 0.00013913,-0.00056882,-0.00013428,0.00060649,0.00007956,-0.00015351,-
 0.00004137,-0.00012111,-0.00000870,-0.00013755,-0.00023333,-0.00014849
 ,-0.00139072,-0.00023580,0.00017734,-0.00000689,-0.00009004,0.00005585
 ,0.00005098,0.00093939,0.00018676,-0.00005523,-0.00002558,-0.00003722,
 0.00001132,0.00007543,-0.00002220,0.00004142,0.00001552,-0.00001631,0.
 00066946,-0.00128689,0.00037887,0.00100109,0.00034975,0.00095457,-0.00
 002452,0.00001196,0.00001069,-0.00000446,-0.00003147,-0.00000614,0.000
 01592,0.00000307,-0.00003104,0.00004320,-0.00000428,0.00001543,-0.0001
 0726,-0.00005344,0.00003080,-0.00002491,0.00000843,0.00000087,0.000030
 79,-0.00002546,-0.00001216,0.00000792,-0.00002157,-0.00000714,-0.13326
 446,0.00151227,-0.15199385,-0.02362502,0.00006032,-0.01771255,0.146201
 17,-0.00279254,0.16174696,0.00207909,-0.00076321,-0.00151005,0.0002356
 6,-0.00100699,-0.00023571,0.00029685,0.00065685,0.00015761,-0.00002879
 ,-0.00005784,-0.00003201,-0.00039880,-0.00056678,-0.00026964,-0.000399
 88,-0.00059905,-0.00006792,-0.00000122,-0.00032866,0.00001273,0.000119
 78,0.00168977,0.00035709,0.00015565,-0.00053543,-0.00026024,0.00008127
 ,0.00006802,-0.00002265,0.00004295,-0.00002752,0.00002372,-0.00161371,
 -0.00178640,0.00015845,0.00828419,-0.01301657,-0.00418758,-0.00004376,
 0.00002538,0.00001645,-0.00002377,-0.00006141,-0.00001035,0.00003708,0
 .00000343,-0.00005437,0.00006863,-0.00002659,0.00003840,-0.00018580,-0
 .00012969,0.00003989,-0.00005030,0.00001819,0.00000440,0.00006335,-0.0
 0004360,-0.00002847,0.00002401,-0.00004049,-0.00001225,-0.17378347,0.1
 3088376,0.06252501,-0.00545337,0.00504180,0.00147135,-0.01484340,0.015
 87011,0.00885381,0.18588398,0.00238375,0.00516311,-0.00037917,0.000430
 15,-0.00166799,-0.00043934,0.00037460,0.00072563,0.00014343,-0.0000134
 6,-0.00001170,0.00000069,-0.00071792,-0.00078284,-0.00030203,-0.000738
 67,0.00001676,0.00017843,0.00001300,-0.00039314,0.00005082,-0.00003717
 ,0.00244567,0.00055209,0.00065148,-0.00087238,-0.00058453,0.00001811,0
 .00005229,0.00002368,-0.00001941,-0.00007711,-0.00002043,-0.00442643,-
 0.00291777,0.00027827,0.02108892,-0.02626756,-0.01066634,-0.00006866,0
 .00002869,0.00001439,-0.00002663,-0.00007232,-0.00001257,0.00005579,-0
 .00000665,-0.00008030,0.00008699,-0.00004436,0.00004687,-0.00017459,-0
 .00016255,0.00005787,-0.00007818,0.00001353,0.00000083,0.00006944,-0.0
 0004730,-0.00003064,0.00000825,-0.00004340,-0.00001076,0.12556596,-0.1
 7272099,-0.05928898,-0.00748474,0.00756826,0.00217378,-0.00083827,0.00
 053979,0.00125259,-0.13590441,0.18911305,-0.00055062,0.00176508,-0.000
 23679,-0.00012534,0.00053325,0.00013815,-0.00020022,-0.00053518,-0.000
 09488,0.00001329,-0.00001483,0.00000607,0.00004763,0.00024742,0.000187
 04,0.00005146,0.00037611,-0.00004706,0.00017582,0.00029943,-0.00007316
 ,-0.00006431,-0.00093484,-0.00017268,0.00030941,-0.00011831,0.00028373
 ,-0.00007189,-0.00006908,0.00002460,-0.00000190,0.00007817,-0.00003409
 ,-0.00028480,-0.00016639,0.00081003,0.00106829,-0.00232312,-0.00166729
 ,0.00003077,-0.00001100,-0.00002755,0.00001158,0.00002997,0.00001098,-
 0.00001411,-0.00000190,0.00003576,-0.00004811,0.00001057,-0.00001252,0
 .00010738,0.00006072,-0.00001962,0.00002475,-0.00001038,-0.00000240,-0
 .00002697,0.00002220,0.00001344,-0.00001308,0.00001813,0.00000853,0.06
 239855,-0.06135768,-0.07857082,0.01853180,-0.02046327,-0.00764088,-0.0
 1391864,0.01561015,0.00794540,-0.06728262,0.06699764,0.07893981,-0.002
 95756,-0.00002345,0.00127798,-0.00132279,0.00467161,0.00127721,0.00300
 760,-0.00428813,-0.00096675,0.00274362,0.00355109,0.00023475,-0.000826
 74,0.00171577,0.00081145,-0.17738817,-0.07851431,-0.01081227,0.0013585
 5,0.00482490,0.00155540,0.00098940,-0.00606686,-0.00142066,-0.00157448
 ,0.00169284,0.00251435,-0.00075708,-0.00076523,-0.00022427,-0.00027650
 ,0.00006088,-0.00001557,-0.01966265,-0.01941755,-0.00390500,0.00414188
 ,-0.00085839,-0.00228575,0.00082807,0.00007936,0.00005140,-0.00007577,
 0.00010410,-0.00002285,-0.00022345,0.00014627,0.00021309,-0.00022514,0
 .00017148,-0.00003426,0.00008493,0.00025180,-0.00021274,0.00015373,-0.
 00006811,-0.00001220,0.00001827,0.00002397,0.00012900,0.00018959,0.000
 10519,-0.00005482,-0.00228537,0.00330615,0.00141180,-0.00030872,0.0001
 3756,0.00082055,-0.00108188,0.00032291,-0.00073011,-0.00071922,-0.0002
 2076,-0.00010449,0.54000846,-0.00147718,0.00018996,0.00025694,-0.00040
 584,0.00128647,0.00045641,-0.02867786,-0.03637412,-0.00890694,-0.00239
 932,-0.00041719,0.00148339,-0.00052366,-0.00018920,0.00001884,-0.05781
 706,-0.14137719,-0.01691522,0.00375926,0.00107646,-0.00208431,0.000350
 45,-0.00142868,-0.00040685,0.00255405,0.00032854,-0.00271529,0.0006391
 0,0.00048806,0.00015943,-0.00008349,-0.00024971,-0.00010185,-0.0033440
 2,0.01219816,0.00450748,0.00209100,-0.00204085,0.00003386,-0.00059808,
 -0.00038592,-0.00018831,0.00003834,0.00007517,0.00002900,-0.00001999,-
 0.00011969,-0.00003463,0.00000915,-0.00001610,-0.00007068,-0.00002109,
 0.00001370,0.00002697,0.00002776,0.00000288,0.00001303,0.00004634,0.00
 003176,0.00001023,0.00001253,-0.00001227,-0.00003911,0.00039940,-0.001
 23306,-0.00059176,0.00087244,-0.00050763,-0.00069741,0.00120772,-0.000
 61369,0.00034965,0.00018223,0.00015843,0.00016647,-0.03377237,0.564759
 63,0.00043480,-0.00016314,-0.00004141,0.00028222,-0.00099224,-0.000425
 84,-0.00888726,-0.01017158,0.00168237,-0.00150047,0.00029297,-0.003375
 86,-0.00024176,-0.00018240,-0.00016316,-0.00420049,-0.01442805,-0.0728
 2294,0.00144165,-0.00217072,0.00407046,-0.00017696,0.00126390,0.000387
 24,0.00215805,-0.00289806,0.00537524,-0.00057812,-0.00086156,-0.000195
 96,0.00092065,0.00087336,-0.00002976,0.00229554,0.00659297,0.00547519,
 -0.00095306,0.00086440,-0.00282710,-0.00023047,-0.00036594,0.00053415,
 -0.00001215,-0.00003438,-0.00004326,-0.00005111,0.00012352,0.00009431,
 0.00016244,-0.00031587,0.00000118,-0.00004912,0.00001336,-0.00018923,-
 0.00004236,0.00002712,-0.00000779,-0.00007517,-0.00009251,-0.00000909,
 0.00009897,0.00003661,0.00008994,0.00079811,-0.00101099,0.00073982,-0.
 00012373,0.00014362,-0.00070412,0.00091031,-0.00089842,0.00013591,0.00
 017378,0.00029988,-0.00051037,-0.00997609,0.00526415,0.55245739,0.0005
 3645,0.00026455,-0.00030483,0.00055414,-0.00201344,-0.00056218,-0.0013
 5241,0.00265986,0.00004808,-0.00009782,-0.00044184,0.00002055,0.000214
 81,-0.00030924,-0.00036475,-0.00249918,-0.00889206,-0.02444447,-0.0009
 3125,-0.00194214,0.00000530,-0.00037278,0.00260577,0.00059749,0.000056
 36,-0.00036280,0.00088220,-0.00015568,-0.00022963,-0.00005224,0.000096
 88,-0.00004623,-0.00003005,-0.00003846,0.00064263,0.00115485,-0.001184
 54,-0.00109093,-0.00041252,-0.00018176,-0.00006692,0.00025872,0.000008
 58,-0.00008489,0.00000203,0.00004342,0.00000737,-0.00007262,0.00014906
 ,-0.00013576,0.00001045,-0.00009365,-0.00017697,0.00005994,-0.00006872
 ,0.00001451,-0.00000164,0.00003579,-0.00001653,-0.00003643,-0.00001158
 ,-0.00000978,0.00002597,-0.00068287,0.00001756,-0.00019575,0.00019028,
 -0.00001204,-0.00001001,-0.00045614,0.00127206,0.00058654,0.00021262,0
 .00001895,0.00015952,-0.05018663,-0.00859628,-0.02778138,0.05295610,0.
 00028502,-0.00020344,-0.00000464,0.00028212,-0.00083894,-0.00027789,-0
 .00233670,-0.00097757,-0.00010439,-0.00031754,0.00049748,-0.00065597,0
 .00033209,-0.00005969,0.00001586,-0.00316888,-0.00897111,-0.02027704,-
 0.00044814,-0.00114275,0.00051647,-0.00045723,0.00072517,0.00023900,0.
 00005524,-0.00041604,0.00051800,-0.00008618,-0.00014177,-0.00007627,0.
 00008456,0.00006139,-0.00000179,0.00151110,0.00014075,0.00026783,-0.00
 058908,0.00093664,-0.00040223,-0.00013134,-0.00009429,0.00010162,0.000
 02379,0.00001317,-0.00001449,0.00003080,-0.00000770,0.00000379,0.00001
 555,-0.00011154,-0.00002658,0.00008008,0.00000849,-0.00002767,-0.00002
 059,0.00000141,-0.00000503,-0.00005066,0.00000507,-0.00000393,-0.00004
 478,0.00001489,0.00002826,0.00044263,-0.00013620,0.00030972,-0.0001622
 2,0.00003649,0.00025545,0.00102236,-0.00031970,-0.00049943,-0.00011061
 ,-0.00004793,0.00004794,-0.00785456,-0.06503558,-0.07310432,0.01109687
 ,0.07213528,0.00119530,0.00017359,-0.00056384,0.00050677,-0.00184061,-
 0.00053283,0.00011021,0.00224680,-0.00007945,-0.00013731,0.00025810,-0
 .00010361,0.00014602,-0.00058200,-0.00012405,-0.00222589,-0.00257984,0
 .00178641,-0.00089429,-0.00067404,-0.00028396,-0.00033431,0.00237506,0
 .00063231,-0.00021500,-0.00002129,0.00009577,-0.00000720,-0.00001761,-
 0.00006992,0.00001502,-0.00003254,0.00000897,0.00120084,-0.00054488,0.
 00044399,-0.00138491,-0.00004362,0.00046016,-0.00009781,0.00002046,0.0
 0006908,-0.00000487,-0.00003901,-0.00001296,0.00007290,-0.00000260,-0.
 00005162,0.00005477,-0.00006213,0.00002604,-0.00006209,-0.00010261,0.0
 0003864,-0.00006184,0.00001642,-0.00000253,-0.00000709,-0.00002059,-0.
 00003785,-0.00004968,-0.00002980,0.00001292,0.00098790,-0.00079450,-0.
 00065016,-0.00021220,0.00003615,-0.00025368,0.00065472,-0.00005221,0.0
 0086214,0.00037862,-0.00003064,0.00026528,-0.02673779,-0.07156238,-0.2
 9119495,0.02854298,0.08022283,0.31413682,0.00102877,0.00032270,-0.0004
 7635,0.00062744,-0.00228344,-0.00060148,-0.00146400,0.00127033,0.00113
 189,-0.00017162,-0.00041727,-0.00021734,0.00029565,-0.00060570,-0.0001
 2540,0.00484694,-0.02319121,0.01443291,-0.00097185,-0.00180203,-0.0007
 2217,-0.00038604,0.00304946,0.00067242,-0.00020845,0.00029279,-0.00083
 904,0.00013158,0.00011267,0.00002219,-0.00018124,-0.00032918,-0.000021
 35,-0.00039922,0.00127936,-0.00048110,-0.00107925,-0.00142370,0.000892
 06,-0.00028941,0.00004375,-0.00018656,0.00002726,-0.00007407,-0.000017
 52,0.00013793,-0.00009365,-0.00012479,0.00008753,-0.00002277,0.0000381
 7,-0.00013260,-0.00020001,0.00008140,-0.00007880,0.00001502,0.00000118
 ,0.00004928,-0.00000852,-0.00004481,-0.00004227,-0.00004148,0.00000132
 ,-0.00078349,-0.00002362,0.00095094,-0.00087807,0.00130132,0.00006720,
 -0.00003999,0.00019770,-0.00005334,-0.00004458,0.00003590,-0.00027095,
 -0.05239366,0.03093820,-0.02084724,-0.00082770,0.00254858,-0.00112484,
 0.05639058,0.00038862,0.00007280,-0.00012690,0.00038305,-0.00122219,-0
 .00031557,-0.00214404,-0.00054944,0.00075821,-0.00023431,0.00018511,0.
 00072632,0.00046934,-0.00028594,-0.00021195,0.00054323,-0.01835892,0.0
 0832239,-0.00084278,-0.00091983,-0.00057760,-0.00051373,0.00132485,0.0
 0024697,-0.00018814,0.00011347,-0.00060458,0.00007555,0.00012585,0.000
 04748,-0.00008480,-0.00015644,0.00002095,0.00135630,0.00048005,-0.0010
 3112,-0.00052092,-0.00003657,0.00084126,-0.00016641,0.00001113,-0.0001
 2590,0.00001773,-0.00000112,0.00002413,0.00004982,-0.00010270,-0.00007
 543,0.00002479,-0.00000183,-0.00000921,0.00006723,-0.00005788,0.000095
 68,-0.00003282,0.00000189,-0.00000135,-0.00002575,0.00001811,-0.000014
 77,-0.00009062,-0.00000594,0.00001508,0.00105143,-0.00070917,-0.000713
 93,0.00095867,0.00003986,-0.00051397,0.00005337,-0.00010780,0.00006872
 ,0.00023093,0.00016025,-0.00015633,0.03145610,-0.23169381,0.12677229,-
 0.00108556,0.00831804,-0.00493090,-0.03302611,0.25379490,-0.00038075,-
 0.00043618,0.00007683,-0.00016169,0.00062629,0.00015975,-0.00107968,-0
 .00235736,-0.00116697,-0.00005956,0.00006999,0.00039579,-0.00003598,0.
 00015217,0.00007740,0.00198903,-0.00551244,0.00416937,0.00027114,0.000
 33357,-0.00057844,0.00005002,-0.00089239,-0.00016715,0.00013727,-0.000
 05196,-0.00016611,0.00002298,0.00005161,-0.00001787,-0.00000807,0.0000
 7083,0.00000119,0.00045091,-0.00019838,0.00060203,0.00030160,0.0012424
 0,0.00025000,0.00000129,-0.00005008,0.00001598,0.00001041,0.00003254,0
 .00000846,-0.00002239,-0.00001286,0.00002538,-0.00003195,0.00000390,-0
 .00001833,0.00004750,0.00005580,-0.00000578,0.00002247,-0.00000468,-0.
 00000080,-0.00001916,0.00001225,0.00001458,-0.00000359,0.00001079,-0.0
 0000755,-0.00064303,0.00046274,0.00014928,0.00050078,-0.00033475,0.000
 86390,-0.00001804,0.00015351,-0.00099421,-0.00038190,-0.00016596,0.000
 13708,-0.02050881,0.12566102,-0.12823469,-0.00525490,0.02645773,-0.017
 69289,0.02420904,-0.13545667,0.13580621,-0.00006583,0.00011366,0.00011
 032,0.00015351,-0.00030461,-0.00010145,0.00293000,0.00387321,0.0006040
 6,0.00032038,-0.00242921,-0.00048346,0.00066567,0.00055332,0.00008815,
 -0.02492280,0.01328507,0.00859991,-0.00064811,-0.00128474,-0.00028286,
 -0.00032677,0.00002012,-0.00000086,-0.00078650,0.00054529,0.00062804,-
 0.00025067,-0.00024122,-0.00009504,-0.00014251,-0.00013250,0.00000381,
 -0.00014456,-0.00465214,-0.00194299,0.00038803,-0.00014821,-0.00027355
 ,-0.00007939,0.00003388,-0.00000778,0.00009393,-0.00004957,0.00000164,
 0.00004110,-0.00003257,-0.00001253,0.00003802,-0.00000739,-0.00001784,
 0.00005275,-0.00000463,0.00001481,0.00000632,-0.00002119,-0.00000798,0
 .00000180,0.00001921,0.00001412,-0.00000819,0.00002364,0.00000128,0.00
 003606,0.00008959,-0.00000930,0.00003508,-0.00007847,0.00007800,0.0000
 0700,0.00004760,-0.00002413,0.00000494,-0.00005199,0.00004778,-0.24125
 829,0.09460828,0.06605044,0.00408668,-0.00203225,-0.00030895,-0.003250
 73,0.00182983,0.00059506,0.26302309,0.00034572,0.00032883,-0.00007870,
 0.00007440,-0.00031136,-0.00007316,-0.00236831,0.00105088,0.00080801,-
 0.00016681,-0.00077555,-0.00046256,-0.00013895,0.00007950,0.00004551,-
 0.01987911,0.00827641,0.00739352,-0.00042367,0.00006063,0.00010218,0.0
 0004593,0.00055221,0.00010613,-0.00083910,0.00034452,0.00003680,-0.000
 08876,-0.00007658,-0.00002757,-0.00012758,-0.00014975,0.00000285,-0.00
 188759,-0.00284391,-0.00113850,-0.00039249,-0.00095333,0.00001992,0.00
 006263,0.00004504,0.00000207,0.00000850,-0.00004208,-0.00002066,0.0000
 2772,0.00002324,-0.00001476,0.00002486,0.00001443,0.00002690,-0.000091
 76,-0.00008102,0.00000109,-0.00001706,-0.00000101,0.00000013,0.0000412
 6,-0.00001141,-0.00000701,0.00002414,-0.00001110,-0.00001089,0.0006483
 3,-0.00081610,-0.00027898,-0.00013675,0.00027882,-0.00048511,0.0002161
 1,0.00002499,0.00052376,0.00033478,0.00015054,-0.00010091,0.09922774,-
 0.09891455,-0.03487795,0.00691289,-0.00439002,-0.00138561,0.02213498,-
 0.01043670,-0.00992344,-0.10357205,0.10858445,0.00010911,0.00008104,-0
 .00010076,-0.00001778,-0.00000674,-0.00000016,-0.00126674,-0.00011709,
 -0.00026982,0.00012876,-0.00003801,0.00103872,-0.00019162,-0.00005263,
 -0.00006689,-0.00377320,0.00173036,-0.00128889,-0.00004858,0.00020213,
 0.00012381,0.00009570,0.00012314,0.00003182,-0.00005300,-0.00029346,0.
 00075886,-0.00015125,-0.00013579,-0.00003058,0.00013623,0.00011420,0.0
 0001675,-0.00042457,-0.00055554,0.00039805,-0.00021383,-0.00015787,-0.
 00020283,0.00006652,0.00002825,-0.00000454,-0.00002345,-0.00001809,0.0
 0002873,-0.00002814,0.00000496,-0.00001094,0.00001777,0.00001085,0.000
 00858,-0.00003817,-0.00002822,0.00000787,-0.00000533,0.00000482,-0.000
 00075,0.00000903,-0.00000781,-0.00000432,0.00001622,-0.00000441,-0.000
 00325,0.00003315,-0.00011313,-0.00059133,-0.00006146,-0.00009705,0.000
 18099,0.00025873,0.00026700,0.00033031,0.00014446,-0.00005959,0.000304
 19,0.06772745,-0.03412212,-0.07026768,0.02716914,-0.01350284,-0.007184
 24,-0.01634644,0.00692671,0.00629757,-0.07326872,0.03981692,0.07050072
 \\0.00642304,0.00158142,-0.00642582,0.01143233,-0.06129121,-0.02061979
 ,0.03236164,0.02919292,0.00261866,-0.00308774,0.00177041,0.00073562,0.
 02561108,-0.04285441,-0.01330619,-0.03634542,-0.00369020,0.01113398,-0
 .04784161,-0.01556568,-0.00042352,0.01465777,0.09467263,0.03120667,-0.
 05535066,0.00777105,0.00935659,0.00692772,-0.00727204,-0.00091728,0.00
 584456,0.00270422,-0.00248303,0.04479966,0.00571290,-0.01177582,-0.002
 33577,-0.00114408,0.00210412,-0.00375942,0.00124029,-0.00186436,0.0001
 6186,-0.00257311,-0.00051945,0.00206562,-0.00003621,-0.00328593,0.0015
 2751,-0.00304823,0.00301641,-0.00895085,-0.00850727,-0.00050917,-0.004
 57676,-0.00055049,-0.00041179,0.00431947,-0.00084418,-0.00152540,0.002
 12629,-0.00090041,0.00105719,0.00052220,0.00093681,0.00292539,-0.00008
 476,-0.00099208,-0.00003127,0.00063505,0.00043647,-0.00014402,-0.00039
 889,0.00220766,0.00028559,0.00424846,0.00197014,0.00074051,-0.00026834
 ,-0.00096047,-0.00021774,-0.00023026,0.00034165,-0.00076468,-0.0004338
 0,-0.00030850,0.00004453\\\@


 EXPERIENCE IS THE FRUIT OF THE TREE OF ERRORS.
 Job cpu time:       0 days  5 hours 44 minutes  6.4 seconds.
 Elapsed time:       0 days  0 hours 21 minutes 34.6 seconds.
 File lengths (MBytes):  RWF=   1326 Int=      0 D2E=      0 Chk=     36 Scr=      1
 Normal termination of Gaussian 16 at Sun Jun 28 19:57:38 2026.
