 Entering Gaussian System, Link 0=g16
 Input=no-s1-freq.gjf
 Output=no-s1-freq.log
 Initial command:
 /data/home/wyx/g16/l1.exe "/scr/tmp/wyx/16270/Gau-241472.inp" -scrdir="/scr/tmp/wyx/16270/"
 Entering Link 1 = /data/home/wyx/g16/l1.exe PID=    241473.
  
 Copyright (c) 1988,1990,1992,1993,1995,1998,2003,2009,2016,
            Gaussian, Inc.  All Rights Reserved.
  
 This is part of the Gaussian(R) 16 program.  It is based on
 the Gaussian(R) 09 system (copyright 2009, Gaussian, Inc.),
 the Gaussian(R) 03 system (copyright 2003, Gaussian, Inc.),
 the Gaussian(R) 98 system (copyright 1998, Gaussian, Inc.),
 the Gaussian(R) 94 system (copyright 1995, Gaussian, Inc.),
 the Gaussian 92(TM) system (copyright 1992, Gaussian, Inc.),
 the Gaussian 90(TM) system (copyright 1990, Gaussian, Inc.),
 the Gaussian 88(TM) system (copyright 1988, Gaussian, Inc.),
 the Gaussian 86(TM) system (copyright 1986, Carnegie Mellon
 University), and the Gaussian 82(TM) system (copyright 1983,
 Carnegie Mellon University). Gaussian is a federally registered
 trademark of Gaussian, Inc.
  
 This software contains proprietary and confidential information,
 including trade secrets, belonging to Gaussian, Inc.
  
 This software is provided under written license and may be
 used, copied, transmitted, or stored only in accord with that
 written license.
  
 The following legend is applicable only to US Government
 contracts under FAR:
  
                    RESTRICTED RIGHTS LEGEND
  
 Use, reproduction and disclosure by the US Government is
 subject to restrictions as set forth in subparagraphs (a)
 and (c) of the Commercial Computer Software - Restricted
 Rights clause in FAR 52.227-19.
  
 Gaussian, Inc.
 340 Quinnipiac St., Bldg. 40, Wallingford CT 06492
  
  
 ---------------------------------------------------------------
 Warning -- This program may not be used in any manner that
 competes with the business of Gaussian, Inc. or will provide
 assistance to any competitor of Gaussian, Inc.  The licensee
 of this program is prohibited from giving any competitor of
 Gaussian, Inc. access to this program.  By using this program,
 the user acknowledges that Gaussian, Inc. is engaged in the
 business of creating and licensing software in the field of
 computational chemistry and represents and warrants to the
 licensee that it is not a competitor of Gaussian, Inc. and that
 it will not use this program in any manner prohibited above.
 ---------------------------------------------------------------
  

 Cite this work as:
 Gaussian 16, Revision A.03,
 M. J. Frisch, G. W. Trucks, H. B. Schlegel, G. E. Scuseria, 
 M. A. Robb, J. R. Cheeseman, G. Scalmani, V. Barone, 
 G. A. Petersson, H. Nakatsuji, X. Li, M. Caricato, A. V. Marenich, 
 J. Bloino, B. G. Janesko, R. Gomperts, B. Mennucci, H. P. Hratchian, 
 J. V. Ortiz, A. F. Izmaylov, J. L. Sonnenberg, D. Williams-Young, 
 F. Ding, F. Lipparini, F. Egidi, J. Goings, B. Peng, A. Petrone, 
 T. Henderson, D. Ranasinghe, V. G. Zakrzewski, J. Gao, N. Rega, 
 G. Zheng, W. Liang, M. Hada, M. Ehara, K. Toyota, R. Fukuda, 
 J. Hasegawa, M. Ishida, T. Nakajima, Y. Honda, O. Kitao, H. Nakai, 
 T. Vreven, K. Throssell, J. A. Montgomery, Jr., J. E. Peralta, 
 F. Ogliaro, M. J. Bearpark, J. J. Heyd, E. N. Brothers, K. N. Kudin, 
 V. N. Staroverov, T. A. Keith, R. Kobayashi, J. Normand, 
 K. Raghavachari, A. P. Rendell, J. C. Burant, S. S. Iyengar, 
 J. Tomasi, M. Cossi, J. M. Millam, M. Klene, C. Adamo, R. Cammi, 
 J. W. Ochterski, R. L. Martin, K. Morokuma, O. Farkas, 
 J. B. Foresman, and D. J. Fox, Gaussian, Inc., Wallingford CT, 2016.
 
 ******************************************
 Gaussian 16:  ES64L-G16RevA.03 25-Dec-2016
                28-Jun-2026 
 ******************************************
 %nprocshared=16
 Will use up to   16 processors via shared memory.
 %mem=16GB
 %chk=no-s1-freq.chk
 ----------------------------------------------------------------------
 #p freq=intmodes td=(root=1,nstates=6) cam-b3lyp tzvp geom=connectivit
 y
 ----------------------------------------------------------------------
 1/10=4,18=20,30=1,38=1,57=2/1,3;
 2/9=110,12=2,17=6,18=5,40=1/2;
 3/5=19,7=101,11=9,25=1,30=1,71=2,74=-40,140=1/1,2,3,8;
 4//1;
 5/5=2,38=5,98=1/2;
 8/6=1,10=1,107=1,108=6/1;
 9/8=1,15=3,41=6,42=1,70=2/14;
 10/5=2004,20=4,28=1/2;
 11/6=1,8=1,12=-1,16=1,42=3/1,2,10;
 10/6=3,21=1,28=1/2,14;
 6/7=2,8=2,9=2,10=2/1;
 7/8=21,10=1,12=6,13=8,14=1,25=1,44=2/1,2,3,16;
 1/10=4,18=20,30=1/3;
 99//99;
 Leave Link    1 at Sun Jun 28 19:35:54 2026, MaxMem=  2147483648 cpu:               0.5 elap:               0.1
 (Enter /data/home/wyx/g16/l101.exe)
 -------------------
 Title Card Required
 -------------------
 Symbolic Z-matrix:
 Charge =  0 Multiplicity = 1
 O                     0.13268   0.80307   0. 
 O                    -0.65476  -4.64644  -2.90825 
 N                    -3.3133   -1.51321  -2.1283 
 H                    -4.29633  -1.61086  -2.33934 
 C                    -1.16897  -2.49102  -2.12934 
 C                    -2.92696  -0.29497  -1.62757 
 C                    -2.55626  -2.6037   -2.35245 
 C                    -0.25562  -3.57391  -2.46363 
 C                    -0.65066  -1.24725  -1.55469 
 H                    -0.0308   -1.4111   -0.65687 
 H                     0.14344  -0.84274  -2.21436 
 C                    -1.59047  -0.16329  -1.23242 
 C                    -0.98826   0.93635  -0.49262 
 C                    -3.29144  -3.81134  -2.81836 
 H                    -4.36437  -3.6155   -2.82653 
 H                    -2.97666  -4.12502  -3.81145 
 H                    -3.10055  -4.65392  -2.16071 
 C                     1.22609  -3.37653  -2.2316 
 H                     1.72599  -4.30173  -2.49831 
 H                     1.63102  -2.56711  -2.84057 
 H                     1.44348  -3.14418  -1.18903 
 C                    -1.68763   2.26446  -0.3109 
 H                    -2.03208   2.69166  -1.25179 
 H                    -2.54533   2.17675   0.35661 
 H                    -0.96607   2.93495   0.1439 
 C                    -4.02651   0.70372  -1.50152 
 H                    -4.1967    1.00253  -0.46778 
 H                    -3.81686   1.60726  -2.07077 
 H                    -4.96533   0.29432  -1.87631 
 
 ITRead=  0  0  0  0  0  0  0  0  0  0  0  0  0  0  0  0  0  0  0  0
 ITRead=  0  0  0  0  0  0  0  0  0
 MicOpt= -1 -1 -1 -1 -1 -1 -1 -1 -1 -1 -1 -1 -1 -1 -1 -1 -1 -1 -1 -1
 MicOpt= -1 -1 -1 -1 -1 -1 -1 -1 -1
 NAtoms=     29 NQM=       29 NQMF=       0 NMMI=      0 NMMIF=      0
                NMic=       0 NMicF=      0.
                    Isotopes and Nuclear Properties:
 (Nuclear quadrupole moments (NQMom) in fm**2, nuclear magnetic moments (NMagM)
  in nuclear magnetons)

  Atom         1           2           3           4           5           6           7           8           9          10
 IAtWgt=          16          16          14           1          12          12          12          12          12           1
 AtmWgt=  15.9949146  15.9949146  14.0030740   1.0078250  12.0000000  12.0000000  12.0000000  12.0000000  12.0000000   1.0078250
 NucSpn=           0           0           2           1           0           0           0           0           0           1
 AtZEff=  -0.0000000  -0.0000000  -0.0000000  -0.0000000  -0.0000000  -0.0000000  -0.0000000  -0.0000000  -0.0000000  -0.0000000
 NQMom=    0.0000000   0.0000000   2.0440000   0.0000000   0.0000000   0.0000000   0.0000000   0.0000000   0.0000000   0.0000000
 NMagM=    0.0000000   0.0000000   0.4037610   2.7928460   0.0000000   0.0000000   0.0000000   0.0000000   0.0000000   2.7928460
 AtZNuc=   8.0000000   8.0000000   7.0000000   1.0000000   6.0000000   6.0000000   6.0000000   6.0000000   6.0000000   1.0000000

  Atom        11          12          13          14          15          16          17          18          19          20
 IAtWgt=           1          12          12          12           1           1           1          12           1           1
 AtmWgt=   1.0078250  12.0000000  12.0000000  12.0000000   1.0078250   1.0078250   1.0078250  12.0000000   1.0078250   1.0078250
 NucSpn=           1           0           0           0           1           1           1           0           1           1
 AtZEff=  -0.0000000  -0.0000000  -0.0000000  -0.0000000  -0.0000000  -0.0000000  -0.0000000  -0.0000000  -0.0000000  -0.0000000
 NQMom=    0.0000000   0.0000000   0.0000000   0.0000000   0.0000000   0.0000000   0.0000000   0.0000000   0.0000000   0.0000000
 NMagM=    2.7928460   0.0000000   0.0000000   0.0000000   2.7928460   2.7928460   2.7928460   0.0000000   2.7928460   2.7928460
 AtZNuc=   1.0000000   6.0000000   6.0000000   6.0000000   1.0000000   1.0000000   1.0000000   6.0000000   1.0000000   1.0000000

  Atom        21          22          23          24          25          26          27          28          29
 IAtWgt=           1          12           1           1           1          12           1           1           1
 AtmWgt=   1.0078250  12.0000000   1.0078250   1.0078250   1.0078250  12.0000000   1.0078250   1.0078250   1.0078250
 NucSpn=           1           0           1           1           1           0           1           1           1
 AtZEff=  -0.0000000  -0.0000000  -0.0000000  -0.0000000  -0.0000000  -0.0000000  -0.0000000  -0.0000000  -0.0000000
 NQMom=    0.0000000   0.0000000   0.0000000   0.0000000   0.0000000   0.0000000   0.0000000   0.0000000   0.0000000
 NMagM=    2.7928460   0.0000000   2.7928460   2.7928460   2.7928460   0.0000000   2.7928460   2.7928460   2.7928460
 AtZNuc=   1.0000000   6.0000000   1.0000000   1.0000000   1.0000000   6.0000000   1.0000000   1.0000000   1.0000000
 Leave Link  101 at Sun Jun 28 19:35:55 2026, MaxMem=  2147483648 cpu:               5.2 elap:               0.4
 (Enter /data/home/wyx/g16/l103.exe)

 GradGradGradGradGradGradGradGradGradGradGradGradGradGradGradGradGradGrad
 Berny optimization.
 Initialization pass.
                           ----------------------------
                           !    Initial Parameters    !
                           ! (Angstroms and Degrees)  !
 --------------------------                            --------------------------
 ! Name  Definition              Value          Derivative Info.                !
 --------------------------------------------------------------------------------
 ! R1    R(1,13)                 1.2316         calculate D2E/DX2 analytically  !
 ! R2    R(2,8)                  1.2277         calculate D2E/DX2 analytically  !
 ! R3    R(3,4)                  1.0102         calculate D2E/DX2 analytically  !
 ! R4    R(3,6)                  1.3726         calculate D2E/DX2 analytically  !
 ! R5    R(3,7)                  1.3463         calculate D2E/DX2 analytically  !
 ! R6    R(5,7)                  1.4096         calculate D2E/DX2 analytically  !
 ! R7    R(5,8)                  1.4555         calculate D2E/DX2 analytically  !
 ! R8    R(5,9)                  1.4649         calculate D2E/DX2 analytically  !
 ! R9    R(6,12)                 1.3999         calculate D2E/DX2 analytically  !
 ! R10   R(6,26)                 1.4907         calculate D2E/DX2 analytically  !
 ! R11   R(7,14)                 1.4886         calculate D2E/DX2 analytically  !
 ! R12   R(8,18)                 1.5127         calculate D2E/DX2 analytically  !
 ! R13   R(9,10)                 1.1032         calculate D2E/DX2 analytically  !
 ! R14   R(9,11)                 1.1088         calculate D2E/DX2 analytically  !
 ! R15   R(9,12)                 1.4704         calculate D2E/DX2 analytically  !
 ! R16   R(12,13)                1.4557         calculate D2E/DX2 analytically  !
 ! R17   R(13,22)                1.512          calculate D2E/DX2 analytically  !
 ! R18   R(14,15)                1.0907         calculate D2E/DX2 analytically  !
 ! R19   R(14,16)                1.088          calculate D2E/DX2 analytically  !
 ! R20   R(14,17)                1.0858         calculate D2E/DX2 analytically  !
 ! R21   R(18,19)                1.0849         calculate D2E/DX2 analytically  !
 ! R22   R(18,20)                1.0909         calculate D2E/DX2 analytically  !
 ! R23   R(18,21)                1.09           calculate D2E/DX2 analytically  !
 ! R24   R(22,23)                1.0892         calculate D2E/DX2 analytically  !
 ! R25   R(22,24)                1.0904         calculate D2E/DX2 analytically  !
 ! R26   R(22,25)                1.0849         calculate D2E/DX2 analytically  !
 ! R27   R(26,27)                1.0894         calculate D2E/DX2 analytically  !
 ! R28   R(26,28)                1.0883         calculate D2E/DX2 analytically  !
 ! R29   R(26,29)                1.0906         calculate D2E/DX2 analytically  !
 ! A1    A(4,3,6)              115.8429         calculate D2E/DX2 analytically  !
 ! A2    A(4,3,7)              115.7299         calculate D2E/DX2 analytically  !
 ! A3    A(6,3,7)              128.4153         calculate D2E/DX2 analytically  !
 ! A4    A(7,5,8)              121.4485         calculate D2E/DX2 analytically  !
 ! A5    A(7,5,9)              118.5667         calculate D2E/DX2 analytically  !
 ! A6    A(8,5,9)              119.984          calculate D2E/DX2 analytically  !
 ! A7    A(3,6,12)             117.0756         calculate D2E/DX2 analytically  !
 ! A8    A(3,6,26)             114.6976         calculate D2E/DX2 analytically  !
 ! A9    A(12,6,26)            128.1194         calculate D2E/DX2 analytically  !
 ! A10   A(3,7,5)              117.536          calculate D2E/DX2 analytically  !
 ! A11   A(3,7,14)             115.5634         calculate D2E/DX2 analytically  !
 ! A12   A(5,7,14)             126.9005         calculate D2E/DX2 analytically  !
 ! A13   A(2,8,5)              121.9452         calculate D2E/DX2 analytically  !
 ! A14   A(2,8,18)             119.2078         calculate D2E/DX2 analytically  !
 ! A15   A(5,8,18)             118.8379         calculate D2E/DX2 analytically  !
 ! A16   A(5,9,10)             113.0755         calculate D2E/DX2 analytically  !
 ! A17   A(5,9,11)             109.255          calculate D2E/DX2 analytically  !
 ! A18   A(5,9,12)             119.0614         calculate D2E/DX2 analytically  !
 ! A19   A(10,9,11)             97.8142         calculate D2E/DX2 analytically  !
 ! A20   A(10,9,12)            106.8722         calculate D2E/DX2 analytically  !
 ! A21   A(11,9,12)            108.6152         calculate D2E/DX2 analytically  !
 ! A22   A(6,12,9)             118.6202         calculate D2E/DX2 analytically  !
 ! A23   A(6,12,13)            127.5495         calculate D2E/DX2 analytically  !
 ! A24   A(9,12,13)            113.8183         calculate D2E/DX2 analytically  !
 ! A25   A(1,13,12)            119.869          calculate D2E/DX2 analytically  !
 ! A26   A(1,13,22)            117.9017         calculate D2E/DX2 analytically  !
 ! A27   A(12,13,22)           122.2266         calculate D2E/DX2 analytically  !
 ! A28   A(7,14,15)            110.0295         calculate D2E/DX2 analytically  !
 ! A29   A(7,14,16)            112.1292         calculate D2E/DX2 analytically  !
 ! A30   A(7,14,17)            110.6803         calculate D2E/DX2 analytically  !
 ! A31   A(15,14,16)           109.2406         calculate D2E/DX2 analytically  !
 ! A32   A(15,14,17)           108.4716         calculate D2E/DX2 analytically  !
 ! A33   A(16,14,17)           106.1568         calculate D2E/DX2 analytically  !
 ! A34   A(8,18,19)            107.5985         calculate D2E/DX2 analytically  !
 ! A35   A(8,18,20)            112.0109         calculate D2E/DX2 analytically  !
 ! A36   A(8,18,21)            111.7077         calculate D2E/DX2 analytically  !
 ! A37   A(19,18,20)           108.935          calculate D2E/DX2 analytically  !
 ! A38   A(19,18,21)           108.9665         calculate D2E/DX2 analytically  !
 ! A39   A(20,18,21)           107.5627         calculate D2E/DX2 analytically  !
 ! A40   A(13,22,23)           112.7658         calculate D2E/DX2 analytically  !
 ! A41   A(13,22,24)           111.5165         calculate D2E/DX2 analytically  !
 ! A42   A(13,22,25)           106.5956         calculate D2E/DX2 analytically  !
 ! A43   A(23,22,24)           108.1561         calculate D2E/DX2 analytically  !
 ! A44   A(23,22,25)           109.2718         calculate D2E/DX2 analytically  !
 ! A45   A(24,22,25)           108.436          calculate D2E/DX2 analytically  !
 ! A46   A(6,26,27)            112.2843         calculate D2E/DX2 analytically  !
 ! A47   A(6,26,28)            111.7086         calculate D2E/DX2 analytically  !
 ! A48   A(6,26,29)            110.7561         calculate D2E/DX2 analytically  !
 ! A49   A(27,26,28)           107.3798         calculate D2E/DX2 analytically  !
 ! A50   A(27,26,29)           107.131          calculate D2E/DX2 analytically  !
 ! A51   A(28,26,29)           107.3218         calculate D2E/DX2 analytically  !
 ! D1    D(4,3,6,12)           175.3545         calculate D2E/DX2 analytically  !
 ! D2    D(4,3,6,26)            -1.1878         calculate D2E/DX2 analytically  !
 ! D3    D(7,3,6,12)            -3.3281         calculate D2E/DX2 analytically  !
 ! D4    D(7,3,6,26)          -179.8704         calculate D2E/DX2 analytically  !
 ! D5    D(4,3,7,5)            177.1526         calculate D2E/DX2 analytically  !
 ! D6    D(4,3,7,14)            -2.7259         calculate D2E/DX2 analytically  !
 ! D7    D(6,3,7,5)             -4.1635         calculate D2E/DX2 analytically  !
 ! D8    D(6,3,7,14)           175.958          calculate D2E/DX2 analytically  !
 ! D9    D(8,5,7,3)           -174.1289         calculate D2E/DX2 analytically  !
 ! D10   D(8,5,7,14)             5.734          calculate D2E/DX2 analytically  !
 ! D11   D(9,5,7,3)              5.5272         calculate D2E/DX2 analytically  !
 ! D12   D(9,5,7,14)          -174.6098         calculate D2E/DX2 analytically  !
 ! D13   D(7,5,8,2)             -2.6289         calculate D2E/DX2 analytically  !
 ! D14   D(7,5,8,18)           178.4817         calculate D2E/DX2 analytically  !
 ! D15   D(9,5,8,2)            177.7198         calculate D2E/DX2 analytically  !
 ! D16   D(9,5,8,18)            -1.1697         calculate D2E/DX2 analytically  !
 ! D17   D(7,5,9,10)           126.6632         calculate D2E/DX2 analytically  !
 ! D18   D(7,5,9,11)          -125.557          calculate D2E/DX2 analytically  !
 ! D19   D(7,5,9,12)            -0.0401         calculate D2E/DX2 analytically  !
 ! D20   D(8,5,9,10)           -53.6755         calculate D2E/DX2 analytically  !
 ! D21   D(8,5,9,11)            54.1043         calculate D2E/DX2 analytically  !
 ! D22   D(8,5,9,12)           179.6213         calculate D2E/DX2 analytically  !
 ! D23   D(3,6,12,9)             8.826          calculate D2E/DX2 analytically  !
 ! D24   D(3,6,12,13)         -169.8299         calculate D2E/DX2 analytically  !
 ! D25   D(26,6,12,9)         -175.1678         calculate D2E/DX2 analytically  !
 ! D26   D(26,6,12,13)           6.1763         calculate D2E/DX2 analytically  !
 ! D27   D(3,6,26,27)          117.4218         calculate D2E/DX2 analytically  !
 ! D28   D(3,6,26,28)         -121.8737         calculate D2E/DX2 analytically  !
 ! D29   D(3,6,26,29)           -2.2968         calculate D2E/DX2 analytically  !
 ! D30   D(12,6,26,27)         -58.6642         calculate D2E/DX2 analytically  !
 ! D31   D(12,6,26,28)          62.0403         calculate D2E/DX2 analytically  !
 ! D32   D(12,6,26,29)        -178.3828         calculate D2E/DX2 analytically  !
 ! D33   D(3,7,14,15)           -4.3125         calculate D2E/DX2 analytically  !
 ! D34   D(3,7,14,16)          117.483          calculate D2E/DX2 analytically  !
 ! D35   D(3,7,14,17)         -124.1847         calculate D2E/DX2 analytically  !
 ! D36   D(5,7,14,15)          175.8221         calculate D2E/DX2 analytically  !
 ! D37   D(5,7,14,16)          -62.3824         calculate D2E/DX2 analytically  !
 ! D38   D(5,7,14,17)           55.95           calculate D2E/DX2 analytically  !
 ! D39   D(2,8,18,19)           -1.3828         calculate D2E/DX2 analytically  !
 ! D40   D(2,8,18,20)          118.3143         calculate D2E/DX2 analytically  !
 ! D41   D(2,8,18,21)         -120.9388         calculate D2E/DX2 analytically  !
 ! D42   D(5,8,18,19)          177.5376         calculate D2E/DX2 analytically  !
 ! D43   D(5,8,18,20)          -62.7653         calculate D2E/DX2 analytically  !
 ! D44   D(5,8,18,21)           57.9816         calculate D2E/DX2 analytically  !
 ! D45   D(5,9,12,6)            -7.3002         calculate D2E/DX2 analytically  !
 ! D46   D(5,9,12,13)          171.535          calculate D2E/DX2 analytically  !
 ! D47   D(10,9,12,6)         -136.8769         calculate D2E/DX2 analytically  !
 ! D48   D(10,9,12,13)          41.9582         calculate D2E/DX2 analytically  !
 ! D49   D(11,9,12,6)          118.5225         calculate D2E/DX2 analytically  !
 ! D50   D(11,9,12,13)         -62.6423         calculate D2E/DX2 analytically  !
 ! D51   D(6,12,13,1)          166.3543         calculate D2E/DX2 analytically  !
 ! D52   D(6,12,13,22)         -14.2501         calculate D2E/DX2 analytically  !
 ! D53   D(9,12,13,1)          -12.356          calculate D2E/DX2 analytically  !
 ! D54   D(9,12,13,22)         167.0396         calculate D2E/DX2 analytically  !
 ! D55   D(1,13,22,23)         127.3749         calculate D2E/DX2 analytically  !
 ! D56   D(1,13,22,24)        -110.7077         calculate D2E/DX2 analytically  !
 ! D57   D(1,13,22,25)           7.4699         calculate D2E/DX2 analytically  !
 ! D58   D(12,13,22,23)        -52.0321         calculate D2E/DX2 analytically  !
 ! D59   D(12,13,22,24)         69.8854         calculate D2E/DX2 analytically  !
 ! D60   D(12,13,22,25)       -171.9371         calculate D2E/DX2 analytically  !
 --------------------------------------------------------------------------------
 Trust Radius=3.00D-01 FncErr=1.00D-07 GrdErr=1.00D-07 EigMax=2.50D+02 EigMin=1.00D-04
 Number of steps in this run=      2 maximum allowed number of steps=      2.
 GradGradGradGradGradGradGradGradGradGradGradGradGradGradGradGradGradGrad

 Leave Link  103 at Sun Jun 28 19:35:55 2026, MaxMem=  2147483648 cpu:               0.2 elap:               0.0
 (Enter /data/home/wyx/g16/l202.exe)
                          Input orientation:                          
 ---------------------------------------------------------------------
 Center     Atomic      Atomic             Coordinates (Angstroms)
 Number     Number       Type             X           Y           Z
 ---------------------------------------------------------------------
      1          8           0        0.132682    0.803073    0.000000
      2          8           0       -0.654756   -4.646438   -2.908252
      3          7           0       -3.313297   -1.513214   -2.128297
      4          1           0       -4.296334   -1.610864   -2.339336
      5          6           0       -1.168971   -2.491017   -2.129342
      6          6           0       -2.926961   -0.294972   -1.627573
      7          6           0       -2.556259   -2.603696   -2.352446
      8          6           0       -0.255624   -3.573910   -2.463634
      9          6           0       -0.650659   -1.247247   -1.554685
     10          1           0       -0.030801   -1.411097   -0.656873
     11          1           0        0.143438   -0.842738   -2.214358
     12          6           0       -1.590468   -0.163294   -1.232421
     13          6           0       -0.988263    0.936348   -0.492623
     14          6           0       -3.291437   -3.811343   -2.818359
     15          1           0       -4.364367   -3.615499   -2.826534
     16          1           0       -2.976662   -4.125023   -3.811452
     17          1           0       -3.100546   -4.653922   -2.160714
     18          6           0        1.226093   -3.376527   -2.231596
     19          1           0        1.725990   -4.301734   -2.498311
     20          1           0        1.631020   -2.567107   -2.840569
     21          1           0        1.443482   -3.144182   -1.189030
     22          6           0       -1.687627    2.264464   -0.310897
     23          1           0       -2.032082    2.691665   -1.251792
     24          1           0       -2.545325    2.176751    0.356610
     25          1           0       -0.966071    2.934955    0.143904
     26          6           0       -4.026513    0.703721   -1.501524
     27          1           0       -4.196704    1.002528   -0.467775
     28          1           0       -3.816863    1.607261   -2.070769
     29          1           0       -4.965328    0.294324   -1.876305
 ---------------------------------------------------------------------
                    Distance matrix (angstroms):
                    1          2          3          4          5
     1  O    0.000000
     2  O    6.226970   0.000000
     3  N    4.665791   4.182495   0.000000
     4  H    5.560195   4.774879   1.010166   0.000000
     5  C    4.132726   2.348820   2.356742   3.255636   0.000000
     6  C    3.635397   5.073294   1.372623   2.028142   2.857431
     7  C    4.936647   2.845598   1.346291   2.003434   1.409624
     8  C    5.037683   1.227725   3.702470   4.494033   1.455545
     9  C    2.689699   3.658778   2.736679   3.746844   1.464869
    10  H    2.315331   3.990671   3.598652   4.589702   2.151702
    11  H    2.759020   3.948004   3.522210   4.507462   2.108665
    12  C    2.328513   4.876735   2.364956   3.262274   2.529905
    13  C    1.231648   6.092125   3.752541   4.565301   3.802412
    14  C    6.400045   2.767228   2.399596   2.466047   2.592849
    15  H    6.909162   3.851068   2.451915   2.064110   3.458481
    16  H    6.962853   2.545367   3.125361   3.198383   2.960949
    17  H    6.700839   2.557491   3.148073   3.274449   2.900021
    18  C    4.862574   2.368149   4.908021   5.798825   2.555566
    19  H    5.902478   2.440251   5.771236   6.598063   3.434477
    20  H    4.655315   3.090788   5.105320   6.024878   2.889911
    21  H    4.325831   3.100822   5.115587   6.051426   2.852319
    22  C    2.354962   7.454773   4.496287   5.092945   5.117650
    23  H    3.133683   7.647787   4.482274   4.982102   5.326842
    24  H    3.030822   7.796761   4.514464   4.967916   5.464647
    25  H    2.402683   8.178636   5.518929   6.158052   5.886424
    26  C    4.423047   6.478567   2.411705   2.476295   4.331980
    27  H    4.359149   7.100151   3.141130   3.215973   4.912518
    28  H    4.531413   7.057553   3.161369   3.264713   4.879615
    29  H    5.456102   6.637550   2.461686   2.071640   4.715345
                    6          7          8          9         10
     6  C    0.000000
     7  C    2.448074   0.000000
     8  C    4.311203   2.499320   0.000000
     9  C    2.468540   2.471374   2.528953   0.000000
    10  H    3.252036   3.267292   2.827135   1.103239   0.000000
    11  H    3.173596   3.226206   2.771406   1.108777   1.667078
    12  C    1.399892   2.853554   3.863935   1.470391   2.078660
    13  C    2.561798   4.295284   4.976351   2.451538   2.540514
    14  C    3.730373   1.488614   3.065675   3.891679   4.589657
    15  H    3.811764   2.125502   4.124948   4.584522   5.324154
    16  H    4.409205   2.149389   3.086161   4.334153   5.098515
    17  H    4.394862   2.129891   3.058066   4.239652   4.711771
    18  C    5.206600   3.862390   1.512708   2.917917   2.814685
    19  H    6.201796   4.608933   2.111332   3.983564   3.851362
    20  H    5.235375   4.215793   2.171441   2.932846   2.977673
    21  H    5.235560   4.200427   2.167082   2.849121   2.336725
    22  C    3.133735   5.349900   6.385258   3.867095   4.046544
    23  H    3.140385   5.433880   6.624333   4.185105   4.603445
    24  H    3.192498   5.494704   6.801956   4.355063   4.496958
    25  H    4.173206   6.279898   7.047646   4.524987   4.517094
    26  C    1.490735   3.718161   5.783026   3.899422   4.599087
    27  H    2.154271   4.387242   6.360766   4.337891   4.818308
    28  H    2.146355   4.404614   6.299309   4.294113   5.044190
    29  H    2.136370   3.798532   6.122867   4.593065   5.361439
                   11         12         13         14         15
    11  H    0.000000
    12  C    2.105297   0.000000
    13  C    2.722180   1.455735   0.000000
    14  C    4.579934   4.326287   5.766648   0.000000
    15  H    5.327595   4.706743   6.128991   1.090688   0.000000
    16  H    4.801992   4.926280   6.370701   1.087985   1.776346
    17  H    5.005141   4.827816   6.204465   1.085760   1.766036
    18  C    2.755454   4.388192   5.150562   4.576181   5.627104
    19  H    3.814414   5.452344   6.231168   5.051484   6.137678
    20  H    2.361882   4.329254   4.964644   5.077322   6.086377
    21  H    2.835147   4.253520   4.800947   5.051661   6.052658
    22  C    4.078071   2.598587   1.511961   6.765723   6.933061
    23  H    4.260449   2.888977   2.178769   6.806557   6.906496
    24  H    4.791308   2.985395   2.164310   6.818679   6.855033
    25  H    4.589485   3.447215   2.097639   7.726245   7.954896
    26  C    4.504238   2.599701   3.209822   4.760272   4.530503
    27  H    5.029154   2.955722   3.209220   5.433057   5.188259
    28  H    4.659088   2.965557   3.307816   5.495110   5.305484
    29  H    5.244681   3.466076   4.259556   4.532756   4.068268
                   16         17         18         19         20
    16  H    0.000000
    17  H    1.737820   0.000000
    18  C    4.551850   4.511825   0.000000
    19  H    4.885745   4.851130   1.084916   0.000000
    20  H    4.959884   5.215814   1.090860   1.770619   0.000000
    21  H    5.232286   4.885865   1.090039   1.770298   1.759479
    22  C    7.398719   7.299468   6.633222   7.717028   6.384100
    23  H    7.342433   7.478329   6.956916   8.036451   6.602818
    24  H    7.567770   7.300910   7.194533   8.268342   7.082937
    25  H    8.338501   8.213300   7.091078   8.160770   6.776773
    26  C    5.454789   5.476886   6.691136   7.690218   6.670760
    27  H    6.241831   6.005250   7.189848   8.205887   7.234280
    28  H    6.049380   6.302667   7.091926   8.113090   6.906328
    29  H    5.218258   5.295606   7.206599   8.141522   7.254612
                   21         22         23         24         25
    21  H    0.000000
    22  C    6.310976   0.000000
    23  H    6.792687   1.089235   0.000000
    24  H    6.827292   1.090369   1.765081   0.000000
    25  H    6.673722   1.084917   1.773002   1.764698   0.000000
    26  C    6.695137   3.053506   2.827020   2.795782   4.129424
    27  H    7.037550   2.812927   2.855426   2.187570   3.813845
    28  H    7.143172   2.839491   2.243234   2.798803   3.846370
    29  H    7.305376   4.132224   3.839426   3.792869   5.200792
                   26         27         28         29
    26  C    0.000000
    27  H    1.089444   0.000000
    28  H    1.088291   1.754871   0.000000
    29  H    1.090615   1.753936   1.755161   0.000000
 Stoichiometry    C11H15NO2
 Framework group  C1[X(C11H15NO2)]
 Deg. of freedom    81
 Full point group                 C1      NOp   1
 Largest Abelian subgroup         C1      NOp   1
 Largest concise Abelian subgroup C1      NOp   1
                         Standard orientation:                         
 ---------------------------------------------------------------------
 Center     Atomic      Atomic             Coordinates (Angstroms)
 Number     Number       Type             X           Y           Z
 ---------------------------------------------------------------------
      1          8           0       -2.232519   -2.277777   -0.406725
      2          8           0        3.636121   -0.234555   -0.007385
      3          7           0       -0.014821    1.805919    0.011426
      4          1           0       -0.037602    2.815561   -0.011748
      5          6           0        1.288756   -0.157445    0.022504
      6          6           0       -1.234407    1.181683    0.095293
      7          6           0        1.207330    1.246898   -0.068219
      8          6           0        2.572270   -0.841981    0.073634
      9          6           0        0.044830   -0.929418    0.072954
     10          1           0       -0.002663   -1.723378   -0.691578
     11          1           0        0.056181   -1.583013    0.968538
     12          6           0       -1.240451   -0.216596    0.028365
     13          6           0       -2.394307   -1.093154   -0.111005
     14          6           0        2.338821    2.198425   -0.242281
     15          1           0        1.958647    3.214738   -0.352627
     16          1           0        3.034870    2.164745    0.593239
     17          1           0        2.916648    1.949321   -1.127119
     18          6           0        2.590802   -2.348792    0.205778
     19          1           0        3.627594   -2.667438    0.181909
     20          1           0        2.139279   -2.682767    1.140959
     21          1           0        2.052877   -2.831708   -0.610075
     22          6           0       -3.808512   -0.605523    0.108693
     23          1           0       -3.935130   -0.095748    1.062911
     24          1           0       -4.125148    0.073199   -0.683761
     25          1           0       -4.446162   -1.482929    0.084078
     26          6           0       -2.402902    2.104601    0.166929
     27          1           0       -3.072172    1.990672   -0.685119
     28          1           0       -2.991708    1.939450    1.067158
     29          1           0       -2.073953    3.144339    0.180274
 ---------------------------------------------------------------------
 Rotational constants (GHZ):           1.0793571           0.4879521           0.3419181
 Leave Link  202 at Sun Jun 28 19:35:55 2026, MaxMem=  2147483648 cpu:               0.2 elap:               0.0
 (Enter /data/home/wyx/g16/l301.exe)
 Standard basis: TZVP (5D, 7F)
 Ernie: Thresh=  0.10000D-02 Tol=  0.10000D-05 Strict=F.
 There are   370 symmetry adapted cartesian basis functions of A   symmetry.
 There are   356 symmetry adapted basis functions of A   symmetry.
   356 basis functions,   610 primitive gaussians,   370 cartesian basis functions
    52 alpha electrons       52 beta electrons
       nuclear repulsion energy       898.9521615114 Hartrees.
 IExCor=20419 DFT=T Ex+Corr=CAM-B3LYP ExCW=0 ScaHFX=  1.000000
 ScaDFX=  1.000000  1.000000  1.000000  0.810000 ScalE2=  1.000000  1.000000
 IRadAn=      5 IRanWt=     -1 IRanGd=            0 ICorTp=0 IEmpDi=  4
 HFx  wShort=  0.000000 wLong=  0.330000 cFull=  0.190000 cShort=  0.000000 cLong=  0.460000
 DFx  wShort=  0.000000 wLong=  0.330000 cFull=  0.190000 cShort=  0.000000 cLong=  0.460000
 NAtoms=   29 NActive=   29 NUniq=   29 SFac= 1.00D+00 NAtFMM=   60 NAOKFM=F Big=F
 Integral buffers will be    131072 words long.
 Raffenetti 1 integral format.
 Two-electron integral symmetry is turned on.
 Leave Link  301 at Sun Jun 28 19:35:55 2026, MaxMem=  2147483648 cpu:               1.0 elap:               0.1
 (Enter /data/home/wyx/g16/l302.exe)
 NPDir=0 NMtPBC=     1 NCelOv=     1 NCel=       1 NClECP=     1 NCelD=      1
         NCelK=      1 NCelE2=     1 NClLst=     1 CellRange=     0.0.
 One-electron integrals computed using PRISM.
 One-electron integral symmetry used in STVInt
 NBasis=   356 RedAO= T EigKep=  3.43D-05  NBF=   356
 NBsUse=   356 1.00D-06 EigRej= -1.00D+00 NBFU=   356
 Precomputing XC quadrature grid using
 IXCGrd= 4 IRadAn=           5 IRanWt=          -1 IRanGd=           0 AccXCQ= 0.00D+00.
 Generated NRdTot=       0 NPtTot=           0 NUsed=           0 NTot=          32
 NSgBfM=   366   366   366   366   366 MxSgAt=    29 MxSgA2=    29.
 Leave Link  302 at Sun Jun 28 19:35:56 2026, MaxMem=  2147483648 cpu:               4.2 elap:               0.3
 (Enter /data/home/wyx/g16/l303.exe)
 DipDrv:  MaxL=1.
 Leave Link  303 at Sun Jun 28 19:35:56 2026, MaxMem=  2147483648 cpu:               0.8 elap:               0.1
 (Enter /data/home/wyx/g16/l308.exe)
 Leave Link  308 at Sun Jun 28 19:35:56 2026, MaxMem=  2147483648 cpu:               1.0 elap:               0.1
 (Enter /data/home/wyx/g16/l401.exe)
 ExpMin= 9.52D-02 ExpMax= 2.70D+04 ExpMxC= 9.22D+02 IAcc=3 IRadAn=         5 AccDes= 0.00D+00
 Harris functional with IExCor=20419 and IRadAn=       5 diagonalized for initial guess.
 HarFok:  IExCor=20419 AccDes= 0.00D+00 IRadAn=         5 IDoV= 1 UseB2=F ITyADJ=14
 ICtDFT=  3500011 ScaDFX=  1.000000  1.000000  1.000000  1.000000
 FoFCou: FMM=F IPFlag=           0 FMFlag=      100000 FMFlg1=           0
         NFxFlg=           0 DoJE=T BraDBF=F KetDBF=T FulRan=T
         wScrn=  0.000000 ICntrl=       500 IOpCl=  0 I1Cent=   200000004 NGrid=           0
         NMat0=    1 NMatS0=      1 NMatT0=    0 NMatD0=    1 NMtDS0=    0 NMtDT0=    0
 Petite list used in FoFCou.
 Harris En= -608.679274145954    
 JPrj=0 DoOrth=F DoCkMO=F.
 Leave Link  401 at Sun Jun 28 19:35:57 2026, MaxMem=  2147483648 cpu:              13.0 elap:               0.8
 (Enter /data/home/wyx/g16/l502.exe)
 Integral symmetry usage will be decided dynamically.
 Closed shell SCF:
 Using DIIS extrapolation, IDIIS=  1040.
 NGot=  2147483648 LenX=  2147200095 LenY=  2147062754
 Requested convergence on RMS density matrix=1.00D-08 within 128 cycles.
 Requested convergence on MAX density matrix=1.00D-06.
 Requested convergence on             energy=1.00D-06.
 No special actions if energy rises.
 Fock matrices will be formed incrementally for  20 cycles.
 Integral accuracy reduced to 1.0D-05 until final iterations.

 Cycle   1  Pass 0  IDiag  1:
 FoFJK:  IHMeth= 1 ICntrl=       0 DoSepK=T KAlg= 0 I1Cent=           0 FoldK=F
 IRaf=         1 NMat=       1 IRICut=       1 DoRegI=T DoRafI=F ISym2E= 0 IDoP0=0 IntGTp=1.
 FoFCou: FMM=F IPFlag=           0 FMFlag=      100000 FMFlg1=           0
         NFxFlg=           0 DoJE=T BraDBF=F KetDBF=F FulRan=T
         wScrn=  0.000000 ICntrl=       500 IOpCl=  0 I1Cent=           0 NGrid=           0
         NMat0=    1 NMatS0=      1 NMatT0=    0 NMatD0=    1 NMtDS0=    0 NMtDT0=    0
 Symmetry not used in FoFCou.
 E= -633.051196483430    
 DIIS: error= 4.21D-02 at cycle   1 NSaved=   1.
 NSaved= 1 IEnMin= 1 EnMin= -633.051196483430     IErMin= 1 ErrMin= 4.21D-02
 ErrMax= 4.21D-02  0.00D+00 EMaxC= 1.00D-01 BMatC= 1.11D+00 BMatP= 1.11D+00
 IDIUse=3 WtCom= 5.79D-01 WtEn= 4.21D-01
 Coeff-Com:  0.100D+01
 Coeff-En:   0.100D+01
 Coeff:      0.100D+01
 Gap=     0.191 Goal=   None    Shift=    0.000
 GapD=    0.191 DampG=1.000 DampE=0.500 DampFc=0.5000 IDamp=-1.
 Damping current iteration by 5.00D-01
 RMSDP=4.37D-03 MaxDP=1.86D-01              OVMax= 2.24D-01

 Cycle   2  Pass 0  IDiag  1:
 RMSU=  2.11D-03    CP:  9.60D-01
 E= -633.152346285049     Delta-E=       -0.101149801619 Rises=F Damp=T
 DIIS: error= 2.09D-02 at cycle   2 NSaved=   2.
 NSaved= 2 IEnMin= 2 EnMin= -633.152346285049     IErMin= 2 ErrMin= 2.09D-02
 ErrMax= 2.09D-02  0.00D+00 EMaxC= 1.00D-01 BMatC= 2.28D-01 BMatP= 1.11D+00
 IDIUse=3 WtCom= 7.91D-01 WtEn= 2.09D-01
 Coeff-Com: -0.532D+00 0.153D+01
 Coeff-En:   0.000D+00 0.100D+01
 Coeff:     -0.421D+00 0.142D+01
 Gap=     0.219 Goal=   None    Shift=    0.000
 RMSDP=2.63D-03 MaxDP=1.19D-01 DE=-1.01D-01 OVMax= 2.27D-01

 Cycle   3  Pass 0  IDiag  1:
 RMSU=  2.45D-03    CP:  8.92D-01  9.73D-01
 E= -633.179180225828     Delta-E=       -0.026833940779 Rises=F Damp=F
 DIIS: error= 1.90D-02 at cycle   3 NSaved=   3.
 NSaved= 3 IEnMin= 3 EnMin= -633.179180225828     IErMin= 3 ErrMin= 1.90D-02
 ErrMax= 1.90D-02  0.00D+00 EMaxC= 1.00D-01 BMatC= 1.01D-01 BMatP= 2.28D-01
 IDIUse=3 WtCom= 8.10D-01 WtEn= 1.90D-01
 Coeff-Com: -0.372D+00 0.827D+00 0.544D+00
 Coeff-En:   0.000D+00 0.341D+00 0.659D+00
 Coeff:     -0.301D+00 0.735D+00 0.566D+00
 Gap=     0.218 Goal=   None    Shift=    0.000
 RMSDP=1.61D-03 MaxDP=5.12D-02 DE=-2.68D-02 OVMax= 1.29D-01

 Cycle   4  Pass 0  IDiag  1:
 RMSU=  6.93D-04    CP:  8.85D-01  1.42D+00  5.55D-01
 E= -633.265908445397     Delta-E=       -0.086728219570 Rises=F Damp=F
 DIIS: error= 6.16D-03 at cycle   4 NSaved=   4.
 NSaved= 4 IEnMin= 4 EnMin= -633.265908445397     IErMin= 4 ErrMin= 6.16D-03
 ErrMax= 6.16D-03  0.00D+00 EMaxC= 1.00D-01 BMatC= 8.88D-03 BMatP= 1.01D-01
 IDIUse=3 WtCom= 9.38D-01 WtEn= 6.16D-02
 Coeff-Com: -0.147D+00 0.322D+00 0.326D+00 0.500D+00
 Coeff-En:   0.000D+00 0.000D+00 0.272D-01 0.973D+00
 Coeff:     -0.138D+00 0.302D+00 0.307D+00 0.529D+00
 Gap=     0.213 Goal=   None    Shift=    0.000
 RMSDP=5.01D-04 MaxDP=1.94D-02 DE=-8.67D-02 OVMax= 3.18D-02

 Cycle   5  Pass 0  IDiag  1:
 RMSU=  2.14D-04    CP:  8.78D-01  1.35D+00  7.12D-01  7.82D-01
 E= -633.273951987254     Delta-E=       -0.008043541857 Rises=F Damp=F
 DIIS: error= 8.80D-04 at cycle   5 NSaved=   5.
 NSaved= 5 IEnMin= 5 EnMin= -633.273951987254     IErMin= 5 ErrMin= 8.80D-04
 ErrMax= 8.80D-04  0.00D+00 EMaxC= 1.00D-01 BMatC= 1.35D-04 BMatP= 8.88D-03
 IDIUse=3 WtCom= 9.91D-01 WtEn= 8.80D-03
 Coeff-Com: -0.663D-02 0.141D-01 0.257D-01 0.138D+00 0.829D+00
 Coeff-En:   0.000D+00 0.000D+00 0.000D+00 0.000D+00 0.100D+01
 Coeff:     -0.657D-02 0.140D-01 0.255D-01 0.137D+00 0.830D+00
 Gap=     0.215 Goal=   None    Shift=    0.000
 RMSDP=1.13D-04 MaxDP=7.51D-03 DE=-8.04D-03 OVMax= 5.40D-03

 Cycle   6  Pass 0  IDiag  1:
 RMSU=  7.81D-05    CP:  8.76D-01  1.37D+00  7.10D-01  8.61D-01  8.38D-01
 E= -633.274061250601     Delta-E=       -0.000109263347 Rises=F Damp=F
 DIIS: error= 4.24D-04 at cycle   6 NSaved=   6.
 NSaved= 6 IEnMin= 6 EnMin= -633.274061250601     IErMin= 6 ErrMin= 4.24D-04
 ErrMax= 4.24D-04  0.00D+00 EMaxC= 1.00D-01 BMatC= 5.28D-05 BMatP= 1.35D-04
 IDIUse=3 WtCom= 9.96D-01 WtEn= 4.24D-03
 Coeff-Com:  0.146D-01-0.321D-01-0.251D-01 0.192D-01 0.529D+00 0.495D+00
 Coeff-En:   0.000D+00 0.000D+00 0.000D+00 0.000D+00 0.103D+00 0.897D+00
 Coeff:      0.145D-01-0.320D-01-0.250D-01 0.191D-01 0.527D+00 0.496D+00
 Gap=     0.215 Goal=   None    Shift=    0.000
 RMSDP=5.90D-05 MaxDP=5.33D-03 DE=-1.09D-04 OVMax= 1.43D-03

 Cycle   7  Pass 0  IDiag  1:
 RMSU=  2.68D-05    CP:  8.74D-01  1.37D+00  7.16D-01  8.68D-01  1.02D+00
                    CP:  6.73D-01
 E= -633.274100333419     Delta-E=       -0.000039082819 Rises=F Damp=F
 DIIS: error= 6.46D-05 at cycle   7 NSaved=   7.
 NSaved= 7 IEnMin= 7 EnMin= -633.274100333419     IErMin= 7 ErrMin= 6.46D-05
 ErrMax= 6.46D-05  0.00D+00 EMaxC= 1.00D-01 BMatC= 1.44D-06 BMatP= 5.28D-05
 IDIUse=1 WtCom= 1.00D+00 WtEn= 0.00D+00
 Coeff-Com:  0.491D-02-0.107D-01-0.914D-02-0.803D-02 0.913D-01 0.162D+00
 Coeff-Com:  0.770D+00
 Coeff:      0.491D-02-0.107D-01-0.914D-02-0.803D-02 0.913D-01 0.162D+00
 Coeff:      0.770D+00
 Gap=     0.215 Goal=   None    Shift=    0.000
 RMSDP=1.49D-05 MaxDP=8.29D-04 DE=-3.91D-05 OVMax= 5.97D-04

 Cycle   8  Pass 0  IDiag  1:
 RMSU=  7.82D-06    CP:  8.74D-01  1.37D+00  7.19D-01  8.75D-01  1.04D+00
                    CP:  7.47D-01  1.04D+00
 E= -633.274102927558     Delta-E=       -0.000002594139 Rises=F Damp=F
 DIIS: error= 2.10D-05 at cycle   8 NSaved=   8.
 NSaved= 8 IEnMin= 8 EnMin= -633.274102927558     IErMin= 8 ErrMin= 2.10D-05
 ErrMax= 2.10D-05  0.00D+00 EMaxC= 1.00D-01 BMatC= 2.25D-07 BMatP= 1.44D-06
 IDIUse=1 WtCom= 1.00D+00 WtEn= 0.00D+00
 Coeff-Com:  0.358D-03-0.739D-03-0.930D-03-0.757D-02-0.366D-01-0.263D-02
 Coeff-Com:  0.293D+00 0.756D+00
 Coeff:      0.358D-03-0.739D-03-0.930D-03-0.757D-02-0.366D-01-0.263D-02
 Coeff:      0.293D+00 0.756D+00
 Gap=     0.215 Goal=   None    Shift=    0.000
 RMSDP=7.54D-06 MaxDP=4.26D-04 DE=-2.59D-06 OVMax= 3.28D-04

 Initial convergence to 1.0D-05 achieved.  Increase integral accuracy.
 Cycle   9  Pass 1  IDiag  1:
 E= -633.274086979307     Delta-E=        0.000015948251 Rises=F Damp=F
 DIIS: error= 8.11D-05 at cycle   1 NSaved=   1.
 NSaved= 1 IEnMin= 1 EnMin= -633.274086979307     IErMin= 1 ErrMin= 8.11D-05
 ErrMax= 8.11D-05  0.00D+00 EMaxC= 1.00D-01 BMatC= 1.87D-06 BMatP= 1.87D-06
 IDIUse=1 WtCom= 1.00D+00 WtEn= 0.00D+00
 Coeff-Com:  0.100D+01
 Coeff:      0.100D+01
 Gap=     0.215 Goal=   None    Shift=    0.000
 RMSDP=7.54D-06 MaxDP=4.26D-04 DE= 1.59D-05 OVMax= 3.03D-04

 Cycle  10  Pass 1  IDiag  1:
 RMSU=  2.08D-04    CP:  1.00D+00
 E= -633.274088554685     Delta-E=       -0.000001575378 Rises=F Damp=F
 DIIS: error= 1.19D-05 at cycle   2 NSaved=   2.
 NSaved= 2 IEnMin= 2 EnMin= -633.274088554685     IErMin= 2 ErrMin= 1.19D-05
 ErrMax= 1.19D-05  0.00D+00 EMaxC= 1.00D-01 BMatC= 6.11D-08 BMatP= 1.87D-06
 IDIUse=1 WtCom= 1.00D+00 WtEn= 0.00D+00
 Coeff-Com:  0.262D-01 0.974D+00
 Coeff:      0.262D-01 0.974D+00
 Gap=     0.215 Goal=   None    Shift=    0.000
 RMSDP=1.21D-05 MaxDP=5.24D-04 DE=-1.58D-06 OVMax= 1.01D-04

 Cycle  11  Pass 1  IDiag  1:
 RMSU=  4.33D-06    CP:  1.00D+00  1.05D+00
 E= -633.274088513845     Delta-E=        0.000000040840 Rises=F Damp=F
 DIIS: error= 1.86D-05 at cycle   3 NSaved=   3.
 NSaved= 3 IEnMin= 2 EnMin= -633.274088554685     IErMin= 2 ErrMin= 1.19D-05
 ErrMax= 1.86D-05  0.00D+00 EMaxC= 1.00D-01 BMatC= 1.25D-07 BMatP= 6.11D-08
 IDIUse=1 WtCom= 1.00D+00 WtEn= 0.00D+00
 Coeff-Com: -0.146D-01 0.598D+00 0.417D+00
 Coeff:     -0.146D-01 0.598D+00 0.417D+00
 Gap=     0.215 Goal=   None    Shift=    0.000
 RMSDP=2.28D-06 MaxDP=1.46D-04 DE= 4.08D-08 OVMax= 6.61D-05

 Cycle  12  Pass 1  IDiag  1:
 RMSU=  1.58D-06    CP:  1.00D+00  1.06D+00  7.54D-01
 E= -633.274088605142     Delta-E=       -0.000000091297 Rises=F Damp=F
 DIIS: error= 2.22D-06 at cycle   4 NSaved=   4.
 NSaved= 4 IEnMin= 4 EnMin= -633.274088605142     IErMin= 4 ErrMin= 2.22D-06
 ErrMax= 2.22D-06  0.00D+00 EMaxC= 1.00D-01 BMatC= 1.57D-09 BMatP= 6.11D-08
 IDIUse=1 WtCom= 1.00D+00 WtEn= 0.00D+00
 Coeff-Com: -0.769D-02 0.267D+00 0.207D+00 0.534D+00
 Coeff:     -0.769D-02 0.267D+00 0.207D+00 0.534D+00
 Gap=     0.215 Goal=   None    Shift=    0.000
 RMSDP=3.60D-07 MaxDP=3.12D-05 DE=-9.13D-08 OVMax= 1.04D-05

 Cycle  13  Pass 1  IDiag  1:
 RMSU=  2.17D-07    CP:  1.00D+00  1.06D+00  7.98D-01  9.71D-01
 E= -633.274088606381     Delta-E=       -0.000000001239 Rises=F Damp=F
 DIIS: error= 1.07D-06 at cycle   5 NSaved=   5.
 NSaved= 5 IEnMin= 5 EnMin= -633.274088606381     IErMin= 5 ErrMin= 1.07D-06
 ErrMax= 1.07D-06  0.00D+00 EMaxC= 1.00D-01 BMatC= 1.09D-10 BMatP= 1.57D-09
 IDIUse=1 WtCom= 1.00D+00 WtEn= 0.00D+00
 Coeff-Com:  0.122D-02-0.620D-01-0.297D-01 0.140D+00 0.951D+00
 Coeff:      0.122D-02-0.620D-01-0.297D-01 0.140D+00 0.951D+00
 Gap=     0.215 Goal=   None    Shift=    0.000
 RMSDP=2.75D-07 MaxDP=1.49D-05 DE=-1.24D-09 OVMax= 1.39D-05

 Cycle  14  Pass 1  IDiag  1:
 RMSU=  1.15D-07    CP:  1.00D+00  1.06D+00  8.27D-01  1.04D+00  1.22D+00
 E= -633.274088606632     Delta-E=       -0.000000000251 Rises=F Damp=F
 DIIS: error= 2.99D-07 at cycle   6 NSaved=   6.
 NSaved= 6 IEnMin= 6 EnMin= -633.274088606632     IErMin= 6 ErrMin= 2.99D-07
 ErrMax= 2.99D-07  0.00D+00 EMaxC= 1.00D-01 BMatC= 1.63D-11 BMatP= 1.09D-10
 IDIUse=1 WtCom= 1.00D+00 WtEn= 0.00D+00
 Coeff-Com:  0.114D-02-0.471D-01-0.272D-01-0.179D-02 0.325D+00 0.749D+00
 Coeff:      0.114D-02-0.471D-01-0.272D-01-0.179D-02 0.325D+00 0.749D+00
 Gap=     0.215 Goal=   None    Shift=    0.000
 RMSDP=6.35D-08 MaxDP=4.61D-06 DE=-2.51D-10 OVMax= 2.95D-06

 Cycle  15  Pass 1  IDiag  1:
 RMSU=  4.19D-08    CP:  1.00D+00  1.06D+00  8.34D-01  1.04D+00  1.36D+00
                    CP:  1.09D+00
 E= -633.274088606668     Delta-E=       -0.000000000035 Rises=F Damp=F
 DIIS: error= 2.21D-07 at cycle   7 NSaved=   7.
 NSaved= 7 IEnMin= 7 EnMin= -633.274088606668     IErMin= 7 ErrMin= 2.21D-07
 ErrMax= 2.21D-07  0.00D+00 EMaxC= 1.00D-01 BMatC= 5.12D-12 BMatP= 1.63D-11
 IDIUse=1 WtCom= 1.00D+00 WtEn= 0.00D+00
 Coeff-Com:  0.351D-03-0.117D-01-0.734D-02-0.290D-01-0.264D-01 0.407D+00
 Coeff-Com:  0.667D+00
 Coeff:      0.351D-03-0.117D-01-0.734D-02-0.290D-01-0.264D-01 0.407D+00
 Coeff:      0.667D+00
 Gap=     0.215 Goal=   None    Shift=    0.000
 RMSDP=2.66D-08 MaxDP=1.54D-06 DE=-3.55D-11 OVMax= 2.25D-06

 Cycle  16  Pass 1  IDiag  1:
 RMSU=  1.28D-08    CP:  1.00D+00  1.06D+00  8.35D-01  1.03D+00  1.38D+00
                    CP:  1.23D+00  1.10D+00
 E= -633.274088606667     Delta-E=        0.000000000000 Rises=F Damp=F
 DIIS: error= 4.30D-08 at cycle   8 NSaved=   8.
 NSaved= 8 IEnMin= 7 EnMin= -633.274088606668     IErMin= 8 ErrMin= 4.30D-08
 ErrMax= 4.30D-08  0.00D+00 EMaxC= 1.00D-01 BMatC= 6.39D-13 BMatP= 5.12D-12
 IDIUse=1 WtCom= 1.00D+00 WtEn= 0.00D+00
 Coeff-Com: -0.293D-04 0.247D-02 0.110D-02-0.132D-01-0.752D-01 0.573D-01
 Coeff-Com:  0.292D+00 0.735D+00
 Coeff:     -0.293D-04 0.247D-02 0.110D-02-0.132D-01-0.752D-01 0.573D-01
 Coeff:      0.292D+00 0.735D+00
 Gap=     0.215 Goal=   None    Shift=    0.000
 RMSDP=1.36D-08 MaxDP=7.40D-07 DE= 4.55D-13 OVMax= 8.09D-07

 Cycle  17  Pass 1  IDiag  1:
 RMSU=  6.05D-09    CP:  1.00D+00  1.06D+00  8.34D-01  1.03D+00  1.39D+00
                    CP:  1.25D+00  1.21D+00  1.05D+00
 E= -633.274088606665     Delta-E=        0.000000000002 Rises=F Damp=F
 DIIS: error= 1.80D-08 at cycle   9 NSaved=   9.
 NSaved= 9 IEnMin= 7 EnMin= -633.274088606668     IErMin= 9 ErrMin= 1.80D-08
 ErrMax= 1.80D-08  0.00D+00 EMaxC= 1.00D-01 BMatC= 1.07D-13 BMatP= 6.39D-13
 IDIUse=1 WtCom= 1.00D+00 WtEn= 0.00D+00
 Coeff-Com: -0.509D-04 0.241D-02 0.126D-02-0.269D-02-0.322D-01-0.114D-01
 Coeff-Com:  0.661D-01 0.363D+00 0.613D+00
 Coeff:     -0.509D-04 0.241D-02 0.126D-02-0.269D-02-0.322D-01-0.114D-01
 Coeff:      0.661D-01 0.363D+00 0.613D+00
 Gap=     0.215 Goal=   None    Shift=    0.000
 RMSDP=3.28D-09 MaxDP=3.19D-07 DE= 2.27D-12 OVMax= 2.60D-07

 SCF Done:  E(RCAM-B3LYP) =  -633.274088607     A.U. after   17 cycles
            NFock= 17  Conv=0.33D-08     -V/T= 2.0042
 KE= 6.306526410805D+02 PE=-3.273725782766D+03 EE= 1.110846891567D+03
 Leave Link  502 at Sun Jun 28 19:36:46 2026, MaxMem=  2147483648 cpu:             772.6 elap:              48.5
 (Enter /data/home/wyx/g16/l801.exe)
 DoSCS=F DFT=T ScalE2(SS,OS)=  1.000000  1.000000
 ExpMin= 9.52D-02 ExpMax= 2.70D+04 ExpMxC= 9.22D+02 IAcc=3 IRadAn=         5 AccDes= 0.00D+00
 HarFok:  IExCor=  205 AccDes= 0.00D+00 IRadAn=         5 IDoV=-2 UseB2=F ITyADJ=14
 ICtDFT= 12500011 ScaDFX=  1.000000  1.000000  1.000000  1.000000
 Largest valence mixing into a core orbital is  5.58D-05
 Largest core mixing into a valence orbital is  1.06D-05
 Range of M.O.s used for correlation:    15   356
 NBasis=   356 NAE=    52 NBE=    52 NFC=    14 NFV=     0
 NROrb=    342 NOA=    38 NOB=    38 NVA=   304 NVB=   304

 **** Warning!!: The largest alpha MO coefficient is  0.50087159D+02

 Leave Link  801 at Sun Jun 28 19:36:46 2026, MaxMem=  2147483648 cpu:               1.4 elap:               0.1
 (Enter /data/home/wyx/g16/l914.exe)
 RHF ground state
 Two-electron integrals replicated using symmetry.
 MDV=  2147483648 DFT=T DoStab=F Mixed=T DoRPA=T DoScal=F NonHer=T
 Making orbital integer symmetry assigments:
 Orbital symmetries:
       Occupied  (A) (A) (A) (A) (A) (A) (A) (A) (A) (A) (A) (A)
                 (A) (A) (A) (A) (A) (A) (A) (A) (A) (A) (A) (A)
                 (A) (A) (A) (A) (A) (A) (A) (A) (A) (A) (A) (A)
                 (A) (A) (A) (A) (A) (A) (A) (A) (A) (A) (A) (A)
                 (A) (A) (A) (A)
       Virtual   (A) (A) (A) (A) (A) (A) (A) (A) (A) (A) (A) (A)
                 (A) (A) (A) (A) (A) (A) (A) (A) (A) (A) (A) (A)
                 (A) (A) (A) (A) (A) (A) (A) (A) (A) (A) (A) (A)
                 (A) (A) (A) (A) (A) (A) (A) (A) (A) (A) (A) (A)
                 (A) (A) (A) (A) (A) (A) (A) (A) (A) (A) (A) (A)
                 (A) (A) (A) (A) (A) (A) (A) (A) (A) (A) (A) (A)
                 (A) (A) (A) (A) (A) (A) (A) (A) (A) (A) (A) (A)
                 (A) (A) (A) (A) (A) (A) (A) (A) (A) (A) (A) (A)
                 (A) (A) (A) (A) (A) (A) (A) (A) (A) (A) (A) (A)
                 (A) (A) (A) (A) (A) (A) (A) (A) (A) (A) (A) (A)
                 (A) (A) (A) (A) (A) (A) (A) (A) (A) (A) (A) (A)
                 (A) (A) (A) (A) (A) (A) (A) (A) (A) (A) (A) (A)
                 (A) (A) (A) (A) (A) (A) (A) (A) (A) (A) (A) (A)
                 (A) (A) (A) (A) (A) (A) (A) (A) (A) (A) (A) (A)
                 (A) (A) (A) (A) (A) (A) (A) (A) (A) (A) (A) (A)
                 (A) (A) (A) (A) (A) (A) (A) (A) (A) (A) (A) (A)
                 (A) (A) (A) (A) (A) (A) (A) (A) (A) (A) (A) (A)
                 (A) (A) (A) (A) (A) (A) (A) (A) (A) (A) (A) (A)
                 (A) (A) (A) (A) (A) (A) (A) (A) (A) (A) (A) (A)
                 (A) (A) (A) (A) (A) (A) (A) (A) (A) (A) (A) (A)
                 (A) (A) (A) (A) (A) (A) (A) (A) (A) (A) (A) (A)
                 (A) (A) (A) (A) (A) (A) (A) (A) (A) (A) (A) (A)
                 (A) (A) (A) (A) (A) (A) (A) (A) (A) (A) (A) (A)
                 (A) (A) (A) (A) (A) (A) (A) (A) (A) (A) (A) (A)
                 (A) (A) (A) (A) (A) (A) (A) (A) (A) (A) (A) (A)
                 (A) (A) (A) (A)
    24 initial guesses have been made.
 Convergence on wavefunction:    0.000001000000000
 Davidson Disk Diagonalization:  ConvIn= 1.00D-06 SkipCon=T Conv= 1.00D-06.
 Max sub-space:  2000 roots to seek:    24 dimension of matrix:        23104
 Iteration     1 Dimension    24 NMult     0 NNew     24
 CISAX will form    24 AO SS matrices at one time.
 NMat=    24 NSing=    24 JSym2X= 0.
 FoFJK:  IHMeth= 1 ICntrl=       0 DoSepK=T KAlg= 0 I1Cent=           0 FoldK=F
 IRaf=         1 NMat=      48 IRICut=       1 DoRegI=T DoRafI=F ISym2E= 0 IDoP0=3 IntGTp=3.
 FoFCou: FMM=F IPFlag=           0 FMFlag=      100000 FMFlg1=           0
         NFxFlg=           0 DoJE=F BraDBF=F KetDBF=F FulRan=T
         wScrn=  0.000000 ICntrl=       500 IOpCl=  0 I1Cent=           0 NGrid=           0
         NMat0=   24 NMatS0=     24 NMatT0=    0 NMatD0=   24 NMtDS0=    0 NMtDT0=    0
 Symmetry not used in FoFCou.
 New state      3 was old state      4
 New state      4 was old state      3
 New state      6 was old state      7
 Excitation Energies [eV] at current iteration:
 Root      1 :     3.400428322078104
 Root      2 :     4.051844333274587
 Root      3 :     4.295790467473510
 Root      4 :     5.299078407535921
 Root      5 :     5.378174902968403
 Root      6 :     6.009680241352232
 Root      7 :     6.330263805547979
 Root      8 :     6.442277002666120
 Root      9 :     6.495816830891579
 Root     10 :     6.764474824734816
 Root     11 :     6.947798030980506
 Root     12 :     7.080928825974147
 Root     13 :     7.439902757175402
 Root     14 :     7.495025589325485
 Root     15 :     7.550273345832045
 Root     16 :     7.677501795345378
 Root     17 :     7.682462628161900
 Root     18 :     7.709890843847590
 Root     19 :     7.838837106285858
 Root     20 :     7.930231443720750
 Root     21 :     8.017799717109458
 Root     22 :     8.392557963564979
 Root     23 :     8.555550179861386
 Root     24 :     8.686089910790617
 Iteration     2 Dimension    36 NMult    24 NNew     12
 CISAX will form    12 AO SS matrices at one time.
 NMat=    12 NSing=    12 JSym2X= 0.
 Root      1 not converged, maximum delta is    0.046489949216451
 Root      2 not converged, maximum delta is    0.071199767291610
 Root      3 not converged, maximum delta is    0.088083031357338
 Root      4 not converged, maximum delta is    0.085187969713031
 Root      5 not converged, maximum delta is    0.041070867064321
 Root      6 not converged, maximum delta is    0.242790089412028
 Excitation Energies [eV] at current iteration:
 Root      1 :     2.952623114577670   Change is   -0.447805207500434
 Root      2 :     3.829305513590938   Change is   -0.222538819683649
 Root      3 :     4.018188711973312   Change is   -0.277601755500199
 Root      4 :     5.023195640843804   Change is   -0.275882766692117
 Root      5 :     5.282503061966347   Change is   -0.095671841002056
 Root      6 :     5.820833983560737   Change is   -0.188846257791494
 Iteration     3 Dimension    48 NMult    36 NNew     12
 CISAX will form    12 AO SS matrices at one time.
 NMat=    12 NSing=    12 JSym2X= 0.
 Root      1 not converged, maximum delta is    0.008511071243393
 Root      2 not converged, maximum delta is    0.020997334573115
 Root      3 not converged, maximum delta is    0.017208225439651
 Root      4 not converged, maximum delta is    0.091417747950745
 Root      5 not converged, maximum delta is    0.015747699266365
 Root      6 not converged, maximum delta is    0.385432601969069
 Excitation Energies [eV] at current iteration:
 Root      1 :     2.934734560483899   Change is   -0.017888554093770
 Root      2 :     3.814077751384854   Change is   -0.015227762206083
 Root      3 :     3.997408246116609   Change is   -0.020780465856703
 Root      4 :     4.987023305800998   Change is   -0.036172335042806
 Root      5 :     5.279735022052586   Change is   -0.002768039913761
 Root      6 :     5.527641756104658   Change is   -0.293192227456079
 Iteration     4 Dimension    60 NMult    48 NNew     12
 CISAX will form    12 AO SS matrices at one time.
 NMat=    12 NSing=    12 JSym2X= 0.
 Root      1 not converged, maximum delta is    0.002363723840345
 Root      2 not converged, maximum delta is    0.002122561836996
 Root      3 not converged, maximum delta is    0.003358544401218
 Root      4 not converged, maximum delta is    0.016172956800286
 Root      5 not converged, maximum delta is    0.004916702475837
 Root      6 not converged, maximum delta is    0.033389220904765
 Excitation Energies [eV] at current iteration:
 Root      1 :     2.933239906199018   Change is   -0.001494654284881
 Root      2 :     3.813380690195634   Change is   -0.000697061189220
 Root      3 :     3.995913772791359   Change is   -0.001494473325250
 Root      4 :     4.981968671802002   Change is   -0.005054633998996
 Root      5 :     5.279571395725859   Change is   -0.000163626326727
 Root      6 :     5.482207042517349   Change is   -0.045434713587310
 Iteration     5 Dimension    72 NMult    60 NNew     12
 CISAX will form    12 AO SS matrices at one time.
 NMat=    12 NSing=    12 JSym2X= 0.
 Root      1 not converged, maximum delta is    0.000644869944624
 Root      2 not converged, maximum delta is    0.000442891880919
 Root      3 not converged, maximum delta is    0.000459900940736
 Root      4 not converged, maximum delta is    0.001304494591887
 Root      5 not converged, maximum delta is    0.000394192733268
 Root      6 not converged, maximum delta is    0.002796387787386
 Excitation Energies [eV] at current iteration:
 Root      1 :     2.933144137377917   Change is   -0.000095768821101
 Root      2 :     3.813328086571266   Change is   -0.000052603624368
 Root      3 :     3.995823442624028   Change is   -0.000090330167331
 Root      4 :     4.981527684820137   Change is   -0.000440986981864
 Root      5 :     5.279559696151925   Change is   -0.000011699573934
 Root      6 :     5.478624130935136   Change is   -0.003582911582213
 Iteration     6 Dimension    84 NMult    72 NNew     12
 CISAX will form    12 AO SS matrices at one time.
 NMat=    12 NSing=    12 JSym2X= 0.
 Root      1 not converged, maximum delta is    0.000115037325862
 Root      2 not converged, maximum delta is    0.000175899747960
 Root      3 not converged, maximum delta is    0.000211624989767
 Root      4 not converged, maximum delta is    0.000545486670149
 Root      5 not converged, maximum delta is    0.000066808741159
 Root      6 not converged, maximum delta is    0.001109864398260
 Excitation Energies [eV] at current iteration:
 Root      1 :     2.933138757270776   Change is   -0.000005380107141
 Root      2 :     3.813325547480442   Change is   -0.000002539090824
 Root      3 :     3.995816397625558   Change is   -0.000007044998471
 Root      4 :     4.981493893862558   Change is   -0.000033790957579
 Root      5 :     5.279558586106596   Change is   -0.000001110045329
 Root      6 :     5.478279640673423   Change is   -0.000344490261712
 Iteration     7 Dimension    96 NMult    84 NNew     12
 CISAX will form    12 AO SS matrices at one time.
 NMat=    12 NSing=    12 JSym2X= 0.
 Root      1 not converged, maximum delta is    0.000012512067259
 Root      2 not converged, maximum delta is    0.000049118319542
 Root      3 not converged, maximum delta is    0.000047588317111
 Root      4 not converged, maximum delta is    0.000293784423563
 Root      5 not converged, maximum delta is    0.000030186528958
 Root      6 not converged, maximum delta is    0.000782647607762
 Excitation Energies [eV] at current iteration:
 Root      1 :     2.933138541650852   Change is   -0.000000215619925
 Root      2 :     3.813325381906238   Change is   -0.000000165574204
 Root      3 :     3.995816083683515   Change is   -0.000000313942043
 Root      4 :     4.981490816735446   Change is   -0.000003077127111
 Root      5 :     5.279558483163451   Change is   -0.000000102943144
 Root      6 :     5.478248003574853   Change is   -0.000031637098571
 Iteration     8 Dimension   108 NMult    96 NNew     12
 CISAX will form    12 AO SS matrices at one time.
 NMat=    12 NSing=    12 JSym2X= 0.
 Root      1 not converged, maximum delta is    0.000002015146779
 Root      2 not converged, maximum delta is    0.000011465059718
 Root      3 not converged, maximum delta is    0.000009037407111
 Root      4 not converged, maximum delta is    0.000110593826377
 Root      5 not converged, maximum delta is    0.000012455484189
 Root      6 not converged, maximum delta is    0.000399413653062
 Excitation Energies [eV] at current iteration:
 Root      1 :     2.933138535912180   Change is   -0.000000005738671
 Root      2 :     3.813325369389341   Change is   -0.000000012516897
 Root      3 :     3.995816063254748   Change is   -0.000000020428767
 Root      4 :     4.981490504769031   Change is   -0.000000311966416
 Root      5 :     5.279558475692578   Change is   -0.000000007470874
 Root      6 :     5.478244659399696   Change is   -0.000003344175157
 Iteration     9 Dimension   120 NMult   108 NNew     12
 CISAX will form    12 AO SS matrices at one time.
 NMat=    12 NSing=    12 JSym2X= 0.
 Root      1 has converged.
 Root      2 not converged, maximum delta is    0.000002007561436
 Root      3 not converged, maximum delta is    0.000001327461388
 Root      4 not converged, maximum delta is    0.000021283421020
 Root      5 not converged, maximum delta is    0.000002782640354
 Root      6 not converged, maximum delta is    0.000098643918181
 Excitation Energies [eV] at current iteration:
 Root      1 :     2.933138535758479   Change is   -0.000000000153701
 Root      2 :     3.813325368828489   Change is   -0.000000000560852
 Root      3 :     3.995816062482752   Change is   -0.000000000771996
 Root      4 :     4.981490484581358   Change is   -0.000000020187673
 Root      5 :     5.279558475256405   Change is   -0.000000000436172
 Root      6 :     5.478244389874622   Change is   -0.000000269525074
 Iteration    10 Dimension   130 NMult   120 NNew     10
 CISAX will form    10 AO SS matrices at one time.
 NMat=    10 NSing=    10 JSym2X= 0.
 Root      1 has converged.
 Root      2 has converged.
 Root      3 has converged.
 Root      4 not converged, maximum delta is    0.000002123355059
 Root      5 has converged.
 Root      6 not converged, maximum delta is    0.000012558079866
 Excitation Energies [eV] at current iteration:
 Root      1 :     2.933138535757218   Change is   -0.000000000001261
 Root      2 :     3.813325368812148   Change is   -0.000000000016341
 Root      3 :     3.995816062458927   Change is   -0.000000000023824
 Root      4 :     4.981490483714312   Change is   -0.000000000867046
 Root      5 :     5.279558475236770   Change is   -0.000000000019635
 Root      6 :     5.478244375194752   Change is   -0.000000014679870
 Iteration    11 Dimension   134 NMult   130 NNew      4
 CISAX will form     4 AO SS matrices at one time.
 NMat=     4 NSing=     4 JSym2X= 0.
 Root      1 has converged.
 Root      2 has converged.
 Root      3 has converged.
 Root      4 has converged.
 Root      5 has converged.
 Root      6 not converged, maximum delta is    0.000001532356892
 Excitation Energies [eV] at current iteration:
 Root      1 :     2.933138535757162   Change is   -0.000000000000056
 Root      2 :     3.813325368811911   Change is   -0.000000000000237
 Root      3 :     3.995816062458968   Change is    0.000000000000041
 Root      4 :     4.981490483675729   Change is   -0.000000000038584
 Root      5 :     5.279558475236350   Change is   -0.000000000000420
 Root      6 :     5.478244374509120   Change is   -0.000000000685632
 Iteration    12 Dimension   136 NMult   134 NNew      2
 CISAX will form     2 AO SS matrices at one time.
 NMat=     2 NSing=     2 JSym2X= 0.
 Root      1 has converged.
 Root      2 has converged.
 Root      3 has converged.
 Root      4 has converged.
 Root      5 has converged.
 Root      6 has converged.
 Excitation Energies [eV] at current iteration:
 Root      1 :     2.933138535757134   Change is   -0.000000000000028
 Root      2 :     3.813325368811890   Change is   -0.000000000000021
 Root      3 :     3.995816062458784   Change is   -0.000000000000185
 Root      4 :     4.981490483674475   Change is   -0.000000000001254
 Root      5 :     5.279558475236271   Change is   -0.000000000000078
 Root      6 :     5.478244374472745   Change is   -0.000000000036375
 Convergence achieved on expansion vectors.
 ***********************************************************************
 Excited states from <AA,BB:AA,BB> singles matrix:
 ***********************************************************************
 
 1PDM for each excited state written to RWF  633
 Ground to excited state transition densities written to RWF  633
 Ground to excited state transition electric dipole moments (Au):
       state          X           Y           Z        Dip. S.      Osc.
         1         1.2225      0.1012      0.0764      1.5105      0.1085
         2        -0.1470     -0.0169      0.0220      0.0224      0.0021
         3         0.2338     -0.0411     -0.0130      0.0565      0.0055
         4         0.1299     -0.8411     -0.0132      0.7244      0.0884
         5         0.0816      0.0320      0.0643      0.0118      0.0015
         6         0.0865     -1.5138     -0.0413      2.3008      0.3088
 Ground to excited state transition velocity dipole moments (Au):
       state          X           Y           Z        Dip. S.      Osc.
         1        -0.1264     -0.0075     -0.0063      0.0161      0.0995
         2         0.0200      0.0012     -0.0014      0.0004      0.0019
         3        -0.0331      0.0080     -0.0008      0.0012      0.0053
         4        -0.0292      0.1440      0.0024      0.0216      0.0786
         5        -0.0149     -0.0048     -0.0272      0.0010      0.0034
         6        -0.0203      0.2961      0.0076      0.0882      0.2920
 Ground to excited state transition magnetic dipole moments (Au):
       state          X           Y           Z
         1         0.1007     -0.0409      1.4847
         2         0.7635      0.1899     -0.2168
         3         0.1416      0.9233      0.3627
         4        -0.0325     -0.0903     -0.0107
         5        -0.2475     -0.0164      0.0428
         6        -0.0651      0.0215     -0.3017
 Ground to excited state transition velocity quadrupole moments (Au):
       state          XX          YY          ZZ          XY          XZ          YZ
         1        -0.1180      0.0623      0.0094      0.4019      0.0052      0.0155
         2         0.0162      0.0092     -0.0140     -0.0579     -0.0185      0.0556
         3        -0.0912      0.0400      0.0044      0.1064     -0.0656      0.0064
         4        -0.9161      0.1390      0.0217      0.0680     -0.0398     -0.0200
         5         0.0770     -0.0079     -0.0124      0.0289      0.0005     -0.1125
         6        -0.8039      0.3270      0.0443     -0.2119     -0.1120     -0.0701
 <0|del|b> * <b|rxdel|0> + <0|del|b> * <b|delr+rdel|0>
 Rotatory Strengths (R) in cgs (10**-40 erg-esu-cm/Gauss)
       state          XX          YY          ZZ    R(velocity)    E-M Angle
         1       -38.1597    -70.7527    -34.4523    -47.7883       96.65
         2         1.6123     41.9446     36.3040     26.6203       15.38
         3        18.0161    -12.3265      5.6537      3.7811       86.05
         4       -13.7538      2.6047    -35.4683    -15.5391      148.31
         5        -3.4060      9.0990      3.8078      3.1669       70.72
         6        62.6041      3.6190    -47.2944      6.3096       86.64
 1/2[<0|r|b>*<b|rxdel|0> + (<0|rxdel|b>*<b|r|0>)*]
 Rotatory Strengths (R) in cgs (10**-40 erg-esu-cm/Gauss)
       state          XX          YY          ZZ     R(length)
         1       -87.0641      2.9298    -80.1780    -54.7708
         2        79.3439      2.2643      3.3714     28.3265
         3       -23.4201     26.8083      3.3261      2.2381
         4         2.9883    -53.6823     -0.0998    -16.9313
         5        14.2852      0.3716     -1.9459      4.2370
         6         3.9819     22.9759     -8.8179      6.0466
  1/2[<0|del|b>*<b|r|0> + (<0|r|b>*<b|del|0>)*] (Au)
       state          X           Y           Z        Dip. S.   Osc.(frdel)
         1        -0.1545     -0.0008     -0.0005      0.1558      0.1039
         2        -0.0029     -0.0000     -0.0000      0.0030      0.0020
         3        -0.0077     -0.0003      0.0000      0.0081      0.0054
         4        -0.0038     -0.1211     -0.0000      0.1249      0.0833
         5        -0.0012     -0.0002     -0.0017      0.0031      0.0021
         6        -0.0018     -0.4483     -0.0003      0.4504      0.3002

 Excitation energies and oscillator strengths:
 
 Excited State   1:      Singlet-A      2.9331 eV  422.70 nm  f=0.1085  <S**2>=0.000
      52 -> 53         0.70056
 This state for optimization and/or second-order correction.
 Total Energy, E(TD-HF/TD-DFT) =  -633.166297749    
 Copying the excited state density for this state as the 1-particle RhoCI density.
 
 Excited State   2:      Singlet-A      3.8133 eV  325.13 nm  f=0.0021  <S**2>=0.000
      50 -> 54         0.11550
      51 -> 53         0.58699
      51 -> 54         0.34206
 
 Excited State   3:      Singlet-A      3.9958 eV  310.29 nm  f=0.0055  <S**2>=0.000
      50 -> 53         0.59543
      50 -> 54        -0.28801
      50 -> 58        -0.11511
      51 -> 54         0.14304
 
 Excited State   4:      Singlet-A      4.9815 eV  248.89 nm  f=0.0884  <S**2>=0.000
      49 -> 53        -0.17802
      52 -> 54         0.67253
 
 Excited State   5:      Singlet-A      5.2796 eV  234.84 nm  f=0.0015  <S**2>=0.000
      52 -> 55         0.68055
      52 -> 57         0.10066
 
 Excited State   6:      Singlet-A      5.4782 eV  226.32 nm  f=0.3088  <S**2>=0.000
      49 -> 53         0.66396
      52 -> 54         0.16649
 SavETr:  write IOETrn=   770 NScale= 10 NData=  16 NLR=1 NState=    6 LETran=     118.
 The selected state is a singlet.
 CISGrd: IGrad=3 NXY=2 DFT=T
 CISAX will form     1 AO SS matrices at one time.
 NMat=     1 NSing=     1 JSym2X= 0.
 Leave Link  914 at Sun Jun 28 19:40:30 2026, MaxMem=  2147483648 cpu:            3574.7 elap:             224.0
 (Enter /data/home/wyx/g16/l1002.exe)
 Minotr:  Closed shell wavefunction.
          Computing CIS/TDA/TD derivatives.
          Using Z-Vector for PSCF gradient.
          Skipping F1 and S1 gradient terms here.
          IDoAtm=11111111111111111111111111111
          Frozen-core window.
          Direct CPHF calculation.
          Differentiating once with respect to electric field.
                with respect to dipole field.
          Differentiating once with respect to nuclear coordinates.
          Requested convergence is 1.0D-10 RMS, and 1.0D-09 maximum.
          NewPWx=F KeepS1=T KeepF1=T KeepIn=T MapXYZ=F SortEE=F KeepMc=T.
 Two-electron integral symmetry used by symmetrizing perturbed Fock matrices.
          MDV=    2147483648 using IRadAn=       5.
          Solving linear equations separately, MaxMat=     384.
          There are     1 degrees of freedom in the 1st order CPHF.  IDoFFX=0 NUNeed=     1.
 FoFJK:  IHMeth= 1 ICntrl=       0 DoSepK=T KAlg= 0 I1Cent=           0 FoldK=F
 IRaf=         1 NMat=       1 IRICut=       1 DoRegI=T DoRafI=F ISym2E=-1 IDoP0=0 IntGTp=1.
 FoFCou: FMM=F IPFlag=           0 FMFlag=      100000 FMFlg1=           0
         NFxFlg=           0 DoJE=T BraDBF=F KetDBF=F FulRan=T
         wScrn=  0.000000 ICntrl=       500 IOpCl=  0 I1Cent=           0 NGrid=           0
         NMat0=    1 NMatS0=      1 NMatT0=    0 NMatD0=    1 NMtDS0=    0 NMtDT0=    0
 Petite list used in FoFCou.
 LinEq1:  Iter=  0 NonCon=     1 RMS=3.97D-03 Max=2.31D-01 NDo=     1
 AX will form     1 AO Fock derivatives at one time.
 LinEq1:  Iter=  1 NonCon=     1 RMS=1.97D-03 Max=1.26D-01 NDo=     1
 LinEq1:  Iter=  2 NonCon=     1 RMS=9.47D-04 Max=3.75D-02 NDo=     1
 LinEq1:  Iter=  3 NonCon=     1 RMS=6.07D-04 Max=2.49D-02 NDo=     1
 LinEq1:  Iter=  4 NonCon=     1 RMS=2.75D-04 Max=1.30D-02 NDo=     1
 LinEq1:  Iter=  5 NonCon=     1 RMS=1.62D-04 Max=7.60D-03 NDo=     1
 LinEq1:  Iter=  6 NonCon=     1 RMS=1.03D-04 Max=5.19D-03 NDo=     1
 LinEq1:  Iter=  7 NonCon=     1 RMS=5.43D-05 Max=2.94D-03 NDo=     1
 LinEq1:  Iter=  8 NonCon=     1 RMS=2.24D-05 Max=5.53D-04 NDo=     1
 LinEq1:  Iter=  9 NonCon=     1 RMS=1.06D-05 Max=3.27D-04 NDo=     1
 LinEq1:  Iter= 10 NonCon=     1 RMS=4.17D-06 Max=1.08D-04 NDo=     1
 LinEq1:  Iter= 11 NonCon=     1 RMS=2.99D-06 Max=7.79D-05 NDo=     1
 LinEq1:  Iter= 12 NonCon=     1 RMS=1.43D-06 Max=3.79D-05 NDo=     1
 LinEq1:  Iter= 13 NonCon=     1 RMS=6.92D-07 Max=2.05D-05 NDo=     1
 LinEq1:  Iter= 14 NonCon=     1 RMS=3.17D-07 Max=1.36D-05 NDo=     1
 LinEq1:  Iter= 15 NonCon=     1 RMS=1.63D-07 Max=3.75D-06 NDo=     1
 LinEq1:  Iter= 16 NonCon=     1 RMS=8.12D-08 Max=3.28D-06 NDo=     1
 LinEq1:  Iter= 17 NonCon=     1 RMS=2.53D-08 Max=7.81D-07 NDo=     1
 LinEq1:  Iter= 18 NonCon=     1 RMS=1.09D-08 Max=1.96D-07 NDo=     1
 LinEq1:  Iter= 19 NonCon=     1 RMS=3.54D-09 Max=7.04D-08 NDo=     1
 LinEq1:  Iter= 20 NonCon=     1 RMS=1.10D-09 Max=2.59D-08 NDo=     1
 LinEq1:  Iter= 21 NonCon=     1 RMS=5.36D-10 Max=1.55D-08 NDo=     1
 LinEq1:  Iter= 22 NonCon=     1 RMS=2.40D-10 Max=1.09D-08 NDo=     1
 LinEq1:  Iter= 23 NonCon=     1 RMS=7.72D-11 Max=2.88D-09 NDo=     1
 LinEq1:  Iter= 24 NonCon=     0 RMS=3.00D-11 Max=7.41D-10 NDo=     1
 Linear equations converged to 1.000D-10 1.000D-09 after    24 iterations.
          There are     1 degrees of freedom in the 1st order CPHF.  IDoFFX=0 NUNeed=     1.
 End of Minotr F.D. properties file   721 does not exist.
 End of Minotr F.D. properties file   722 does not exist.
 End of Minotr F.D. properties file   788 does not exist.
 Leave Link 1002 at Sun Jun 28 19:42:40 2026, MaxMem=  2147483648 cpu:            2061.4 elap:             129.5
 (Enter /data/home/wyx/g16/l1101.exe)
 Using compressed Sx but separate Hx and Fx, NAtomX=    29.
 Will process     30 centers per pass.
 Leave Link 1101 at Sun Jun 28 19:42:41 2026, MaxMem=  2147483648 cpu:               5.6 elap:               0.4
 (Enter /data/home/wyx/g16/l1102.exe)
 Use density number 6.
 Symmetrizing basis deriv contribution to polar:
 IMax=3 JMax=2 DiffMx= 0.00D+00
 Leave Link 1102 at Sun Jun 28 19:42:41 2026, MaxMem=  2147483648 cpu:               0.7 elap:               0.1
 (Enter /data/home/wyx/g16/l1110.exe)
 Forming Gx(P) for the SCF density, NAtomX=    29.
 Integral derivatives from FoFJK, PRISM(SPDF).
 Do as many integral derivatives as possible in FoFJK.
 G2DrvN: MDV=    2147481424.
 G2DrvN: will do    30 centers at a time, making    1 passes.
 Calling FoFCou, ICntrl=  3107 FMM=F I1Cent=   0 AccDes= 0.00D+00.
 FoFJK:  IHMeth= 1 ICntrl=    3107 DoSepK=T KAlg= 0 I1Cent=           0 FoldK=F
 IRaf=         1 NMat=       1 IRICut=       1 DoRegI=T DoRafI=F ISym2E= 0 IDoP0=0 IntGTp=1.
 FoFCou: FMM=F IPFlag=           0 FMFlag=      100000 FMFlg1=           0
         NFxFlg=           0 DoJE=F BraDBF=F KetDBF=F FulRan=T
         wScrn=  0.000000 ICntrl=      3507 IOpCl=  0 I1Cent=           0 NGrid=           0
         NMat0=    1 NMatS0=      1 NMatT0=    0 NMatD0=    1 NMtDS0=    0 NMtDT0=    0
 Symmetry not used in FoFCou.
 Forming Gx(P) for generalized density number  6 NAtomX=    29.
 Integral derivatives from FoFJK, PRISM(SPDF).
 Do as many integral derivatives as possible in FoFJK.
 G2DrvN: MDV=    2147481424.
 G2DrvN: will do    30 centers at a time, making    1 passes.
 Calling FoFCou, ICntrl=  3107 FMM=F I1Cent=   0 AccDes= 0.00D+00.
 Forming Gx(T) for CIS/TDA/TD state  1 NAtomX=    29.
 Integral derivatives from FoFJK, PRISM(SPDF).
 Do as many integral derivatives as possible in FoFJK.
 G2DrvN: MDV=    2147481424.
 G2DrvN: will do    30 centers at a time, making    1 passes.
 Calling FoFCou, ICntrl=  3107 FMM=F I1Cent=   0 AccDes= 0.00D+00.
 End of G2Drv F.D. properties file   721 does not exist.
 End of G2Drv F.D. properties file   722 does not exist.
 End of G2Drv F.D. properties file   788 does not exist.
 Leave Link 1110 at Sun Jun 28 19:45:21 2026, MaxMem=  2147483648 cpu:            2554.7 elap:             160.1
 (Enter /data/home/wyx/g16/l1002.exe)
 Minotr:  Closed shell wavefunction.
          IDoAtm=11111111111111111111111111111
          Frozen-core window.
          Direct CPHF calculation.
          Differentiating once with respect to electric field.
                with respect to dipole field.
          Differentiating once with respect to nuclear coordinates.
          Requested convergence is 1.0D-08 RMS, and 1.0D-07 maximum.
          Secondary convergence is 1.0D-12 RMS, and 1.0D-12 maximum.
          NewPWx=T KeepS1=T KeepF1=T KeepIn=T MapXYZ=F SortEE=F KeepMc=T.
         8776 words used for storage of precomputed grid.
 Two-electron integrals replicated using symmetry.
          MDV=    2147483648 using IRadAn=       1.
          Solving linear equations simultaneously, MaxMat=     384.
 FoF2E skips out because all densities are zero.
 CalDSu exits because no D1Ps are significant.
 FoFJK:  IHMeth= 1 ICntrl=       0 DoSepK=T KAlg= 0 I1Cent=           0 FoldK=F
 IRaf=         1 NMat=      87 IRICut=       1 DoRegI=T DoRafI=F ISym2E= 2 IDoP0=3 IntGTp=3.
 FoFCou: FMM=F IPFlag=           0 FMFlag=      100000 FMFlg1=           0
         NFxFlg=           0 DoJE=F BraDBF=F KetDBF=F FulRan=T
         wScrn=  0.000000 ICntrl=       500 IOpCl=  0 I1Cent=           0 NGrid=           0
         NMat0=   87 NMatS0=     87 NMatT0=    0 NMatD0=   87 NMtDS0=    0 NMtDT0=    0
 Integrals replicated using symmetry in FoFCou.
          There are    90 degrees of freedom in the 1st order CPHF.  IDoFFX=6 NUNeed=    90.
     87 vectors produced by pass  0 Test12= 1.76D-14 1.11D-09 XBig12= 1.19D+02 5.73D+00.
 AX will form    87 AO Fock derivatives at one time.
     87 vectors produced by pass  1 Test12= 1.76D-14 1.11D-09 XBig12= 2.09D+01 5.79D-01.
     87 vectors produced by pass  2 Test12= 1.76D-14 1.11D-09 XBig12= 3.27D-01 1.12D-01.
     87 vectors produced by pass  3 Test12= 1.76D-14 1.11D-09 XBig12= 2.62D-03 4.90D-03.
     87 vectors produced by pass  4 Test12= 1.76D-14 1.11D-09 XBig12= 1.55D-05 3.45D-04.
     87 vectors produced by pass  5 Test12= 1.76D-14 1.11D-09 XBig12= 7.05D-08 2.36D-05.
     67 vectors produced by pass  6 Test12= 1.76D-14 1.11D-09 XBig12= 3.14D-10 2.47D-06.
     13 vectors produced by pass  7 Test12= 1.76D-14 1.11D-09 XBig12= 1.35D-12 2.26D-07.
      3 vectors produced by pass  8 Test12= 1.76D-14 1.11D-09 XBig12= 5.63D-15 1.68D-08.
 InvSVY:  IOpt=1 It=  1 EMax= 2.66D-15
 Solved reduced A of dimension   605 with    90 vectors.
 FullF1:  Do perturbations      1 to      90.
[...]
 00001047,0.00000142,-0.00000609,0.00000515,-0.00000039,-0.00002179,0.0
 0000272,0.00000482,-0.00000359,0.00000493,0.00000271,-0.00000690,-0.00
 000294,-0.00000156,0.00000014,-0.00000564,0.00000463,-0.06983173,0.032
 40094,-0.07742492,0.07625694,0.00345625,-0.00346302,-0.00249203,-0.000
 08367,-0.00013871,-0.00017500,-0.00021014,0.00038132,0.00001199,0.0000
 1977,-0.00008729,-0.00003216,0.00086991,0.00019395,0.00037752,-0.00041
 950,-0.00094679,0.00022508,-0.00064167,-0.00013894,-0.00021598,0.00005
 845,0.00023698,0.00033197,-0.00050732,0.00017617,-0.00045691,0.0001517
 9,-0.00005562,-0.00008717,0.00005487,-0.00012913,0.00001325,0.00101672
 ,-0.00009086,-0.00227686,0.00655692,-0.00489215,0.02778646,0.00004434,
 0.00003262,0.00002925,-0.00002568,-0.00000481,0.00000118,-0.00002268,-
 0.00002333,-0.00001661,-0.00002430,-0.00003291,0.00000234,0.00005915,0
 .00002820,0.00002359,-0.00000321,-0.00000532,0.00000131,0.00002244,-0.
 00002711,0.00000294,0.00001699,-0.00001704,-0.00002138,0.03140673,-0.0
 9046833,0.09159153,-0.03683536,0.09082150,0.00155468,0.00051826,-0.000
 27607,-0.00003942,-0.00004696,-0.00004653,0.00026784,0.00005959,0.0001
 0377,-0.00002995,0.00009693,-0.00004158,0.00027661,0.00001564,-0.00003
 428,-0.00009722,0.00023189,-0.00047506,-0.00031466,-0.00011731,0.00000
 888,0.00005886,0.00008730,0.00008586,-0.00009860,0.00014118,0.00044750
 ,-0.00008016,-0.00024205,-0.00024010,0.00005406,0.00007367,-0.00007191
 ,-0.00003185,-0.00011895,0.00005277,0.00124412,-0.00264512,0.00720899,
 0.00001500,0.00000158,0.00001736,0.00000638,0.00000105,0.00000440,-0.0
 0000587,-0.00000745,-0.00000952,-0.00000962,-0.00001054,-0.00000351,0.
 00000949,0.00001001,0.00002015,0.00000077,0.00000285,0.00000020,0.0000
 1229,-0.00000956,-0.00000375,0.00001419,-0.00001151,0.00000137,-0.0747
 5345,0.09003702,-0.25063111,0.08336912,-0.09821471,0.27111423,-0.00003
 825,0.00400350,-0.00116406,-0.00003550,0.00006113,-0.00005465,0.000080
 14,-0.00013893,-0.00013544,0.00001531,-0.00001144,-0.00000804,-0.00004
 186,-0.00010741,0.00011155,0.00035546,0.00003047,0.00083528,-0.0001674
 1,0.00009286,-0.00023566,0.00007853,-0.00012114,0.00018008,0.00011866,
 0.00032124,0.00019680,-0.00012664,-0.00023775,-0.00022432,-0.00001406,
 0.00010397,-0.00002424,0.00030014,0.00051556,-0.00084191,-0.01161855,-
 0.00265027,0.00651807,0.00000097,0.00000142,-0.00001129,0.00000600,0.0
 0000268,0.00000432,-0.00000439,0.00000460,0.00001040,0.00000511,0.0000
 0247,0.00000883,-0.00001948,0.00001572,-0.00000742,-0.00000358,0.00000
 545,0.00000038,0.00001158,0.00000122,-0.00000688,0.00000059,-0.0000083
 7,0.00000056,-0.21166307,-0.02048282,0.13344873,0.00917071,0.00039306,
 -0.00710528,0.23130008,0.00041942,-0.00388729,0.00261953,-0.00004291,-
 0.00023146,0.00009476,-0.00045650,0.00112416,0.00037752,0.00003208,-0.
 00004964,0.00002631,0.00019858,0.00008041,-0.00015214,-0.00035281,-0.0
 0090818,-0.00086498,0.00025705,-0.00056838,0.00007583,-0.00002414,0.00
 049444,-0.00029651,0.00017365,-0.00005289,0.00008705,0.00007657,0.0003
 6459,0.00035808,-0.00001072,-0.00034090,-0.00005752,-0.00133212,-0.001
 02538,0.00206252,0.02368837,0.00697383,-0.01906137,0.00006620,0.000021
 18,0.00000895,-0.00003357,-0.00000787,-0.00000754,-0.00002788,-0.00003
 364,-0.00003804,-0.00004552,-0.00002564,-0.00001084,0.00005512,0.00002
 271,0.00001318,0.00000846,-0.00000457,0.00000764,0.00001278,-0.0000297
 8,0.00000057,0.00001340,-0.00000545,0.00000510,-0.01642150,-0.04709686
 ,0.01057293,-0.01080644,-0.00121465,0.00713068,0.02124897,0.04853728,-
 0.00089161,0.00067494,-0.00129023,-0.00005662,-0.00006011,0.00002155,-
 0.00036073,0.00026082,0.00015077,0.00001461,-0.00012151,-0.00007226,0.
 00043815,0.00015759,-0.00006489,0.00042946,-0.00011768,-0.00078778,-0.
 00024435,-0.00013257,0.00010517,0.00009105,0.00013333,-0.00009851,-0.0
 0041349,-0.00014141,0.00017217,-0.00005150,-0.00001171,-0.00007453,0.0
 0004624,-0.00006906,-0.00006949,0.00014681,-0.00130334,0.00074834,0.00
 142577,0.00068488,-0.00112565,0.00002174,0.00002265,-0.00000123,-0.000
 01769,-0.00000878,0.00000058,-0.00000564,-0.00001072,-0.00001735,-0.00
 001867,-0.00000133,-0.00000224,0.00002133,0.00001350,0.00002674,-0.000
 00120,0.00000040,0.00000216,0.00000242,-0.00002119,0.00000256,0.000010
 88,-0.00001044,-0.00000313,0.13063473,0.01387546,-0.14530452,0.0229439
 5,0.00218839,-0.01679856,-0.14289089,-0.01598820,0.15379589,0.00097530
 ,0.00047056,0.00100228,-0.00001944,-0.00008750,-0.00006392,0.00006445,
 0.00034180,0.00015791,-0.00001086,0.00008482,0.00004413,-0.00013676,-0
 .00001719,0.00006929,-0.00032067,0.00005990,-0.00013083,0.00010705,-0.
 00016908,-0.00002563,-0.00003401,0.00019165,0.00013150,0.00043018,0.00
 068540,0.00016395,0.00014955,0.00003398,0.00010573,-0.00002436,-0.0000
 2469,0.00002490,-0.00188439,0.00168115,-0.00013898,0.00939724,0.012373
 31,0.00675191,0.00002708,0.00000549,-0.00000832,-0.00000421,0.00000452
 ,0.00000013,-0.00001337,-0.00001231,-0.00000940,-0.00000381,-0.0000115
 8,-0.00000043,0.00001699,0.00001066,-0.00000408,0.00000273,-0.00000294
 ,0.00000017,0.00000932,-0.00000047,0.00000225,0.00000730,0.00000061,0.
 00000308,-0.17404008,-0.12059680,-0.08069075,-0.00514206,-0.00436854,-
 0.00200635,-0.01497329,-0.01453618,-0.01114433,0.18598115,-0.00116050,
 0.00527685,0.00098063,0.00004733,-0.00018395,-0.00006521,-0.00011614,0
 .00027341,0.00001170,-0.00000103,-0.00002042,-0.00004698,0.00052304,-0
 .00025199,-0.00005338,0.00036804,0.00010148,0.00034459,0.00013004,-0.0
 0007821,-0.00000991,-0.00021667,0.00008921,0.00000306,-0.00093319,-0.0
 0088684,-0.00056381,-0.00018066,-0.00012707,-0.00014562,0.00006858,0.0
 0003540,-0.00008334,0.00471918,-0.00300727,0.00014718,-0.02227519,-0.0
 2452642,-0.01497288,0.00001114,-0.00000045,0.00000215,-0.00001687,-0.0
 0000219,0.00000028,-0.00000935,-0.00000846,-0.00000504,-0.00000808,-0.
 00000903,-0.00000242,0.00003323,-0.00000939,-0.00000289,0.00000581,-0.
 00000722,0.00000138,0.00000180,-0.00000215,0.00000069,-0.00000119,-0.0
 0000132,-0.00000182,-0.11500638,-0.15281971,-0.07025200,0.01014543,0.0
 0970448,0.00465974,-0.00086242,-0.00141989,0.00007488,0.12447398,0.167
 46194,-0.00002318,0.00228786,-0.00004850,0.00001731,-0.00007185,0.0000
 5100,-0.00002258,0.00013844,0.00000130,-0.00000773,0.00002336,-0.00000
 909,-0.00016064,-0.00013551,-0.00017302,0.00012609,0.00006130,0.000085
 08,0.00026771,-0.00005543,0.00005646,-0.00006163,0.00010328,-0.0001653
 7,0.00000280,-0.00016700,0.00027509,-0.00009933,0.00005195,0.00001294,
 0.00001317,-0.00006768,-0.00004922,0.00041479,-0.00066268,0.00075467,-
 0.00328166,-0.00464016,-0.00317378,-0.00000482,-0.00001942,0.00001787,
 -0.00000245,-0.00000085,-0.00000286,0.00000592,0.00000357,-0.00000029,
 -0.00000811,-0.00000016,-0.00000334,0.00000803,-0.00002283,0.00002891,
 0.00000284,-0.00000202,-0.00000511,-0.00000913,0.00000636,-0.00000479,
 0.00000072,0.00000238,0.00000050,-0.07960470,-0.07259928,-0.09795728,-
 0.01753746,-0.01800265,-0.01015644,0.01365663,0.01400773,0.00996877,0.
 08619355,0.07979363,0.10036814,-0.00036108,0.00042737,0.00025888,-0.00
 064194,-0.00201543,-0.00076497,0.00527893,0.00474587,0.00170377,0.0027
 2743,-0.00384100,-0.00033017,0.00147570,-0.00150291,-0.00067382,-0.166
 84175,0.07687735,0.00472846,-0.00177088,-0.00563295,-0.00237329,-0.000
 16028,0.00301789,0.00081727,-0.00078553,-0.00139543,-0.00183626,-0.000
 98134,0.00067905,0.00013841,-0.00049337,0.00041181,-0.00008061,-0.0192
 4848,0.01951628,0.00298096,0.00217809,0.00076631,0.00074772,0.00107665
 ,-0.00000613,0.00003729,-0.00031801,0.00003447,0.00000726,-0.00026728,
 -0.00031946,-0.00022766,-0.00023483,-0.00022810,-0.00006166,0.00002641
 ,0.00024972,0.00014353,0.00003409,0.00000254,0.00004172,0.00018989,0.0
 0000449,-0.00007439,0.00020103,-0.00005414,0.00010490,-0.00178666,-0.0
 0394834,-0.00243378,-0.00060855,-0.00003621,-0.00130444,-0.00176650,-0
 .00066183,0.00094072,-0.00089149,0.00029720,0.00017509,0.53726506,-0.0
 0081857,0.00009757,-0.00068394,0.00044250,0.00132357,0.00047593,0.0263
 5680,-0.04101561,-0.00910147,0.00237553,-0.00044166,0.00167985,-0.0010
 8976,-0.00039860,0.00013591,0.05595790,-0.14247240,-0.01938259,-0.0017
 5514,0.00222531,-0.00146569,0.00002664,-0.00181639,-0.00028238,-0.0029
 4141,0.00032727,-0.00170169,-0.00058221,0.00009520,-0.00013043,0.00000
 575,-0.00017017,-0.00026009,0.00441325,0.01001735,0.00497238,-0.000929
 50,-0.00143928,0.00027928,0.00043659,-0.00027628,-0.00071552,0.0000814
 5,0.00007035,0.00004687,-0.00005996,-0.00013302,0.00001628,0.00021418,
 0.00015918,-0.00001339,-0.00001718,-0.00010396,-0.00011139,0.00000275,
 0.00002913,0.00000024,-0.00009699,0.00001442,0.00000348,-0.00009521,-0
 .00001094,-0.00003732,-0.00081914,0.00058148,-0.00087180,-0.00031186,-
 0.00063187,-0.00018662,-0.00069935,-0.00060136,0.00008178,-0.00019348,
 0.00009747,0.00028755,0.04133190,0.55228034,-0.00076243,0.00037479,-0.
 00082301,0.00013493,0.00011395,0.00002427,0.01016495,-0.01194388,-0.00
 053736,0.00165323,-0.00006680,-0.00267818,-0.00108661,-0.00063546,-0.0
 0075710,-0.00502834,-0.01511174,-0.06731742,-0.00014847,-0.00220460,0.
 00299785,-0.00030951,0.00002601,-0.00010262,-0.00203294,-0.00146288,0.
 00212439,0.00020124,-0.00026800,0.00015774,-0.00076965,0.00060683,0.00
 003143,-0.00215571,0.00789241,0.00474990,0.00089766,-0.00007587,0.0003
 5756,0.00015786,-0.00074941,0.00123242,-0.00001719,0.00001406,-0.00003
 220,0.00028682,0.00027264,0.00017686,-0.00037601,-0.00039997,-0.000130
 06,0.00001717,-0.00001112,-0.00002653,0.00001851,0.00000299,0.00000728
 ,0.00001745,-0.00005496,-0.00000562,-0.00003833,0.00003284,0.00007005,
 -0.00144851,-0.00101395,0.00152186,-0.00027583,0.00025583,-0.00112063,
 0.00007025,-0.00051702,-0.00054730,0.00002902,0.00043270,-0.00074752,0
 .01305493,0.00950831,0.55056038,0.00050596,-0.00067632,-0.00008200,0.0
 0014920,0.00079989,0.00029240,-0.00216155,-0.00463735,0.00011832,0.000
 02794,0.00043463,0.00003902,0.00031636,0.00069618,0.00073129,-0.001929
 62,0.01204584,0.02256671,-0.00128005,0.00253556,0.00023024,0.00031634,
 -0.00119137,-0.00025343,-0.00022512,0.00007225,-0.00057050,0.00006411,
 0.00003531,-0.00000035,0.00012647,-0.00019288,-0.00001173,0.00010801,0
 .00001319,-0.00070106,-0.00099987,0.00115506,0.00038826,-0.00019275,0.
 00015221,-0.00056898,0.00012101,0.00002330,-0.00000211,-0.00002481,-0.
 00001263,0.00003108,0.00020724,0.00020130,0.00006994,-0.00003629,-0.00
 004451,-0.00007274,-0.00002156,0.00000767,-0.00001016,-0.00005967,-0.0
 0000013,0.00002246,-0.00006458,0.00000777,-0.00003610,-0.00046703,-0.0
 0067099,-0.00018453,0.00002237,0.00008176,0.00012040,-0.00108144,-0.00
 152340,-0.00116842,0.00025572,-0.00004873,-0.00007438,-0.05213584,0.00
 999506,0.03705477,0.05440470,0.00047538,-0.00026261,0.00033830,-0.0001
 4120,-0.00061892,-0.00021252,0.00281679,-0.00022933,-0.00077575,0.0003
 9227,0.00038537,-0.00054835,0.00019426,-0.00034359,-0.00020006,0.00528
 295,-0.01088970,-0.02148591,-0.00017849,-0.00151577,0.00019213,-0.0001
 1280,0.00086530,0.00020797,0.00033709,-0.00023849,0.00025240,0.0000194
 3,0.00007079,0.00006521,-0.00012436,0.00010498,0.00006066,-0.00194336,
 0.00016197,0.00028552,0.00019763,0.00105398,-0.00012975,0.00019203,-0.
 00017062,0.00032908,-0.00006681,0.00002538,-0.00002308,-0.00000506,-0.
 00000917,-0.00001295,-0.00011507,-0.00017499,-0.00005946,0.00002162,0.
 00002974,0.00001542,0.00001515,-0.00000871,0.00000096,0.00004356,0.000
 00299,-0.00000529,0.00004028,0.00000709,0.00002260,-0.00012867,-0.0006
 2259,-0.00051315,-0.00002583,0.00002166,0.00033702,-0.00158725,-0.0001
 8199,-0.00056477,0.00002393,-0.00005626,0.00011175,0.00947425,-0.06174
 688,-0.06850934,-0.01371111,0.07074297,0.00044688,0.00011730,0.0007041
 2,-0.00018555,-0.00064217,-0.00026001,0.00042319,0.00220537,-0.0009329
 9,0.00018709,0.00016791,-0.00003193,0.00064895,-0.00034580,0.00035824,
 0.00404079,-0.00549065,0.00618240,-0.00044282,-0.00027207,-0.00104447,
 -0.00006491,0.00088148,0.00037698,0.00052376,-0.00010384,0.00008889,-0
 .00000198,0.00002934,-0.00002333,-0.00005989,0.00010574,0.00001437,-0.
 00137461,0.00021866,-0.00064388,0.00027717,0.00008500,-0.00132968,0.00
 011594,0.00000283,0.00017931,-0.00005526,0.00001952,-0.00002202,-0.000
 05255,-0.00002871,-0.00001456,-0.00004994,-0.00009390,0.00000032,0.000
 02017,0.00006362,-0.00000087,0.00000882,-0.00000829,0.00000138,0.00005
 686,0.00000909,-0.00001480,0.00003882,-0.00000333,0.00001274,-0.000804
 13,-0.00139099,-0.00157367,0.00032093,0.00002532,-0.00015391,-0.001962
 15,-0.00080609,0.00123998,-0.00053038,0.00001850,0.00030961,0.03443470
 ,-0.06519718,-0.28981677,-0.03847394,0.07610815,0.31303127,0.00054108,
 -0.00056529,0.00002685,0.00015104,0.00065319,0.00028742,-0.00158237,-0
 .00194244,-0.00242955,-0.00034880,0.00049523,0.00028930,0.00015164,0.0
 0067154,-0.00009878,0.00727485,0.02453916,-0.01164095,-0.00089949,0.00
 205422,0.00109394,0.00023364,-0.00087341,-0.00047004,-0.00027916,-0.00
 023119,0.00034688,0.00018085,-0.00000534,0.00008586,-0.00005944,-0.000
 02324,0.00006926,-0.00067562,-0.00081715,0.00066657,-0.00047158,0.0012
 4666,-0.00010840,-0.00036683,-0.00014310,0.00039158,0.00013352,-0.0000
 0358,0.00002496,0.00018620,0.00018435,0.00009490,-0.00001530,0.0000002
 1,-0.00001799,-0.00004222,-0.00007392,0.00001092,-0.00001100,0.0000036
 0,-0.00000238,-0.00006315,-0.00000517,0.00001594,-0.00004499,0.0000163
 5,-0.00001516,-0.00078614,-0.00076169,-0.00049800,-0.00124125,-0.00112
 679,-0.00101083,0.00008342,0.00004688,0.00008016,0.00005819,-0.0000636
 0,0.00007594,-0.05830272,-0.04610537,0.02897099,-0.00103075,-0.0035742
 7,0.00169505,0.06239815,0.00050418,0.00019216,0.00010336,-0.00026134,-
 0.00087780,-0.00033115,0.00225942,-0.00028347,0.00232862,0.00015188,0.
 00014019,0.00048315,0.00086356,-0.00023410,-0.00040392,0.00221815,-0.0
 2088207,0.00529607,-0.00080192,-0.00157966,-0.00022244,0.00002546,0.00
 126978,0.00026706,0.00061427,-0.00008120,-0.00008543,-0.00015584,0.000
 08443,-0.00001669,0.00000561,0.00000173,0.00002672,-0.00231915,0.00032
 823,-0.00080456,0.00007945,0.00008145,0.00076819,0.00027913,0.00010506
 ,-0.00022587,-0.00007511,0.00000576,0.00002217,-0.00010359,-0.00019098
 ,-0.00011778,-0.00004330,-0.00002560,-0.00001354,0.00002243,0.00003438
 ,0.00008735,0.00001604,-0.00001302,0.00000503,0.00005415,0.00001027,-0
 .00000815,0.00007550,-0.00000458,0.00002708,-0.00087913,-0.00131235,0.
 00003067,-0.00127711,0.00041376,-0.00127925,0.00019166,0.00007514,-0.0
 0006477,-0.00011177,0.00017587,-0.00027086,-0.04885274,-0.22730844,0.1
 2015724,0.00124174,0.00743967,-0.00396064,0.04857086,0.25148851,0.0000
 1407,-0.00060308,-0.00002473,0.00004458,0.00017064,0.00005270,0.000993
 51,-0.00248606,-0.00161402,0.00002124,0.00009799,0.00048244,0.00009980
 ,0.00006991,0.00019644,-0.00333211,-0.00471347,0.00622456,-0.00017763,
 0.00052751,-0.00072765,0.00004835,-0.00024233,-0.00002610,-0.00019669,
 -0.00012935,-0.00014940,0.00004195,0.00004945,0.00000620,0.00001284,-0
 .00002187,0.00000157,-0.00007696,0.00031874,-0.00015769,0.00001246,0.0
 0126505,-0.00002070,-0.00001840,-0.00006425,0.00004829,0.00001907,0.00
 001117,0.00000404,0.00001521,0.00000105,0.00002280,0.00001215,-0.00000
 369,0.00000003,-0.00000123,-0.00001989,-0.00001080,-0.00000077,0.00000
 172,-0.00000046,-0.00001016,0.00000129,0.00000338,-0.00001334,0.000002
 70,-0.00001440,0.00059264,0.00047032,-0.00019745,-0.00080418,-0.000779
 24,0.00091706,-0.00002054,0.00026581,-0.00044880,0.00030544,-0.0002236
 4,0.00025685,0.02980903,0.11825954,-0.12064650,0.00767198,0.02656080,-
 0.01788327,-0.03334201,-0.12737819,0.12690293,0.00011765,-0.00006496,-
 0.00001652,0.00010934,0.00043332,0.00016058,0.00221480,-0.00670960,-0.
 00181831,0.00031161,0.00243573,0.00065912,0.00054537,-0.00009929,0.000
 16884,-0.02183858,-0.00920951,-0.00836029,-0.00123655,0.00212496,0.000
 33630,0.00016503,-0.00049268,-0.00010645,-0.00060231,-0.00059692,-0.00
 045139,-0.00025177,0.00009571,0.00001552,-0.00018248,0.00011415,-0.000
 05893,-0.00109663,0.00454672,0.00160510,0.00028288,-0.00005548,0.00008
 985,-0.00019529,-0.00004431,-0.00002788,0.00016273,0.00005536,0.000011
 48,0.00006504,0.00005441,0.00005035,0.00008919,0.00004711,0.00001683,-
 0.00003569,-0.00002450,-0.00003512,0.00000414,0.00001373,0.00000389,-0
 .00001889,0.00000806,-0.00000982,-0.00002382,0.00000115,0.00001352,-0.
 00002249,-0.00016959,0.00011437,0.00001293,0.00009594,-0.00011612,0.00
 002731,-0.00002201,0.00001711,0.00001652,0.00007520,-0.00006279,-0.242
 85676,-0.08512513,-0.07828025,0.00508549,0.00218766,0.00081899,-0.0051
 7179,-0.00229250,-0.00172030,0.26432302,-0.00017556,0.00040232,0.00010
 809,-0.00002255,-0.00000741,-0.00000426,0.00285137,0.00123041,0.000989
 08,0.00009961,-0.00080188,-0.00051050,-0.00002181,0.00016577,0.0000844
 3,0.02034467,0.00683634,0.00864545,0.00060956,0.00012742,0.00009093,0.
 00000639,-0.00002709,0.00003092,0.00076237,0.00018533,0.00021507,0.000
 12081,-0.00010345,-0.00006435,0.00015881,-0.00007198,-0.00000027,0.001
 87243,-0.00315643,-0.00122133,0.00020045,-0.00090352,-0.00026775,-0.00
 007813,0.00003373,0.00002661,-0.00002884,-0.00001845,-0.00002188,-0.00
 001254,0.00002740,0.00000352,0.00000097,0.00001071,0.00001073,0.000000
 92,-0.00001421,-0.00001009,0.00000056,-0.00000162,-0.00000471,-0.00000
 203,0.00000236,-0.00000014,-0.00000375,-0.00000305,-0.00000871,-0.0007
 3903,-0.00073226,-0.00017066,0.00013398,0.00035722,-0.00051436,-0.0000
 8882,-0.00000793,0.00045899,-0.00030925,0.00020215,-0.00016078,-0.0893
 4184,-0.08875175,-0.03666563,-0.00678930,-0.00384228,-0.00171417,-0.02
 216671,-0.00905313,-0.01140864,0.09261726,0.09791529,0.00002383,0.0001
 6227,0.00002450,0.00003588,0.00010466,0.00004479,0.00149001,-0.0010349
 3,-0.00010258,-0.00016993,0.00006462,0.00096546,0.00005499,0.00001934,
 0.00000268,0.00337647,0.00116771,-0.00111517,0.00005241,0.00049429,0.0
 0019937,0.00001601,-0.00011964,-0.00005966,0.00007544,-0.00021041,0.00
 019163,0.00005553,-0.00004471,0.00006275,-0.00006610,0.00002857,0.0000
 5606,0.00011232,-0.00038624,0.00072903,0.00020145,-0.00032093,-0.00027
 872,-0.00009343,0.00003059,-0.00006813,0.00003521,-0.00000681,0.000042
 38,0.00003689,0.00000345,0.00000596,0.00000302,0.00003438,0.00000602,-
 0.00000845,-0.00001610,-0.00000542,0.00000301,0.00000290,0.00000004,-0
 .00000489,0.00000435,-0.00000328,-0.00000872,-0.00000020,0.00000064,-0
 .00007376,-0.00013518,-0.00077603,0.00013389,-0.00009723,0.00008044,-0
 .00034912,0.00008606,0.00047179,-0.00023182,-0.00004216,0.00030942,-0.
 07996360,-0.03560593,-0.07872317,-0.02712642,-0.01184761,-0.00875344,0
 .01540758,0.00558052,0.00680269,0.08698231,0.04208439,0.07988993\\-0.0
 0209569,0.00092473,0.00072568,0.00063068,0.00093983,0.00077699,-0.0001
 9933,-0.00029497,0.00029384,0.00006141,0.00012242,-0.00032196,0.000133
 10,-0.00002598,-0.00009487,-0.00030473,0.00003226,0.00052597,-0.000092
 54,-0.00016821,-0.00034992,0.00003424,-0.00015768,-0.00025537,0.000307
 39,-0.00030527,0.00010763,-0.00044628,0.00090792,-0.00232887,0.0004627
 0,-0.00038597,0.00064410,0.00012656,-0.00037902,0.00092395,0.00051433,
 0.00040580,-0.00081830,0.00013156,0.00068709,0.00028645,0.00143421,0.0
 0013093,0.00083319,-0.00063233,0.00024698,0.00069952,-0.00025717,0.002
 26851,-0.00048028,-0.00008969,-0.00012475,-0.00006782,-0.00088948,0.00
 086133,0.00032939,-0.00011308,-0.00044276,0.00013846,-0.00038610,-0.00
 065681,-0.00067196,-0.00026520,-0.00059447,-0.00020169,0.00019094,0.00
 012675,0.00016442,-0.00010447,-0.00015456,-0.00005905,-0.00027227,-0.0
 0184055,-0.00041487,0.00027574,-0.00011048,-0.00045523,0.00066231,-0.0
 0030742,-0.00101026,0.00092993,-0.00175722,0.00066758,0.00025327,0.000
 05155,0.00041329\\\@


 IT IS BETTER TO THINK YOU ARE HALF DRY THAN TO KNOW YOU
 ARE ALL WET.  -- SNOOPY
 Job cpu time:       0 days  5 hours 51 minutes  3.4 seconds.
 Elapsed time:       0 days  0 hours 22 minutes  0.7 seconds.
 File lengths (MBytes):  RWF=   1326 Int=      0 D2E=      0 Chk=     36 Scr=      1
 Normal termination of Gaussian 16 at Sun Jun 28 19:58:01 2026.
