 Entering Gaussian System, Link 0=g16
 Input=DDL-S2-cLR-gs-9.gjf
 Output=DDL-S2-cLR-gs-9.log
 Initial command:
 /data/home/wyx/g16/l1.exe "/scr/tmp/wyx/13119/Gau-1529977.inp" -scrdir="/scr/tmp/wyx/13119/"
 Entering Link 1 = /data/home/wyx/g16/l1.exe PID=   1529978.
  
 Copyright (c) 1988,1990,1992,1993,1995,1998,2003,2009,2016,
            Gaussian, Inc.  All Rights Reserved.
  
 This is part of the Gaussian(R) 16 program.  It is based on
 the Gaussian(R) 09 system (copyright 2009, Gaussian, Inc.),
 the Gaussian(R) 03 system (copyright 2003, Gaussian, Inc.),
 the Gaussian(R) 98 system (copyright 1998, Gaussian, Inc.),
 the Gaussian(R) 94 system (copyright 1995, Gaussian, Inc.),
 the Gaussian 92(TM) system (copyright 1992, Gaussian, Inc.),
 the Gaussian 90(TM) system (copyright 1990, Gaussian, Inc.),
 the Gaussian 88(TM) system (copyright 1988, Gaussian, Inc.),
 the Gaussian 86(TM) system (copyright 1986, Carnegie Mellon
 University), and the Gaussian 82(TM) system (copyright 1983,
 Carnegie Mellon University). Gaussian is a federally registered
 trademark of Gaussian, Inc.
  
 This software contains proprietary and confidential information,
 including trade secrets, belonging to Gaussian, Inc.
  
 This software is provided under written license and may be
 used, copied, transmitted, or stored only in accord with that
 written license.
  
 The following legend is applicable only to US Government
 contracts under FAR:
  
                    RESTRICTED RIGHTS LEGEND
  
 Use, reproduction and disclosure by the US Government is
 subject to restrictions as set forth in subparagraphs (a)
 and (c) of the Commercial Computer Software - Restricted
 Rights clause in FAR 52.227-19.
  
 Gaussian, Inc.
 340 Quinnipiac St., Bldg. 40, Wallingford CT 06492
  
  
 ---------------------------------------------------------------
 Warning -- This program may not be used in any manner that
 competes with the business of Gaussian, Inc. or will provide
 assistance to any competitor of Gaussian, Inc.  The licensee
 of this program is prohibited from giving any competitor of
 Gaussian, Inc. access to this program.  By using this program,
 the user acknowledges that Gaussian, Inc. is engaged in the
 business of creating and licensing software in the field of
 computational chemistry and represents and warrants to the
 licensee that it is not a competitor of Gaussian, Inc. and that
 it will not use this program in any manner prohibited above.
 ---------------------------------------------------------------
  

 Cite this work as:
 Gaussian 16, Revision A.03,
 M. J. Frisch, G. W. Trucks, H. B. Schlegel, G. E. Scuseria, 
 M. A. Robb, J. R. Cheeseman, G. Scalmani, V. Barone, 
 G. A. Petersson, H. Nakatsuji, X. Li, M. Caricato, A. V. Marenich, 
 J. Bloino, B. G. Janesko, R. Gomperts, B. Mennucci, H. P. Hratchian, 
 J. V. Ortiz, A. F. Izmaylov, J. L. Sonnenberg, D. Williams-Young, 
 F. Ding, F. Lipparini, F. Egidi, J. Goings, B. Peng, A. Petrone, 
 T. Henderson, D. Ranasinghe, V. G. Zakrzewski, J. Gao, N. Rega, 
 G. Zheng, W. Liang, M. Hada, M. Ehara, K. Toyota, R. Fukuda, 
 J. Hasegawa, M. Ishida, T. Nakajima, Y. Honda, O. Kitao, H. Nakai, 
 T. Vreven, K. Throssell, J. A. Montgomery, Jr., J. E. Peralta, 
 F. Ogliaro, M. J. Bearpark, J. J. Heyd, E. N. Brothers, K. N. Kudin, 
 V. N. Staroverov, T. A. Keith, R. Kobayashi, J. Normand, 
 K. Raghavachari, A. P. Rendell, J. C. Burant, S. S. Iyengar, 
 J. Tomasi, M. Cossi, J. M. Millam, M. Klene, C. Adamo, R. Cammi, 
 J. W. Ochterski, R. L. Martin, K. Morokuma, O. Farkas, 
 J. B. Foresman, and D. J. Fox, Gaussian, Inc., Wallingford CT, 2016.
 
 ******************************************
 Gaussian 16:  ES64L-G16RevA.03 25-Dec-2016
                24-Jan-2026 
 ******************************************
 %nprocshared=16
 Will use up to   16 processors via shared memory.
 %mem=16GB
 %oldchk=DDL-S2-cLR-9.chk
 %chk=DDL-S2-cLR-gs-9.chk
 Copying data from "DDL-S2-cLR-9.chk" to current chk file "DDL-S2-cLR-gs-9.chk"
 IOpt=  2 FromEx=T IUOpen= 4 IOptOp= 5 NList=   0 IFRang= 0 IUIn= 4 IUOut= 2.
 ----------------------------------------------------------------------
 #p CAM-B3LYP TZVP em=gd3bj scrf=(Solvent=Water,NonEquilibrium=Read) Ge
 om=Check Guess=Read
 ----------------------------------------------------------------------
 1/29=2,38=1,172=1/1;
 2/12=2,40=1/2;
 3/5=19,7=101,11=2,14=-4,25=1,30=1,70=6002201,72=1,74=-40,116=-2,124=41/1,2,3;
 4/5=1/1;
 5/5=2,38=6,53=1/2;
 6/7=2,8=2,9=2,10=2,28=1/1;
 99/5=1,9=1/99;
 Leave Link    1 at Sat Jan 24 23:33:35 2026, MaxMem=  2147483648 cpu:               0.8 elap:               0.1
 (Enter /data/home/wyx/g16/l101.exe)
 -------------------
 Title Card Required
 -------------------
 Structure from the checkpoint file:  "DDL-S2-cLR-gs-9.chk"
 Charge =  0 Multiplicity = 1
 Z-Matrix found in chk file.
 O,0,2.756746,-1.557378,0.701976
 O,0,-3.30744,-1.656124,-0.946491
 N,0,-0.682759,1.521332,0.031125
 H,0,-0.989931,2.47726,-0.042394
 C,0,-1.241283,-0.763631,-0.162046
 C,0,0.655073,1.307875,0.219942
 C,0,-1.610605,0.539222,-0.256069
 C,0,-2.153035,-1.824784,-0.473362
 C,0,0.136705,-1.118768,0.341052
 H,0,0.077853,-1.514042,1.362311
 H,0,0.555522,-1.926574,-0.257988
 C,0,1.112451,0.034591,0.31704
 C,0,2.501375,-0.376564,0.467518
 C,0,-2.941274,1.072502,-0.646417
 H,0,-3.195221,1.971588,-0.079476
 H,0,-2.973242,1.333794,-1.706352
 H,0,-3.756829,0.371028,-0.485348
 C,0,-1.787081,-3.257683,-0.232463
 H,0,-2.64252,-3.886944,0.015502
 H,0,-1.328318,-3.695054,-1.12443
 H,0,-1.065946,-3.395071,0.572529
 C,0,3.663169,0.573483,0.316305
 H,0,3.547442,1.261102,-0.517298
 H,0,3.798262,1.16259,1.224472
 H,0,4.556899,-0.027825,0.168583
 C,0,1.433769,2.586103,0.28769
 H,0,2.202954,2.562417,1.050937
 H,0,1.906876,2.808164,-0.669311
 H,0,0.77039,3.417389,0.522464
 Recover connectivity data from disk.
 ITRead=  0  0  0  0  0  0  0  0  0  0  0  0  0  0  0  0  0  0  0  0
 ITRead=  0  0  0  0  0  0  0  0  0
 MicOpt= -1 -1 -1 -1 -1 -1 -1 -1 -1 -1 -1 -1 -1 -1 -1 -1 -1 -1 -1 -1
 MicOpt= -1 -1 -1 -1 -1 -1 -1 -1 -1
 NAtoms=     29 NQM=       29 NQMF=       0 NMMI=      0 NMMIF=      0
                NMic=       0 NMicF=      0.
                    Isotopes and Nuclear Properties:
 (Nuclear quadrupole moments (NQMom) in fm**2, nuclear magnetic moments (NMagM)
  in nuclear magnetons)

  Atom         1           2           3           4           5           6           7           8           9          10
 IAtWgt=          16          16          14           1          12          12          12          12          12           1
 AtmWgt=  15.9949146  15.9949146  14.0030740   1.0078250  12.0000000  12.0000000  12.0000000  12.0000000  12.0000000   1.0078250
 NucSpn=           0           0           2           1           0           0           0           0           0           1
 AtZEff=   5.6000000   5.6000000   4.5500000   1.0000000   3.6000000   3.6000000   3.6000000   3.6000000   3.6000000   1.0000000
 NQMom=    0.0000000   0.0000000   2.0440000   0.0000000   0.0000000   0.0000000   0.0000000   0.0000000   0.0000000   0.0000000
 NMagM=    0.0000000   0.0000000   0.4037610   2.7928460   0.0000000   0.0000000   0.0000000   0.0000000   0.0000000   2.7928460
 AtZNuc=   8.0000000   8.0000000   7.0000000   1.0000000   6.0000000   6.0000000   6.0000000   6.0000000   6.0000000   1.0000000

  Atom        11          12          13          14          15          16          17          18          19          20
 IAtWgt=           1          12          12          12           1           1           1          12           1           1
 AtmWgt=   1.0078250  12.0000000  12.0000000  12.0000000   1.0078250   1.0078250   1.0078250  12.0000000   1.0078250   1.0078250
 NucSpn=           1           0           0           0           1           1           1           0           1           1
 AtZEff=   1.0000000   3.6000000   3.6000000   3.6000000   1.0000000   1.0000000   1.0000000   3.6000000   1.0000000   1.0000000
 NQMom=    0.0000000   0.0000000   0.0000000   0.0000000   0.0000000   0.0000000   0.0000000   0.0000000   0.0000000   0.0000000
 NMagM=    2.7928460   0.0000000   0.0000000   0.0000000   2.7928460   2.7928460   2.7928460   0.0000000   2.7928460   2.7928460
 AtZNuc=   1.0000000   6.0000000   6.0000000   6.0000000   1.0000000   1.0000000   1.0000000   6.0000000   1.0000000   1.0000000

  Atom        21          22          23          24          25          26          27          28          29
 IAtWgt=           1          12           1           1           1          12           1           1           1
 AtmWgt=   1.0078250  12.0000000   1.0078250   1.0078250   1.0078250  12.0000000   1.0078250   1.0078250   1.0078250
 NucSpn=           1           0           1           1           1           0           1           1           1
 AtZEff=   1.0000000   3.6000000   1.0000000   1.0000000   1.0000000   3.6000000   1.0000000   1.0000000   1.0000000
 NQMom=    0.0000000   0.0000000   0.0000000   0.0000000   0.0000000   0.0000000   0.0000000   0.0000000   0.0000000
 NMagM=    2.7928460   0.0000000   2.7928460   2.7928460   2.7928460   0.0000000   2.7928460   2.7928460   2.7928460
 AtZNuc=   1.0000000   6.0000000   1.0000000   1.0000000   1.0000000   6.0000000   1.0000000   1.0000000   1.0000000
 Leave Link  101 at Sat Jan 24 23:33:39 2026, MaxMem=  2147483648 cpu:               0.9 elap:               0.1
 (Enter /data/home/wyx/g16/l202.exe)
                          Input orientation:                          
 ---------------------------------------------------------------------
 Center     Atomic      Atomic             Coordinates (Angstroms)
 Number     Number       Type             X           Y           Z
 ---------------------------------------------------------------------
      1          8           0        2.756746   -1.557378    0.701976
      2          8           0       -3.307440   -1.656124   -0.946491
      3          7           0       -0.682759    1.521332    0.031125
      4          1           0       -0.989931    2.477260   -0.042394
      5          6           0       -1.241283   -0.763631   -0.162046
      6          6           0        0.655073    1.307875    0.219942
      7          6           0       -1.610605    0.539222   -0.256069
      8          6           0       -2.153035   -1.824784   -0.473362
      9          6           0        0.136705   -1.118768    0.341052
     10          1           0        0.077853   -1.514042    1.362311
     11          1           0        0.555522   -1.926574   -0.257988
     12          6           0        1.112451    0.034591    0.317040
     13          6           0        2.501375   -0.376564    0.467518
     14          6           0       -2.941274    1.072502   -0.646417
     15          1           0       -3.195221    1.971588   -0.079476
     16          1           0       -2.973242    1.333794   -1.706352
     17          1           0       -3.756829    0.371028   -0.485348
     18          6           0       -1.787081   -3.257683   -0.232463
     19          1           0       -2.642520   -3.886944    0.015502
     20          1           0       -1.328318   -3.695054   -1.124430
     21          1           0       -1.065946   -3.395071    0.572529
     22          6           0        3.663169    0.573483    0.316305
     23          1           0        3.547442    1.261102   -0.517298
     24          1           0        3.798262    1.162590    1.224472
     25          1           0        4.556899   -0.027825    0.168583
     26          6           0        1.433769    2.586103    0.287690
     27          1           0        2.202954    2.562417    1.050937
     28          1           0        1.906876    2.808164   -0.669311
     29          1           0        0.770390    3.417389    0.522464
 ---------------------------------------------------------------------
                    Distance matrix (angstroms):
                    1          2          3          4          5
     1  O    0.000000
     2  O    6.285026   0.000000
     3  N    4.664621   4.235671   0.000000
     4  H    5.556076   4.824220   1.006756   0.000000
     5  C    4.166630   2.383464   2.360153   3.252825   0.000000
     6  C    3.585953   5.084030   1.367849   2.035269   2.834293
     7  C    4.938354   2.859279   1.381274   2.046188   1.357448
     8  C    5.055579   1.258947   3.689541   4.477290   1.433267
     9  C    2.680907   3.716000   2.781673   3.787843   1.509331
    10  H    2.759418   4.100117   3.400600   4.363926   2.151023
    11  H    2.429655   3.933148   3.674913   4.672115   2.142463
    12  C    2.320829   4.898006   2.348388   3.242813   2.531155
    13  C    1.230653   6.113839   3.732447   4.538010   3.814926
    14  C    6.418868   2.769390   2.400292   2.479098   2.548719
    15  H    6.963489   3.731568   2.554883   2.262826   3.362457
    16  H    6.855048   3.103013   2.881026   2.830158   3.127899
    17  H    6.896024   2.126958   3.322627   3.505445   2.778479
    18  C    4.940706   2.320844   4.912025   5.793198   2.554046
    19  H    5.920321   2.518751   5.752422   6.575522   3.427838
    20  H    4.959150   2.847072   5.381704   6.275569   3.086584
    21  H    4.243447   3.218020   4.960944   5.904928   2.737667
    22  C    2.347533   7.426654   4.457223   5.040275   5.105913
    23  H    3.171066   7.462159   4.273533   4.721475   5.211299
    24  H    2.959051   7.946649   4.651056   5.124461   5.570437
    25  H    2.421692   8.108180   5.465601   6.089933   5.854028
    26  C    4.369249   6.480645   2.383118   2.448494   4.310323
    27  H    4.171471   7.221513   3.232834   3.375965   4.939301
    28  H    4.654102   6.869919   2.975358   2.982283   4.788104
    29  H    5.359677   6.672860   2.438870   2.074039   4.690022
                    6          7          8          9         10
     6  C    0.000000
     7  C    2.439408   0.000000
     8  C    4.263765   2.435153   0.000000
     9  C    2.484345   2.481648   2.530739   0.000000
    10  H    3.098613   3.112224   2.905704   1.096665   0.000000
    11  H    3.271084   3.282112   2.719012   1.089407   1.738884
    12  C    1.356420   2.828098   3.839975   1.510925   2.135708
    13  C    2.511466   4.274415   4.964487   2.481637   2.822759
    14  C    3.706709   1.485745   3.007580   3.905216   4.454248
    15  H    3.918537   2.143330   3.956481   4.563866   4.994135
    16  H    4.108035   2.142766   3.488498   4.458553   5.180352
    17  H    4.565084   2.164979   2.719171   4.249945   4.655332
    18  C    5.197413   3.801077   1.498384   2.933399   3.010244
    19  H    6.156465   4.552971   2.175106   3.936099   3.852919
    20  H    5.547114   4.331608   2.145217   3.306233   3.594163
    21  H    5.020351   4.057325   2.177487   2.584861   2.338868
    22  C    3.097944   5.304854   6.340622   3.911556   4.278596
    23  H    2.985215   5.214863   6.482288   4.246607   4.824148
    24  H    3.303002   5.642378   6.872043   4.403638   4.585281
    25  H    4.124437   6.208057   6.975985   4.556097   4.867821
    26  C    1.498274   3.708586   5.735877   3.925722   4.450226
    27  H    2.158788   4.510523   6.367547   4.280706   4.607659
    28  H    2.146776   4.206131   6.163236   4.424379   5.114125
    29  H    2.134213   3.815638   6.084280   4.583796   5.050145
                   11         12         13         14         15
    11  H    0.000000
    12  C    2.118253   0.000000
    13  C    2.591377   1.456297   0.000000
    14  C    4.623085   4.293972   5.741348   0.000000
    15  H    5.412542   4.739749   6.185808   1.092825   0.000000
    16  H    5.017961   4.740773   6.133716   1.092134   1.761471
    17  H    4.891527   4.946403   6.374321   1.087722   1.744112
    18  C    2.694493   4.421347   5.213605   4.500447   5.417706
    19  H    3.761026   5.437754   6.243936   5.012334   5.885312
    20  H    2.725270   4.684596   5.311612   5.055662   6.057069
    21  H    2.339957   4.071028   4.674205   4.996188   5.810331
    22  C    4.029586   2.607023   1.508383   6.692871   7.010624
    23  H    4.379510   2.851251   2.178547   6.492740   6.794114
    24  H    4.717625   3.051130   2.150323   6.994976   7.159858
    25  H    4.449520   3.448211   2.106219   7.622174   8.009654
    26  C    4.629615   2.571832   3.154285   4.722769   4.684014
    27  H    4.957656   2.849159   3.011153   5.618179   5.546819
    28  H    4.940960   3.049050   3.433410   5.149525   5.203764
    29  H    5.404925   3.406248   4.170540   4.543262   4.263654
                   16         17         18         19         20
    16  H    0.000000
    17  H    1.741200   0.000000
    18  C    4.965983   4.136593   0.000000
    19  H    5.507292   4.429770   1.090519   0.000000
    20  H    5.322943   4.779029   1.094240   1.750255   0.000000
    21  H    5.585091   4.747995   1.089460   1.742930   1.743129
    22  C    6.979338   7.465923   6.684624   7.729658   6.723918
    23  H    6.628609   7.358371   6.996977   8.068574   6.978906
    24  H    7.380536   7.786492   7.270318   8.273033   7.442840
    25  H    7.878605   8.348939   7.130140   8.169937   7.053810
    26  C    4.996622   5.696179   6.692852   7.654447   7.005437
    27  H    5.992092   6.533098   7.172242   8.132958   7.507200
    28  H    5.202381   6.168552   7.115522   8.123450   7.277737
    29  H    4.829469   5.549028   7.187987   8.078258   7.596294
                   21         22         23         24         25
    21  H    0.000000
    22  C    6.178964   0.000000
    23  H    6.644623   1.086787   0.000000
    24  H    6.697598   1.090901   1.762492   0.000000
    25  H    6.566422   1.087266   1.775041   1.762816   0.000000
    26  C    6.488771   3.003612   2.621306   2.914580   4.074401
    27  H    6.812213   2.574446   2.441399   2.129469   3.609565
    28  H    6.989990   3.008289   2.260081   3.141921   3.970834
    29  H    7.055795   4.061831   3.666428   3.839914   5.131509
                   26         27         28         29
    26  C    0.000000
    27  H    1.083860   0.000000
    28  H    1.090409   1.762755   0.000000
    29  H    1.089140   1.750000   1.755871   0.000000
 Stoichiometry    C11H15NO2
 Framework group  C1[X(C11H15NO2)]
 Deg. of freedom    81
 Full point group                 C1      NOp   1
 RotChk:  IX=0 Diff= 3.33D-16
 Largest Abelian subgroup         C1      NOp   1
 Largest concise Abelian subgroup C1      NOp   1
                         Standard orientation:                         
 ---------------------------------------------------------------------
 Center     Atomic      Atomic             Coordinates (Angstroms)
 Number     Number       Type             X           Y           Z
 ---------------------------------------------------------------------
      1          8           0       -2.271910   -2.299961   -0.127887
      2          8           0        3.640340   -0.217553    0.330826
      3          7           0       -0.048706    1.800465   -0.178539
      4          1           0       -0.083310    2.806623   -0.180922
      5          6           0        1.290143   -0.139467   -0.058244
      6          6           0       -1.241231    1.134600   -0.104266
      7          6           0        1.196423    1.214742   -0.058112
      8          6           0        2.551968   -0.802797    0.090238
      9          6           0        0.054903   -0.977338   -0.282379
     10          1           0        0.068156   -1.411462   -1.289373
     11          1           0        0.052378   -1.827380    0.398965
     12          6           0       -1.239462   -0.221755   -0.091049
     13          6           0       -2.404048   -1.087164    0.033884
     14          6           0        2.306801    2.194636    0.061497
     15          1           0        2.131331    3.077437   -0.558293
     16          1           0        2.430354    2.536779    1.091269
     17          1           0        3.273331    1.797920   -0.241118
     18          6           0        2.668211   -2.289826   -0.052538
     19          1           0        3.631417   -2.612444   -0.449253
     20          1           0        2.551713   -2.781953    0.917824
     21          1           0        1.910751   -2.726921   -0.702250
     22          6           0       -3.777499   -0.574579    0.389003
     23          1           0       -3.763553    0.177290    1.173607
     24          1           0       -4.263839   -0.141283   -0.486092
     25          1           0       -4.367854   -1.427455    0.714933
     26          6           0       -2.413069    2.066178   -0.042758
     27          1           0       -3.246891    1.722977   -0.644178
     28          1           0       -2.759544    2.193157    0.983314
     29          1           0       -2.129788    3.050197   -0.413816
 ---------------------------------------------------------------------
 Rotational constants (GHZ):           1.0938272           0.4855200           0.3428428
 Leave Link  202 at Sat Jan 24 23:33:39 2026, MaxMem=  2147483648 cpu:               0.0 elap:               0.0
 (Enter /data/home/wyx/g16/l301.exe)
 Standard basis: TZVP (5D, 7F)
 Ernie: Thresh=  0.10000D-02 Tol=  0.10000D-05 Strict=F.
 There are   370 symmetry adapted cartesian basis functions of A   symmetry.
 There are   356 symmetry adapted basis functions of A   symmetry.
   356 basis functions,   610 primitive gaussians,   370 cartesian basis functions
    52 alpha electrons       52 beta electrons
       nuclear repulsion energy       899.8802834167 Hartrees.
 IExCor=20419 DFT=T Ex+Corr=CAM-B3LYP ExCW=0 ScaHFX=  1.000000
 ScaDFX=  1.000000  1.000000  1.000000  0.810000 ScalE2=  1.000000  1.000000
 IRadAn=      5 IRanWt=     -1 IRanGd=            0 ICorTp=0 IEmpDi=141
 HFx  wShort=  0.000000 wLong=  0.330000 cFull=  0.190000 cShort=  0.000000 cLong=  0.460000
 DFx  wShort=  0.000000 wLong=  0.330000 cFull=  0.190000 cShort=  0.000000 cLong=  0.460000
 NAtoms=   29 NActive=   29 NUniq=   29 SFac= 1.00D+00 NAtFMM=   60 NAOKFM=F Big=F
 Integral buffers will be    131072 words long.
 Raffenetti 2 integral format.
 Two-electron integral symmetry is turned on.
 R6Disp:  Grimme-D3(BJ) Dispersion energy=       -0.0261362486 Hartrees.
 Nuclear repulsion after empirical dispersion term =      899.8541471682 Hartrees.
 ------------------------------------------------------------------------------
 Polarizable Continuum Model (PCM)
 =================================
 Model                : PCM.
 Atomic radii         : UFF (Universal Force Field).
 Polarization charges : Total charges.
 Charge compensation  : None.
 Solution method      : On-the-fly selection.
 Cavity type          : Scaled VdW (van der Waals Surface) (Alpha=1.100).
 Cavity algorithm     : GePol (No added spheres)
                        Default sphere list used, NSphG=   29.
                        Lebedev-Laikov grids with approx.  5.0 points / Ang**2.
                        Smoothing algorithm: York/Karplus (Gamma=1.0000).
                        Polarization charges: spherical gaussians, with
                                              point-specific exponents (IZeta= 3).
                        Self-potential: point-specific (ISelfS= 7).
                        Self-field    : sphere-specific E.n sum rule (ISelfD= 2).
 Solvent              : Water, Eps=  78.355300 Eps(inf)=   1.777849
 ------------------------------------------------------------------------------
 GePol: Number of generator spheres                  =      29
 GePol: Total number of spheres                      =      29
 GePol: Number of exposed spheres                    =      29 (100.00%)
 GePol: Number of points                             =    2100
 GePol: Average weight of points                     =       0.13
 GePol: Minimum weight of points                     =   0.20D-10
 GePol: Maximum weight of points                     =    0.20577
 GePol: Number of points with low weight             =     121
 GePol: Fraction of low-weight points (<1% of avg)   =       5.76%
 GePol: Cavity surface area                          =    269.096 Ang**2
 GePol: Cavity volume                                =    286.539 Ang**3
 Leave Link  301 at Sat Jan 24 23:33:39 2026, MaxMem=  2147483648 cpu:               0.6 elap:               0.0
 (Enter /data/home/wyx/g16/l302.exe)
 NPDir=0 NMtPBC=     1 NCelOv=     1 NCel=       1 NClECP=     1 NCelD=      1
         NCelK=      1 NCelE2=     1 NClLst=     1 CellRange=     0.0.
 One-electron integrals computed using PRISM.
 One-electron integral symmetry used in STVInt
 NBasis=   356 RedAO= T EigKep=  4.22D-05  NBF=   356
 NBsUse=   356 1.00D-06 EigRej= -1.00D+00 NBFU=   356
 Precomputing XC quadrature grid using
 IXCGrd= 4 IRadAn=           5 IRanWt=          -1 IRanGd=           0 AccXCQ= 0.00D+00.
 Generated NRdTot=       0 NPtTot=           0 NUsed=           0 NTot=          32
 NSgBfM=   366   366   366   366   366 MxSgAt=    29 MxSgA2=    29.
 Leave Link  302 at Sat Jan 24 23:33:40 2026, MaxMem=  2147483648 cpu:               3.1 elap:               0.2
 (Enter /data/home/wyx/g16/l303.exe)
 DipDrv:  MaxL=1.
 Leave Link  303 at Sat Jan 24 23:33:40 2026, MaxMem=  2147483648 cpu:               0.6 elap:               0.0
 (Enter /data/home/wyx/g16/l401.exe)
 Initial guess from the checkpoint file:  "DDL-S2-cLR-gs-9.chk"
 B after Tr=    -0.000000    0.000000   -0.000000
         Rot=    1.000000    0.000000    0.000000   -0.000000 Ang=   0.00 deg.
 Guess basis will be translated and rotated to current coordinates.
 JPrj=2 DoOrth=T DoCkMO=T.
 Leave Link  401 at Sat Jan 24 23:33:40 2026, MaxMem=  2147483648 cpu:               2.2 elap:               0.2
 (Enter /data/home/wyx/g16/l502.exe)
 Integral symmetry usage will be decided dynamically.
 Closed shell SCF:
 Using DIIS extrapolation, IDIIS=  1040.
 NGot=  2147483648 LenX=  2147200095 LenY=  2147062754
 Requested convergence on RMS density matrix=1.00D-08 within 128 cycles.
 Requested convergence on MAX density matrix=1.00D-06.
 Requested convergence on             energy=1.00D-06.
 No special actions if energy rises.
 Fock matrices will be formed incrementally for  20 cycles.

 Cycle   1  Pass 1  IDiag  1:
 FoFJK:  IHMeth= 1 ICntrl=       0 DoSepK=T KAlg= 0 I1Cent=           0 FoldK=F
 IRaf=         1 NMat=       1 IRICut=       1 DoRegI=T DoRafI=F ISym2E= 0 IDoP0=0 IntGTp=1.
 FoFCou: FMM=F IPFlag=           0 FMFlag=      100000 FMFlg1=           0
         NFxFlg=           0 DoJE=T BraDBF=F KetDBF=F FulRan=T
         wScrn=  0.000000 ICntrl=       500 IOpCl=  0 I1Cent=           0 NGrid=           0
         NMat0=    1 NMatS0=      1 NMatT0=    0 NMatD0=    1 NMtDS0=    0 NMtDT0=    0
 Symmetry not used in FoFCou.
 Inv3:  Mode=1 IEnd=    13230000.
 Iteration    1 A*A^-1 deviation from unit magnitude is 2.89D-15 for    562.
 Iteration    1 A*A^-1 deviation from orthogonality  is 1.54D-15 for   2009   1599.
 Iteration    1 A^-1*A deviation from unit magnitude is 2.89D-15 for    562.
 Iteration    1 A^-1*A deviation from orthogonality  is 2.79D-15 for   1506   1268.
 NEqPCM:  Using non-equilibrium solvation (IEInf=1, Eps=  78.3553, EpsInf=   1.7778)
 Inv3:  Mode=1 IEnd=    13230000.
 Iteration    1 A*A^-1 deviation from unit magnitude is 3.55D-15 for   1456.
 Iteration    1 A*A^-1 deviation from orthogonality  is 1.68D-15 for   1393    863.
 Iteration    1 A^-1*A deviation from unit magnitude is 3.55D-15 for   1456.
 Iteration    1 A^-1*A deviation from orthogonality  is 1.55D-15 for   2085   1920.
 E= -633.324021095115    
 DIIS: error= 8.33D-04 at cycle   1 NSaved=   1.
 NSaved= 1 IEnMin= 1 EnMin= -633.324021095115     IErMin= 1 ErrMin= 8.33D-04
 ErrMax= 8.33D-04  0.00D+00 EMaxC= 1.00D-01 BMatC= 1.33D-04 BMatP= 1.33D-04
 IDIUse=3 WtCom= 9.92D-01 WtEn= 8.33D-03
 Coeff-Com:  0.100D+01
 Coeff-En:   0.100D+01
 Coeff:      0.100D+01
 Gap=     0.236 Goal=   None    Shift=    0.000
 RMSDP=4.43D-04 MaxDP=3.06D-02              OVMax= 1.31D-02

 Cycle   2  Pass 1  IDiag  1:
 RMSU=  4.39D-04    CP:  1.01D+00
 E= -633.324245893120     Delta-E=       -0.000224798005 Rises=F Damp=F
 DIIS: error= 5.52D-04 at cycle   2 NSaved=   2.
 NSaved= 2 IEnMin= 2 EnMin= -633.324245893120     IErMin= 2 ErrMin= 5.52D-04
 ErrMax= 5.52D-04  0.00D+00 EMaxC= 1.00D-01 BMatC= 1.49D-04 BMatP= 1.33D-04
 IDIUse=3 WtCom= 2.98D-01 WtEn= 7.02D-01
 Coeff-Com:  0.520D+00 0.480D+00
 Coeff-En:   0.000D+00 0.100D+01
 Coeff:      0.155D+00 0.845D+00
 Gap=     0.234 Goal=   None    Shift=    0.000
 RMSDP=2.55D-04 MaxDP=1.60D-02 DE=-2.25D-04 OVMax= 5.57D-03

 Cycle   3  Pass 1  IDiag  1:
 RMSU=  2.31D-04    CP:  9.97D-01  8.99D-01
 E= -633.324207881952     Delta-E=        0.000038011168 Rises=F Damp=F
 DIIS: error= 7.68D-04 at cycle   3 NSaved=   3.
 NSaved= 3 IEnMin= 2 EnMin= -633.324245893120     IErMin= 2 ErrMin= 5.52D-04
 ErrMax= 7.68D-04  0.00D+00 EMaxC= 1.00D-01 BMatC= 2.29D-04 BMatP= 1.33D-04
 IDIUse=3 WtCom= 2.65D-01 WtEn= 7.35D-01
 Coeff-Com:  0.758D-01 0.525D+00 0.399D+00
 Coeff-En:   0.000D+00 0.556D+00 0.444D+00
 Coeff:      0.201D-01 0.548D+00 0.432D+00
 Gap=     0.235 Goal=   None    Shift=    0.000
 RMSDP=8.16D-05 MaxDP=5.90D-03 DE= 3.80D-05 OVMax= 3.51D-03

 Cycle   4  Pass 1  IDiag  1:
 RMSU=  2.89D-05    CP:  1.00D+00  9.53D-01  7.26D-01
 E= -633.324374816338     Delta-E=       -0.000166934386 Rises=F Damp=F
 DIIS: error= 8.61D-05 at cycle   4 NSaved=   4.
 NSaved= 4 IEnMin= 4 EnMin= -633.324374816338     IErMin= 4 ErrMin= 8.61D-05
 ErrMax= 8.61D-05  0.00D+00 EMaxC= 1.00D-01 BMatC= 1.34D-06 BMatP= 1.33D-04
 IDIUse=1 WtCom= 1.00D+00 WtEn= 0.00D+00
 Coeff-Com: -0.110D-01 0.143D+00 0.133D+00 0.735D+00
 Coeff:     -0.110D-01 0.143D+00 0.133D+00 0.735D+00
 Gap=     0.235 Goal=   None    Shift=    0.000
 RMSDP=2.00D-05 MaxDP=1.17D-03 DE=-1.67D-04 OVMax= 1.06D-03

 Cycle   5  Pass 1  IDiag  1:
 RMSU=  1.27D-05    CP:  1.00D+00  9.60D-01  7.87D-01  1.03D+00
 E= -633.324376611856     Delta-E=       -0.000001795518 Rises=F Damp=F
 DIIS: error= 2.69D-05 at cycle   5 NSaved=   5.
 NSaved= 5 IEnMin= 5 EnMin= -633.324376611856     IErMin= 5 ErrMin= 2.69D-05
 ErrMax= 2.69D-05  0.00D+00 EMaxC= 1.00D-01 BMatC= 3.82D-07 BMatP= 1.34D-06
 IDIUse=1 WtCom= 1.00D+00 WtEn= 0.00D+00
 Coeff-Com: -0.136D-01-0.141D-01 0.371D-02 0.341D+00 0.682D+00
 Coeff:     -0.136D-01-0.141D-01 0.371D-02 0.341D+00 0.682D+00
 Gap=     0.235 Goal=   None    Shift=    0.000
 RMSDP=9.98D-06 MaxDP=4.85D-04 DE=-1.80D-06 OVMax= 4.31D-04

 Cycle   6  Pass 1  IDiag  1:
 RMSU=  3.88D-06    CP:  1.00D+00  9.58D-01  8.20D-01  1.18D+00  1.09D+00
 E= -633.324377198955     Delta-E=       -0.000000587099 Rises=F Damp=F
 DIIS: error= 2.17D-05 at cycle   6 NSaved=   6.
 NSaved= 6 IEnMin= 6 EnMin= -633.324377198955     IErMin= 6 ErrMin= 2.17D-05
 ErrMax= 2.17D-05  0.00D+00 EMaxC= 1.00D-01 BMatC= 4.22D-08 BMatP= 3.82D-07
 IDIUse=1 WtCom= 1.00D+00 WtEn= 0.00D+00
 Coeff-Com: -0.129D-02-0.264D-01-0.146D-01 0.417D-02 0.185D+00 0.853D+00
 Coeff:     -0.129D-02-0.264D-01-0.146D-01 0.417D-02 0.185D+00 0.853D+00
 Gap=     0.235 Goal=   None    Shift=    0.000
 RMSDP=4.77D-06 MaxDP=1.94D-04 DE=-5.87D-07 OVMax= 3.43D-04

 Cycle   7  Pass 1  IDiag  1:
 RMSU=  1.93D-06    CP:  1.00D+00  9.55D-01  8.34D-01  1.26D+00  1.19D+00
                    CP:  1.22D+00
 E= -633.324377315370     Delta-E=       -0.000000116415 Rises=F Damp=F
 DIIS: error= 8.39D-06 at cycle   7 NSaved=   7.
 NSaved= 7 IEnMin= 7 EnMin= -633.324377315370     IErMin= 7 ErrMin= 8.39D-06
 ErrMax= 8.39D-06  0.00D+00 EMaxC= 1.00D-01 BMatC= 1.92D-08 BMatP= 4.22D-08
 IDIUse=1 WtCom= 1.00D+00 WtEn= 0.00D+00
 Coeff-Com:  0.229D-02-0.104D-01-0.582D-02-0.674D-01-0.872D-01 0.431D+00
 Coeff-Com:  0.738D+00
 Coeff:      0.229D-02-0.104D-01-0.582D-02-0.674D-01-0.872D-01 0.431D+00
 Coeff:      0.738D+00
 Gap=     0.235 Goal=   None    Shift=    0.000
 RMSDP=1.98D-06 MaxDP=8.57D-05 DE=-1.16D-07 OVMax= 1.77D-04

 Cycle   8  Pass 1  IDiag  1:
 RMSU=  6.96D-07    CP:  9.99D-01  9.53D-01  8.39D-01  1.28D+00  1.25D+00
                    CP:  1.42D+00  1.12D+00
 E= -633.324377351342     Delta-E=       -0.000000035972 Rises=F Damp=F
 DIIS: error= 2.61D-06 at cycle   8 NSaved=   8.
 NSaved= 8 IEnMin= 8 EnMin= -633.324377351342     IErMin= 8 ErrMin= 2.61D-06
 ErrMax= 2.61D-06  0.00D+00 EMaxC= 1.00D-01 BMatC= 1.95D-09 BMatP= 1.92D-08
 IDIUse=1 WtCom= 1.00D+00 WtEn= 0.00D+00
 Coeff-Com:  0.100D-02 0.868D-04 0.803D-03-0.225D-01-0.740D-01 0.121D-01
 Coeff-Com:  0.253D+00 0.830D+00
 Coeff:      0.100D-02 0.868D-04 0.803D-03-0.225D-01-0.740D-01 0.121D-01
 Coeff:      0.253D+00 0.830D+00
 Gap=     0.235 Goal=   None    Shift=    0.000
 RMSDP=8.14D-07 MaxDP=2.58D-05 DE=-3.60D-08 OVMax= 6.61D-05

 Cycle   9  Pass 1  IDiag  1:
 RMSU=  2.20D-07    CP:  9.99D-01  9.53D-01  8.40D-01  1.29D+00  1.25D+00
                    CP:  1.53D+00  1.32D+00  1.17D+00
 E= -633.324377355532     Delta-E=       -0.000000004190 Rises=F Damp=F
 DIIS: error= 9.64D-07 at cycle   9 NSaved=   9.
 NSaved= 9 IEnMin= 9 EnMin= -633.324377355532     IErMin= 9 ErrMin= 9.64D-07
 ErrMax= 9.64D-07  0.00D+00 EMaxC= 1.00D-01 BMatC= 2.12D-10 BMatP= 1.95D-09
 IDIUse=1 WtCom= 1.00D+00 WtEn= 0.00D+00
 Coeff-Com:  0.930D-04 0.139D-02 0.110D-02 0.215D-02-0.171D-01-0.530D-01
 Coeff-Com:  0.483D-02 0.322D+00 0.739D+00
 Coeff:      0.930D-04 0.139D-02 0.110D-02 0.215D-02-0.171D-01-0.530D-01
 Coeff:      0.483D-02 0.322D+00 0.739D+00
 Gap=     0.235 Goal=   None    Shift=    0.000
 RMSDP=2.05D-07 MaxDP=8.46D-06 DE=-4.19D-09 OVMax= 1.93D-05

 Cycle  10  Pass 1  IDiag  1:
 RMSU=  8.62D-08    CP:  9.99D-01  9.53D-01  8.39D-01  1.29D+00  1.25D+00
                    CP:  1.55D+00  1.37D+00  1.26D+00  1.00D+00
 E= -633.324377355922     Delta-E=       -0.000000000389 Rises=F Damp=F
 DIIS: error= 2.94D-07 at cycle  10 NSaved=  10.
 NSaved=10 IEnMin=10 EnMin= -633.324377355922     IErMin=10 ErrMin= 2.94D-07
 ErrMax= 2.94D-07  0.00D+00 EMaxC= 1.00D-01 BMatC= 4.83D-11 BMatP= 2.12D-10
 IDIUse=1 WtCom= 1.00D+00 WtEn= 0.00D+00
 Coeff-Com: -0.704D-04 0.601D-03 0.270D-03 0.345D-02 0.275D-03-0.259D-01
 Coeff-Com: -0.235D-01 0.308D-01 0.327D+00 0.688D+00
 Coeff:     -0.704D-04 0.601D-03 0.270D-03 0.345D-02 0.275D-03-0.259D-01
 Coeff:     -0.235D-01 0.308D-01 0.327D+00 0.688D+00
 Gap=     0.235 Goal=   None    Shift=    0.000
 RMSDP=1.10D-07 MaxDP=7.62D-06 DE=-3.89D-10 OVMax= 5.05D-06

 Cycle  11  Pass 1  IDiag  1:
 RMSU=  4.59D-08    CP:  9.99D-01  9.53D-01  8.39D-01  1.29D+00  1.25D+00
                    CP:  1.55D+00  1.40D+00  1.29D+00  1.15D+00  9.96D-01
 E= -633.324377355966     Delta-E=       -0.000000000045 Rises=F Damp=F
 DIIS: error= 1.75D-07 at cycle  11 NSaved=  11.
 NSaved=11 IEnMin=11 EnMin= -633.324377355966     IErMin=11 ErrMin= 1.75D-07
 ErrMax= 1.75D-07  0.00D+00 EMaxC= 1.00D-01 BMatC= 9.79D-12 BMatP= 4.83D-11
 IDIUse=1 WtCom= 1.00D+00 WtEn= 0.00D+00
 Coeff-Com: -0.499D-04 0.751D-04-0.108D-03 0.146D-02 0.370D-02-0.262D-02
 Coeff-Com: -0.114D-01-0.515D-01 0.401D-01 0.336D+00 0.684D+00
 Coeff:     -0.499D-04 0.751D-04-0.108D-03 0.146D-02 0.370D-02-0.262D-02
 Coeff:     -0.114D-01-0.515D-01 0.401D-01 0.336D+00 0.684D+00
 Gap=     0.235 Goal=   None    Shift=    0.000
 RMSDP=3.73D-08 MaxDP=1.67D-06 DE=-4.47D-11 OVMax= 1.83D-06

 Cycle  12  Pass 1  IDiag  1:
 RMSU=  1.35D-08    CP:  9.99D-01  9.53D-01  8.39D-01  1.29D+00  1.24D+00
                    CP:  1.55D+00  1.40D+00  1.30D+00  1.18D+00  1.13D+00
                    CP:  8.92D-01
 E= -633.324377355984     Delta-E=       -0.000000000018 Rises=F Damp=F
 DIIS: error= 6.31D-08 at cycle  12 NSaved=  12.
 NSaved=12 IEnMin=12 EnMin= -633.324377355984     IErMin=12 ErrMin= 6.31D-08
 ErrMax= 6.31D-08  0.00D+00 EMaxC= 1.00D-01 BMatC= 1.30D-12 BMatP= 9.79D-12
 IDIUse=1 WtCom= 1.00D+00 WtEn= 0.00D+00
 Coeff-Com: -0.143D-04-0.310D-04-0.812D-04 0.163D-03 0.143D-02 0.226D-02
 Coeff-Com: -0.435D-03-0.259D-01-0.245D-01 0.262D-01 0.299D+00 0.722D+00
 Coeff:     -0.143D-04-0.310D-04-0.812D-04 0.163D-03 0.143D-02 0.226D-02
 Coeff:     -0.435D-03-0.259D-01-0.245D-01 0.262D-01 0.299D+00 0.722D+00
 Gap=     0.235 Goal=   None    Shift=    0.000
 RMSDP=1.51D-08 MaxDP=1.07D-06 DE=-1.78D-11 OVMax= 6.35D-07

 Cycle  13  Pass 1  IDiag  1:
 RMSU=  5.46D-09    CP:  9.99D-01  9.53D-01  8.39D-01  1.29D+00  1.24D+00
                    CP:  1.55D+00  1.40D+00  1.30D+00  1.21D+00  1.15D+00
                    CP:  1.06D+00  1.04D+00
 E= -633.324377355983     Delta-E=        0.000000000002 Rises=F Damp=F
 DIIS: error= 1.73D-08 at cycle  13 NSaved=  13.
 NSaved=13 IEnMin=12 EnMin= -633.324377355984     IErMin=13 ErrMin= 1.73D-08
 ErrMax= 1.73D-08  0.00D+00 EMaxC= 1.00D-01 BMatC= 1.89D-13 BMatP= 1.30D-12
 IDIUse=1 WtCom= 1.00D+00 WtEn= 0.00D+00
 Coeff-Com:  0.356D-06-0.231D-04-0.218D-04-0.177D-03 0.877D-04 0.122D-02
 Coeff-Com:  0.155D-02-0.477D-02-0.182D-01-0.495D-01 0.244D-01 0.322D+00
 Coeff-Com:  0.723D+00
 Coeff:      0.356D-06-0.231D-04-0.218D-04-0.177D-03 0.877D-04 0.122D-02
 Coeff:      0.155D-02-0.477D-02-0.182D-01-0.495D-01 0.244D-01 0.322D+00
 Coeff:      0.723D+00
 Gap=     0.235 Goal=   None    Shift=    0.000
 RMSDP=5.58D-09 MaxDP=2.26D-07 DE= 1.71D-12 OVMax= 3.40D-07

 Error on total polarization charges =  0.00859
 SCF Done:  E(RCAM-B3LYP) =  -633.324377356     A.U. after   13 cycles
            NFock= 13  Conv=0.56D-08     -V/T= 2.0042
 KE= 6.306835562636D+02 PE=-3.275843252242D+03 EE= 1.111981171454D+03
 Leave Link  502 at Sat Jan 24 23:34:33 2026, MaxMem=  2147483648 cpu:             824.6 elap:              52.2
 (Enter /data/home/wyx/g16/l601.exe)
 Copying SCF densities to generalized density rwf, IOpCl= 0 IROHF=0.

 **********************************************************************

            Population analysis using the SCF density.

 **********************************************************************

 Orbital symmetries:
       Occupied  (A) (A) (A) (A) (A) (A) (A) (A) (A) (A) (A) (A)
                 (A) (A) (A) (A) (A) (A) (A) (A) (A) (A) (A) (A)
                 (A) (A) (A) (A) (A) (A) (A) (A) (A) (A) (A) (A)
                 (A) (A) (A) (A) (A) (A) (A) (A) (A) (A) (A) (A)
                 (A) (A) (A) (A)
       Virtual   (A) (A) (A) (A) (A) (A) (A) (A) (A) (A) (A) (A)
                 (A) (A) (A) (A) (A) (A) (A) (A) (A) (A) (A) (A)
                 (A) (A) (A) (A) (A) (A) (A) (A) (A) (A) (A) (A)
                 (A) (A) (A) (A) (A) (A) (A) (A) (A) (A) (A) (A)
                 (A) (A) (A) (A) (A) (A) (A) (A) (A) (A) (A) (A)
                 (A) (A) (A) (A) (A) (A) (A) (A) (A) (A) (A) (A)
                 (A) (A) (A) (A) (A) (A) (A) (A) (A) (A) (A) (A)
                 (A) (A) (A) (A) (A) (A) (A) (A) (A) (A) (A) (A)
                 (A) (A) (A) (A) (A) (A) (A) (A) (A) (A) (A) (A)
                 (A) (A) (A) (A) (A) (A) (A) (A) (A) (A) (A) (A)
                 (A) (A) (A) (A) (A) (A) (A) (A) (A) (A) (A) (A)
                 (A) (A) (A) (A) (A) (A) (A) (A) (A) (A) (A) (A)
                 (A) (A) (A) (A) (A) (A) (A) (A) (A) (A) (A) (A)
                 (A) (A) (A) (A) (A) (A) (A) (A) (A) (A) (A) (A)
                 (A) (A) (A) (A) (A) (A) (A) (A) (A) (A) (A) (A)
                 (A) (A) (A) (A) (A) (A) (A) (A) (A) (A) (A) (A)
                 (A) (A) (A) (A) (A) (A) (A) (A) (A) (A) (A) (A)
                 (A) (A) (A) (A) (A) (A) (A) (A) (A) (A) (A) (A)
                 (A) (A) (A) (A) (A) (A) (A) (A) (A) (A) (A) (A)
                 (A) (A) (A) (A) (A) (A) (A) (A) (A) (A) (A) (A)
                 (A) (A) (A) (A) (A) (A) (A) (A) (A) (A) (A) (A)
                 (A) (A) (A) (A) (A) (A) (A) (A) (A) (A) (A) (A)
                 (A) (A) (A) (A) (A) (A) (A) (A) (A) (A) (A) (A)
                 (A) (A) (A) (A) (A) (A) (A) (A) (A) (A) (A) (A)
                 (A) (A) (A) (A) (A) (A) (A) (A) (A) (A) (A) (A)
                 (A) (A) (A) (A)
 The electronic state is 1-A.
 Alpha  occ. eigenvalues --  -19.18309 -19.16591 -14.44554 -10.33837 -10.32952
 Alpha  occ. eigenvalues --  -10.32631 -10.32108 -10.26155 -10.25434 -10.25318
 Alpha  occ. eigenvalues --  -10.25134 -10.24570 -10.24400 -10.23354  -1.12352
 Alpha  occ. eigenvalues --   -1.09580  -1.07965  -0.91689  -0.90779  -0.84038
 Alpha  occ. eigenvalues --   -0.82626  -0.81723  -0.78687  -0.74511  -0.71617
 Alpha  occ. eigenvalues --   -0.69215  -0.62097  -0.58653  -0.57152  -0.55443
 Alpha  occ. eigenvalues --   -0.54897  -0.54174  -0.52590  -0.52034  -0.50904
 Alpha  occ. eigenvalues --   -0.50116  -0.49298  -0.49196  -0.48483  -0.48379
 Alpha  occ. eigenvalues --   -0.46752  -0.44901  -0.44830  -0.43825  -0.43277
 Alpha  occ. eigenvalues --   -0.42781  -0.42033  -0.40853  -0.33237  -0.32681
 Alpha  occ. eigenvalues --   -0.30654  -0.26562
 Alpha virt. eigenvalues --   -0.03099   0.01855   0.06193   0.08158   0.08531
 Alpha virt. eigenvalues --    0.09835   0.10708   0.11916   0.12507   0.13468
 Alpha virt. eigenvalues --    0.13928   0.15284   0.15430   0.16626   0.16745
 Alpha virt. eigenvalues --    0.17339   0.17625   0.17893   0.18054   0.19335
 Alpha virt. eigenvalues --    0.19649   0.21076   0.22435   0.23123   0.23444
 Alpha virt. eigenvalues --    0.24253   0.24420   0.25195   0.25941   0.26169
 Alpha virt. eigenvalues --    0.27368   0.27497   0.28600   0.29748   0.29934
 Alpha virt. eigenvalues --    0.31113   0.31910   0.32385   0.33424   0.34505
 Alpha virt. eigenvalues --    0.35252   0.35604   0.36828   0.37662   0.38178
 Alpha virt. eigenvalues --    0.39350   0.40961   0.41491   0.41932   0.42757
 Alpha virt. eigenvalues --    0.43968   0.44681   0.45046   0.45959   0.46375
 Alpha virt. eigenvalues --    0.46857   0.47997   0.48236   0.48491   0.48731
 Alpha virt. eigenvalues --    0.49334   0.49881   0.50714   0.51317   0.51811
 Alpha virt. eigenvalues --    0.52238   0.52668   0.53498   0.53636   0.54250
 Alpha virt. eigenvalues --    0.54524   0.55307   0.55672   0.56615   0.57865
 Alpha virt. eigenvalues --    0.58381   0.59077   0.59745   0.61220   0.61996
 Alpha virt. eigenvalues --    0.63689   0.64964   0.65931   0.66758   0.67682
 Alpha virt. eigenvalues --    0.69539   0.70684   0.71021   0.71643   0.72479
 Alpha virt. eigenvalues --    0.73249   0.74557   0.74968   0.76457   0.78294
 Alpha virt. eigenvalues --    0.79098   0.80060   0.81441   0.84448   0.85904
 Alpha virt. eigenvalues --    0.87852   0.89502   0.96021   1.00547   1.23900
 Alpha virt. eigenvalues --    1.24756   1.26864   1.28203   1.29729   1.30699
 Alpha virt. eigenvalues --    1.32310   1.32874   1.33817   1.35674   1.35913
 Alpha virt. eigenvalues --    1.37263   1.37487   1.38371   1.39142   1.39541
 Alpha virt. eigenvalues --    1.39891   1.40785   1.40988   1.41710   1.41931
 Alpha virt. eigenvalues --    1.42773   1.43846   1.44227   1.44910   1.46960
 Alpha virt. eigenvalues --    1.47691   1.49134   1.49523   1.50478   1.51375
 Alpha virt. eigenvalues --    1.51660   1.52539   1.53074   1.55448   1.57125
 Alpha virt. eigenvalues --    1.58327   1.60223   1.60313   1.61276   1.61931
 Alpha virt. eigenvalues --    1.62632   1.63046   1.64273   1.65757   1.66100
 Alpha virt. eigenvalues --    1.66251   1.66983   1.67561   1.68296   1.68819
 Alpha virt. eigenvalues --    1.69084   1.70212   1.71098   1.72072   1.73150
 Alpha virt. eigenvalues --    1.73625   1.74269   1.75989   1.76799   1.79551
 Alpha virt. eigenvalues --    1.80549   1.82726   1.84180   1.85233   1.86155
 Alpha virt. eigenvalues --    1.86900   1.87278   1.88225   1.89271   1.89856
 Alpha virt. eigenvalues --    1.91130   1.93515   1.96066   1.98095   2.00610
 Alpha virt. eigenvalues --    2.01297   2.03939   2.04956   2.06648   2.09358
 Alpha virt. eigenvalues --    2.10731   2.13880   2.14137   2.18149   2.19603
 Alpha virt. eigenvalues --    2.20721   2.22324   2.22525   2.23878   2.25289
 Alpha virt. eigenvalues --    2.27270   2.28401   2.29431   2.31196   2.32025
 Alpha virt. eigenvalues --    2.33980   2.34465   2.36030   2.37306   2.38714
 Alpha virt. eigenvalues --    2.39971   2.40697   2.41184   2.44232   2.44583
 Alpha virt. eigenvalues --    2.45279   2.47809   2.48862   2.50119   2.51413
 Alpha virt. eigenvalues --    2.52454   2.53121   2.54282   2.56048   2.57677
 Alpha virt. eigenvalues --    2.58252   2.59762   2.60915   2.61448   2.63287
 Alpha virt. eigenvalues --    2.63605   2.66264   2.66482   2.67538   2.68466
 Alpha virt. eigenvalues --    2.70150   2.72045   2.72783   2.73413   2.74951
 Alpha virt. eigenvalues --    2.76144   2.76729   2.77541   2.77877   2.79424
 Alpha virt. eigenvalues --    2.79896   2.81054   2.83072   2.84635   2.84885
 Alpha virt. eigenvalues --    2.85756   2.86618   2.87969   2.89491   2.92762
 Alpha virt. eigenvalues --    2.97441   2.98768   2.99346   3.04462   3.09521
 Alpha virt. eigenvalues --    3.09896   3.11608   3.13268   3.18182   3.19554
 Alpha virt. eigenvalues --    3.21282   3.22915   3.23489   3.24651   3.25716
 Alpha virt. eigenvalues --    3.26753   3.29433   3.32099   3.35097   3.36876
 Alpha virt. eigenvalues --    3.38589   3.39206   3.40125   3.40720   3.41407
 Alpha virt. eigenvalues --    3.42204   3.44020   3.45226   3.46727   3.49667
 Alpha virt. eigenvalues --    3.49931   3.51018   3.53965   3.57502   3.58848
 Alpha virt. eigenvalues --    3.60412   3.90479   3.99285   4.32421   4.34494
 Alpha virt. eigenvalues --   21.63374  21.76965  22.06439  22.10052  22.11255
 Alpha virt. eigenvalues --   22.12884  22.15427  22.18007  22.20722  22.25710
 Alpha virt. eigenvalues --   22.30802  31.92938  43.62927  43.65532
          Condensed to atoms (all electrons):
               1          2          3          4          5          6
     1  O    7.952931   0.000000  -0.000232   0.000017   0.016511   0.016384
     2  O    0.000000   8.025604   0.000614   0.000043  -0.180464   0.001272
     3  N   -0.000232   0.000614   6.385998   0.374416  -0.110032   0.358875
     4  H    0.000017   0.000043   0.374416   0.396910   0.012643  -0.043622
     5  C    0.016511  -0.180464  -0.110032   0.012643   7.072779  -0.051194
     6  C    0.016384   0.001272   0.358875  -0.043622  -0.051194   5.618236
     7  C   -0.000213  -0.016373   0.359722  -0.043149   0.369659  -0.125612
     8  C   -0.000298   0.653470   0.004799  -0.000794  -0.355599   0.038969
     9  C   -0.019181   0.019919   0.019656   0.000210  -0.607523  -0.097796
    10  H    0.004190   0.000050   0.003033   0.000028  -0.025266  -0.009250
    11  H    0.013940  -0.000201  -0.001400   0.000004  -0.118435   0.023721
    12  C   -0.234747  -0.002745  -0.101627   0.016466   0.182573  -0.184418
    13  C    0.726367  -0.000009   0.000302   0.000437   0.069734   0.151695
    14  C   -0.000010  -0.045795  -0.045566  -0.001107  -0.030599  -0.003107
    15  H    0.000000   0.004755   0.003914   0.000073   0.009912   0.005191
    16  H   -0.000000   0.000560  -0.003694   0.000636  -0.013489  -0.000650
    17  H    0.000000   0.016799   0.003681   0.000702  -0.001334  -0.000410
    18  C   -0.000225  -0.101937  -0.000312   0.000022  -0.197585  -0.001501
    19  H   -0.000003   0.005021   0.000005  -0.000001   0.011930   0.000041
    20  H    0.000016  -0.000429   0.000014  -0.000001  -0.010228   0.000195
    21  H    0.000334   0.006072   0.000106   0.000000   0.070205  -0.001509
    22  C   -0.114061   0.000000   0.000108   0.000109   0.002386  -0.009915
    23  H    0.004399  -0.000000  -0.000007  -0.000051  -0.000449  -0.031355
    24  H    0.001745   0.000000   0.000019  -0.000017  -0.000074   0.010856
    25  H    0.009093   0.000000   0.000027  -0.000002  -0.000118  -0.001251
    26  C    0.000913   0.000005  -0.029408  -0.008149   0.000561   0.184811
    27  H   -0.000171  -0.000000   0.001981   0.000893   0.000068  -0.040379
    28  H   -0.000037   0.000000  -0.002878   0.000492   0.000447  -0.036140
    29  H    0.000022  -0.000000   0.001807   0.001414  -0.000470  -0.051633
               7          8          9         10         11         12
     1  O   -0.000213  -0.000298  -0.019181   0.004190   0.013940  -0.234747
     2  O   -0.016373   0.653470   0.019919   0.000050  -0.000201  -0.002745
     3  N    0.359722   0.004799   0.019656   0.003033  -0.001400  -0.101627
     4  H   -0.043149  -0.000794   0.000210   0.000028   0.000004   0.016466
     5  C    0.369659  -0.355599  -0.607523  -0.025266  -0.118435   0.182573
     6  C   -0.125612   0.038969  -0.097796  -0.009250   0.023721  -0.184418
     7  C    5.477502  -0.228390  -0.209390  -0.005647   0.016837   0.033420
     8  C   -0.228390   5.547274   0.155442  -0.001576  -0.004898  -0.064848
     9  C   -0.209390   0.155442   6.443205   0.393000   0.543855  -0.115798
    10  H   -0.005647  -0.001576   0.393000   0.550139  -0.035159  -0.022173
    11  H    0.016837  -0.004898   0.543855  -0.035159   0.500250  -0.104412
    12  C    0.033420  -0.064848  -0.115798  -0.022173  -0.104412   7.463533
    13  C    0.018778  -0.008308  -0.256804  -0.003900  -0.000543  -0.446390
    14  C    0.220187  -0.064363   0.017288  -0.001371   0.000409   0.000631
    15  H   -0.067467   0.006062  -0.001021   0.000131  -0.000006  -0.000756
    16  H   -0.013292   0.004124  -0.000107  -0.000045   0.000052   0.000001
    17  H   -0.037414  -0.016844   0.000914   0.000108  -0.000059  -0.000261
    18  C    0.013774   0.315204  -0.000270  -0.009561  -0.001818   0.006809
    19  H    0.000057  -0.036427  -0.001606   0.000277   0.000485  -0.000256
    20  H   -0.000903  -0.007467  -0.002844   0.000477  -0.000492  -0.002201
    21  H    0.003983  -0.114227  -0.015425   0.000110  -0.006218   0.007223
    22  C    0.000535  -0.000034   0.007795   0.001487   0.000663  -0.277448
    23  H   -0.000005  -0.000004   0.002917  -0.000141  -0.000031   0.059239
    24  H   -0.000018   0.000003  -0.002101   0.000164  -0.000115  -0.006613
    25  H    0.000012   0.000002  -0.000044  -0.000048  -0.000106   0.026650
    26  C    0.002357   0.000692   0.021322  -0.000493   0.000023  -0.078192
    27  H   -0.000643  -0.000004  -0.000999  -0.000067   0.000009  -0.005519
    28  H   -0.001123  -0.000012  -0.000211  -0.000016   0.000047  -0.019593
    29  H    0.003456   0.000003  -0.000533   0.000067  -0.000007   0.024060
              13         14         15         16         17         18
     1  O    0.726367  -0.000010   0.000000  -0.000000   0.000000  -0.000225
     2  O   -0.000009  -0.045795   0.004755   0.000560   0.016799  -0.101937
     3  N    0.000302  -0.045566   0.003914  -0.003694   0.003681  -0.000312
     4  H    0.000437  -0.001107   0.000073   0.000636   0.000702   0.000022
     5  C    0.069734  -0.030599   0.009912  -0.013489  -0.001334  -0.197585
     6  C    0.151695  -0.003107   0.005191  -0.000650  -0.000410  -0.001501
     7  C    0.018778   0.220187  -0.067467  -0.013292  -0.037414   0.013774
     8  C   -0.008308  -0.064363   0.006062   0.004124  -0.016844   0.315204
     9  C   -0.256804   0.017288  -0.001021  -0.000107   0.000914  -0.000270
    10  H   -0.003900  -0.001371   0.000131  -0.000045   0.000108  -0.009561
    11  H   -0.000543   0.000409  -0.000006   0.000052  -0.000059  -0.001818
    12  C   -0.446390   0.000631  -0.000756   0.000001  -0.000261   0.006809
    13  C    5.501977  -0.000064  -0.000014  -0.000026   0.000002   0.000964
    14  C   -0.000064   5.211023   0.385475   0.396674   0.420492   0.000109
    15  H   -0.000014   0.385475   0.575465  -0.029996  -0.027150   0.000197
    16  H   -0.000026   0.396674  -0.029996   0.506279  -0.017536  -0.000004
    17  H    0.000002   0.420492  -0.027150  -0.017536   0.468080   0.000599
    18  C    0.000964   0.000109   0.000197  -0.000004   0.000599   5.247238
    19  H   -0.000018  -0.000049  -0.000002  -0.000010   0.000092   0.401278
    20  H   -0.000090  -0.000298  -0.000005   0.000015   0.000024   0.388574
    21  H    0.001277   0.000320  -0.000022  -0.000001  -0.000107   0.400222
    22  C    0.305143   0.000001   0.000003  -0.000002   0.000000   0.000023
    23  H   -0.083360   0.000001  -0.000000   0.000000   0.000000   0.000002
    24  H   -0.028910  -0.000001   0.000000   0.000000   0.000000  -0.000001
    25  H   -0.045924   0.000001   0.000000  -0.000000  -0.000000  -0.000000
    26  C   -0.055967   0.000929  -0.000246  -0.000068   0.000026  -0.000008
    27  H   -0.006510   0.000083  -0.000014   0.000004  -0.000002   0.000000
    28  H    0.006534  -0.000072   0.000014  -0.000017   0.000002  -0.000001
    29  H   -0.000314  -0.000102   0.000080   0.000004   0.000001   0.000000
              19         20         21         22         23         24
     1  O   -0.000003   0.000016   0.000334  -0.114061   0.004399   0.001745
     2  O    0.005021  -0.000429   0.006072   0.000000  -0.000000   0.000000
     3  N    0.000005   0.000014   0.000106   0.000108  -0.000007   0.000019
     4  H   -0.000001  -0.000001   0.000000   0.000109  -0.000051  -0.000017
     5  C    0.011930  -0.010228   0.070205   0.002386  -0.000449  -0.000074
     6  C    0.000041   0.000195  -0.001509  -0.009915  -0.031355   0.010856
     7  C    0.000057  -0.000903   0.003983   0.000535  -0.000005  -0.000018
     8  C   -0.036427  -0.007467  -0.114227  -0.000034  -0.000004   0.000003
     9  C   -0.001606  -0.002844  -0.015425   0.007795   0.002917  -0.002101
    10  H    0.000277   0.000477   0.000110   0.001487  -0.000141   0.000164
    11  H    0.000485  -0.000492  -0.006218   0.000663  -0.000031  -0.000115
    12  C   -0.000256  -0.002201   0.007223  -0.277448   0.059239  -0.006613
    13  C   -0.000018  -0.000090   0.001277   0.305143  -0.083360  -0.028910
    14  C   -0.000049  -0.000298   0.000320   0.000001   0.000001  -0.000001
    15  H   -0.000002  -0.000005  -0.000022   0.000003  -0.000000   0.000000
    16  H   -0.000010   0.000015  -0.000001  -0.000002   0.000000   0.000000
    17  H    0.000092   0.000024  -0.000107   0.000000   0.000000   0.000000
    18  C    0.401278   0.388574   0.400222   0.000023   0.000002  -0.000001
    19  H    0.493492  -0.009870  -0.029217  -0.000000   0.000000   0.000000
    20  H   -0.009870   0.495977  -0.021938  -0.000004  -0.000000   0.000000
    21  H   -0.029217  -0.021938   0.547424   0.000031  -0.000000  -0.000000
    22  C   -0.000000  -0.000004   0.000031   5.430741   0.392927   0.402934
    23  H    0.000000  -0.000000  -0.000000   0.392927   0.540616  -0.027780
    24  H    0.000000   0.000000  -0.000000   0.402934  -0.027780   0.493295
    25  H   -0.000000  -0.000000  -0.000000   0.383016  -0.021347  -0.007844
    26  C    0.000000   0.000002  -0.000015  -0.034409   0.018322  -0.015692
    27  H   -0.000000   0.000000  -0.000000   0.010871  -0.009649  -0.001137
    28  H    0.000000  -0.000000  -0.000000  -0.012409  -0.001724   0.001401
    29  H    0.000000  -0.000000   0.000000   0.001843   0.000728   0.000202
              25         26         27         28         29
     1  O    0.009093   0.000913  -0.000171  -0.000037   0.000022
     2  O    0.000000   0.000005  -0.000000   0.000000  -0.000000
     3  N    0.000027  -0.029408   0.001981  -0.002878   0.001807
     4  H   -0.000002  -0.008149   0.000893   0.000492   0.001414
     5  C   -0.000118   0.000561   0.000068   0.000447  -0.000470
     6  C   -0.001251   0.184811  -0.040379  -0.036140  -0.051633
     7  C    0.000012   0.002357  -0.000643  -0.001123   0.003456
     8  C    0.000002   0.000692  -0.000004  -0.000012   0.000003
     9  C   -0.000044   0.021322  -0.000999  -0.000211  -0.000533
    10  H   -0.000048  -0.000493  -0.000067  -0.000016   0.000067
    11  H   -0.000106   0.000023   0.000009   0.000047  -0.000007
    12  C    0.026650  -0.078192  -0.005519  -0.019593   0.024060
    13  C   -0.045924  -0.055967  -0.006510   0.006534  -0.000314
    14  C    0.000001   0.000929   0.000083  -0.000072  -0.000102
    15  H    0.000000  -0.000246  -0.000014   0.000014   0.000080
    16  H   -0.000000  -0.000068   0.000004  -0.000017   0.000004
    17  H   -0.000000   0.000026  -0.000002   0.000002   0.000001
    18  C   -0.000000  -0.000008   0.000000  -0.000001   0.000000
    19  H   -0.000000   0.000000  -0.000000   0.000000   0.000000
    20  H   -0.000000   0.000002   0.000000  -0.000000  -0.000000
    21  H   -0.000000  -0.000015  -0.000000  -0.000000   0.000000
    22  C    0.383016  -0.034409   0.010871  -0.012409   0.001843
    23  H   -0.021347   0.018322  -0.009649  -0.001724   0.000728
    24  H   -0.007844  -0.015692  -0.001137   0.001401   0.000202
    25  H    0.497375   0.001863   0.000806   0.000105  -0.000047
    26  C    0.001863   5.253353   0.419385   0.433936   0.390062
    27  H    0.000806   0.419385   0.512202  -0.026588  -0.025964
    28  H    0.000105   0.433936  -0.026588   0.474318  -0.016301
    29  H   -0.000047   0.390062  -0.025964  -0.016301   0.515502
 Mulliken charges:
               1
     1  O   -0.377686
     2  O   -0.386231
     3  N   -0.223922
     4  H    0.291377
     5  C   -0.116551
     6  C    0.279495
     7  C    0.229359
     8  C    0.178048
     9  C   -0.293871
    10  H    0.161454
    11  H    0.173607
    12  C   -0.152608
    13  C    0.153940
    14  C   -0.461117
    15  H    0.135430
    16  H    0.170588
    17  H    0.189593
    18  C   -0.461793
    19  H    0.164781
    20  H    0.171477
    21  H    0.151373
    22  C   -0.492333
    23  H    0.156753
    24  H    0.179685
    25  H    0.157781
    26  C   -0.505916
    27  H    0.171343
    28  H    0.199825
    29  H    0.156119
 Sum of Mulliken charges =  -0.00000
 Mulliken charges with hydrogens summed into heavy atoms:
               1
     1  O   -0.377686
     2  O   -0.386231
     3  N    0.067455
     5  C   -0.116551
     6  C    0.279495
     7  C    0.229359
     8  C    0.178048
     9  C    0.041189
    12  C   -0.152608
    13  C    0.153940
    14  C    0.034494
    18  C    0.025838
    22  C    0.001887
    26  C    0.021371
 Electronic spatial extent (au):  <R**2>=           3207.5506
 Charge=              0.0000 electrons
 Dipole moment (field-independent basis, Debye):
    X=             -3.7415    Y=              7.4717    Z=             -0.2461  Tot=              8.3597
 Quadrupole moment (field-independent basis, Debye-Ang):
   XX=            -97.0142   YY=            -78.5158   ZZ=            -84.7207
   XY=            -13.6915   XZ=             -3.9902   YZ=             -1.1272
 Traceless Quadrupole moment (field-independent basis, Debye-Ang):
   XX=            -10.2639   YY=              8.2344   ZZ=              2.0295
   XY=            -13.6915   XZ=             -3.9902   YZ=             -1.1272
 Octapole moment (field-independent basis, Debye-Ang**2):
  XXX=           -106.4418  YYY=             64.4143  ZZZ=              2.3304  XYY=             38.4605
  XXY=             28.8695  XXZ=             -8.9608  XZZ=             -1.7996  YZZ=             -0.9771
  YYZ=              2.3967  XYZ=              3.4330
 Hexadecapole moment (field-independent basis, Debye-Ang**3):
 XXXX=          -3067.9412 YYYY=          -1273.8065 ZZZZ=           -141.5635 XXXY=            -49.7988
 XXXZ=            -52.8116 YYYX=            -97.0415 YYYZ=            -17.6653 ZZZX=              4.0420
 ZZZY=              3.7607 XXYY=           -684.6144 XXZZ=           -487.1187 YYZZ=           -237.1455
 XXYZ=             -2.4201 YYXZ=             -4.1781 ZZXY=             -0.9576
 N-N= 8.998541471682D+02 E-N=-3.275843250058D+03  KE= 6.306835562636D+02
 No NMR shielding tensors so no spin-rotation constants.
 Leave Link  601 at Sat Jan 24 23:34:33 2026, MaxMem=  2147483648 cpu:               1.8 elap:               0.1
 (Enter /data/home/wyx/g16/l9999.exe)
 1\1\GINC-CN015\SP\RCAM-B3LYP\TZVP\C11H15N1O2\WYX\24-Jan-2026\0\\#p CAM
 -B3LYP TZVP em=gd3bj scrf=(Solvent=Water,NonEquilibrium=Read) Geom=Che
 ck Guess=Read\\Title Card Required\\0,1\O,0,2.756746,-1.557378,0.70197
 6\O,0,-3.30744,-1.656124,-0.946491\N,0,-0.682759,1.521332,0.031125\H,0
 ,-0.989931,2.47726,-0.042394\C,0,-1.241283,-0.763631,-0.162046\C,0,0.6
 55073,1.307875,0.219942\C,0,-1.610605,0.539222,-0.256069\C,0,-2.153035
 ,-1.824784,-0.473362\C,0,0.136705,-1.118768,0.341052\H,0,0.077853,-1.5
 14042,1.362311\H,0,0.555522,-1.926574,-0.257988\C,0,1.112451,0.034591,
 0.31704\C,0,2.501375,-0.376564,0.467518\C,0,-2.941274,1.072502,-0.6464
 17\H,0,-3.195221,1.971588,-0.079476\H,0,-2.973242,1.333794,-1.706352\H
 ,0,-3.756829,0.371028,-0.485348\C,0,-1.787081,-3.257683,-0.232463\H,0,
 -2.64252,-3.886944,0.015502\H,0,-1.328318,-3.695054,-1.12443\H,0,-1.06
 5946,-3.395071,0.572529\C,0,3.663169,0.573483,0.316305\H,0,3.547442,1.
 261102,-0.517298\H,0,3.798262,1.16259,1.224472\H,0,4.556899,-0.027825,
 0.168583\C,0,1.433769,2.586103,0.28769\H,0,2.202954,2.562417,1.050937\
 H,0,1.906876,2.808164,-0.669311\H,0,0.77039,3.417389,0.522464\\Version
 =ES64L-G16RevA.03\State=1-A\HF=-633.3243774\RMSD=5.581e-09\Dipole=0.34
 93607,3.2684451,0.1119566\Quadrupole=-10.9007063,11.0734626,-0.1727563
 ,3.245156,-5.5492662,0.2280951\PG=C01 [X(C11H15N1O2)]\\@


 EDUCATION DOESN'T COST 
           ... IT PAYS!

 -- POSTMARK, UNIV. OF MISSISSIPPI, DEC 78
 Job cpu time:       0 days  0 hours 13 minutes 54.9 seconds.
 Elapsed time:       0 days  0 hours  0 minutes 53.1 seconds.
 File lengths (MBytes):  RWF=    339 Int=      0 D2E=      0 Chk=     67 Scr=      1
 Normal termination of Gaussian 16 at Sat Jan 24 23:34:35 2026.
