 Entering Gaussian System, Link 0=g16
 Input=DDL-S1-cLR-gs-9.gjf
 Output=DDL-S1-cLR-gs-9.log
 Initial command:
 /data/home/wyx/g16/l1.exe "/scr/tmp/wyx/13119/Gau-1529816.inp" -scrdir="/scr/tmp/wyx/13119/"
 Entering Link 1 = /data/home/wyx/g16/l1.exe PID=   1529817.
  
 Copyright (c) 1988,1990,1992,1993,1995,1998,2003,2009,2016,
            Gaussian, Inc.  All Rights Reserved.
  
 This is part of the Gaussian(R) 16 program.  It is based on
 the Gaussian(R) 09 system (copyright 2009, Gaussian, Inc.),
 the Gaussian(R) 03 system (copyright 2003, Gaussian, Inc.),
 the Gaussian(R) 98 system (copyright 1998, Gaussian, Inc.),
 the Gaussian(R) 94 system (copyright 1995, Gaussian, Inc.),
 the Gaussian 92(TM) system (copyright 1992, Gaussian, Inc.),
 the Gaussian 90(TM) system (copyright 1990, Gaussian, Inc.),
 the Gaussian 88(TM) system (copyright 1988, Gaussian, Inc.),
 the Gaussian 86(TM) system (copyright 1986, Carnegie Mellon
 University), and the Gaussian 82(TM) system (copyright 1983,
 Carnegie Mellon University). Gaussian is a federally registered
 trademark of Gaussian, Inc.
  
 This software contains proprietary and confidential information,
 including trade secrets, belonging to Gaussian, Inc.
  
 This software is provided under written license and may be
 used, copied, transmitted, or stored only in accord with that
 written license.
  
 The following legend is applicable only to US Government
 contracts under FAR:
  
                    RESTRICTED RIGHTS LEGEND
  
 Use, reproduction and disclosure by the US Government is
 subject to restrictions as set forth in subparagraphs (a)
 and (c) of the Commercial Computer Software - Restricted
 Rights clause in FAR 52.227-19.
  
 Gaussian, Inc.
 340 Quinnipiac St., Bldg. 40, Wallingford CT 06492
  
  
 ---------------------------------------------------------------
 Warning -- This program may not be used in any manner that
 competes with the business of Gaussian, Inc. or will provide
 assistance to any competitor of Gaussian, Inc.  The licensee
 of this program is prohibited from giving any competitor of
 Gaussian, Inc. access to this program.  By using this program,
 the user acknowledges that Gaussian, Inc. is engaged in the
 business of creating and licensing software in the field of
 computational chemistry and represents and warrants to the
 licensee that it is not a competitor of Gaussian, Inc. and that
 it will not use this program in any manner prohibited above.
 ---------------------------------------------------------------
  

 Cite this work as:
 Gaussian 16, Revision A.03,
 M. J. Frisch, G. W. Trucks, H. B. Schlegel, G. E. Scuseria, 
 M. A. Robb, J. R. Cheeseman, G. Scalmani, V. Barone, 
 G. A. Petersson, H. Nakatsuji, X. Li, M. Caricato, A. V. Marenich, 
 J. Bloino, B. G. Janesko, R. Gomperts, B. Mennucci, H. P. Hratchian, 
 J. V. Ortiz, A. F. Izmaylov, J. L. Sonnenberg, D. Williams-Young, 
 F. Ding, F. Lipparini, F. Egidi, J. Goings, B. Peng, A. Petrone, 
 T. Henderson, D. Ranasinghe, V. G. Zakrzewski, J. Gao, N. Rega, 
 G. Zheng, W. Liang, M. Hada, M. Ehara, K. Toyota, R. Fukuda, 
 J. Hasegawa, M. Ishida, T. Nakajima, Y. Honda, O. Kitao, H. Nakai, 
 T. Vreven, K. Throssell, J. A. Montgomery, Jr., J. E. Peralta, 
 F. Ogliaro, M. J. Bearpark, J. J. Heyd, E. N. Brothers, K. N. Kudin, 
 V. N. Staroverov, T. A. Keith, R. Kobayashi, J. Normand, 
 K. Raghavachari, A. P. Rendell, J. C. Burant, S. S. Iyengar, 
 J. Tomasi, M. Cossi, J. M. Millam, M. Klene, C. Adamo, R. Cammi, 
 J. W. Ochterski, R. L. Martin, K. Morokuma, O. Farkas, 
 J. B. Foresman, and D. J. Fox, Gaussian, Inc., Wallingford CT, 2016.
 
 ******************************************
 Gaussian 16:  ES64L-G16RevA.03 25-Dec-2016
                24-Jan-2026 
 ******************************************
 %nprocshared=16
 Will use up to   16 processors via shared memory.
 %mem=16GB
 %oldchk=DDL-S1-cLR-9.chk
 %chk=DDL-S1-cLR-gs-9.chk
 Copying data from "DDL-S1-cLR-9.chk" to current chk file "DDL-S1-cLR-gs-9.chk"
 IOpt=  2 FromEx=T IUOpen= 4 IOptOp= 5 NList=   0 IFRang= 0 IUIn= 4 IUOut= 2.
 ----------------------------------------------------------------------
 #p CAM-B3LYP TZVP em=gd3bj scrf=(Solvent=Water,NonEquilibrium=Read) Ge
 om=Check Guess=Read
 ----------------------------------------------------------------------
 1/29=2,38=1,172=1/1;
 2/12=2,40=1/2;
 3/5=19,7=101,11=2,14=-4,25=1,30=1,70=6002201,72=1,74=-40,116=-2,124=41/1,2,3;
 4/5=1/1;
 5/5=2,38=6,53=1/2;
 6/7=2,8=2,9=2,10=2,28=1/1;
 99/5=1,9=1/99;
 Leave Link    1 at Sat Jan 24 23:32:42 2026, MaxMem=  2147483648 cpu:               0.8 elap:               0.2
 (Enter /data/home/wyx/g16/l101.exe)
 -------------------
 Title Card Required
 -------------------
 Structure from the checkpoint file:  "DDL-S1-cLR-gs-9.chk"
 Charge =  0 Multiplicity = 1
 Z-Matrix found in chk file.
 O,0,2.756746,-1.557378,0.701976
 O,0,-3.30744,-1.656124,-0.946491
 N,0,-0.682759,1.521332,0.031125
 H,0,-0.989931,2.47726,-0.042394
 C,0,-1.241283,-0.763631,-0.162046
 C,0,0.655073,1.307875,0.219942
 C,0,-1.610605,0.539222,-0.256069
 C,0,-2.153035,-1.824784,-0.473362
 C,0,0.136705,-1.118768,0.341052
 H,0,0.077853,-1.514042,1.362311
 H,0,0.555522,-1.926574,-0.257988
 C,0,1.112451,0.034591,0.31704
 C,0,2.501375,-0.376564,0.467518
 C,0,-2.941274,1.072502,-0.646417
 H,0,-3.195221,1.971588,-0.079476
 H,0,-2.973242,1.333794,-1.706352
 H,0,-3.756829,0.371028,-0.485348
 C,0,-1.787081,-3.257683,-0.232463
 H,0,-2.64252,-3.886944,0.015502
 H,0,-1.328318,-3.695054,-1.12443
 H,0,-1.065946,-3.395071,0.572529
 C,0,3.663169,0.573483,0.316305
 H,0,3.547442,1.261102,-0.517298
 H,0,3.798262,1.16259,1.224472
 H,0,4.556899,-0.027825,0.168583
 C,0,1.433769,2.586103,0.28769
 H,0,2.202954,2.562417,1.050937
 H,0,1.906876,2.808164,-0.669311
 H,0,0.77039,3.417389,0.522464
 Recover connectivity data from disk.
 ITRead=  0  0  0  0  0  0  0  0  0  0  0  0  0  0  0  0  0  0  0  0
 ITRead=  0  0  0  0  0  0  0  0  0
 MicOpt= -1 -1 -1 -1 -1 -1 -1 -1 -1 -1 -1 -1 -1 -1 -1 -1 -1 -1 -1 -1
 MicOpt= -1 -1 -1 -1 -1 -1 -1 -1 -1
 NAtoms=     29 NQM=       29 NQMF=       0 NMMI=      0 NMMIF=      0
                NMic=       0 NMicF=      0.
                    Isotopes and Nuclear Properties:
 (Nuclear quadrupole moments (NQMom) in fm**2, nuclear magnetic moments (NMagM)
  in nuclear magnetons)

  Atom         1           2           3           4           5           6           7           8           9          10
 IAtWgt=          16          16          14           1          12          12          12          12          12           1
 AtmWgt=  15.9949146  15.9949146  14.0030740   1.0078250  12.0000000  12.0000000  12.0000000  12.0000000  12.0000000   1.0078250
 NucSpn=           0           0           2           1           0           0           0           0           0           1
 AtZEff=   5.6000000   5.6000000   4.5500000   1.0000000   3.6000000   3.6000000   3.6000000   3.6000000   3.6000000   1.0000000
 NQMom=    0.0000000   0.0000000   2.0440000   0.0000000   0.0000000   0.0000000   0.0000000   0.0000000   0.0000000   0.0000000
 NMagM=    0.0000000   0.0000000   0.4037610   2.7928460   0.0000000   0.0000000   0.0000000   0.0000000   0.0000000   2.7928460
 AtZNuc=   8.0000000   8.0000000   7.0000000   1.0000000   6.0000000   6.0000000   6.0000000   6.0000000   6.0000000   1.0000000

  Atom        11          12          13          14          15          16          17          18          19          20
 IAtWgt=           1          12          12          12           1           1           1          12           1           1
 AtmWgt=   1.0078250  12.0000000  12.0000000  12.0000000   1.0078250   1.0078250   1.0078250  12.0000000   1.0078250   1.0078250
 NucSpn=           1           0           0           0           1           1           1           0           1           1
 AtZEff=   1.0000000   3.6000000   3.6000000   3.6000000   1.0000000   1.0000000   1.0000000   3.6000000   1.0000000   1.0000000
 NQMom=    0.0000000   0.0000000   0.0000000   0.0000000   0.0000000   0.0000000   0.0000000   0.0000000   0.0000000   0.0000000
 NMagM=    2.7928460   0.0000000   0.0000000   0.0000000   2.7928460   2.7928460   2.7928460   0.0000000   2.7928460   2.7928460
 AtZNuc=   1.0000000   6.0000000   6.0000000   6.0000000   1.0000000   1.0000000   1.0000000   6.0000000   1.0000000   1.0000000

  Atom        21          22          23          24          25          26          27          28          29
 IAtWgt=           1          12           1           1           1          12           1           1           1
 AtmWgt=   1.0078250  12.0000000   1.0078250   1.0078250   1.0078250  12.0000000   1.0078250   1.0078250   1.0078250
 NucSpn=           1           0           1           1           1           0           1           1           1
 AtZEff=   1.0000000   3.6000000   1.0000000   1.0000000   1.0000000   3.6000000   1.0000000   1.0000000   1.0000000
 NQMom=    0.0000000   0.0000000   0.0000000   0.0000000   0.0000000   0.0000000   0.0000000   0.0000000   0.0000000
 NMagM=    2.7928460   0.0000000   2.7928460   2.7928460   2.7928460   0.0000000   2.7928460   2.7928460   2.7928460
 AtZNuc=   1.0000000   6.0000000   1.0000000   1.0000000   1.0000000   6.0000000   1.0000000   1.0000000   1.0000000
 Leave Link  101 at Sat Jan 24 23:32:45 2026, MaxMem=  2147483648 cpu:               0.9 elap:               0.1
 (Enter /data/home/wyx/g16/l202.exe)
                          Input orientation:                          
 ---------------------------------------------------------------------
 Center     Atomic      Atomic             Coordinates (Angstroms)
 Number     Number       Type             X           Y           Z
 ---------------------------------------------------------------------
      1          8           0        2.756746   -1.557378    0.701976
      2          8           0       -3.307440   -1.656124   -0.946491
      3          7           0       -0.682759    1.521332    0.031125
      4          1           0       -0.989931    2.477260   -0.042394
      5          6           0       -1.241283   -0.763631   -0.162046
      6          6           0        0.655073    1.307875    0.219942
      7          6           0       -1.610605    0.539222   -0.256069
      8          6           0       -2.153035   -1.824784   -0.473362
      9          6           0        0.136705   -1.118768    0.341052
     10          1           0        0.077853   -1.514042    1.362311
     11          1           0        0.555522   -1.926574   -0.257988
     12          6           0        1.112451    0.034591    0.317040
     13          6           0        2.501375   -0.376564    0.467518
     14          6           0       -2.941274    1.072502   -0.646417
     15          1           0       -3.195221    1.971588   -0.079476
     16          1           0       -2.973242    1.333794   -1.706352
     17          1           0       -3.756829    0.371028   -0.485348
     18          6           0       -1.787081   -3.257683   -0.232463
     19          1           0       -2.642520   -3.886944    0.015502
     20          1           0       -1.328318   -3.695054   -1.124430
     21          1           0       -1.065946   -3.395071    0.572529
     22          6           0        3.663169    0.573483    0.316305
     23          1           0        3.547442    1.261102   -0.517298
     24          1           0        3.798262    1.162590    1.224472
     25          1           0        4.556899   -0.027825    0.168583
     26          6           0        1.433769    2.586103    0.287690
     27          1           0        2.202954    2.562417    1.050937
     28          1           0        1.906876    2.808164   -0.669311
     29          1           0        0.770390    3.417389    0.522464
 ---------------------------------------------------------------------
                    Distance matrix (angstroms):
                    1          2          3          4          5
     1  O    0.000000
     2  O    6.285026   0.000000
     3  N    4.664621   4.235671   0.000000
     4  H    5.556076   4.824220   1.006756   0.000000
     5  C    4.166630   2.383464   2.360153   3.252825   0.000000
     6  C    3.585953   5.084030   1.367849   2.035269   2.834293
     7  C    4.938354   2.859279   1.381274   2.046188   1.357448
     8  C    5.055579   1.258947   3.689541   4.477290   1.433267
     9  C    2.680907   3.716000   2.781673   3.787843   1.509331
    10  H    2.759418   4.100117   3.400600   4.363926   2.151023
    11  H    2.429655   3.933148   3.674913   4.672115   2.142463
    12  C    2.320829   4.898006   2.348388   3.242813   2.531155
    13  C    1.230653   6.113839   3.732447   4.538010   3.814926
    14  C    6.418868   2.769390   2.400292   2.479098   2.548719
    15  H    6.963489   3.731568   2.554883   2.262826   3.362457
    16  H    6.855048   3.103013   2.881026   2.830158   3.127899
    17  H    6.896024   2.126958   3.322627   3.505445   2.778479
    18  C    4.940706   2.320844   4.912025   5.793198   2.554046
    19  H    5.920321   2.518751   5.752422   6.575522   3.427838
    20  H    4.959150   2.847072   5.381704   6.275569   3.086584
    21  H    4.243447   3.218020   4.960944   5.904928   2.737667
    22  C    2.347533   7.426654   4.457223   5.040275   5.105913
    23  H    3.171066   7.462159   4.273533   4.721475   5.211299
    24  H    2.959051   7.946649   4.651056   5.124461   5.570437
    25  H    2.421692   8.108180   5.465601   6.089933   5.854028
    26  C    4.369249   6.480645   2.383118   2.448494   4.310323
    27  H    4.171471   7.221513   3.232834   3.375965   4.939301
    28  H    4.654102   6.869919   2.975358   2.982283   4.788104
    29  H    5.359677   6.672860   2.438870   2.074039   4.690022
                    6          7          8          9         10
     6  C    0.000000
     7  C    2.439408   0.000000
     8  C    4.263765   2.435153   0.000000
     9  C    2.484345   2.481648   2.530739   0.000000
    10  H    3.098613   3.112224   2.905704   1.096665   0.000000
    11  H    3.271084   3.282112   2.719012   1.089407   1.738884
    12  C    1.356420   2.828098   3.839975   1.510925   2.135708
    13  C    2.511466   4.274415   4.964487   2.481637   2.822759
    14  C    3.706709   1.485745   3.007580   3.905216   4.454248
    15  H    3.918537   2.143330   3.956481   4.563866   4.994135
    16  H    4.108035   2.142766   3.488498   4.458553   5.180352
    17  H    4.565084   2.164979   2.719171   4.249945   4.655332
    18  C    5.197413   3.801077   1.498384   2.933399   3.010244
    19  H    6.156465   4.552971   2.175106   3.936099   3.852919
    20  H    5.547114   4.331608   2.145217   3.306233   3.594163
    21  H    5.020351   4.057325   2.177487   2.584861   2.338868
    22  C    3.097944   5.304854   6.340622   3.911556   4.278596
    23  H    2.985215   5.214863   6.482288   4.246607   4.824148
    24  H    3.303002   5.642378   6.872043   4.403638   4.585281
    25  H    4.124437   6.208057   6.975985   4.556097   4.867821
    26  C    1.498274   3.708586   5.735877   3.925722   4.450226
    27  H    2.158788   4.510523   6.367547   4.280706   4.607659
    28  H    2.146776   4.206131   6.163236   4.424379   5.114125
    29  H    2.134213   3.815638   6.084280   4.583796   5.050145
                   11         12         13         14         15
    11  H    0.000000
    12  C    2.118253   0.000000
    13  C    2.591377   1.456297   0.000000
    14  C    4.623085   4.293972   5.741348   0.000000
    15  H    5.412542   4.739749   6.185808   1.092825   0.000000
    16  H    5.017961   4.740773   6.133716   1.092134   1.761471
    17  H    4.891527   4.946403   6.374321   1.087722   1.744112
    18  C    2.694493   4.421347   5.213605   4.500447   5.417706
    19  H    3.761026   5.437754   6.243936   5.012334   5.885312
    20  H    2.725270   4.684596   5.311612   5.055662   6.057069
    21  H    2.339957   4.071028   4.674205   4.996188   5.810331
    22  C    4.029586   2.607023   1.508383   6.692871   7.010624
    23  H    4.379510   2.851251   2.178547   6.492740   6.794114
    24  H    4.717625   3.051130   2.150323   6.994976   7.159858
    25  H    4.449520   3.448211   2.106219   7.622174   8.009654
    26  C    4.629615   2.571832   3.154285   4.722769   4.684014
    27  H    4.957656   2.849159   3.011153   5.618179   5.546819
    28  H    4.940960   3.049050   3.433410   5.149525   5.203764
    29  H    5.404925   3.406248   4.170540   4.543262   4.263654
                   16         17         18         19         20
    16  H    0.000000
    17  H    1.741200   0.000000
    18  C    4.965983   4.136593   0.000000
    19  H    5.507292   4.429770   1.090519   0.000000
    20  H    5.322943   4.779029   1.094240   1.750255   0.000000
    21  H    5.585091   4.747995   1.089460   1.742930   1.743129
    22  C    6.979338   7.465923   6.684624   7.729658   6.723918
    23  H    6.628609   7.358371   6.996977   8.068574   6.978906
    24  H    7.380536   7.786492   7.270318   8.273033   7.442840
    25  H    7.878605   8.348939   7.130140   8.169937   7.053810
    26  C    4.996622   5.696179   6.692852   7.654447   7.005437
    27  H    5.992092   6.533098   7.172242   8.132958   7.507200
    28  H    5.202381   6.168552   7.115522   8.123450   7.277737
    29  H    4.829469   5.549028   7.187987   8.078258   7.596294
                   21         22         23         24         25
    21  H    0.000000
    22  C    6.178964   0.000000
    23  H    6.644623   1.086787   0.000000
    24  H    6.697598   1.090901   1.762492   0.000000
    25  H    6.566422   1.087266   1.775041   1.762816   0.000000
    26  C    6.488771   3.003612   2.621306   2.914580   4.074401
    27  H    6.812213   2.574446   2.441399   2.129469   3.609565
    28  H    6.989990   3.008289   2.260081   3.141921   3.970834
    29  H    7.055795   4.061831   3.666428   3.839914   5.131509
                   26         27         28         29
    26  C    0.000000
    27  H    1.083860   0.000000
    28  H    1.090409   1.762755   0.000000
    29  H    1.089140   1.750000   1.755871   0.000000
 Stoichiometry    C11H15NO2
 Framework group  C1[X(C11H15NO2)]
 Deg. of freedom    81
 Full point group                 C1      NOp   1
 RotChk:  IX=0 Diff= 3.33D-16
 Largest Abelian subgroup         C1      NOp   1
 Largest concise Abelian subgroup C1      NOp   1
                         Standard orientation:                         
 ---------------------------------------------------------------------
 Center     Atomic      Atomic             Coordinates (Angstroms)
 Number     Number       Type             X           Y           Z
 ---------------------------------------------------------------------
      1          8           0       -2.271910   -2.299961   -0.127887
      2          8           0        3.640340   -0.217553    0.330826
      3          7           0       -0.048706    1.800465   -0.178539
      4          1           0       -0.083310    2.806623   -0.180922
      5          6           0        1.290143   -0.139467   -0.058244
      6          6           0       -1.241231    1.134600   -0.104266
      7          6           0        1.196423    1.214742   -0.058112
      8          6           0        2.551968   -0.802797    0.090238
      9          6           0        0.054903   -0.977338   -0.282379
     10          1           0        0.068156   -1.411462   -1.289373
     11          1           0        0.052378   -1.827380    0.398965
     12          6           0       -1.239462   -0.221755   -0.091049
     13          6           0       -2.404048   -1.087164    0.033884
     14          6           0        2.306801    2.194636    0.061497
     15          1           0        2.131331    3.077437   -0.558293
     16          1           0        2.430354    2.536779    1.091269
     17          1           0        3.273331    1.797920   -0.241118
     18          6           0        2.668211   -2.289826   -0.052538
     19          1           0        3.631417   -2.612444   -0.449253
     20          1           0        2.551713   -2.781953    0.917824
     21          1           0        1.910751   -2.726921   -0.702250
     22          6           0       -3.777499   -0.574579    0.389003
     23          1           0       -3.763553    0.177290    1.173607
     24          1           0       -4.263839   -0.141283   -0.486092
     25          1           0       -4.367854   -1.427455    0.714933
     26          6           0       -2.413069    2.066178   -0.042758
     27          1           0       -3.246891    1.722977   -0.644178
     28          1           0       -2.759544    2.193157    0.983314
     29          1           0       -2.129788    3.050197   -0.413816
 ---------------------------------------------------------------------
 Rotational constants (GHZ):           1.0938272           0.4855200           0.3428428
 Leave Link  202 at Sat Jan 24 23:32:45 2026, MaxMem=  2147483648 cpu:               0.0 elap:               0.0
 (Enter /data/home/wyx/g16/l301.exe)
 Standard basis: TZVP (5D, 7F)
 Ernie: Thresh=  0.10000D-02 Tol=  0.10000D-05 Strict=F.
 There are   370 symmetry adapted cartesian basis functions of A   symmetry.
 There are   356 symmetry adapted basis functions of A   symmetry.
   356 basis functions,   610 primitive gaussians,   370 cartesian basis functions
    52 alpha electrons       52 beta electrons
       nuclear repulsion energy       899.8802834167 Hartrees.
 IExCor=20419 DFT=T Ex+Corr=CAM-B3LYP ExCW=0 ScaHFX=  1.000000
 ScaDFX=  1.000000  1.000000  1.000000  0.810000 ScalE2=  1.000000  1.000000
 IRadAn=      5 IRanWt=     -1 IRanGd=            0 ICorTp=0 IEmpDi=141
 HFx  wShort=  0.000000 wLong=  0.330000 cFull=  0.190000 cShort=  0.000000 cLong=  0.460000
 DFx  wShort=  0.000000 wLong=  0.330000 cFull=  0.190000 cShort=  0.000000 cLong=  0.460000
 NAtoms=   29 NActive=   29 NUniq=   29 SFac= 1.00D+00 NAtFMM=   60 NAOKFM=F Big=F
 Integral buffers will be    131072 words long.
 Raffenetti 2 integral format.
 Two-electron integral symmetry is turned on.
 R6Disp:  Grimme-D3(BJ) Dispersion energy=       -0.0261362486 Hartrees.
 Nuclear repulsion after empirical dispersion term =      899.8541471682 Hartrees.
 ------------------------------------------------------------------------------
 Polarizable Continuum Model (PCM)
 =================================
 Model                : PCM.
 Atomic radii         : UFF (Universal Force Field).
 Polarization charges : Total charges.
 Charge compensation  : None.
 Solution method      : On-the-fly selection.
 Cavity type          : Scaled VdW (van der Waals Surface) (Alpha=1.100).
 Cavity algorithm     : GePol (No added spheres)
                        Default sphere list used, NSphG=   29.
                        Lebedev-Laikov grids with approx.  5.0 points / Ang**2.
                        Smoothing algorithm: York/Karplus (Gamma=1.0000).
                        Polarization charges: spherical gaussians, with
                                              point-specific exponents (IZeta= 3).
                        Self-potential: point-specific (ISelfS= 7).
                        Self-field    : sphere-specific E.n sum rule (ISelfD= 2).
 Solvent              : Water, Eps=  78.355300 Eps(inf)=   1.777849
 ------------------------------------------------------------------------------
 GePol: Number of generator spheres                  =      29
 GePol: Total number of spheres                      =      29
 GePol: Number of exposed spheres                    =      29 (100.00%)
 GePol: Number of points                             =    2100
 GePol: Average weight of points                     =       0.13
 GePol: Minimum weight of points                     =   0.20D-10
 GePol: Maximum weight of points                     =    0.20577
 GePol: Number of points with low weight             =     121
 GePol: Fraction of low-weight points (<1% of avg)   =       5.76%
 GePol: Cavity surface area                          =    269.096 Ang**2
 GePol: Cavity volume                                =    286.539 Ang**3
 Leave Link  301 at Sat Jan 24 23:32:45 2026, MaxMem=  2147483648 cpu:               0.6 elap:               0.0
 (Enter /data/home/wyx/g16/l302.exe)
 NPDir=0 NMtPBC=     1 NCelOv=     1 NCel=       1 NClECP=     1 NCelD=      1
         NCelK=      1 NCelE2=     1 NClLst=     1 CellRange=     0.0.
 One-electron integrals computed using PRISM.
 One-electron integral symmetry used in STVInt
 NBasis=   356 RedAO= T EigKep=  4.22D-05  NBF=   356
 NBsUse=   356 1.00D-06 EigRej= -1.00D+00 NBFU=   356
 Precomputing XC quadrature grid using
 IXCGrd= 4 IRadAn=           5 IRanWt=          -1 IRanGd=           0 AccXCQ= 0.00D+00.
 Generated NRdTot=       0 NPtTot=           0 NUsed=           0 NTot=          32
 NSgBfM=   366   366   366   366   366 MxSgAt=    29 MxSgA2=    29.
 Leave Link  302 at Sat Jan 24 23:32:45 2026, MaxMem=  2147483648 cpu:               3.2 elap:               0.2
 (Enter /data/home/wyx/g16/l303.exe)
 DipDrv:  MaxL=1.
 Leave Link  303 at Sat Jan 24 23:32:46 2026, MaxMem=  2147483648 cpu:               0.6 elap:               0.0
 (Enter /data/home/wyx/g16/l401.exe)
 Initial guess from the checkpoint file:  "DDL-S1-cLR-gs-9.chk"
 B after Tr=    -0.000000    0.000000   -0.000000
         Rot=    1.000000    0.000000    0.000000   -0.000000 Ang=   0.00 deg.
 Guess basis will be translated and rotated to current coordinates.
 JPrj=2 DoOrth=T DoCkMO=T.
 Leave Link  401 at Sat Jan 24 23:32:46 2026, MaxMem=  2147483648 cpu:               2.2 elap:               0.2
 (Enter /data/home/wyx/g16/l502.exe)
 Integral symmetry usage will be decided dynamically.
 Closed shell SCF:
 Using DIIS extrapolation, IDIIS=  1040.
 NGot=  2147483648 LenX=  2147200095 LenY=  2147062754
 Requested convergence on RMS density matrix=1.00D-08 within 128 cycles.
 Requested convergence on MAX density matrix=1.00D-06.
 Requested convergence on             energy=1.00D-06.
 No special actions if energy rises.
 Fock matrices will be formed incrementally for  20 cycles.

 Cycle   1  Pass 1  IDiag  1:
 FoFJK:  IHMeth= 1 ICntrl=       0 DoSepK=T KAlg= 0 I1Cent=           0 FoldK=F
 IRaf=         1 NMat=       1 IRICut=       1 DoRegI=T DoRafI=F ISym2E= 0 IDoP0=0 IntGTp=1.
 FoFCou: FMM=F IPFlag=           0 FMFlag=      100000 FMFlg1=           0
         NFxFlg=           0 DoJE=T BraDBF=F KetDBF=F FulRan=T
         wScrn=  0.000000 ICntrl=       500 IOpCl=  0 I1Cent=           0 NGrid=           0
         NMat0=    1 NMatS0=      1 NMatT0=    0 NMatD0=    1 NMtDS0=    0 NMtDT0=    0
 Symmetry not used in FoFCou.
 Inv3:  Mode=1 IEnd=    13230000.
 Iteration    1 A*A^-1 deviation from unit magnitude is 3.11D-15 for    562.
 Iteration    1 A*A^-1 deviation from orthogonality  is 1.70D-15 for   1695    747.
 Iteration    1 A^-1*A deviation from unit magnitude is 3.11D-15 for    562.
 Iteration    1 A^-1*A deviation from orthogonality  is 3.44D-15 for   1506   1268.
 NEqPCM:  Using non-equilibrium solvation (IEInf=1, Eps=  78.3553, EpsInf=   1.7778)
 Inv3:  Mode=1 IEnd=    13230000.
 Iteration    1 A*A^-1 deviation from unit magnitude is 3.55D-15 for   1456.
 Iteration    1 A*A^-1 deviation from orthogonality  is 1.90D-15 for   1393    863.
 Iteration    1 A^-1*A deviation from unit magnitude is 4.00D-15 for   1456.
 Iteration    1 A^-1*A deviation from orthogonality  is 1.44D-15 for   2085   1920.
 E= -633.325884546196    
 DIIS: error= 3.54D-04 at cycle   1 NSaved=   1.
 NSaved= 1 IEnMin= 1 EnMin= -633.325884546196     IErMin= 1 ErrMin= 3.54D-04
 ErrMax= 3.54D-04  0.00D+00 EMaxC= 1.00D-01 BMatC= 3.32D-05 BMatP= 3.32D-05
 IDIUse=3 WtCom= 9.96D-01 WtEn= 3.54D-03
 Coeff-Com:  0.100D+01
 Coeff-En:   0.100D+01
 Coeff:      0.100D+01
 Gap=     0.232 Goal=   None    Shift=    0.000
 RMSDP=2.24D-04 MaxDP=1.13D-02              OVMax= 6.15D-03

 Cycle   2  Pass 1  IDiag  1:
 RMSU=  2.23D-04    CP:  9.98D-01
 E= -633.325939903157     Delta-E=       -0.000055356961 Rises=F Damp=F
 DIIS: error= 2.50D-04 at cycle   2 NSaved=   2.
 NSaved= 2 IEnMin= 2 EnMin= -633.325939903157     IErMin= 2 ErrMin= 2.50D-04
 ErrMax= 2.50D-04  0.00D+00 EMaxC= 1.00D-01 BMatC= 2.79D-05 BMatP= 3.32D-05
 IDIUse=3 WtCom= 9.97D-01 WtEn= 2.50D-03
 Coeff-Com:  0.471D+00 0.529D+00
 Coeff-En:   0.000D+00 0.100D+01
 Coeff:      0.469D+00 0.531D+00
 Gap=     0.232 Goal=   None    Shift=    0.000
 RMSDP=6.15D-05 MaxDP=3.44D-03 DE=-5.54D-05 OVMax= 1.71D-03

 Cycle   3  Pass 1  IDiag  1:
 RMSU=  5.06D-05    CP:  1.00D+00  8.85D-01
 E= -633.325963484465     Delta-E=       -0.000023581309 Rises=F Damp=F
 DIIS: error= 1.27D-04 at cycle   3 NSaved=   3.
 NSaved= 3 IEnMin= 3 EnMin= -633.325963484465     IErMin= 3 ErrMin= 1.27D-04
 ErrMax= 1.27D-04  0.00D+00 EMaxC= 1.00D-01 BMatC= 4.28D-06 BMatP= 2.79D-05
 IDIUse=3 WtCom= 9.99D-01 WtEn= 1.27D-03
 Coeff-Com:  0.950D-01 0.263D+00 0.642D+00
 Coeff-En:   0.000D+00 0.153D-01 0.985D+00
 Coeff:      0.949D-01 0.263D+00 0.642D+00
 Gap=     0.232 Goal=   None    Shift=    0.000
 RMSDP=1.67D-05 MaxDP=7.64D-04 DE=-2.36D-05 OVMax= 8.67D-04

 Cycle   4  Pass 1  IDiag  1:
 RMSU=  1.59D-05    CP:  1.00D+00  8.72D-01  9.98D-01
 E= -633.325966788771     Delta-E=       -0.000003304305 Rises=F Damp=F
 DIIS: error= 3.17D-05 at cycle   4 NSaved=   4.
 NSaved= 4 IEnMin= 4 EnMin= -633.325966788771     IErMin= 4 ErrMin= 3.17D-05
 ErrMax= 3.17D-05  0.00D+00 EMaxC= 1.00D-01 BMatC= 4.19D-07 BMatP= 4.28D-06
 IDIUse=1 WtCom= 1.00D+00 WtEn= 0.00D+00
 Coeff-Com: -0.303D-02 0.401D-01 0.251D+00 0.711D+00
 Coeff:     -0.303D-02 0.401D-01 0.251D+00 0.711D+00
 Gap=     0.232 Goal=   None    Shift=    0.000
 RMSDP=1.00D-05 MaxDP=5.37D-04 DE=-3.30D-06 OVMax= 3.58D-04

 Cycle   5  Pass 1  IDiag  1:
 RMSU=  5.51D-06    CP:  1.00D+00  8.76D-01  1.14D+00  1.08D+00
 E= -633.325967177008     Delta-E=       -0.000000388238 Rises=F Damp=F
 DIIS: error= 1.39D-05 at cycle   5 NSaved=   5.
 NSaved= 5 IEnMin= 5 EnMin= -633.325967177008     IErMin= 5 ErrMin= 1.39D-05
 ErrMax= 1.39D-05  0.00D+00 EMaxC= 1.00D-01 BMatC= 8.00D-08 BMatP= 4.19D-07
 IDIUse=1 WtCom= 1.00D+00 WtEn= 0.00D+00
 Coeff-Com: -0.122D-01-0.240D-01 0.205D-01 0.327D+00 0.688D+00
 Coeff:     -0.122D-01-0.240D-01 0.205D-01 0.327D+00 0.688D+00
 Gap=     0.232 Goal=   None    Shift=    0.000
 RMSDP=2.97D-06 MaxDP=9.58D-05 DE=-3.88D-07 OVMax= 1.56D-04

 Cycle   6  Pass 1  IDiag  1:
 RMSU=  1.76D-06    CP:  1.00D+00  8.73D-01  1.18D+00  1.18D+00  1.08D+00
 E= -633.325967275991     Delta-E=       -0.000000098983 Rises=F Damp=F
 DIIS: error= 6.67D-06 at cycle   6 NSaved=   6.
 NSaved= 6 IEnMin= 6 EnMin= -633.325967275991     IErMin= 6 ErrMin= 6.67D-06
 ErrMax= 6.67D-06  0.00D+00 EMaxC= 1.00D-01 BMatC= 8.16D-09 BMatP= 8.00D-08
 IDIUse=1 WtCom= 1.00D+00 WtEn= 0.00D+00
 Coeff-Com: -0.275D-02-0.145D-01-0.136D-01 0.252D-01 0.217D+00 0.788D+00
 Coeff:     -0.275D-02-0.145D-01-0.136D-01 0.252D-01 0.217D+00 0.788D+00
 Gap=     0.232 Goal=   None    Shift=    0.000
 RMSDP=1.82D-06 MaxDP=6.29D-05 DE=-9.90D-08 OVMax= 1.11D-04

 Cycle   7  Pass 1  IDiag  1:
 RMSU=  7.06D-07    CP:  1.00D+00  8.71D-01  1.20D+00  1.23D+00  1.20D+00
                    CP:  1.22D+00
 E= -633.325967291173     Delta-E=       -0.000000015182 Rises=F Damp=F
 DIIS: error= 3.15D-06 at cycle   7 NSaved=   7.
 NSaved= 7 IEnMin= 7 EnMin= -633.325967291173     IErMin= 7 ErrMin= 3.15D-06
 ErrMax= 3.15D-06  0.00D+00 EMaxC= 1.00D-01 BMatC= 3.37D-09 BMatP= 8.16D-09
 IDIUse=1 WtCom= 1.00D+00 WtEn= 0.00D+00
 Coeff-Com:  0.117D-02-0.431D-02-0.763D-02-0.544D-01-0.472D-01 0.412D+00
 Coeff-Com:  0.700D+00
 Coeff:      0.117D-02-0.431D-02-0.763D-02-0.544D-01-0.472D-01 0.412D+00
 Coeff:      0.700D+00
 Gap=     0.232 Goal=   None    Shift=    0.000
 RMSDP=7.28D-07 MaxDP=2.74D-05 DE=-1.52D-08 OVMax= 5.87D-05

 Cycle   8  Pass 1  IDiag  1:
 RMSU=  2.71D-07    CP:  1.00D+00  8.70D-01  1.20D+00  1.25D+00  1.25D+00
                    CP:  1.41D+00  1.12D+00
 E= -633.325967296699     Delta-E=       -0.000000005526 Rises=F Damp=F
 DIIS: error= 1.31D-06 at cycle   8 NSaved=   8.
 NSaved= 8 IEnMin= 8 EnMin= -633.325967296699     IErMin= 8 ErrMin= 1.31D-06
 ErrMax= 1.31D-06  0.00D+00 EMaxC= 1.00D-01 BMatC= 3.29D-10 BMatP= 3.37D-09
 IDIUse=1 WtCom= 1.00D+00 WtEn= 0.00D+00
 Coeff-Com:  0.875D-03 0.665D-04 0.146D-02-0.198D-01-0.599D-01-0.923D-02
 Coeff-Com:  0.192D+00 0.895D+00
 Coeff:      0.875D-03 0.665D-04 0.146D-02-0.198D-01-0.599D-01-0.923D-02
 Coeff:      0.192D+00 0.895D+00
 Gap=     0.232 Goal=   None    Shift=    0.000
 RMSDP=3.64D-07 MaxDP=1.36D-05 DE=-5.53D-09 OVMax= 2.87D-05

 Cycle   9  Pass 1  IDiag  1:
 RMSU=  1.25D-07    CP:  1.00D+00  8.69D-01  1.21D+00  1.25D+00  1.26D+00
                    CP:  1.51D+00  1.32D+00  1.25D+00
 E= -633.325967297516     Delta-E=       -0.000000000817 Rises=F Damp=F
 DIIS: error= 5.14D-07 at cycle   9 NSaved=   9.
 NSaved= 9 IEnMin= 9 EnMin= -633.325967297516     IErMin= 9 ErrMin= 5.14D-07
 ErrMax= 5.14D-07  0.00D+00 EMaxC= 1.00D-01 BMatC= 3.68D-11 BMatP= 3.29D-10
 IDIUse=1 WtCom= 1.00D+00 WtEn= 0.00D+00
 Coeff-Com:  0.145D-03 0.365D-03 0.169D-02 0.190D-02-0.147D-01-0.614D-01
 Coeff-Com: -0.309D-01 0.314D+00 0.789D+00
 Coeff:      0.145D-03 0.365D-03 0.169D-02 0.190D-02-0.147D-01-0.614D-01
 Coeff:     -0.309D-01 0.314D+00 0.789D+00
 Gap=     0.232 Goal=   None    Shift=    0.000
 RMSDP=9.21D-08 MaxDP=2.77D-06 DE=-8.17D-10 OVMax= 1.04D-05

 Cycle  10  Pass 1  IDiag  1:
 RMSU=  3.94D-08    CP:  1.00D+00  8.69D-01  1.21D+00  1.25D+00  1.26D+00
                    CP:  1.54D+00  1.39D+00  1.37D+00  1.15D+00
 E= -633.325967297608     Delta-E=       -0.000000000092 Rises=F Damp=F
 DIIS: error= 1.45D-07 at cycle  10 NSaved=  10.
 NSaved=10 IEnMin=10 EnMin= -633.325967297608     IErMin=10 ErrMin= 1.45D-07
 ErrMax= 1.45D-07  0.00D+00 EMaxC= 1.00D-01 BMatC= 9.31D-12 BMatP= 3.68D-11
 IDIUse=1 WtCom= 1.00D+00 WtEn= 0.00D+00
 Coeff-Com: -0.390D-04 0.219D-03 0.517D-03 0.359D-02 0.245D-03-0.286D-01
 Coeff-Com: -0.375D-01 0.198D-01 0.365D+00 0.677D+00
 Coeff:     -0.390D-04 0.219D-03 0.517D-03 0.359D-02 0.245D-03-0.286D-01
 Coeff:     -0.375D-01 0.198D-01 0.365D+00 0.677D+00
 Gap=     0.232 Goal=   None    Shift=    0.000
 RMSDP=4.84D-08 MaxDP=2.92D-06 DE=-9.19D-11 OVMax= 2.86D-06

 Cycle  11  Pass 1  IDiag  1:
 RMSU=  2.35D-08    CP:  1.00D+00  8.69D-01  1.21D+00  1.25D+00  1.26D+00
                    CP:  1.54D+00  1.42D+00  1.43D+00  1.33D+00  1.10D+00
 E= -633.325967297616     Delta-E=       -0.000000000008 Rises=F Damp=F
 DIIS: error= 8.33D-08 at cycle  11 NSaved=  11.
 NSaved=11 IEnMin=11 EnMin= -633.325967297616     IErMin=11 ErrMin= 8.33D-08
 ErrMax= 8.33D-08  0.00D+00 EMaxC= 1.00D-01 BMatC= 1.69D-12 BMatP= 9.31D-12
 IDIUse=1 WtCom= 1.00D+00 WtEn= 0.00D+00
 Coeff-Com: -0.499D-04 0.501D-04-0.196D-03 0.149D-02 0.354D-02-0.368D-04
 Coeff-Com: -0.100D-01-0.619D-01 0.268D-01 0.306D+00 0.735D+00
 Coeff:     -0.499D-04 0.501D-04-0.196D-03 0.149D-02 0.354D-02-0.368D-04
 Coeff:     -0.100D-01-0.619D-01 0.268D-01 0.306D+00 0.735D+00
 Gap=     0.232 Goal=   None    Shift=    0.000
 RMSDP=1.57D-08 MaxDP=4.54D-07 DE=-8.30D-12 OVMax= 1.43D-06

 Cycle  12  Pass 1  IDiag  1:
 RMSU=  6.29D-09    CP:  1.00D+00  8.69D-01  1.21D+00  1.25D+00  1.26D+00
                    CP:  1.55D+00  1.43D+00  1.44D+00  1.38D+00  1.26D+00
                    CP:  9.66D-01
 E= -633.325967297616     Delta-E=       -0.000000000000 Rises=F Damp=F
 DIIS: error= 2.98D-08 at cycle  12 NSaved=  12.
 NSaved=12 IEnMin=12 EnMin= -633.325967297616     IErMin=12 ErrMin= 2.98D-08
 ErrMax= 2.98D-08  0.00D+00 EMaxC= 1.00D-01 BMatC= 3.38D-13 BMatP= 1.69D-12
 IDIUse=1 WtCom= 1.00D+00 WtEn= 0.00D+00
 Coeff-Com: -0.175D-04 0.592D-05-0.162D-03 0.144D-03 0.138D-02 0.388D-02
 Coeff-Com:  0.202D-02-0.291D-01-0.376D-01 0.581D-02 0.344D+00 0.709D+00
 Coeff:     -0.175D-04 0.592D-05-0.162D-03 0.144D-03 0.138D-02 0.388D-02
 Coeff:      0.202D-02-0.291D-01-0.376D-01 0.581D-02 0.344D+00 0.709D+00
 Gap=     0.232 Goal=   None    Shift=    0.000
 RMSDP=8.33D-09 MaxDP=5.41D-07 DE=-4.55D-13 OVMax= 4.90D-07

 Error on total polarization charges =  0.00882
 SCF Done:  E(RCAM-B3LYP) =  -633.325967298     A.U. after   12 cycles
            NFock= 12  Conv=0.83D-08     -V/T= 2.0042
 KE= 6.306742288050D+02 PE=-3.275647168957D+03 EE= 1.111792825687D+03
 Leave Link  502 at Sat Jan 24 23:33:34 2026, MaxMem=  2147483648 cpu:             757.0 elap:              48.0
 (Enter /data/home/wyx/g16/l601.exe)
 Copying SCF densities to generalized density rwf, IOpCl= 0 IROHF=0.

 **********************************************************************

            Population analysis using the SCF density.

 **********************************************************************

 Orbital symmetries:
       Occupied  (A) (A) (A) (A) (A) (A) (A) (A) (A) (A) (A) (A)
                 (A) (A) (A) (A) (A) (A) (A) (A) (A) (A) (A) (A)
                 (A) (A) (A) (A) (A) (A) (A) (A) (A) (A) (A) (A)
                 (A) (A) (A) (A) (A) (A) (A) (A) (A) (A) (A) (A)
                 (A) (A) (A) (A)
       Virtual   (A) (A) (A) (A) (A) (A) (A) (A) (A) (A) (A) (A)
                 (A) (A) (A) (A) (A) (A) (A) (A) (A) (A) (A) (A)
                 (A) (A) (A) (A) (A) (A) (A) (A) (A) (A) (A) (A)
                 (A) (A) (A) (A) (A) (A) (A) (A) (A) (A) (A) (A)
                 (A) (A) (A) (A) (A) (A) (A) (A) (A) (A) (A) (A)
                 (A) (A) (A) (A) (A) (A) (A) (A) (A) (A) (A) (A)
                 (A) (A) (A) (A) (A) (A) (A) (A) (A) (A) (A) (A)
                 (A) (A) (A) (A) (A) (A) (A) (A) (A) (A) (A) (A)
                 (A) (A) (A) (A) (A) (A) (A) (A) (A) (A) (A) (A)
                 (A) (A) (A) (A) (A) (A) (A) (A) (A) (A) (A) (A)
                 (A) (A) (A) (A) (A) (A) (A) (A) (A) (A) (A) (A)
                 (A) (A) (A) (A) (A) (A) (A) (A) (A) (A) (A) (A)
                 (A) (A) (A) (A) (A) (A) (A) (A) (A) (A) (A) (A)
                 (A) (A) (A) (A) (A) (A) (A) (A) (A) (A) (A) (A)
                 (A) (A) (A) (A) (A) (A) (A) (A) (A) (A) (A) (A)
                 (A) (A) (A) (A) (A) (A) (A) (A) (A) (A) (A) (A)
                 (A) (A) (A) (A) (A) (A) (A) (A) (A) (A) (A) (A)
                 (A) (A) (A) (A) (A) (A) (A) (A) (A) (A) (A) (A)
                 (A) (A) (A) (A) (A) (A) (A) (A) (A) (A) (A) (A)
                 (A) (A) (A) (A) (A) (A) (A) (A) (A) (A) (A) (A)
                 (A) (A) (A) (A) (A) (A) (A) (A) (A) (A) (A) (A)
                 (A) (A) (A) (A) (A) (A) (A) (A) (A) (A) (A) (A)
                 (A) (A) (A) (A) (A) (A) (A) (A) (A) (A) (A) (A)
                 (A) (A) (A) (A) (A) (A) (A) (A) (A) (A) (A) (A)
                 (A) (A) (A) (A) (A) (A) (A) (A) (A) (A) (A) (A)
                 (A) (A) (A) (A)
 The electronic state is 1-A.
 Alpha  occ. eigenvalues --  -19.17714 -19.17083 -14.44025 -10.33371 -10.33244
 Alpha  occ. eigenvalues --  -10.32000 -10.31961 -10.25467 -10.24887 -10.24820
 Alpha  occ. eigenvalues --  -10.24749 -10.24472 -10.24032 -10.23913  -1.11753
 Alpha  occ. eigenvalues --   -1.10124  -1.07450  -0.91274  -0.90322  -0.83847
 Alpha  occ. eigenvalues --   -0.82402  -0.81378  -0.78645  -0.73978  -0.71306
 Alpha  occ. eigenvalues --   -0.68886  -0.61872  -0.58291  -0.56788  -0.54948
 Alpha  occ. eigenvalues --   -0.54461  -0.54110  -0.52408  -0.51807  -0.50567
 Alpha  occ. eigenvalues --   -0.49734  -0.49342  -0.49006  -0.48256  -0.48145
 Alpha  occ. eigenvalues --   -0.46638  -0.45288  -0.44582  -0.43327  -0.42774
 Alpha  occ. eigenvalues --   -0.42333  -0.41794  -0.41302  -0.32830  -0.32166
 Alpha  occ. eigenvalues --   -0.31220  -0.26087
 Alpha virt. eigenvalues --   -0.02878   0.02146   0.06762   0.08458   0.08932
 Alpha virt. eigenvalues --    0.10323   0.10719   0.12131   0.12801   0.13871
 Alpha virt. eigenvalues --    0.14247   0.15585   0.15795   0.16574   0.16787
 Alpha virt. eigenvalues --    0.17496   0.17634   0.17946   0.18254   0.19138
 Alpha virt. eigenvalues --    0.19962   0.21172   0.22846   0.23413   0.23982
 Alpha virt. eigenvalues --    0.24471   0.24773   0.25565   0.25806   0.26561
 Alpha virt. eigenvalues --    0.27540   0.27876   0.28961   0.29784   0.30014
 Alpha virt. eigenvalues --    0.31625   0.32226   0.32640   0.33881   0.34811
 Alpha virt. eigenvalues --    0.35535   0.35896   0.37004   0.37915   0.38379
 Alpha virt. eigenvalues --    0.39664   0.41451   0.42010   0.42416   0.43085
 Alpha virt. eigenvalues --    0.44213   0.44696   0.45369   0.46281   0.46438
 Alpha virt. eigenvalues --    0.46874   0.48270   0.48428   0.48638   0.49051
 Alpha virt. eigenvalues --    0.49647   0.49876   0.50692   0.51524   0.51929
 Alpha virt. eigenvalues --    0.52226   0.52982   0.53712   0.53935   0.54616
 Alpha virt. eigenvalues --    0.54792   0.55746   0.55919   0.56869   0.58215
 Alpha virt. eigenvalues --    0.58847   0.59172   0.59887   0.61688   0.62369
 Alpha virt. eigenvalues --    0.63775   0.64813   0.66118   0.67064   0.68029
 Alpha virt. eigenvalues --    0.69977   0.71065   0.71445   0.71989   0.72748
 Alpha virt. eigenvalues --    0.73641   0.74873   0.75519   0.76930   0.78560
 Alpha virt. eigenvalues --    0.79468   0.80109   0.81490   0.84512   0.86483
 Alpha virt. eigenvalues --    0.88075   0.89849   0.95571   1.00863   1.24409
 Alpha virt. eigenvalues --    1.24854   1.27113   1.28407   1.30011   1.30994
 Alpha virt. eigenvalues --    1.32918   1.33127   1.34151   1.35836   1.36012
 Alpha virt. eigenvalues --    1.37309   1.37762   1.38496   1.39589   1.39667
 Alpha virt. eigenvalues --    1.40277   1.41052   1.41261   1.41932   1.42220
 Alpha virt. eigenvalues --    1.43005   1.44007   1.44485   1.45274   1.47059
 Alpha virt. eigenvalues --    1.48018   1.49621   1.49901   1.50987   1.51765
 Alpha virt. eigenvalues --    1.52058   1.52912   1.53519   1.55601   1.57399
 Alpha virt. eigenvalues --    1.58421   1.60310   1.60795   1.61684   1.61909
 Alpha virt. eigenvalues --    1.63052   1.63341   1.64607   1.65808   1.66033
 Alpha virt. eigenvalues --    1.66641   1.67385   1.67626   1.68766   1.69179
 Alpha virt. eigenvalues --    1.69505   1.70516   1.71349   1.72406   1.73532
 Alpha virt. eigenvalues --    1.73989   1.74665   1.76071   1.77218   1.79508
 Alpha virt. eigenvalues --    1.80837   1.83307   1.84756   1.85576   1.86298
 Alpha virt. eigenvalues --    1.86855   1.86945   1.88015   1.89851   1.90353
 Alpha virt. eigenvalues --    1.91685   1.93835   1.96508   1.98567   2.00766
 Alpha virt. eigenvalues --    2.01393   2.04319   2.05377   2.07028   2.09856
 Alpha virt. eigenvalues --    2.11158   2.14055   2.14422   2.18361   2.20104
 Alpha virt. eigenvalues --    2.21269   2.22438   2.23027   2.24019   2.25184
 Alpha virt. eigenvalues --    2.27462   2.28867   2.29875   2.31545   2.32417
 Alpha virt. eigenvalues --    2.34290   2.34596   2.36361   2.37663   2.39189
 Alpha virt. eigenvalues --    2.39952   2.40908   2.41349   2.44545   2.45009
 Alpha virt. eigenvalues --    2.45548   2.48134   2.48776   2.50353   2.51616
 Alpha virt. eigenvalues --    2.52930   2.53620   2.54272   2.56484   2.58122
 Alpha virt. eigenvalues --    2.58677   2.60163   2.60830   2.61881   2.63310
 Alpha virt. eigenvalues --    2.64014   2.66409   2.66691   2.67715   2.68715
 Alpha virt. eigenvalues --    2.70264   2.72175   2.72732   2.73759   2.75152
 Alpha virt. eigenvalues --    2.76416   2.77176   2.77741   2.78377   2.79182
 Alpha virt. eigenvalues --    2.79799   2.81386   2.83546   2.84486   2.85003
 Alpha virt. eigenvalues --    2.85933   2.86644   2.88250   2.89679   2.92827
 Alpha virt. eigenvalues --    2.97754   2.98790   2.99702   3.04860   3.09615
 Alpha virt. eigenvalues --    3.10107   3.11370   3.13674   3.18788   3.19710
 Alpha virt. eigenvalues --    3.21719   3.22797   3.23075   3.25234   3.26294
 Alpha virt. eigenvalues --    3.26950   3.29845   3.32121   3.35302   3.37385
 Alpha virt. eigenvalues --    3.38581   3.39562   3.39914   3.41084   3.41355
 Alpha virt. eigenvalues --    3.42260   3.44537   3.45572   3.46929   3.49641
 Alpha virt. eigenvalues --    3.50048   3.51387   3.54429   3.57414   3.59326
 Alpha virt. eigenvalues --    3.60997   3.90959   3.99868   4.31896   4.35057
 Alpha virt. eigenvalues --   21.63737  21.77335  22.06200  22.10359  22.11466
 Alpha virt. eigenvalues --   22.12926  22.15816  22.18270  22.21275  22.26264
 Alpha virt. eigenvalues --   22.31022  31.93480  43.63151  43.65376
          Condensed to atoms (all electrons):
               1          2          3          4          5          6
     1  O    7.954667   0.000000  -0.000231   0.000017   0.016291   0.016196
     2  O    0.000000   8.067609   0.000462   0.000030  -0.193119   0.001382
     3  N   -0.000231   0.000462   6.354201   0.373169  -0.101049   0.358294
     4  H    0.000017   0.000030   0.373169   0.394434   0.013389  -0.041744
     5  C    0.016291  -0.193119  -0.101049   0.013389   7.084630  -0.052870
     6  C    0.016196   0.001382   0.358294  -0.041744  -0.052870   5.562951
     7  C   -0.000228  -0.016674   0.370179  -0.043180   0.376314  -0.120079
     8  C   -0.000293   0.661730   0.004302  -0.000923  -0.428419   0.042332
     9  C   -0.021229   0.019556   0.016995   0.000243  -0.569592  -0.099826
    10  H    0.004204   0.000042   0.003054   0.000028  -0.028417  -0.008702
    11  H    0.014258  -0.000194  -0.001490   0.000002  -0.116555   0.022979
    12  C   -0.232706  -0.002822  -0.093164   0.016584   0.179661  -0.143700
    13  C    0.726831  -0.000017   0.000308   0.000426   0.067261   0.148467
    14  C   -0.000010  -0.051066  -0.045472  -0.001500  -0.029916  -0.003506
    15  H    0.000000   0.004820   0.004496  -0.000130   0.007137   0.005039
    16  H   -0.000000   0.000899  -0.003691   0.000602  -0.011652  -0.000495
    17  H    0.000000   0.016860   0.003579   0.000729   0.003908  -0.000473
    18  C   -0.000247  -0.101816  -0.000368   0.000017  -0.186328  -0.001294
    19  H   -0.000003   0.005163   0.000006  -0.000001   0.016192   0.000031
    20  H    0.000017  -0.000500   0.000014  -0.000001  -0.012117   0.000183
    21  H    0.000338   0.006122   0.000111   0.000000   0.069331  -0.001461
    22  C   -0.114519   0.000000   0.000159   0.000107   0.002329  -0.008824
    23  H    0.004382  -0.000000  -0.000016  -0.000050  -0.000434  -0.030528
    24  H    0.001731   0.000000   0.000023  -0.000016  -0.000075   0.010703
    25  H    0.009304   0.000000   0.000026  -0.000002  -0.000120  -0.001414
    26  C    0.000886   0.000005  -0.029490  -0.008435   0.000483   0.186694
    27  H   -0.000154  -0.000000   0.001756   0.000880   0.000096  -0.042876
    28  H   -0.000037  -0.000000  -0.002606   0.000505   0.000368  -0.036993
    29  H    0.000022  -0.000000   0.002598   0.001372  -0.000411  -0.049976
               7          8          9         10         11         12
     1  O   -0.000228  -0.000293  -0.021229   0.004204   0.014258  -0.232706
     2  O   -0.016674   0.661730   0.019556   0.000042  -0.000194  -0.002822
     3  N    0.370179   0.004302   0.016995   0.003054  -0.001490  -0.093164
     4  H   -0.043180  -0.000923   0.000243   0.000028   0.000002   0.016584
     5  C    0.376314  -0.428419  -0.569592  -0.028417  -0.116555   0.179661
     6  C   -0.120079   0.042332  -0.099826  -0.008702   0.022979  -0.143700
     7  C    5.439524  -0.242804  -0.191337  -0.006340   0.017539   0.019898
     8  C   -0.242804   5.648187   0.145082  -0.000815  -0.006348  -0.062088
     9  C   -0.191337   0.145082   6.352310   0.394969   0.539845  -0.065850
    10  H   -0.006340  -0.000815   0.394969   0.538473  -0.035211  -0.015439
    11  H    0.017539  -0.006348   0.539845  -0.035211   0.502185  -0.104559
    12  C    0.019898  -0.062088  -0.065850  -0.015439  -0.104559   7.361524
    13  C    0.020398  -0.009404  -0.253633  -0.004137   0.000565  -0.449172
    14  C    0.225036  -0.074387   0.016097  -0.001323   0.000391   0.001380
    15  H   -0.061594   0.006327  -0.000882   0.000122  -0.000005  -0.000777
    16  H   -0.016680   0.004915  -0.000390  -0.000041   0.000052   0.000030
    17  H   -0.045461  -0.018973   0.001311   0.000106  -0.000063  -0.000280
    18  C    0.012947   0.317465  -0.002653  -0.010146   0.000448   0.006148
    19  H    0.000323  -0.045769  -0.001494   0.000227   0.000565  -0.000220
    20  H   -0.000790  -0.007405  -0.002497   0.000495  -0.000863  -0.001936
    21  H    0.003866  -0.109596  -0.015517   0.000797  -0.006634   0.005819
    22  C    0.000431  -0.000037   0.007559   0.001506   0.000730  -0.277735
    23  H   -0.000001  -0.000004   0.002856  -0.000135  -0.000038   0.058772
    24  H   -0.000019   0.000004  -0.002119   0.000152  -0.000115  -0.005980
    25  H    0.000014   0.000002   0.000073  -0.000050  -0.000111   0.026827
    26  C    0.003818   0.000676   0.020636  -0.000523   0.000020  -0.077417
    27  H   -0.000715  -0.000003  -0.000907  -0.000042   0.000002  -0.003362
    28  H   -0.001072  -0.000014  -0.000148  -0.000024   0.000055  -0.018755
    29  H    0.003391   0.000005  -0.000603   0.000062  -0.000006   0.021947
              13         14         15         16         17         18
     1  O    0.726831  -0.000010   0.000000  -0.000000   0.000000  -0.000247
     2  O   -0.000017  -0.051066   0.004820   0.000899   0.016860  -0.101816
     3  N    0.000308  -0.045472   0.004496  -0.003691   0.003579  -0.000368
     4  H    0.000426  -0.001500  -0.000130   0.000602   0.000729   0.000017
     5  C    0.067261  -0.029916   0.007137  -0.011652   0.003908  -0.186328
     6  C    0.148467  -0.003506   0.005039  -0.000495  -0.000473  -0.001294
     7  C    0.020398   0.225036  -0.061594  -0.016680  -0.045461   0.012947
     8  C   -0.009404  -0.074387   0.006327   0.004915  -0.018973   0.317465
     9  C   -0.253633   0.016097  -0.000882  -0.000390   0.001311  -0.002653
    10  H   -0.004137  -0.001323   0.000122  -0.000041   0.000106  -0.010146
    11  H    0.000565   0.000391  -0.000005   0.000052  -0.000063   0.000448
    12  C   -0.449172   0.001380  -0.000777   0.000030  -0.000280   0.006148
    13  C    5.506762  -0.000007  -0.000018  -0.000025   0.000002   0.000808
    14  C   -0.000007   5.233137   0.384548   0.397249   0.422312   0.000027
    15  H   -0.000018   0.384548   0.563762  -0.027481  -0.026658   0.000178
    16  H   -0.000025   0.397249  -0.027481   0.507168  -0.021856   0.000015
    17  H    0.000002   0.422312  -0.026658  -0.021856   0.487404   0.000523
    18  C    0.000808   0.000027   0.000178   0.000015   0.000523   5.240431
    19  H   -0.000014   0.000014  -0.000002  -0.000014   0.000094   0.403304
    20  H   -0.000081  -0.000302  -0.000005   0.000015   0.000023   0.390620
    21  H    0.001281   0.000316  -0.000021  -0.000002  -0.000107   0.400019
    22  C    0.306077  -0.000002   0.000002  -0.000001   0.000000   0.000016
    23  H   -0.082370   0.000001  -0.000000   0.000000   0.000000   0.000002
    24  H   -0.029969  -0.000001   0.000000  -0.000000   0.000000  -0.000001
    25  H   -0.046335   0.000001  -0.000000  -0.000000  -0.000000  -0.000000
    26  C   -0.057050   0.000844  -0.000258  -0.000072   0.000029  -0.000006
    27  H   -0.006889   0.000080  -0.000012   0.000004  -0.000002   0.000000
    28  H    0.006410  -0.000056   0.000012  -0.000017   0.000002  -0.000000
    29  H   -0.000189  -0.000089   0.000091   0.000003   0.000001   0.000000
              19         20         21         22         23         24
     1  O   -0.000003   0.000017   0.000338  -0.114519   0.004382   0.001731
     2  O    0.005163  -0.000500   0.006122   0.000000  -0.000000   0.000000
     3  N    0.000006   0.000014   0.000111   0.000159  -0.000016   0.000023
     4  H   -0.000001  -0.000001   0.000000   0.000107  -0.000050  -0.000016
     5  C    0.016192  -0.012117   0.069331   0.002329  -0.000434  -0.000075
     6  C    0.000031   0.000183  -0.001461  -0.008824  -0.030528   0.010703
     7  C    0.000323  -0.000790   0.003866   0.000431  -0.000001  -0.000019
     8  C   -0.045769  -0.007405  -0.109596  -0.000037  -0.000004   0.000004
     9  C   -0.001494  -0.002497  -0.015517   0.007559   0.002856  -0.002119
    10  H    0.000227   0.000495   0.000797   0.001506  -0.000135   0.000152
    11  H    0.000565  -0.000863  -0.006634   0.000730  -0.000038  -0.000115
    12  C   -0.000220  -0.001936   0.005819  -0.277735   0.058772  -0.005980
    13  C   -0.000014  -0.000081   0.001281   0.306077  -0.082370  -0.029969
    14  C    0.000014  -0.000302   0.000316  -0.000002   0.000001  -0.000001
    15  H   -0.000002  -0.000005  -0.000021   0.000002  -0.000000   0.000000
    16  H   -0.000014   0.000015  -0.000002  -0.000001   0.000000  -0.000000
    17  H    0.000094   0.000023  -0.000107   0.000000   0.000000   0.000000
    18  C    0.403304   0.390620   0.400019   0.000016   0.000002  -0.000001
    19  H    0.510323  -0.013769  -0.028293  -0.000000   0.000000   0.000000
    20  H   -0.013769   0.495059  -0.019579  -0.000003  -0.000000   0.000000
    21  H   -0.028293  -0.019579   0.534012   0.000031  -0.000000  -0.000000
    22  C   -0.000000  -0.000003   0.000031   5.430885   0.392249   0.403454
    23  H    0.000000  -0.000000  -0.000000   0.392249   0.539739  -0.027678
    24  H    0.000000   0.000000  -0.000000   0.403454  -0.027678   0.494526
    25  H   -0.000000  -0.000000  -0.000000   0.382281  -0.021347  -0.008248
    26  C    0.000000   0.000002  -0.000014  -0.033602   0.017753  -0.015587
    27  H   -0.000000   0.000000  -0.000000   0.011105  -0.009564  -0.001324
    28  H    0.000000  -0.000000  -0.000000  -0.012339  -0.001745   0.001390
    29  H    0.000000  -0.000000   0.000000   0.001773   0.000727   0.000191
              25         26         27         28         29
     1  O    0.009304   0.000886  -0.000154  -0.000037   0.000022
     2  O    0.000000   0.000005  -0.000000  -0.000000  -0.000000
     3  N    0.000026  -0.029490   0.001756  -0.002606   0.002598
     4  H   -0.000002  -0.008435   0.000880   0.000505   0.001372
     5  C   -0.000120   0.000483   0.000096   0.000368  -0.000411
     6  C   -0.001414   0.186694  -0.042876  -0.036993  -0.049976
     7  C    0.000014   0.003818  -0.000715  -0.001072   0.003391
     8  C    0.000002   0.000676  -0.000003  -0.000014   0.000005
     9  C    0.000073   0.020636  -0.000907  -0.000148  -0.000603
    10  H   -0.000050  -0.000523  -0.000042  -0.000024   0.000062
    11  H   -0.000111   0.000020   0.000002   0.000055  -0.000006
    12  C    0.026827  -0.077417  -0.003362  -0.018755   0.021947
    13  C   -0.046335  -0.057050  -0.006889   0.006410  -0.000189
    14  C    0.000001   0.000844   0.000080  -0.000056  -0.000089
    15  H   -0.000000  -0.000258  -0.000012   0.000012   0.000091
    16  H   -0.000000  -0.000072   0.000004  -0.000017   0.000003
    17  H   -0.000000   0.000029  -0.000002   0.000002   0.000001
    18  C   -0.000000  -0.000006   0.000000  -0.000000   0.000000
    19  H   -0.000000   0.000000  -0.000000   0.000000   0.000000
    20  H   -0.000000   0.000002   0.000000  -0.000000  -0.000000
    21  H   -0.000000  -0.000014  -0.000000  -0.000000   0.000000
    22  C    0.382281  -0.033602   0.011105  -0.012339   0.001773
    23  H   -0.021347   0.017753  -0.009564  -0.001745   0.000727
    24  H   -0.008248  -0.015587  -0.001324   0.001390   0.000191
    25  H    0.501162   0.001934   0.000800   0.000113  -0.000047
    26  C    0.001934   5.254066   0.419869   0.433358   0.390148
    27  H    0.000800   0.419869   0.513936  -0.027434  -0.025431
    28  H    0.000113   0.433358  -0.027434   0.477819  -0.016463
    29  H   -0.000047   0.390148  -0.025431  -0.016463   0.513636
 Mulliken charges:
               1
     1  O   -0.379488
     2  O   -0.418474
     3  N   -0.216155
     4  H    0.293449
     5  C   -0.106316
     6  C    0.289508
     7  C    0.253296
     8  C    0.176254
     9  C   -0.288854
    10  H    0.167105
    11  H    0.172557
    12  C   -0.142626
    13  C    0.153715
    14  C   -0.473797
    15  H    0.141308
    16  H    0.171466
    17  H    0.176990
    18  C   -0.470108
    19  H    0.153337
    20  H    0.173418
    21  H    0.159182
    22  C   -0.493633
    23  H    0.157428
    24  H    0.178960
    25  H    0.155138
    26  C   -0.508765
    27  H    0.170187
    28  H    0.197672
    29  H    0.157247
 Sum of Mulliken charges =  -0.00000
 Mulliken charges with hydrogens summed into heavy atoms:
               1
     1  O   -0.379488
     2  O   -0.418474
     3  N    0.077293
     5  C   -0.106316
     6  C    0.289508
     7  C    0.253296
     8  C    0.176254
     9  C    0.050808
    12  C   -0.142626
    13  C    0.153715
    14  C    0.015968
    18  C    0.015829
    22  C   -0.002107
    26  C    0.016341
 Electronic spatial extent (au):  <R**2>=           3209.9396
 Charge=              0.0000 electrons
 Dipole moment (field-independent basis, Debye):
    X=             -4.5469    Y=              7.7239    Z=             -0.3990  Tot=              8.9717
 Quadrupole moment (field-independent basis, Debye-Ang):
   XX=           -100.6353   YY=            -78.2345   ZZ=            -84.5943
   XY=            -13.3737   XZ=             -4.2233   YZ=             -1.1247
 Traceless Quadrupole moment (field-independent basis, Debye-Ang):
   XX=            -12.8139   YY=              9.5868   ZZ=              3.2271
   XY=            -13.3737   XZ=             -4.2233   YZ=             -1.1247
 Octapole moment (field-independent basis, Debye-Ang**2):
  XXX=           -119.9853  YYY=             66.3536  ZZZ=              1.9492  XYY=             37.0513
  XXY=             30.7791  XXZ=            -10.1765  XZZ=             -2.3894  YZZ=             -0.8226
  YYZ=              1.9468  XYZ=              3.4105
 Hexadecapole moment (field-independent basis, Debye-Ang**3):
 XXXX=          -3137.5726 YYYY=          -1270.7920 ZZZZ=           -141.0588 XXXY=            -43.7843
 XXXZ=            -55.8808 YYYX=            -94.5766 YYYZ=            -17.9203 ZZZX=              3.5805
 ZZZY=              3.8162 XXYY=           -693.2199 XXZZ=           -489.6205 YYZZ=           -236.5999
 XXYZ=             -2.3457 YYXZ=             -4.4234 ZZXY=             -0.7044
 N-N= 8.998541471682D+02 E-N=-3.275647166824D+03  KE= 6.306742288050D+02
 No NMR shielding tensors so no spin-rotation constants.
 Leave Link  601 at Sat Jan 24 23:33:34 2026, MaxMem=  2147483648 cpu:               1.8 elap:               0.1
 (Enter /data/home/wyx/g16/l9999.exe)
 1\1\GINC-CN015\SP\RCAM-B3LYP\TZVP\C11H15N1O2\WYX\24-Jan-2026\0\\#p CAM
 -B3LYP TZVP em=gd3bj scrf=(Solvent=Water,NonEquilibrium=Read) Geom=Che
 ck Guess=Read\\Title Card Required\\0,1\O,0,2.756746,-1.557378,0.70197
 6\O,0,-3.30744,-1.656124,-0.946491\N,0,-0.682759,1.521332,0.031125\H,0
 ,-0.989931,2.47726,-0.042394\C,0,-1.241283,-0.763631,-0.162046\C,0,0.6
 55073,1.307875,0.219942\C,0,-1.610605,0.539222,-0.256069\C,0,-2.153035
 ,-1.824784,-0.473362\C,0,0.136705,-1.118768,0.341052\H,0,0.077853,-1.5
 14042,1.362311\H,0,0.555522,-1.926574,-0.257988\C,0,1.112451,0.034591,
 0.31704\C,0,2.501375,-0.376564,0.467518\C,0,-2.941274,1.072502,-0.6464
 17\H,0,-3.195221,1.971588,-0.079476\H,0,-2.973242,1.333794,-1.706352\H
 ,0,-3.756829,0.371028,-0.485348\C,0,-1.787081,-3.257683,-0.232463\H,0,
 -2.64252,-3.886944,0.015502\H,0,-1.328318,-3.695054,-1.12443\H,0,-1.06
 5946,-3.395071,0.572529\C,0,3.663169,0.573483,0.316305\H,0,3.547442,1.
 261102,-0.517298\H,0,3.798262,1.16259,1.224472\H,0,4.556899,-0.027825,
 0.168583\C,0,1.433769,2.586103,0.28769\H,0,2.202954,2.562417,1.050937\
 H,0,1.906876,2.808164,-0.669311\H,0,0.77039,3.417389,0.522464\\Version
 =ES64L-G16RevA.03\State=1-A\HF=-633.3259673\RMSD=8.331e-09\Dipole=0.59
 66063,3.4721227,0.2180566\Quadrupole=-12.1582781,11.5764837,0.5817943,
 2.1526127,-6.1120499,-0.0413808\PG=C01 [X(C11H15N1O2)]\\@


 Ideas are like rabbits. You get a couple and learn
 how to handle them, and pretty soon you have a dozen.
                                    -- John Steinbeck
 Job cpu time:       0 days  0 hours 12 minutes 47.3 seconds.
 Elapsed time:       0 days  0 hours  0 minutes 48.8 seconds.
 File lengths (MBytes):  RWF=    339 Int=      0 D2E=      0 Chk=     67 Scr=      1
 Normal termination of Gaussian 16 at Sat Jan 24 23:33:35 2026.
