 Entering Gaussian System, Link 0=g16
 Input=DDL-LR-Eq-11.gjf
 Output=DDL-LR-Eq-11.log
 Initial command:
 /data/home/wyx/g16/l1.exe "/scr/tmp/wyx/13119/Gau-1512841.inp" -scrdir="/scr/tmp/wyx/13119/"
 Entering Link 1 = /data/home/wyx/g16/l1.exe PID=   1512842.
  
 Copyright (c) 1988,1990,1992,1993,1995,1998,2003,2009,2016,
            Gaussian, Inc.  All Rights Reserved.
  
 This is part of the Gaussian(R) 16 program.  It is based on
 the Gaussian(R) 09 system (copyright 2009, Gaussian, Inc.),
 the Gaussian(R) 03 system (copyright 2003, Gaussian, Inc.),
 the Gaussian(R) 98 system (copyright 1998, Gaussian, Inc.),
 the Gaussian(R) 94 system (copyright 1995, Gaussian, Inc.),
 the Gaussian 92(TM) system (copyright 1992, Gaussian, Inc.),
 the Gaussian 90(TM) system (copyright 1990, Gaussian, Inc.),
 the Gaussian 88(TM) system (copyright 1988, Gaussian, Inc.),
 the Gaussian 86(TM) system (copyright 1986, Carnegie Mellon
 University), and the Gaussian 82(TM) system (copyright 1983,
 Carnegie Mellon University). Gaussian is a federally registered
 trademark of Gaussian, Inc.
  
 This software contains proprietary and confidential information,
 including trade secrets, belonging to Gaussian, Inc.
  
 This software is provided under written license and may be
 used, copied, transmitted, or stored only in accord with that
 written license.
  
 The following legend is applicable only to US Government
 contracts under FAR:
  
                    RESTRICTED RIGHTS LEGEND
  
 Use, reproduction and disclosure by the US Government is
 subject to restrictions as set forth in subparagraphs (a)
 and (c) of the Commercial Computer Software - Restricted
 Rights clause in FAR 52.227-19.
  
 Gaussian, Inc.
 340 Quinnipiac St., Bldg. 40, Wallingford CT 06492
  
  
 ---------------------------------------------------------------
 Warning -- This program may not be used in any manner that
 competes with the business of Gaussian, Inc. or will provide
 assistance to any competitor of Gaussian, Inc.  The licensee
 of this program is prohibited from giving any competitor of
 Gaussian, Inc. access to this program.  By using this program,
 the user acknowledges that Gaussian, Inc. is engaged in the
 business of creating and licensing software in the field of
 computational chemistry and represents and warrants to the
 licensee that it is not a competitor of Gaussian, Inc. and that
 it will not use this program in any manner prohibited above.
 ---------------------------------------------------------------
  

 Cite this work as:
 Gaussian 16, Revision A.03,
 M. J. Frisch, G. W. Trucks, H. B. Schlegel, G. E. Scuseria, 
 M. A. Robb, J. R. Cheeseman, G. Scalmani, V. Barone, 
 G. A. Petersson, H. Nakatsuji, X. Li, M. Caricato, A. V. Marenich, 
 J. Bloino, B. G. Janesko, R. Gomperts, B. Mennucci, H. P. Hratchian, 
 J. V. Ortiz, A. F. Izmaylov, J. L. Sonnenberg, D. Williams-Young, 
 F. Ding, F. Lipparini, F. Egidi, J. Goings, B. Peng, A. Petrone, 
 T. Henderson, D. Ranasinghe, V. G. Zakrzewski, J. Gao, N. Rega, 
 G. Zheng, W. Liang, M. Hada, M. Ehara, K. Toyota, R. Fukuda, 
 J. Hasegawa, M. Ishida, T. Nakajima, Y. Honda, O. Kitao, H. Nakai, 
 T. Vreven, K. Throssell, J. A. Montgomery, Jr., J. E. Peralta, 
 F. Ogliaro, M. J. Bearpark, J. J. Heyd, E. N. Brothers, K. N. Kudin, 
 V. N. Staroverov, T. A. Keith, R. Kobayashi, J. Normand, 
 K. Raghavachari, A. P. Rendell, J. C. Burant, S. S. Iyengar, 
 J. Tomasi, M. Cossi, J. M. Millam, M. Klene, C. Adamo, R. Cammi, 
 J. W. Ochterski, R. L. Martin, K. Morokuma, O. Farkas, 
 J. B. Foresman, and D. J. Fox, Gaussian, Inc., Wallingford CT, 2016.
 
 ******************************************
 Gaussian 16:  ES64L-G16RevA.03 25-Dec-2016
                24-Jan-2026 
 ******************************************
 %nprocshared=16
 Will use up to   16 processors via shared memory.
 %mem=16GB
 %oldchk=DDL-LR-11.chk
 %chk=DDL-LR-Eq-11.chk
 Copying data from "DDL-LR-11.chk" to current chk file "DDL-LR-Eq-11.chk"
 IOpt=  2 FromEx=T IUOpen= 4 IOptOp= 5 NList=   0 IFRang= 0 IUIn= 4 IUOut= 2.
 ----------------------------------------------------------------------
 #p CAM-B3LYP TZVP em=gd3bj td(Eqsolv,nstates=6,root=1) scrf=(Solvent=W
 ater) Geom=Check Guess=Read
 ----------------------------------------------------------------------
 1/29=2,38=1,172=1/1;
 2/12=2,40=1/2;
 3/5=19,7=101,11=9,14=-4,25=1,30=1,70=2201,72=1,74=-40,116=-2,124=41/1,2,3,8;
 4/5=1/1;
 5/5=2,38=6,53=1/2;
 8/6=1,10=1,107=1,108=6/1;
 9/8=1,41=6,42=1,70=2,73=2/14;
 6/7=2,8=2,9=2,10=2/1;
 99/5=1,9=1/99;
 Leave Link    1 at Sat Jan 24 16:27:58 2026, MaxMem=  2147483648 cpu:               0.8 elap:               0.1
 (Enter /data/home/wyx/g16/l101.exe)
 -------------------
 Title Card Required
 -------------------
 Structure from the checkpoint file:  "DDL-LR-Eq-11.chk"
 Charge =  0 Multiplicity = 1
 Z-Matrix found in chk file.
 O,0,2.754165,-1.558174,0.710229
 O,0,-3.284086,-1.6507,-1.000686
 N,0,-0.690616,1.519341,0.062084
 H,0,-0.997037,2.475888,-0.007087
 C,0,-1.242913,-0.76147,-0.158859
 C,0,0.651467,1.304966,0.23978
 C,0,-1.61237,0.540059,-0.246059
 C,0,-2.153583,-1.825457,-0.497801
 C,0,0.124935,-1.116017,0.372261
 H,0,0.049679,-1.486754,1.402056
 H,0,0.546824,-1.940812,-0.199812
 C,0,1.106755,0.031924,0.330581
 C,0,2.498851,-0.38073,0.463597
 C,0,-2.940042,1.074134,-0.651439
 H,0,-3.155308,2.023381,-0.156284
 H,0,-2.987064,1.246425,-1.728355
 H,0,-3.762779,0.403385,-0.416257
 C,0,-1.77227,-3.252262,-0.237951
 H,0,-2.637166,-3.905055,-0.123555
 H,0,-1.183761,-3.652141,-1.0689
 H,0,-1.160194,-3.382275,0.6546
 C,0,3.659333,0.564385,0.276301
 H,0,3.520344,1.253768,-0.552213
 H,0,3.824826,1.150999,1.181167
 H,0,4.546052,-0.039921,0.100847
 C,0,1.429985,2.583376,0.303496
 H,0,2.222818,2.549866,1.041409
 H,0,1.871328,2.821139,-0.665049
 H,0,0.77183,3.408734,0.571899
 Recover connectivity data from disk.
 ITRead=  0  0  0  0  0  0  0  0  0  0  0  0  0  0  0  0  0  0  0  0
 ITRead=  0  0  0  0  0  0  0  0  0
 MicOpt= -1 -1 -1 -1 -1 -1 -1 -1 -1 -1 -1 -1 -1 -1 -1 -1 -1 -1 -1 -1
 MicOpt= -1 -1 -1 -1 -1 -1 -1 -1 -1
 NAtoms=     29 NQM=       29 NQMF=       0 NMMI=      0 NMMIF=      0
                NMic=       0 NMicF=      0.
                    Isotopes and Nuclear Properties:
 (Nuclear quadrupole moments (NQMom) in fm**2, nuclear magnetic moments (NMagM)
  in nuclear magnetons)

  Atom         1           2           3           4           5           6           7           8           9          10
 IAtWgt=          16          16          14           1          12          12          12          12          12           1
 AtmWgt=  15.9949146  15.9949146  14.0030740   1.0078250  12.0000000  12.0000000  12.0000000  12.0000000  12.0000000   1.0078250
 NucSpn=           0           0           2           1           0           0           0           0           0           1
 AtZEff=   5.6000000   5.6000000   4.5500000   1.0000000   3.6000000   3.6000000   3.6000000   3.6000000   3.6000000   1.0000000
 NQMom=    0.0000000   0.0000000   2.0440000   0.0000000   0.0000000   0.0000000   0.0000000   0.0000000   0.0000000   0.0000000
 NMagM=    0.0000000   0.0000000   0.4037610   2.7928460   0.0000000   0.0000000   0.0000000   0.0000000   0.0000000   2.7928460
 AtZNuc=   8.0000000   8.0000000   7.0000000   1.0000000   6.0000000   6.0000000   6.0000000   6.0000000   6.0000000   1.0000000

  Atom        11          12          13          14          15          16          17          18          19          20
 IAtWgt=           1          12          12          12           1           1           1          12           1           1
 AtmWgt=   1.0078250  12.0000000  12.0000000  12.0000000   1.0078250   1.0078250   1.0078250  12.0000000   1.0078250   1.0078250
 NucSpn=           1           0           0           0           1           1           1           0           1           1
 AtZEff=   1.0000000   3.6000000   3.6000000   3.6000000   1.0000000   1.0000000   1.0000000   3.6000000   1.0000000   1.0000000
 NQMom=    0.0000000   0.0000000   0.0000000   0.0000000   0.0000000   0.0000000   0.0000000   0.0000000   0.0000000   0.0000000
 NMagM=    2.7928460   0.0000000   0.0000000   0.0000000   2.7928460   2.7928460   2.7928460   0.0000000   2.7928460   2.7928460
 AtZNuc=   1.0000000   6.0000000   6.0000000   6.0000000   1.0000000   1.0000000   1.0000000   6.0000000   1.0000000   1.0000000

  Atom        21          22          23          24          25          26          27          28          29
 IAtWgt=           1          12           1           1           1          12           1           1           1
 AtmWgt=   1.0078250  12.0000000   1.0078250   1.0078250   1.0078250  12.0000000   1.0078250   1.0078250   1.0078250
 NucSpn=           1           0           1           1           1           0           1           1           1
 AtZEff=   1.0000000   3.6000000   1.0000000   1.0000000   1.0000000   3.6000000   1.0000000   1.0000000   1.0000000
 NQMom=    0.0000000   0.0000000   0.0000000   0.0000000   0.0000000   0.0000000   0.0000000   0.0000000   0.0000000
 NMagM=    2.7928460   0.0000000   2.7928460   2.7928460   2.7928460   0.0000000   2.7928460   2.7928460   2.7928460
 AtZNuc=   1.0000000   6.0000000   1.0000000   1.0000000   1.0000000   6.0000000   1.0000000   1.0000000   1.0000000
 Leave Link  101 at Sat Jan 24 16:28:00 2026, MaxMem=  2147483648 cpu:               0.9 elap:               0.1
 (Enter /data/home/wyx/g16/l202.exe)
                          Input orientation:                          
 ---------------------------------------------------------------------
 Center     Atomic      Atomic             Coordinates (Angstroms)
 Number     Number       Type             X           Y           Z
 ---------------------------------------------------------------------
      1          8           0        2.754165   -1.558174    0.710229
      2          8           0       -3.284086   -1.650700   -1.000686
      3          7           0       -0.690616    1.519341    0.062084
      4          1           0       -0.997037    2.475888   -0.007087
      5          6           0       -1.242913   -0.761470   -0.158859
      6          6           0        0.651467    1.304966    0.239780
      7          6           0       -1.612370    0.540059   -0.246059
      8          6           0       -2.153583   -1.825457   -0.497801
      9          6           0        0.124935   -1.116017    0.372261
     10          1           0        0.049679   -1.486754    1.402056
     11          1           0        0.546824   -1.940812   -0.199812
     12          6           0        1.106755    0.031924    0.330581
     13          6           0        2.498851   -0.380730    0.463597
     14          6           0       -2.940042    1.074134   -0.651439
     15          1           0       -3.155308    2.023381   -0.156284
     16          1           0       -2.987064    1.246425   -1.728355
     17          1           0       -3.762779    0.403385   -0.416257
     18          6           0       -1.772270   -3.252262   -0.237951
     19          1           0       -2.637166   -3.905055   -0.123555
     20          1           0       -1.183761   -3.652141   -1.068900
     21          1           0       -1.160194   -3.382275    0.654600
     22          6           0        3.659333    0.564385    0.276301
     23          1           0        3.520344    1.253768   -0.552213
     24          1           0        3.824826    1.150999    1.181167
     25          1           0        4.546052   -0.039921    0.100847
     26          6           0        1.429985    2.583376    0.303496
     27          1           0        2.222818    2.549866    1.041409
     28          1           0        1.871328    2.821139   -0.665049
     29          1           0        0.771830    3.408734    0.571899
 ---------------------------------------------------------------------
                    Distance matrix (angstroms):
                    1          2          3          4          5
     1  O    0.000000
     2  O    6.276645   0.000000
     3  N    4.664516   4.231398   0.000000
     4  H    5.555152   4.821469   1.006807   0.000000
     5  C    4.167335   2.380292   2.357106   3.250227   0.000000
     6  C    3.583327   5.075756   1.370664   2.037049   2.831563
     7  C    4.937985   2.857188   1.379701   2.045281   1.355758
     8  C    5.061301   1.249588   3.693429   4.481068   1.440927
     9  C    2.687485   3.713798   2.776048   3.782130   1.509570
    10  H    2.792485   4.112668   3.373451   4.334032   2.152507
    11  H    2.418045   3.924466   3.684088   4.682722   2.143754
    12  C    2.320884   4.887022   2.348413   3.242363   2.527838
    13  C    1.229791   6.099124   3.734191   4.539057   3.812245
    14  C    6.419282   2.768584   2.401508   2.481002   2.548004
    15  H    6.964212   3.772064   2.525163   2.210239   3.378262
    16  H    6.839165   3.001842   2.924693   2.904230   3.088207
    17  H    6.898351   2.188600   3.303385   3.480232   2.787986
    18  C    4.925200   2.330741   4.901856   5.784979   2.547650
    19  H    5.938813   2.503993   5.766072   6.589387   3.439086
    20  H    4.801797   2.902031   5.316629   6.222142   3.031114
    21  H    4.318871   3.201444   4.959578   5.897671   2.745392
    22  C    2.347952   7.399214   4.458687   5.041422   5.096987
    23  H    3.176131   7.411972   4.263810   4.711419   5.186958
    24  H    2.950884   7.946485   4.666609   5.139809   5.579891
    25  H    2.426375   8.069637   5.464018   6.088249   5.839537
    26  C    4.367072   6.469216   2.384827   2.449174   4.306524
    27  H    4.155479   7.220865   3.241783   3.387076   4.941344
    28  H    4.674310   6.832883   2.964280   2.963044   4.773868
    29  H    5.349669   6.672432   2.443044   2.081902   4.688688
                    6          7          8          9         10
     6  C    0.000000
     7  C    2.438459   0.000000
     8  C    4.267538   2.439662   0.000000
     9  C    2.481118   2.478535   2.540070   0.000000
    10  H    3.083299   3.096233   2.928914   1.097081   0.000000
    11  H    3.277082   3.289222   2.719247   1.088827   1.737614
    12  C    1.355053   2.825660   3.842640   1.511118   2.138189
    13  C    2.510875   4.272423   4.965548   2.486859   2.846478
    14  C    3.707626   1.487374   3.008280   3.903691   4.439980
    15  H    3.894165   2.142186   3.991696   4.571124   5.002141
    16  H    4.137136   2.141480   3.412538   4.436018   5.146994
    17  H    4.552889   2.161459   2.750254   4.247901   4.627496
    18  C    5.183730   3.795699   1.499565   2.921522   3.020950
    19  H    6.171826   4.563360   2.167635   3.956484   3.923621
    20  H    5.445513   4.293636   2.145573   3.197117   3.509401
    21  H    5.042263   4.049735   2.176817   2.620534   2.369701
    22  C    3.097911   5.297575   6.332501   3.914707   4.301639
    23  H    2.976631   5.191133   6.455853   4.242562   4.834785
    24  H    3.313627   5.654496   6.886189   4.413942   4.610669
    25  H    4.122598   6.195392   6.959284   4.558281   4.899371
    26  C    1.498160   3.705817   5.737756   3.923441   4.435993
    27  H    2.159057   4.517252   6.376951   4.276397   4.598576
    28  H    2.146056   4.185096   6.149694   4.430248   5.113636
    29  H    2.133221   3.818738   6.090899   4.575117   5.017616
                   11         12         13         14         15
    11  H    0.000000
    12  C    2.118142   0.000000
    13  C    2.585416   1.458049   0.000000
    14  C    4.631641   4.292683   5.739468   0.000000
    15  H    5.424251   4.729495   6.175234   1.092057   0.000000
    16  H    4.998328   4.740631   6.127606   1.091624   1.761640
    17  H    4.910681   4.940457   6.371577   1.087249   1.749570
    18  C    2.664499   4.404304   5.194260   4.500263   5.454528
    19  H    3.741906   5.451879   6.256539   5.016245   5.951126
    20  H    2.584354   4.558217   5.158712   5.059296   6.077122
    21  H    2.392017   4.111058   4.736493   4.973246   5.818860
    22  C    4.023731   2.608087   1.508324   6.683734   6.982487
    23  H    4.378510   2.845635   2.178739   6.463645   6.731522
    24  H    4.712929   3.060022   2.149258   7.009122   7.160454
    25  H    4.438199   3.447710   2.106839   7.605830   7.977110
    26  C    4.636978   2.571987   3.155001   4.720895   4.642187
    27  H    4.951341   2.844452   2.999742   5.630155   5.534970
    28  H    4.964568   3.058688   3.452476   5.118739   5.114912
    29  H    5.409603   3.401949   4.165857   4.552462   4.227513
                   16         17         18         19         20
    16  H    0.000000
    17  H    1.741853   0.000000
    18  C    4.892363   4.166254   0.000000
    19  H    5.406992   4.462660   1.089619   0.000000
    20  H    5.261438   4.850213   1.093948   1.752150   0.000000
    21  H    5.517317   4.717139   1.090040   1.749363   1.744659
    22  C    6.975559   7.456092   6.658345   7.731861   6.560809
    23  H    6.612845   7.333861   6.958077   8.044385   6.816415
    24  H    7.407852   7.789893   7.261549   8.308028   7.295128
    25  H    7.858022   8.336701   7.096134   8.160162   6.873660
    26  C    5.042438   5.677605   6.678493   7.669669   6.899044
    27  H    6.042634   6.523767   7.159761   8.163491   7.383974
    28  H    5.216734   6.136008   7.095380   8.115505   7.169381
    29  H    4.908771   5.529128   7.176153   8.099162   7.508163
                   21         22         23         24         25
    21  H    0.000000
    22  C    6.240759   0.000000
    23  H    6.697517   1.086739   0.000000
    24  H    6.758570   1.091002   1.762917   0.000000
    25  H    6.636205   1.087309   1.775442   1.762257   0.000000
    26  C    6.513163   3.007833   2.621011   2.925282   4.078312
    27  H    6.839933   2.567314   2.429624   2.131382   3.604035
    28  H    7.029505   3.029198   2.277858   3.164496   3.990791
    29  H    7.060974   4.063911   3.669037   3.845694   5.134186
                   26         27         28         29
    26  C    0.000000
    27  H    1.083616   0.000000
    28  H    1.090594   1.763273   0.000000
    29  H    1.089231   1.750274   1.756190   0.000000
 Stoichiometry    C11H15NO2
 Framework group  C1[X(C11H15NO2)]
 Deg. of freedom    81
 Full point group                 C1      NOp   1
 RotChk:  IX=0 Diff= 6.27D-16
 Largest Abelian subgroup         C1      NOp   1
 Largest concise Abelian subgroup C1      NOp   1
                         Standard orientation:                         
 ---------------------------------------------------------------------
 Center     Atomic      Atomic             Coordinates (Angstroms)
 Number     Number       Type             X           Y           Z
 ---------------------------------------------------------------------
      1          8           0       -2.276082   -2.294954   -0.140193
      2          8           0        3.626790   -0.224917    0.376839
      3          7           0       -0.043116    1.799868   -0.203479
      4          1           0       -0.077278    2.806092   -0.205767
      5          6           0        1.289705   -0.139400   -0.066459
      6          6           0       -1.238471    1.134777   -0.116886
      7          6           0        1.198217    1.213267   -0.067217
      8          6           0        2.555397   -0.806879    0.103145
      9          6           0        0.056275   -0.971951   -0.320054
     10          1           0        0.071003   -1.374079   -1.340673
     11          1           0        0.052081   -1.843834    0.332132
     12          6           0       -1.236570   -0.220208   -0.103464
     13          6           0       -2.401951   -1.084803    0.038913
     14          6           0        2.310611    2.191227    0.068644
     15          1           0        2.095066    3.116582   -0.469729
     16          1           0        2.485231    2.451668    1.114264
     17          1           0        3.258405    1.819281   -0.312740
     18          6           0        2.648494   -2.294439   -0.061759
     19          1           0        3.650358   -2.626087   -0.332954
     20          1           0        2.390305   -2.803313    0.871573
     21          1           0        1.970864   -2.690508   -0.818155
     22          6           0       -3.764039   -0.572213    0.435153
     23          1           0       -3.726390    0.185463    1.213300
     24          1           0       -4.278477   -0.146588   -0.427681
     25          1           0       -4.342886   -1.423508    0.785116
     26          6           0       -2.407351    2.069093   -0.044384
     27          1           0       -3.257504    1.714912   -0.615363
     28          1           0       -2.724781    2.218869    0.988185
     29          1           0       -2.131749    3.044125   -0.444110
 ---------------------------------------------------------------------
 Rotational constants (GHZ):           1.0905382           0.4869177           0.3440652
 Leave Link  202 at Sat Jan 24 16:28:00 2026, MaxMem=  2147483648 cpu:               0.0 elap:               0.0
 (Enter /data/home/wyx/g16/l301.exe)
 Standard basis: TZVP (5D, 7F)
 Ernie: Thresh=  0.10000D-02 Tol=  0.10000D-05 Strict=F.
 There are   370 symmetry adapted cartesian basis functions of A   symmetry.
 There are   356 symmetry adapted basis functions of A   symmetry.
   356 basis functions,   610 primitive gaussians,   370 cartesian basis functions
    52 alpha electrons       52 beta electrons
       nuclear repulsion energy       900.2284117640 Hartrees.
 IExCor=20419 DFT=T Ex+Corr=CAM-B3LYP ExCW=0 ScaHFX=  1.000000
 ScaDFX=  1.000000  1.000000  1.000000  0.810000 ScalE2=  1.000000  1.000000
 IRadAn=      5 IRanWt=     -1 IRanGd=            0 ICorTp=0 IEmpDi=141
 HFx  wShort=  0.000000 wLong=  0.330000 cFull=  0.190000 cShort=  0.000000 cLong=  0.460000
 DFx  wShort=  0.000000 wLong=  0.330000 cFull=  0.190000 cShort=  0.000000 cLong=  0.460000
 NAtoms=   29 NActive=   29 NUniq=   29 SFac= 1.00D+00 NAtFMM=   60 NAOKFM=F Big=F
 Integral buffers will be    131072 words long.
 Raffenetti 1 integral format.
 Two-electron integral symmetry is turned on.
 R6Disp:  Grimme-D3(BJ) Dispersion energy=       -0.0261593528 Hartrees.
 Nuclear repulsion after empirical dispersion term =      900.2022524112 Hartrees.
 ------------------------------------------------------------------------------
 Polarizable Continuum Model (PCM)
 =================================
 Model                : PCM.
 Atomic radii         : UFF (Universal Force Field).
 Polarization charges : Total charges.
 Charge compensation  : None.
 Solution method      : On-the-fly selection.
 Cavity type          : Scaled VdW (van der Waals Surface) (Alpha=1.100).
 Cavity algorithm     : GePol (No added spheres)
                        Default sphere list used, NSphG=   29.
                        Lebedev-Laikov grids with approx.  5.0 points / Ang**2.
                        Smoothing algorithm: York/Karplus (Gamma=1.0000).
                        Polarization charges: spherical gaussians, with
                                              point-specific exponents (IZeta= 3).
                        Self-potential: point-specific (ISelfS= 7).
                        Self-field    : sphere-specific E.n sum rule (ISelfD= 2).
 Solvent              : Water, Eps=  78.355300 Eps(inf)=   1.777849
 ------------------------------------------------------------------------------
 GePol: Number of generator spheres                  =      29
 GePol: Total number of spheres                      =      29
 GePol: Number of exposed spheres                    =      29 (100.00%)
 GePol: Number of points                             =    2109
 GePol: Average weight of points                     =       0.13
 GePol: Minimum weight of points                     =   0.48D-10
 GePol: Maximum weight of points                     =    0.20577
 GePol: Number of points with low weight             =     145
 GePol: Fraction of low-weight points (<1% of avg)   =       6.88%
 GePol: Cavity surface area                          =    269.120 Ang**2
 GePol: Cavity volume                                =    286.433 Ang**3
 Leave Link  301 at Sat Jan 24 16:28:00 2026, MaxMem=  2147483648 cpu:               0.6 elap:               0.0
 (Enter /data/home/wyx/g16/l302.exe)
 NPDir=0 NMtPBC=     1 NCelOv=     1 NCel=       1 NClECP=     1 NCelD=      1
         NCelK=      1 NCelE2=     1 NClLst=     1 CellRange=     0.0.
 One-electron integrals computed using PRISM.
 One-electron integral symmetry used in STVInt
 NBasis=   356 RedAO= T EigKep=  4.35D-05  NBF=   356
 NBsUse=   356 1.00D-06 EigRej= -1.00D+00 NBFU=   356
 Precomputing XC quadrature grid using
 IXCGrd= 4 IRadAn=           5 IRanWt=          -1 IRanGd=           0 AccXCQ= 0.00D+00.
 Generated NRdTot=       0 NPtTot=           0 NUsed=           0 NTot=          32
 NSgBfM=   366   366   366   366   366 MxSgAt=    29 MxSgA2=    29.
 Leave Link  302 at Sat Jan 24 16:28:01 2026, MaxMem=  2147483648 cpu:               3.1 elap:               0.2
 (Enter /data/home/wyx/g16/l303.exe)
 DipDrv:  MaxL=1.
 Leave Link  303 at Sat Jan 24 16:28:01 2026, MaxMem=  2147483648 cpu:               0.6 elap:               0.0
 (Enter /data/home/wyx/g16/l308.exe)
 Leave Link  308 at Sat Jan 24 16:28:01 2026, MaxMem=  2147483648 cpu:               0.7 elap:               0.1
 (Enter /data/home/wyx/g16/l401.exe)
 Initial guess from the checkpoint file:  "DDL-LR-Eq-11.chk"
 B after Tr=     0.000000    0.000000   -0.000000
         Rot=    1.000000    0.000000   -0.000000    0.000000 Ang=   0.00 deg.
 Guess basis will be translated and rotated to current coordinates.
 JPrj=2 DoOrth=T DoCkMO=T.
 Leave Link  401 at Sat Jan 24 16:28:02 2026, MaxMem=  2147483648 cpu:               2.3 elap:               0.2
 (Enter /data/home/wyx/g16/l502.exe)
 Integral symmetry usage will be decided dynamically.
 Closed shell SCF:
 Using DIIS extrapolation, IDIIS=  1040.
 NGot=  2147483648 LenX=  2147200095 LenY=  2147062754
 Requested convergence on RMS density matrix=1.00D-08 within 128 cycles.
 Requested convergence on MAX density matrix=1.00D-06.
 Requested convergence on             energy=1.00D-06.
 No special actions if energy rises.
 Fock matrices will be formed incrementally for  20 cycles.

 Cycle   1  Pass 1  IDiag  1:
 FoFJK:  IHMeth= 1 ICntrl=       0 DoSepK=T KAlg= 0 I1Cent=           0 FoldK=F
 IRaf=         1 NMat=       1 IRICut=       1 DoRegI=T DoRafI=F ISym2E= 0 IDoP0=0 IntGTp=1.
 FoFCou: FMM=F IPFlag=           0 FMFlag=      100000 FMFlg1=           0
         NFxFlg=           0 DoJE=T BraDBF=F KetDBF=F FulRan=T
         wScrn=  0.000000 ICntrl=       500 IOpCl=  0 I1Cent=           0 NGrid=           0
         NMat0=    1 NMatS0=      1 NMatT0=    0 NMatD0=    1 NMtDS0=    0 NMtDT0=    0
 Symmetry not used in FoFCou.
 Inv3:  Mode=1 IEnd=    13343643.
 Iteration    1 A*A^-1 deviation from unit magnitude is 3.33D-15 for    860.
 Iteration    1 A*A^-1 deviation from orthogonality  is 2.06D-15 for   1719    688.
 Iteration    1 A^-1*A deviation from unit magnitude is 3.33D-15 for   1582.
 Iteration    1 A^-1*A deviation from orthogonality  is 2.51D-15 for   1509   1276.
 E= -633.328995442223    
 DIIS: error= 5.92D-09 at cycle   1 NSaved=   1.
 NSaved= 1 IEnMin= 1 EnMin= -633.328995442223     IErMin= 1 ErrMin= 5.92D-09
 ErrMax= 5.92D-09  0.00D+00 EMaxC= 1.00D-01 BMatC= 1.36D-14 BMatP= 1.36D-14
 IDIUse=1 WtCom= 1.00D+00 WtEn= 0.00D+00
 Coeff-Com:  0.100D+01
 Coeff:      0.100D+01
 Gap=     0.236 Goal=   None    Shift=    0.000
 RMSDP=1.71D-09 MaxDP=1.10D-07              OVMax= 1.20D-07

 Error on total polarization charges =  0.01550
 SCF Done:  E(RCAM-B3LYP) =  -633.328995442     A.U. after    1 cycles
            NFock=  1  Conv=0.17D-08     -V/T= 2.0042
 KE= 6.306895812803D+02 PE=-3.276441745010D+03 EE= 1.112220915876D+03
 Leave Link  502 at Sat Jan 24 16:28:07 2026, MaxMem=  2147483648 cpu:              86.2 elap:               5.7
 (Enter /data/home/wyx/g16/l801.exe)
 DoSCS=F DFT=T ScalE2(SS,OS)=  1.000000  1.000000
 ExpMin= 9.52D-02 ExpMax= 2.70D+04 ExpMxC= 9.22D+02 IAcc=3 IRadAn=         5 AccDes= 0.00D+00
 HarFok:  IExCor=  205 AccDes= 0.00D+00 IRadAn=         5 IDoV=-2 UseB2=F ITyADJ=14
 ICtDFT= 12500011 ScaDFX=  1.000000  1.000000  1.000000  1.000000
 Largest valence mixing into a core orbital is  5.64D-05
 Largest core mixing into a valence orbital is  1.18D-05
 Range of M.O.s used for correlation:    15   356
 NBasis=   356 NAE=    52 NBE=    52 NFC=    14 NFV=     0
 NROrb=    342 NOA=    38 NOB=    38 NVA=   304 NVB=   304

 **** Warning!!: The largest alpha MO coefficient is  0.42286088D+02

 Leave Link  801 at Sat Jan 24 16:28:08 2026, MaxMem=  2147483648 cpu:               1.0 elap:               0.1
 (Enter /data/home/wyx/g16/l914.exe)
 RHF ground state
 Two-electron integrals replicated using symmetry.
 MDV=  2147483648 DFT=T DoStab=F Mixed=T DoRPA=T DoScal=F NonHer=T
 NEqPCM:  Using equilibrium solvation (IEInf=0, Eps=  78.3553, EpsInf=   1.7778)
 Making orbital integer symmetry assigments:
 Orbital symmetries:
       Occupied  (A) (A) (A) (A) (A) (A) (A) (A) (A) (A) (A) (A)
                 (A) (A) (A) (A) (A) (A) (A) (A) (A) (A) (A) (A)
                 (A) (A) (A) (A) (A) (A) (A) (A) (A) (A) (A) (A)
                 (A) (A) (A) (A) (A) (A) (A) (A) (A) (A) (A) (A)
                 (A) (A) (A) (A)
       Virtual   (A) (A) (A) (A) (A) (A) (A) (A) (A) (A) (A) (A)
                 (A) (A) (A) (A) (A) (A) (A) (A) (A) (A) (A) (A)
                 (A) (A) (A) (A) (A) (A) (A) (A) (A) (A) (A) (A)
                 (A) (A) (A) (A) (A) (A) (A) (A) (A) (A) (A) (A)
                 (A) (A) (A) (A) (A) (A) (A) (A) (A) (A) (A) (A)
                 (A) (A) (A) (A) (A) (A) (A) (A) (A) (A) (A) (A)
                 (A) (A) (A) (A) (A) (A) (A) (A) (A) (A) (A) (A)
                 (A) (A) (A) (A) (A) (A) (A) (A) (A) (A) (A) (A)
                 (A) (A) (A) (A) (A) (A) (A) (A) (A) (A) (A) (A)
                 (A) (A) (A) (A) (A) (A) (A) (A) (A) (A) (A) (A)
                 (A) (A) (A) (A) (A) (A) (A) (A) (A) (A) (A) (A)
                 (A) (A) (A) (A) (A) (A) (A) (A) (A) (A) (A) (A)
                 (A) (A) (A) (A) (A) (A) (A) (A) (A) (A) (A) (A)
                 (A) (A) (A) (A) (A) (A) (A) (A) (A) (A) (A) (A)
                 (A) (A) (A) (A) (A) (A) (A) (A) (A) (A) (A) (A)
                 (A) (A) (A) (A) (A) (A) (A) (A) (A) (A) (A) (A)
                 (A) (A) (A) (A) (A) (A) (A) (A) (A) (A) (A) (A)
                 (A) (A) (A) (A) (A) (A) (A) (A) (A) (A) (A) (A)
                 (A) (A) (A) (A) (A) (A) (A) (A) (A) (A) (A) (A)
                 (A) (A) (A) (A) (A) (A) (A) (A) (A) (A) (A) (A)
                 (A) (A) (A) (A) (A) (A) (A) (A) (A) (A) (A) (A)
                 (A) (A) (A) (A) (A) (A) (A) (A) (A) (A) (A) (A)
                 (A) (A) (A) (A) (A) (A) (A) (A) (A) (A) (A) (A)
                 (A) (A) (A) (A) (A) (A) (A) (A) (A) (A) (A) (A)
                 (A) (A) (A) (A) (A) (A) (A) (A) (A) (A) (A) (A)
                 (A) (A) (A) (A)
    24 initial guesses have been made.
 Convergence on wavefunction:    0.001000000000000
 Davidson Disk Diagonalization:  ConvIn= 1.00D-03 SkipCon=T Conv= 1.00D-03.
 Max sub-space:  2000 roots to seek:    24 dimension of matrix:        23104
 Iteration     1 Dimension    24 NMult     0 NNew     24
 CISAX will form    24 AO SS matrices at one time.
 NMat=    24 NSing=    24 JSym2X= 0.
 FoFJK:  IHMeth= 1 ICntrl=       0 DoSepK=T KAlg= 0 I1Cent=           0 FoldK=F
 IRaf=         1 NMat=      48 IRICut=       1 DoRegI=T DoRafI=F ISym2E= 0 IDoP0=3 IntGTp=3.
 FoFCou: FMM=F IPFlag=           0 FMFlag=      100000 FMFlg1=           0
         NFxFlg=           0 DoJE=F BraDBF=F KetDBF=F FulRan=T
         wScrn=  0.000000 ICntrl=       500 IOpCl=  0 I1Cent=           0 NGrid=           0
         NMat0=   24 NMatS0=     24 NMatT0=    0 NMatD0=   24 NMtDS0=    0 NMtDT0=    0
 Symmetry not used in FoFCou.
 New state      2 was old state      3
 New state      3 was old state      4
 New state      4 was old state      2
 Excitation Energies [eV] at current iteration:
 Root      1 :     3.781013799137236
 Root      2 :     4.133911046442733
 Root      3 :     4.528280688084282
 Root      4 :     5.482583427704262
 Root      5 :     6.164796003771229
 Root      6 :     6.308875061471270
 Root      7 :     6.786726788670625
 Root      8 :     6.866978319263060
 Root      9 :     6.885139317374927
 Root     10 :     7.166989145667851
 Root     11 :     7.206221517162899
 Root     12 :     7.507221322323764
 Root     13 :     7.542294814861689
 Root     14 :     7.655718406783881
 Root     15 :     7.812606489298978
 Root     16 :     8.014429038236139
 Root     17 :     8.202463314176764
 Root     18 :     8.297010091072345
 Root     19 :     8.351218618230792
 Root     20 :     8.588610286550203
 Root     21 :     8.797720265020562
 Root     22 :     8.827235357615558
 Root     23 :     8.924407978792818
 Root     24 :     9.246697119020032
 Iteration     2 Dimension    36 NMult    24 NNew     12
 CISAX will form    12 AO SS matrices at one time.
 NMat=    12 NSing=    12 JSym2X= 0.
 Root      1 not converged, maximum delta is    0.058808515261768
 Root      2 not converged, maximum delta is    0.069149114846982
 Root      3 not converged, maximum delta is    0.093414935399695
 Root      4 not converged, maximum delta is    0.392225392417383
 Root      5 not converged, maximum delta is    0.360892740554926
 Root      6 not converged, maximum delta is    0.214956563760059
 Excitation Energies [eV] at current iteration:
 Root      1 :     3.364041623123675   Change is   -0.416972176013561
 Root      2 :     3.901144190741221   Change is   -0.232766855701511
 Root      3 :     4.268844970071624   Change is   -0.259435718012657
 Root      4 :     5.035042317647616   Change is   -0.447541110056646
 Root      5 :     5.520799757928228   Change is   -0.643996245843002
 Root      6 :     6.119270138450837   Change is   -0.189604923020433
 Iteration     3 Dimension    48 NMult    36 NNew     12
 CISAX will form    12 AO SS matrices at one time.
 NMat=    12 NSing=    12 JSym2X= 0.
 Root      1 not converged, maximum delta is    0.007540607333831
 Root      2 not converged, maximum delta is    0.010621088785801
 Root      3 not converged, maximum delta is    0.015289538777545
 Root      4 not converged, maximum delta is    0.011654801165768
 Root      5 not converged, maximum delta is    0.011577819639497
 Root      6 not converged, maximum delta is    0.018822016480315
 Excitation Energies [eV] at current iteration:
 Root      1 :     3.349637566869369   Change is   -0.014404056254306
 Root      2 :     3.889337755353491   Change is   -0.011806435387731
 Root      3 :     4.255723935343816   Change is   -0.013121034727808
 Root      4 :     5.014124623065337   Change is   -0.020917694582280
 Root      5 :     5.506553935660626   Change is   -0.014245822267602
 Root      6 :     6.108917125718759   Change is   -0.010353012732078
 Iteration     4 Dimension    60 NMult    48 NNew     12
 CISAX will form    12 AO SS matrices at one time.
 NMat=    12 NSing=    12 JSym2X= 0.
 Root      1 not converged, maximum delta is    0.001668145974738
 Root      2 not converged, maximum delta is    0.001877876884674
 Root      3 not converged, maximum delta is    0.002191537088957
 Root      4 not converged, maximum delta is    0.003149728334904
 Root      5 not converged, maximum delta is    0.002691418086889
 Root      6 not converged, maximum delta is    0.004131233434043
 Excitation Energies [eV] at current iteration:
 Root      1 :     3.348499228518226   Change is   -0.001138338351143
 Root      2 :     3.888430918282459   Change is   -0.000906837071032
 Root      3 :     4.255040022305872   Change is   -0.000683913037944
 Root      4 :     5.011972087065521   Change is   -0.002152535999816
 Root      5 :     5.504961392727695   Change is   -0.001592542932930
 Root      6 :     6.108220706544432   Change is   -0.000696419174327
 Iteration     5 Dimension    72 NMult    60 NNew     12
 CISAX will form    12 AO SS matrices at one time.
 NMat=    12 NSing=    12 JSym2X= 0.
 Root      1 has converged.
 Root      2 has converged.
 Root      3 has converged.
 Root      4 has converged.
 Root      5 has converged.
 Root      6 not converged, maximum delta is    0.001020376382742
 Excitation Energies [eV] at current iteration:
 Root      1 :     3.348445570420898   Change is   -0.000053658097328
 Root      2 :     3.888396214057977   Change is   -0.000034704224482
 Root      3 :     4.255001560069751   Change is   -0.000038462236121
 Root      4 :     5.011824953817940   Change is   -0.000147133247580
 Root      5 :     5.504834802047474   Change is   -0.000126590680222
 Root      6 :     6.108175848349388   Change is   -0.000044858195044
 Iteration     6 Dimension    74 NMult    72 NNew      2
 CISAX will form     2 AO SS matrices at one time.
 NMat=     2 NSing=     2 JSym2X= 0.
 Root      1 has converged.
 Root      2 has converged.
 Root      3 has converged.
 Root      4 has converged.
 Root      5 has converged.
 Root      6 has converged.
 Excitation Energies [eV] at current iteration:
 Root      1 :     3.348445562072471   Change is   -0.000000008348428
 Root      2 :     3.888396152165978   Change is   -0.000000061891999
 Root      3 :     4.255001447100976   Change is   -0.000000112968775
 Root      4 :     5.011824745108776   Change is   -0.000000208709164
 Root      5 :     5.504834732863897   Change is   -0.000000069183577
 Root      6 :     6.108172295341407   Change is   -0.000003553007981
 Convergence achieved on expansion vectors.
 ***********************************************************************
 Excited states from <AA,BB:AA,BB> singles matrix:
 ***********************************************************************
 
 1PDM for each excited state written to RWF  633
 Ground to excited state transition densities written to RWF  633
 Ground to excited state transition electric dipole moments (Au):
       state          X           Y           Z        Dip. S.      Osc.
         1        -1.7351     -0.1622     -0.0556      3.0399      0.2494
         2        -0.2327     -0.0452     -0.0520      0.0589      0.0056
         3         0.0151     -0.1506      0.0440      0.0248      0.0026
         4         0.1250     -2.0020      0.1265      4.0395      0.4960
         5        -0.1959      1.3866     -0.0122      1.9612      0.2645
         6        -0.0369      0.2237      0.0453      0.0535      0.0080
 Ground to excited state transition velocity dipole moments (Au):
       state          X           Y           Z        Dip. S.      Osc.
         1         0.2058      0.0169      0.0071      0.0427      0.2313
         2         0.0329      0.0056      0.0054      0.0011      0.0053
         3        -0.0023      0.0224     -0.0031      0.0005      0.0022
         4        -0.0258      0.3522     -0.0189      0.1251      0.4528
         5         0.0383     -0.2768      0.0033      0.0781      0.2574
         6         0.0094     -0.0460     -0.0298      0.0031      0.0092
 Ground to excited state transition magnetic dipole moments (Au):
       state          X           Y           Z
         1         0.0910      0.0104     -1.4240
         2        -0.7855     -0.2579     -0.4183
         3        -0.0353     -0.9673     -0.1034
         4         0.0858      0.1099     -0.2608
         5        -0.2134     -0.1072      0.2108
         6         0.0459      0.0177     -0.0243
 Ground to excited state transition velocity quadrupole moments (Au):
       state          XX          YY          ZZ          XY          XZ          YZ
         1         0.2826     -0.1340     -0.0028     -0.5448      0.0588     -0.0095
         2         0.0332      0.0094     -0.0039     -0.0959      0.0389     -0.0738
         3        -0.0255      0.0122     -0.0233     -0.0389      0.0727      0.0033
         4        -1.4462      0.3318      0.0148     -0.2048     -0.0884     -0.0359
         5         0.5088     -0.3188     -0.0437      0.0739      0.0610     -0.0698
         6        -0.3055     -0.2148      0.1732     -0.0219     -0.0345      0.1055
 <0|del|b> * <b|rxdel|0> + <0|del|b> * <b|delr+rdel|0>
 Rotatory Strengths (R) in cgs (10**-40 erg-esu-cm/Gauss)
       state          XX          YY          ZZ    R(velocity)    E-M Angle
         1       -42.7806     30.1468     62.8396     16.7353       88.30
         2       -10.9735    -74.2405    -60.9451    -48.7197      160.60
         3       -51.6408      0.6213    -45.0869    -32.0355      163.93
         4       150.9868     -0.4441      8.5080     53.0169       66.67
         5        83.0253    -18.1515     12.7551     25.8763       75.56
         6        -1.6144      2.3525      0.3357      0.3579       83.59
 1/2[<0|r|b>*<b|rxdel|0> + (<0|rxdel|b>*<b|r|0>)*]
 Rotatory Strengths (R) in cgs (10**-40 erg-esu-cm/Gauss)
       state          XX          YY          ZZ     R(length)
         1       111.7005      1.1958    -56.0082     18.9627
         2      -129.2502     -8.2510    -15.3904    -50.9639
         3         0.3773   -103.0193      3.2157    -33.1421
         4        -7.5881    155.6085     23.3370     57.1192
         5       -29.5580    105.0986      1.8231     25.7879
         6         1.1992     -2.7974      0.7787     -0.2732
  1/2[<0|del|b>*<b|r|0> + (<0|r|b>*<b|del|0>)*] (Au)
       state          X           Y           Z        Dip. S.   Osc.(frdel)
         1        -0.3571     -0.0027     -0.0004      0.3602      0.2402
         2        -0.0077     -0.0003     -0.0003      0.0082      0.0055
         3        -0.0000     -0.0034     -0.0001      0.0035      0.0024
         4        -0.0032     -0.7052     -0.0024      0.7108      0.4739
         5        -0.0075     -0.3839     -0.0000      0.3914      0.2609
         6        -0.0003     -0.0103     -0.0013      0.0120      0.0080

 Excitation energies and oscillator strengths:
 
 Excited State   1:      Singlet-A      3.3484 eV  370.27 nm  f=0.2494  <S**2>=0.000
      52 -> 53         0.69747
 This state for optimization and/or second-order correction.
 Total Energy, E(TD-HF/TD-DFT) =  -633.205942332    
 Copying the excited state density for this state as the 1-particle RhoCI density.
 
 Excited State   2:      Singlet-A      3.8884 eV  318.86 nm  f=0.0056  <S**2>=0.000
      50 -> 53         0.11290
      50 -> 54        -0.10992
      51 -> 53         0.58535
      51 -> 54        -0.32512
 
 Excited State   3:      Singlet-A      4.2550 eV  291.38 nm  f=0.0026  <S**2>=0.000
      49 -> 53         0.16022
      49 -> 54         0.12624
      50 -> 53         0.52232
      50 -> 54         0.34994
      50 -> 58         0.11599
      51 -> 53        -0.11606
      51 -> 54        -0.14846
 
 Excited State   4:      Singlet-A      5.0118 eV  247.38 nm  f=0.4960  <S**2>=0.000
      49 -> 53        -0.14497
      52 -> 54         0.68356
 
 Excited State   5:      Singlet-A      5.5048 eV  225.23 nm  f=0.2645  <S**2>=0.000
      49 -> 53         0.64171
      50 -> 53        -0.22160
      52 -> 54         0.14398
 
 Excited State   6:      Singlet-A      6.1082 eV  202.98 nm  f=0.0080  <S**2>=0.000
      52 -> 55         0.66435
      52 -> 56         0.12994
 SavETr:  write IOETrn=   770 NScale= 10 NData=  16 NLR=1 NState=    6 LETran=     118.
 Leave Link  914 at Sat Jan 24 16:30:25 2026, MaxMem=  2147483648 cpu:            2192.3 elap:             137.5
 (Enter /data/home/wyx/g16/l601.exe)
 Copying SCF densities to generalized density rwf, IOpCl= 0 IROHF=0.

 **********************************************************************

            Population analysis using the SCF density.

 **********************************************************************

 Orbital symmetries:
       Occupied  (A) (A) (A) (A) (A) (A) (A) (A) (A) (A) (A) (A)
                 (A) (A) (A) (A) (A) (A) (A) (A) (A) (A) (A) (A)
                 (A) (A) (A) (A) (A) (A) (A) (A) (A) (A) (A) (A)
                 (A) (A) (A) (A) (A) (A) (A) (A) (A) (A) (A) (A)
                 (A) (A) (A) (A)
       Virtual   (A) (A) (A) (A) (A) (A) (A) (A) (A) (A) (A) (A)
                 (A) (A) (A) (A) (A) (A) (A) (A) (A) (A) (A) (A)
                 (A) (A) (A) (A) (A) (A) (A) (A) (A) (A) (A) (A)
                 (A) (A) (A) (A) (A) (A) (A) (A) (A) (A) (A) (A)
                 (A) (A) (A) (A) (A) (A) (A) (A) (A) (A) (A) (A)
                 (A) (A) (A) (A) (A) (A) (A) (A) (A) (A) (A) (A)
                 (A) (A) (A) (A) (A) (A) (A) (A) (A) (A) (A) (A)
                 (A) (A) (A) (A) (A) (A) (A) (A) (A) (A) (A) (A)
                 (A) (A) (A) (A) (A) (A) (A) (A) (A) (A) (A) (A)
                 (A) (A) (A) (A) (A) (A) (A) (A) (A) (A) (A) (A)
                 (A) (A) (A) (A) (A) (A) (A) (A) (A) (A) (A) (A)
                 (A) (A) (A) (A) (A) (A) (A) (A) (A) (A) (A) (A)
                 (A) (A) (A) (A) (A) (A) (A) (A) (A) (A) (A) (A)
                 (A) (A) (A) (A) (A) (A) (A) (A) (A) (A) (A) (A)
                 (A) (A) (A) (A) (A) (A) (A) (A) (A) (A) (A) (A)
                 (A) (A) (A) (A) (A) (A) (A) (A) (A) (A) (A) (A)
                 (A) (A) (A) (A) (A) (A) (A) (A) (A) (A) (A) (A)
                 (A) (A) (A) (A) (A) (A) (A) (A) (A) (A) (A) (A)
                 (A) (A) (A) (A) (A) (A) (A) (A) (A) (A) (A) (A)
                 (A) (A) (A) (A) (A) (A) (A) (A) (A) (A) (A) (A)
                 (A) (A) (A) (A) (A) (A) (A) (A) (A) (A) (A) (A)
                 (A) (A) (A) (A) (A) (A) (A) (A) (A) (A) (A) (A)
                 (A) (A) (A) (A) (A) (A) (A) (A) (A) (A) (A) (A)
                 (A) (A) (A) (A) (A) (A) (A) (A) (A) (A) (A) (A)
                 (A) (A) (A) (A) (A) (A) (A) (A) (A) (A) (A) (A)
                 (A) (A) (A) (A)
 The electronic state is 1-A.
 Alpha  occ. eigenvalues --  -19.17918 -19.17198 -14.44192 -10.33446 -10.33313
 Alpha  occ. eigenvalues --  -10.32135 -10.31924 -10.25637 -10.25050 -10.25017
 Alpha  occ. eigenvalues --  -10.24904 -10.24573 -10.24119 -10.23827  -1.11983
 Alpha  occ. eigenvalues --   -1.10531  -1.07627  -0.91377  -0.90486  -0.83891
 Alpha  occ. eigenvalues --   -0.82502  -0.81483  -0.78652  -0.74174  -0.71338
 Alpha  occ. eigenvalues --   -0.68934  -0.61899  -0.58395  -0.56889  -0.55142
 Alpha  occ. eigenvalues --   -0.54618  -0.54133  -0.52533  -0.51879  -0.50674
 Alpha  occ. eigenvalues --   -0.49896  -0.49449  -0.49062  -0.48374  -0.48263
 Alpha  occ. eigenvalues --   -0.46718  -0.45272  -0.44762  -0.43494  -0.43019
 Alpha  occ. eigenvalues --   -0.42430  -0.41980  -0.41499  -0.32973  -0.32328
 Alpha  occ. eigenvalues --   -0.31291  -0.26313
 Alpha virt. eigenvalues --   -0.02754   0.02132   0.06554   0.08277   0.08815
 Alpha virt. eigenvalues --    0.10175   0.10667   0.12053   0.12688   0.13852
 Alpha virt. eigenvalues --    0.14055   0.15387   0.15659   0.16467   0.16895
 Alpha virt. eigenvalues --    0.17410   0.17609   0.17913   0.18183   0.19136
 Alpha virt. eigenvalues --    0.19887   0.21431   0.22715   0.23413   0.23604
 Alpha virt. eigenvalues --    0.24387   0.24663   0.25457   0.25804   0.26490
 Alpha virt. eigenvalues --    0.27299   0.27547   0.29029   0.29565   0.30006
 Alpha virt. eigenvalues --    0.31481   0.32164   0.32385   0.33654   0.34538
 Alpha virt. eigenvalues --    0.35480   0.35725   0.36864   0.38037   0.38684
 Alpha virt. eigenvalues --    0.39305   0.41174   0.41917   0.42248   0.42764
 Alpha virt. eigenvalues --    0.44074   0.44441   0.45288   0.46160   0.46402
 Alpha virt. eigenvalues --    0.46914   0.48179   0.48361   0.48562   0.48894
 Alpha virt. eigenvalues --    0.49521   0.49669   0.50724   0.51399   0.51628
 Alpha virt. eigenvalues --    0.52434   0.52992   0.53782   0.53878   0.54490
 Alpha virt. eigenvalues --    0.54611   0.55565   0.55848   0.56721   0.58118
 Alpha virt. eigenvalues --    0.58695   0.59010   0.60036   0.61329   0.62055
 Alpha virt. eigenvalues --    0.63463   0.65091   0.65882   0.66681   0.67832
 Alpha virt. eigenvalues --    0.69616   0.70987   0.71546   0.72372   0.72736
 Alpha virt. eigenvalues --    0.73620   0.74743   0.75037   0.76521   0.77571
 Alpha virt. eigenvalues --    0.78886   0.79626   0.82197   0.83551   0.85846
 Alpha virt. eigenvalues --    0.87457   0.89871   0.94868   1.00238   1.24835
 Alpha virt. eigenvalues --    1.25352   1.27171   1.28464   1.29834   1.31202
 Alpha virt. eigenvalues --    1.32662   1.32876   1.33932   1.35628   1.35834
 Alpha virt. eigenvalues --    1.37132   1.37583   1.38202   1.39286   1.39580
 Alpha virt. eigenvalues --    1.40138   1.40816   1.41269   1.41727   1.42033
 Alpha virt. eigenvalues --    1.43144   1.43846   1.44195   1.45208   1.47208
 Alpha virt. eigenvalues --    1.47691   1.49290   1.49665   1.50731   1.51434
 Alpha virt. eigenvalues --    1.52116   1.52819   1.53227   1.55034   1.57279
 Alpha virt. eigenvalues --    1.58190   1.60242   1.60747   1.61579   1.62080
 Alpha virt. eigenvalues --    1.62885   1.63241   1.64466   1.65865   1.66170
 Alpha virt. eigenvalues --    1.66767   1.67544   1.67967   1.68505   1.69230
 Alpha virt. eigenvalues --    1.69398   1.70719   1.71296   1.72355   1.73325
 Alpha virt. eigenvalues --    1.73648   1.74640   1.76063   1.77156   1.78739
 Alpha virt. eigenvalues --    1.80459   1.83106   1.84610   1.85696   1.86332
 Alpha virt. eigenvalues --    1.87022   1.87461   1.87746   1.89627   1.90186
 Alpha virt. eigenvalues --    1.91448   1.93899   1.95963   1.98286   2.00188
 Alpha virt. eigenvalues --    2.01033   2.03974   2.04906   2.06758   2.09504
 Alpha virt. eigenvalues --    2.11062   2.13523   2.14486   2.17768   2.19707
 Alpha virt. eigenvalues --    2.21213   2.21824   2.22538   2.23465   2.25289
 Alpha virt. eigenvalues --    2.27159   2.28404   2.29526   2.31178   2.32057
 Alpha virt. eigenvalues --    2.34188   2.34354   2.36003   2.37293   2.38609
 Alpha virt. eigenvalues --    2.39227   2.40849   2.41377   2.44430   2.44739
 Alpha virt. eigenvalues --    2.45358   2.48110   2.48872   2.50512   2.51683
 Alpha virt. eigenvalues --    2.52652   2.53278   2.54131   2.56545   2.58251
 Alpha virt. eigenvalues --    2.58809   2.60203   2.60659   2.61462   2.62956
 Alpha virt. eigenvalues --    2.64045   2.66359   2.66568   2.67283   2.69071
 Alpha virt. eigenvalues --    2.70886   2.71479   2.73220   2.73283   2.75203
 Alpha virt. eigenvalues --    2.75720   2.77031   2.77938   2.78201   2.79159
 Alpha virt. eigenvalues --    2.80172   2.81255   2.83147   2.83831   2.84793
 Alpha virt. eigenvalues --    2.85880   2.86226   2.87961   2.89850   2.92607
 Alpha virt. eigenvalues --    2.97521   2.98919   2.99993   3.04886   3.10082
 Alpha virt. eigenvalues --    3.10148   3.12126   3.13976   3.18208   3.18736
 Alpha virt. eigenvalues --    3.21509   3.22393   3.24147   3.25103   3.26281
 Alpha virt. eigenvalues --    3.26587   3.29539   3.32534   3.35058   3.37026
 Alpha virt. eigenvalues --    3.37800   3.39362   3.39818   3.40847   3.41888
 Alpha virt. eigenvalues --    3.42299   3.44586   3.45508   3.46786   3.48303
 Alpha virt. eigenvalues --    3.49936   3.50845   3.54168   3.57035   3.58983
 Alpha virt. eigenvalues --    3.60402   3.90346   3.99519   4.33009   4.34731
 Alpha virt. eigenvalues --   21.63330  21.77472  22.06844  22.10380  22.11273
 Alpha virt. eigenvalues --   22.13101  22.15632  22.17940  22.21083  22.25774
 Alpha virt. eigenvalues --   22.30799  31.93272  43.62714  43.65013
          Condensed to atoms (all electrons):
               1          2          3          4          5          6
     1  O    7.953741   0.000000  -0.000233   0.000017   0.016583   0.016648
     2  O    0.000000   8.036348   0.000429   0.000036  -0.193638   0.001263
     3  N   -0.000233   0.000429   6.379023   0.374695  -0.108059   0.348572
     4  H    0.000017   0.000036   0.374695   0.398040   0.014173  -0.043477
     5  C    0.016583  -0.193638  -0.108059   0.014173   7.049864  -0.049261
     6  C    0.016648   0.001263   0.348572  -0.043477  -0.049261   5.600440
     7  C   -0.000321  -0.021842   0.370668  -0.042993   0.385696  -0.114604
     8  C   -0.000241   0.680031   0.004258  -0.000747  -0.375311   0.037261
     9  C   -0.023243   0.018724   0.017257  -0.000065  -0.539721  -0.111876
    10  H    0.003868   0.000069   0.003350   0.000023  -0.028588  -0.010929
    11  H    0.015409  -0.000140  -0.001417   0.000009  -0.113935   0.023399
    12  C   -0.227913  -0.002554  -0.095653   0.015778   0.157309  -0.166183
    13  C    0.719922  -0.000021   0.000312   0.000409   0.070489   0.158912
    14  C   -0.000008  -0.038993  -0.042189  -0.003212  -0.043768  -0.001292
    15  H   -0.000000   0.004695   0.004307   0.000211   0.011640   0.005685
    16  H   -0.000000   0.000691  -0.003958   0.000723  -0.010577  -0.001003
    17  H    0.000000   0.011234   0.003366   0.000728  -0.001172  -0.000545
    18  C   -0.000201  -0.105017  -0.000407   0.000019  -0.218154  -0.000756
    19  H   -0.000004   0.006857   0.000005  -0.000001   0.019729   0.000028
    20  H    0.000017   0.000051   0.000015  -0.000001  -0.007935   0.000212
    21  H    0.000224   0.005369   0.000116   0.000000   0.061469  -0.001391
    22  C   -0.112105   0.000000   0.000104   0.000107   0.002994  -0.010281
    23  H    0.004461  -0.000000  -0.000030  -0.000050  -0.000476  -0.032051
    24  H    0.001583   0.000000   0.000003  -0.000017  -0.000090   0.011187
    25  H    0.008767   0.000000   0.000027  -0.000002  -0.000126  -0.001278
    26  C    0.000913   0.000004  -0.029707  -0.007418   0.000117   0.185210
    27  H   -0.000178  -0.000000   0.002251   0.000885   0.000054  -0.042131
    28  H   -0.000039  -0.000000  -0.002633   0.000479   0.000389  -0.035742
    29  H    0.000023  -0.000000   0.001519   0.001235  -0.000451  -0.050456
               7          8          9         10         11         12
     1  O   -0.000321  -0.000241  -0.023243   0.003868   0.015409  -0.227913
     2  O   -0.021842   0.680031   0.018724   0.000069  -0.000140  -0.002554
     3  N    0.370668   0.004258   0.017257   0.003350  -0.001417  -0.095653
     4  H   -0.042993  -0.000747  -0.000065   0.000023   0.000009   0.015778
     5  C    0.385696  -0.375311  -0.539721  -0.028588  -0.113935   0.157309
     6  C   -0.114604   0.037261  -0.111876  -0.010929   0.023399  -0.166183
     7  C    5.428442  -0.224472  -0.181289  -0.006399   0.017216   0.017892
     8  C   -0.224472   5.543790   0.124117  -0.001597  -0.006900  -0.050454
     9  C   -0.181289   0.124117   6.331173   0.394469   0.536978  -0.040562
    10  H   -0.006399  -0.001597   0.394469   0.548427  -0.035369  -0.019525
    11  H    0.017216  -0.006900   0.536978  -0.035369   0.500432  -0.105416
    12  C    0.017892  -0.050454  -0.040562  -0.019525  -0.105416   7.343741
    13  C    0.016808  -0.007968  -0.255814  -0.002037   0.000242  -0.418987
    14  C    0.230817  -0.063615   0.014546  -0.001407   0.000441  -0.000099
    15  H   -0.066509   0.006088  -0.000759   0.000120  -0.000005  -0.000869
    16  H   -0.017313   0.003655  -0.000195  -0.000049   0.000053   0.000268
    17  H   -0.038880  -0.015432   0.000766   0.000134  -0.000063  -0.000234
    18  C    0.008179   0.327890   0.001083  -0.010325   0.002920   0.003337
    19  H    0.000434  -0.047956  -0.001287   0.000160   0.000503  -0.000243
    20  H   -0.000415  -0.011400  -0.004044   0.000607  -0.001132  -0.002532
    21  H    0.002935  -0.097045  -0.013455   0.001404  -0.006243   0.006578
    22  C    0.000258  -0.000030   0.006128   0.001512   0.000837  -0.265856
    23  H    0.000002  -0.000006   0.003099  -0.000133  -0.000054   0.060325
    24  H    0.000001   0.000003  -0.002088   0.000152  -0.000114  -0.008286
    25  H    0.000012   0.000002   0.000034  -0.000043  -0.000119   0.025986
    26  C    0.002704   0.000569   0.020375  -0.000571   0.000028  -0.077941
    27  H   -0.000685  -0.000001  -0.000952  -0.000060   0.000004  -0.005478
    28  H   -0.001022  -0.000014  -0.000165  -0.000022   0.000050  -0.019728
    29  H    0.003589   0.000000  -0.000558   0.000074  -0.000007   0.023653
              13         14         15         16         17         18
     1  O    0.719922  -0.000008  -0.000000  -0.000000   0.000000  -0.000201
     2  O   -0.000021  -0.038993   0.004695   0.000691   0.011234  -0.105017
     3  N    0.000312  -0.042189   0.004307  -0.003958   0.003366  -0.000407
     4  H    0.000409  -0.003212   0.000211   0.000723   0.000728   0.000019
     5  C    0.070489  -0.043768   0.011640  -0.010577  -0.001172  -0.218154
     6  C    0.158912  -0.001292   0.005685  -0.001003  -0.000545  -0.000756
     7  C    0.016808   0.230817  -0.066509  -0.017313  -0.038880   0.008179
     8  C   -0.007968  -0.063615   0.006088   0.003655  -0.015432   0.327890
     9  C   -0.255814   0.014546  -0.000759  -0.000195   0.000766   0.001083
    10  H   -0.002037  -0.001407   0.000120  -0.000049   0.000134  -0.010325
    11  H    0.000242   0.000441  -0.000005   0.000053  -0.000063   0.002920
    12  C   -0.418987  -0.000099  -0.000869   0.000268  -0.000234   0.003337
    13  C    5.469012  -0.000042  -0.000014  -0.000026   0.000001   0.000686
    14  C   -0.000042   5.191748   0.383513   0.400769   0.423167   0.000709
    15  H   -0.000014   0.383513   0.570497  -0.026993  -0.027977   0.000209
    16  H   -0.000026   0.400769  -0.026993   0.504339  -0.022776  -0.000012
    17  H    0.000001   0.423167  -0.027977  -0.022776   0.492496   0.000253
    18  C    0.000686   0.000709   0.000209  -0.000012   0.000253   5.275645
    19  H   -0.000012   0.000019  -0.000004  -0.000014   0.000085   0.398770
    20  H   -0.000097  -0.000321  -0.000005   0.000011   0.000028   0.390927
    21  H    0.000979   0.000275  -0.000020  -0.000001  -0.000090   0.393829
    22  C    0.299859  -0.000009   0.000003  -0.000001   0.000000   0.000020
    23  H   -0.084681   0.000000  -0.000000   0.000000   0.000000   0.000002
    24  H   -0.026953  -0.000001   0.000000   0.000000   0.000000  -0.000001
    25  H   -0.045035   0.000001   0.000000  -0.000000  -0.000000  -0.000000
    26  C   -0.055763   0.001140  -0.000218  -0.000110   0.000036   0.000003
    27  H   -0.006484   0.000092  -0.000014   0.000003  -0.000002   0.000000
    28  H    0.006493  -0.000072   0.000011  -0.000017   0.000002  -0.000001
    29  H   -0.000289  -0.000192   0.000105   0.000002  -0.000000   0.000000
              19         20         21         22         23         24
     1  O   -0.000004   0.000017   0.000224  -0.112105   0.004461   0.001583
     2  O    0.006857   0.000051   0.005369   0.000000  -0.000000   0.000000
     3  N    0.000005   0.000015   0.000116   0.000104  -0.000030   0.000003
     4  H   -0.000001  -0.000001   0.000000   0.000107  -0.000050  -0.000017
     5  C    0.019729  -0.007935   0.061469   0.002994  -0.000476  -0.000090
     6  C    0.000028   0.000212  -0.001391  -0.010281  -0.032051   0.011187
     7  C    0.000434  -0.000415   0.002935   0.000258   0.000002   0.000001
     8  C   -0.047956  -0.011400  -0.097045  -0.000030  -0.000006   0.000003
     9  C   -0.001287  -0.004044  -0.013455   0.006128   0.003099  -0.002088
    10  H    0.000160   0.000607   0.001404   0.001512  -0.000133   0.000152
    11  H    0.000503  -0.001132  -0.006243   0.000837  -0.000054  -0.000114
    12  C   -0.000243  -0.002532   0.006578  -0.265856   0.060325  -0.008286
    13  C   -0.000012  -0.000097   0.000979   0.299859  -0.084681  -0.026953
    14  C    0.000019  -0.000321   0.000275  -0.000009   0.000000  -0.000001
    15  H   -0.000004  -0.000005  -0.000020   0.000003  -0.000000   0.000000
    16  H   -0.000014   0.000011  -0.000001  -0.000001   0.000000   0.000000
    17  H    0.000085   0.000028  -0.000090   0.000000   0.000000   0.000000
    18  C    0.398770   0.390927   0.393829   0.000020   0.000002  -0.000001
    19  H    0.506453  -0.011027  -0.027121  -0.000000   0.000000   0.000000
    20  H   -0.011027   0.492840  -0.021951  -0.000005  -0.000000   0.000000
    21  H   -0.027121  -0.021951   0.539816   0.000024  -0.000000  -0.000000
    22  C   -0.000000  -0.000005   0.000024   5.422130   0.395029   0.402706
    23  H    0.000000  -0.000000  -0.000000   0.395029   0.538080  -0.027255
    24  H    0.000000   0.000000  -0.000000   0.402706  -0.027255   0.492215
    25  H   -0.000000  -0.000000  -0.000000   0.383004  -0.021489  -0.008016
    26  C    0.000000   0.000003  -0.000014  -0.031786   0.017374  -0.015702
    27  H   -0.000000   0.000000  -0.000000   0.010694  -0.009909  -0.001116
    28  H    0.000000  -0.000000  -0.000000  -0.012105  -0.001576   0.001326
    29  H    0.000000  -0.000000   0.000000   0.001856   0.000730   0.000202
              25         26         27         28         29
     1  O    0.008767   0.000913  -0.000178  -0.000039   0.000023
     2  O    0.000000   0.000004  -0.000000  -0.000000  -0.000000
     3  N    0.000027  -0.029707   0.002251  -0.002633   0.001519
     4  H   -0.000002  -0.007418   0.000885   0.000479   0.001235
     5  C   -0.000126   0.000117   0.000054   0.000389  -0.000451
     6  C   -0.001278   0.185210  -0.042131  -0.035742  -0.050456
     7  C    0.000012   0.002704  -0.000685  -0.001022   0.003589
     8  C    0.000002   0.000569  -0.000001  -0.000014   0.000000
     9  C    0.000034   0.020375  -0.000952  -0.000165  -0.000558
    10  H   -0.000043  -0.000571  -0.000060  -0.000022   0.000074
    11  H   -0.000119   0.000028   0.000004   0.000050  -0.000007
    12  C    0.025986  -0.077941  -0.005478  -0.019728   0.023653
    13  C   -0.045035  -0.055763  -0.006484   0.006493  -0.000289
    14  C    0.000001   0.001140   0.000092  -0.000072  -0.000192
    15  H    0.000000  -0.000218  -0.000014   0.000011   0.000105
    16  H   -0.000000  -0.000110   0.000003  -0.000017   0.000002
    17  H   -0.000000   0.000036  -0.000002   0.000002  -0.000000
    18  C   -0.000000   0.000003   0.000000  -0.000001   0.000000
    19  H   -0.000000   0.000000  -0.000000   0.000000   0.000000
    20  H   -0.000000   0.000003   0.000000  -0.000000  -0.000000
    21  H   -0.000000  -0.000014  -0.000000  -0.000000   0.000000
    22  C    0.383004  -0.031786   0.010694  -0.012105   0.001856
    23  H   -0.021489   0.017374  -0.009909  -0.001576   0.000730
    24  H   -0.008016  -0.015702  -0.001116   0.001326   0.000202
    25  H    0.498483   0.001906   0.000831   0.000106  -0.000047
    26  C    0.001906   5.252124   0.421350   0.432724   0.389403
    27  H    0.000831   0.421350   0.510835  -0.026010  -0.025954
    28  H    0.000106   0.432724  -0.026010   0.474720  -0.016905
    29  H   -0.000047   0.389403  -0.025954  -0.016905   0.516506
 Mulliken charges:
               1
     1  O   -0.377691
     2  O   -0.403595
     3  N   -0.225994
     4  H    0.290420
     5  C   -0.099243
     6  C    0.284438
     7  C    0.231092
     8  C    0.175525
     9  C   -0.292675
    10  H    0.162686
    11  H    0.172396
    12  C   -0.146354
    13  C    0.160100
    14  C   -0.452015
    15  H    0.136300
    16  H    0.172530
    17  H    0.174876
    18  C   -0.469604
    19  H    0.154625
    20  H    0.176155
    21  H    0.154313
    22  C   -0.495086
    23  H    0.158608
    24  H    0.180260
    25  H    0.156996
    26  C   -0.506752
    27  H    0.171976
    28  H    0.199750
    29  H    0.155963
 Sum of Mulliken charges =  -0.00000
 Mulliken charges with hydrogens summed into heavy atoms:
               1
     1  O   -0.377691
     2  O   -0.403595
     3  N    0.064426
     5  C   -0.099243
     6  C    0.284438
     7  C    0.231092
     8  C    0.175525
     9  C    0.042407
    12  C   -0.146354
    13  C    0.160100
    14  C    0.031691
    18  C    0.015490
    22  C    0.000778
    26  C    0.020937
 Electronic spatial extent (au):  <R**2>=           3201.3469
 Charge=             -0.0000 electrons
 Dipole moment (field-independent basis, Debye):
    X=             -4.2921    Y=              7.5829    Z=             -0.3640  Tot=              8.7210
 Quadrupole moment (field-independent basis, Debye-Ang):
   XX=            -98.8678   YY=            -78.3167   ZZ=            -84.7465
   XY=            -13.2383   XZ=             -4.7116   YZ=             -1.2458
 Traceless Quadrupole moment (field-independent basis, Debye-Ang):
   XX=            -11.5575   YY=              8.9936   ZZ=              2.5638
   XY=            -13.2383   XZ=             -4.7116   YZ=             -1.2458
 Octapole moment (field-independent basis, Debye-Ang**2):
  XXX=           -115.3428  YYY=             65.2468  ZZZ=              2.2643  XYY=             36.7577
  XXY=             30.5133  XXZ=            -10.5918  XZZ=             -2.6172  YZZ=             -0.8939
  YYZ=              2.4283  XYZ=              3.8686
 Hexadecapole moment (field-independent basis, Debye-Ang**3):
 XXXX=          -3086.7572 YYYY=          -1269.5703 ZZZZ=           -146.1710 XXXY=            -43.2775
 XXXZ=            -60.6892 YYYX=            -93.5094 YYYZ=            -19.7560 ZZZX=              3.5143
 ZZZY=              4.5171 XXYY=           -688.9434 XXZZ=           -488.9125 YYZZ=           -238.0469
 XXYZ=             -3.0458 YYXZ=             -4.7622 ZZXY=              0.0847
 N-N= 9.002022524112D+02 E-N=-3.276441745415D+03  KE= 6.306895812803D+02
 Leave Link  601 at Sat Jan 24 16:30:26 2026, MaxMem=  2147483648 cpu:               0.7 elap:               0.1
 (Enter /data/home/wyx/g16/l9999.exe)
 Electronic transition elements 
                 1             2             3             4             5 
      1  -0.633206D+03 -0.633186D+03 -0.633173D+03 -0.633145D+03 -0.633127D+03
      2   0.164375D+01  0.219732D+00  0.450563D-01  0.580505D+00 -0.286772D+00
      3   0.445062D+00  0.381504D-01 -0.147113D+00 -0.192418D+01  0.136945D+01
      4   0.374003D+00  0.956941D-01 -0.342087D-01  0.782447D-02 -0.600884D-01
      5  -0.194092D+00 -0.311606D-01 -0.602886D-02 -0.979732D-01  0.581862D-01
      6  -0.549833D-01 -0.613716D-02  0.218340D-01  0.339824D+00 -0.273144D+00
      7  -0.447231D-01 -0.115505D-01  0.175222D-02 -0.402547D-02  0.112580D-01
      8  -0.361671D+00  0.730314D+00  0.337093D+00 -0.166219D+00  0.273312D+00
      9  -0.492288D-02  0.328857D-01 -0.894845D+00  0.767299D-01 -0.297103D-01
     10   0.138031D+01  0.569271D+00  0.182217D+00  0.232245D+00 -0.160853D+00
     11  -0.131495D+00 -0.345017D-01 -0.715315D-01 -0.128270D+01  0.428276D+00
     12   0.267851D+00  0.760978D-01  0.333777D-01  0.253765D+00 -0.266600D+00
     13   0.950754D-02 -0.293041D-02  0.157550D-02 -0.707852D-01 -0.154219D-01
     14   0.535676D+00  0.637969D-01  0.138867D-01 -0.411203D+00  0.190108D+00
     15   0.204006D-01  0.460529D-02  0.598557D-01 -0.345127D+00  0.123811D+00
     16   0.131656D+00  0.957996D-01  0.244102D-01 -0.801709D-01  0.128129D+00
                 6 
      1  -0.633105D+03
      2  -0.322621D-01
      3   0.222243D+00
      4  -0.551352D-01
      5   0.105203D-02
      6  -0.460946D-01
      7   0.310959D-01
      8  -0.529588D-01
      9   0.109171D-02
     10   0.143701D-01
     11  -0.292425D+00
     12  -0.213930D+00
     13   0.159281D+00
     14   0.819252D-02
     15  -0.877955D-01
     16  -0.106841D+00
 1\1\GINC-CN015\SP\RCAM-B3LYP TD-FC\TZVP\C11H15N1O2\WYX\24-Jan-2026\0\\
 #p CAM-B3LYP TZVP em=gd3bj td(Eqsolv,nstates=6,root=1) scrf=(Solvent=W
 ater) Geom=Check Guess=Read\\Title Card Required\\0,1\O,0,2.754165,-1.
 558174,0.710229\O,0,-3.284086,-1.6507,-1.000686\N,0,-0.690616,1.519341
 ,0.062084\H,0,-0.997037,2.475888,-0.007087\C,0,-1.242913,-0.76147,-0.1
 58859\C,0,0.651467,1.304966,0.23978\C,0,-1.61237,0.540059,-0.246059\C,
 0,-2.153583,-1.825457,-0.497801\C,0,0.124935,-1.116017,0.372261\H,0,0.
 049679,-1.486754,1.402056\H,0,0.546824,-1.940812,-0.199812\C,0,1.10675
 5,0.031924,0.330581\C,0,2.498851,-0.38073,0.463597\C,0,-2.940042,1.074
 134,-0.651439\H,0,-3.155308,2.023381,-0.156284\H,0,-2.987064,1.246425,
 -1.728355\H,0,-3.762779,0.403385,-0.416257\C,0,-1.77227,-3.252262,-0.2
 37951\H,0,-2.637166,-3.905055,-0.123555\H,0,-1.183761,-3.652141,-1.068
 9\H,0,-1.160194,-3.382275,0.6546\C,0,3.659333,0.564385,0.276301\H,0,3.
 520344,1.253768,-0.552213\H,0,3.824826,1.150999,1.181167\H,0,4.546052,
 -0.039921,0.100847\C,0,1.429985,2.583376,0.303496\H,0,2.222818,2.54986
 6,1.041409\H,0,1.871328,2.821139,-0.665049\H,0,0.77183,3.408734,0.5718
 99\\Version=ES64L-G16RevA.03\State=1-A\HF=-633.3289954\RMSD=1.712e-09\
 PG=C01 [X(C11H15N1O2)]\\@


 We make a living by what we get,
 we make a life by what we give.
                   -- Sir Winston Churchill
 Job cpu time:       0 days  0 hours 38 minutes  9.7 seconds.
 Elapsed time:       0 days  0 hours  2 minutes 24.1 seconds.
 File lengths (MBytes):  RWF=    735 Int=      0 D2E=      0 Chk=     67 Scr=      1
 Normal termination of Gaussian 16 at Sat Jan 24 16:30:29 2026.
