 Entering Gaussian System, Link 0=g16
 Input=DDL-S1-cLR-4.gjf
 Output=DDL-S1-cLR-4.log
 Initial command:
 /data/home/wyx/g16/l1.exe "/scr/tmp/wyx/13119/Gau-1518308.inp" -scrdir="/scr/tmp/wyx/13119/"
 Entering Link 1 = /data/home/wyx/g16/l1.exe PID=   1518309.
  
 Copyright (c) 1988,1990,1992,1993,1995,1998,2003,2009,2016,
            Gaussian, Inc.  All Rights Reserved.
  
 This is part of the Gaussian(R) 16 program.  It is based on
 the Gaussian(R) 09 system (copyright 2009, Gaussian, Inc.),
 the Gaussian(R) 03 system (copyright 2003, Gaussian, Inc.),
 the Gaussian(R) 98 system (copyright 1998, Gaussian, Inc.),
 the Gaussian(R) 94 system (copyright 1995, Gaussian, Inc.),
 the Gaussian 92(TM) system (copyright 1992, Gaussian, Inc.),
 the Gaussian 90(TM) system (copyright 1990, Gaussian, Inc.),
 the Gaussian 88(TM) system (copyright 1988, Gaussian, Inc.),
 the Gaussian 86(TM) system (copyright 1986, Carnegie Mellon
 University), and the Gaussian 82(TM) system (copyright 1983,
 Carnegie Mellon University). Gaussian is a federally registered
 trademark of Gaussian, Inc.
  
 This software contains proprietary and confidential information,
 including trade secrets, belonging to Gaussian, Inc.
  
 This software is provided under written license and may be
 used, copied, transmitted, or stored only in accord with that
 written license.
  
 The following legend is applicable only to US Government
 contracts under FAR:
  
                    RESTRICTED RIGHTS LEGEND
  
 Use, reproduction and disclosure by the US Government is
 subject to restrictions as set forth in subparagraphs (a)
 and (c) of the Commercial Computer Software - Restricted
 Rights clause in FAR 52.227-19.
  
 Gaussian, Inc.
 340 Quinnipiac St., Bldg. 40, Wallingford CT 06492
  
  
 ---------------------------------------------------------------
 Warning -- This program may not be used in any manner that
 competes with the business of Gaussian, Inc. or will provide
 assistance to any competitor of Gaussian, Inc.  The licensee
 of this program is prohibited from giving any competitor of
 Gaussian, Inc. access to this program.  By using this program,
 the user acknowledges that Gaussian, Inc. is engaged in the
 business of creating and licensing software in the field of
 computational chemistry and represents and warrants to the
 licensee that it is not a competitor of Gaussian, Inc. and that
 it will not use this program in any manner prohibited above.
 ---------------------------------------------------------------
  

 Cite this work as:
 Gaussian 16, Revision A.03,
 M. J. Frisch, G. W. Trucks, H. B. Schlegel, G. E. Scuseria, 
 M. A. Robb, J. R. Cheeseman, G. Scalmani, V. Barone, 
 G. A. Petersson, H. Nakatsuji, X. Li, M. Caricato, A. V. Marenich, 
 J. Bloino, B. G. Janesko, R. Gomperts, B. Mennucci, H. P. Hratchian, 
 J. V. Ortiz, A. F. Izmaylov, J. L. Sonnenberg, D. Williams-Young, 
 F. Ding, F. Lipparini, F. Egidi, J. Goings, B. Peng, A. Petrone, 
 T. Henderson, D. Ranasinghe, V. G. Zakrzewski, J. Gao, N. Rega, 
 G. Zheng, W. Liang, M. Hada, M. Ehara, K. Toyota, R. Fukuda, 
 J. Hasegawa, M. Ishida, T. Nakajima, Y. Honda, O. Kitao, H. Nakai, 
 T. Vreven, K. Throssell, J. A. Montgomery, Jr., J. E. Peralta, 
 F. Ogliaro, M. J. Bearpark, J. J. Heyd, E. N. Brothers, K. N. Kudin, 
 V. N. Staroverov, T. A. Keith, R. Kobayashi, J. Normand, 
 K. Raghavachari, A. P. Rendell, J. C. Burant, S. S. Iyengar, 
 J. Tomasi, M. Cossi, J. M. Millam, M. Klene, C. Adamo, R. Cammi, 
 J. W. Ochterski, R. L. Martin, K. Morokuma, O. Farkas, 
 J. B. Foresman, and D. J. Fox, Gaussian, Inc., Wallingford CT, 2016.
 
 ******************************************
 Gaussian 16:  ES64L-G16RevA.03 25-Dec-2016
                24-Jan-2026 
 ******************************************
 %nprocshared=16
 Will use up to   16 processors via shared memory.
 %mem=16GB
 %oldchk=DDL-LR-4.chk
 %chk=DDL-S1-cLR-4.chk
 Copying data from "DDL-LR-4.chk" to current chk file "DDL-S1-cLR-4.chk"
 IOpt=  2 FromEx=T IUOpen= 4 IOptOp= 5 NList=   0 IFRang= 0 IUIn= 4 IUOut= 2.
 ----------------------------------------------------------------------
 #p CAM-B3LYP TZVP em=gd3bj td(nstates=6,root=1) scrf=(Solvent=Water,Co
 rrectedLR,NonEquilibrium=Save) Geom=Check Guess=Read
 ----------------------------------------------------------------------
 1/29=2,30=1,38=1,172=1/1;
 2/12=2,40=1/2;
 3/5=19,7=101,11=9,14=-4,25=1,30=1,70=9002201,71=1,72=1,74=-40,116=-2,124=41/1,2,3,8;
 4/5=1/1;
 5/5=2,38=6,53=1/2;
 8/6=1,10=1,107=1,108=6/1;
 9/8=1,15=1,41=6,42=1,70=2,73=22/14;
 10/5=4,13=10,28=1,74=20/2;
 6/7=2,8=2,9=2,10=2,22=-1/1;
 99/5=1,9=1/99;
 Leave Link    1 at Sat Jan 24 18:42:11 2026, MaxMem=  2147483648 cpu:               1.7 elap:               0.2
 (Enter /data/home/wyx/g16/l101.exe)
 -------------------
 Title Card Required
 -------------------
 Structure from the checkpoint file:  "DDL-S1-cLR-4.chk"
 Charge =  0 Multiplicity = 1
 Z-Matrix found in chk file.
 O,0,2.7628,-1.553973,0.680952
 O,0,-3.359321,-1.662849,-0.804642
 N,0,-0.66469,1.524611,-0.045964
 H,0,-0.974729,2.478783,-0.128956
 C,0,-1.238131,-0.770933,-0.169935
 C,0,0.66333,1.314369,0.170546
 C,0,-1.607714,0.536478,-0.281604
 C,0,-2.148582,-1.82807,-0.412963
 C,0,0.164021,-1.126902,0.263888
 H,0,0.144313,-1.587195,1.257873
 H,0,0.574685,-1.889653,-0.399012
 C,0,1.12574,0.039615,0.283965
 C,0,2.507476,-0.365344,0.476809
 C,0,-2.947134,1.070026,-0.634893
 H,0,-3.286739,1.816967,0.088652
 H,0,-2.945867,1.543963,-1.620083
 H,0,-3.72109,0.304598,-0.666836
 C,0,-1.817865,-3.277815,-0.220569
 H,0,-2.582471,-3.81908,0.340487
 H,0,-1.716602,-3.786094,-1.183842
 H,0,-0.880149,-3.424034,0.31025
 C,0,3.670128,0.595361,0.41576
 H,0,3.612602,1.278802,-0.427562
 H,0,3.729548,1.19048,1.327841
 H,0,4.578217,0.002678,0.337452
 C,0,1.44357,2.592367,0.248339
 H,0,2.15101,2.593285,1.070314
 H,0,1.993586,2.77488,-0.674766
 H,0,0.77006,3.434681,0.398499
 Recover connectivity data from disk.
 ITRead=  0  0  0  0  0  0  0  0  0  0  0  0  0  0  0  0  0  0  0  0
 ITRead=  0  0  0  0  0  0  0  0  0
 MicOpt= -1 -1 -1 -1 -1 -1 -1 -1 -1 -1 -1 -1 -1 -1 -1 -1 -1 -1 -1 -1
 MicOpt= -1 -1 -1 -1 -1 -1 -1 -1 -1
 NAtoms=     29 NQM=       29 NQMF=       0 NMMI=      0 NMMIF=      0
                NMic=       0 NMicF=      0.
                    Isotopes and Nuclear Properties:
 (Nuclear quadrupole moments (NQMom) in fm**2, nuclear magnetic moments (NMagM)
  in nuclear magnetons)

  Atom         1           2           3           4           5           6           7           8           9          10
 IAtWgt=          16          16          14           1          12          12          12          12          12           1
 AtmWgt=  15.9949146  15.9949146  14.0030740   1.0078250  12.0000000  12.0000000  12.0000000  12.0000000  12.0000000   1.0078250
 NucSpn=           0           0           2           1           0           0           0           0           0           1
 AtZEff=   5.6000000   5.6000000   4.5500000   1.0000000   3.6000000   3.6000000   3.6000000   3.6000000   3.6000000   1.0000000
 NQMom=    0.0000000   0.0000000   2.0440000   0.0000000   0.0000000   0.0000000   0.0000000   0.0000000   0.0000000   0.0000000
 NMagM=    0.0000000   0.0000000   0.4037610   2.7928460   0.0000000   0.0000000   0.0000000   0.0000000   0.0000000   2.7928460
 AtZNuc=   8.0000000   8.0000000   7.0000000   1.0000000   6.0000000   6.0000000   6.0000000   6.0000000   6.0000000   1.0000000

  Atom        11          12          13          14          15          16          17          18          19          20
 IAtWgt=           1          12          12          12           1           1           1          12           1           1
 AtmWgt=   1.0078250  12.0000000  12.0000000  12.0000000   1.0078250   1.0078250   1.0078250  12.0000000   1.0078250   1.0078250
 NucSpn=           1           0           0           0           1           1           1           0           1           1
 AtZEff=   1.0000000   3.6000000   3.6000000   3.6000000   1.0000000   1.0000000   1.0000000   3.6000000   1.0000000   1.0000000
 NQMom=    0.0000000   0.0000000   0.0000000   0.0000000   0.0000000   0.0000000   0.0000000   0.0000000   0.0000000   0.0000000
 NMagM=    2.7928460   0.0000000   0.0000000   0.0000000   2.7928460   2.7928460   2.7928460   0.0000000   2.7928460   2.7928460
 AtZNuc=   1.0000000   6.0000000   6.0000000   6.0000000   1.0000000   1.0000000   1.0000000   6.0000000   1.0000000   1.0000000

  Atom        21          22          23          24          25          26          27          28          29
 IAtWgt=           1          12           1           1           1          12           1           1           1
 AtmWgt=   1.0078250  12.0000000   1.0078250   1.0078250   1.0078250  12.0000000   1.0078250   1.0078250   1.0078250
 NucSpn=           1           0           1           1           1           0           1           1           1
 AtZEff=   1.0000000   3.6000000   1.0000000   1.0000000   1.0000000   3.6000000   1.0000000   1.0000000   1.0000000
 NQMom=    0.0000000   0.0000000   0.0000000   0.0000000   0.0000000   0.0000000   0.0000000   0.0000000   0.0000000
 NMagM=    2.7928460   0.0000000   2.7928460   2.7928460   2.7928460   0.0000000   2.7928460   2.7928460   2.7928460
 AtZNuc=   1.0000000   6.0000000   1.0000000   1.0000000   1.0000000   6.0000000   1.0000000   1.0000000   1.0000000
 Leave Link  101 at Sat Jan 24 18:42:13 2026, MaxMem=  2147483648 cpu:               0.9 elap:               0.1
 (Enter /data/home/wyx/g16/l202.exe)
                          Input orientation:                          
 ---------------------------------------------------------------------
 Center     Atomic      Atomic             Coordinates (Angstroms)
 Number     Number       Type             X           Y           Z
 ---------------------------------------------------------------------
      1          8           0        2.762800   -1.553973    0.680952
      2          8           0       -3.359321   -1.662849   -0.804642
      3          7           0       -0.664690    1.524611   -0.045964
      4          1           0       -0.974729    2.478783   -0.128956
      5          6           0       -1.238131   -0.770933   -0.169935
      6          6           0        0.663330    1.314369    0.170546
      7          6           0       -1.607714    0.536478   -0.281604
      8          6           0       -2.148582   -1.828070   -0.412963
      9          6           0        0.164021   -1.126902    0.263888
     10          1           0        0.144313   -1.587195    1.257873
     11          1           0        0.574685   -1.889653   -0.399012
     12          6           0        1.125740    0.039615    0.283965
     13          6           0        2.507476   -0.365344    0.476809
     14          6           0       -2.947134    1.070026   -0.634893
     15          1           0       -3.286739    1.816967    0.088652
     16          1           0       -2.945867    1.543963   -1.620083
     17          1           0       -3.721090    0.304598   -0.666836
     18          6           0       -1.817865   -3.277815   -0.220569
     19          1           0       -2.582471   -3.819080    0.340487
     20          1           0       -1.716602   -3.786094   -1.183842
     21          1           0       -0.880149   -3.424034    0.310250
     22          6           0        3.670128    0.595361    0.415760
     23          1           0        3.612602    1.278802   -0.427562
     24          1           0        3.729548    1.190480    1.327841
     25          1           0        4.578217    0.002678    0.337452
     26          6           0        1.443570    2.592367    0.248339
     27          1           0        2.151010    2.593285    1.070314
     28          1           0        1.993586    2.774880   -0.674766
     29          1           0        0.770060    3.434681    0.398499
 ---------------------------------------------------------------------
                    Distance matrix (angstroms):
                    1          2          3          4          5
     1  O    0.000000
     2  O    6.300731   0.000000
     3  N    4.664094   4.242232   0.000000
     4  H    5.557715   4.826587   1.006706   0.000000
     5  C    4.164686   2.387009   2.369330   3.260631   0.000000
     6  C    3.591055   5.098680   1.361879   2.031945   2.842528
     7  C    4.939422   2.859849   1.386083   2.048541   1.363226
     8  C    5.039192   1.283199   3.684711   4.472983   1.416165
     9  C    2.666455   3.720609   2.795227   3.801584   1.510280
    10  H    2.681495   4.066343   3.469555   4.439339   2.148504
    11  H    2.463098   3.961361   3.649369   4.642935   2.142501
    12  C    2.318855   4.919270   2.349405   3.245307   2.539862
    13  C    1.232763   6.143691   3.729324   4.536713   3.822611
    14  C    6.420293   2.768992   2.400632   2.476076   2.554605
    15  H    6.950610   3.593377   2.641729   2.414693   3.310723
    16  H    6.890635   3.334596   2.771641   2.642486   3.221496
    17  H    6.878346   2.005172   3.348954   3.543853   2.751138
    18  C    4.976632   2.307670   4.942023   5.818736   2.573541
    19  H    5.815372   2.562059   5.690541   6.516770   3.370309
    20  H    5.340867   2.711178   5.532167   6.396237   3.216852
    21  H    4.111645   3.238989   4.966125   5.919890   2.719866
    22  C    2.348022   7.483452   4.457280   5.041695   5.128431
    23  H    3.158414   7.576491   4.301310   4.751076   5.272324
    24  H    2.980787   7.933539   4.616093   5.090403   5.546919
    25  H    2.415966   8.190413   5.472784   6.097855   5.889467
    26  C    4.372603   6.502568   2.381486   2.450188   4.321835
    27  H    4.210183   7.210678   3.211901   3.349866   4.933808
    28  H    4.600938   6.954417   3.004163   3.032569   4.824069
    29  H    5.379355   6.669644   2.429902   2.058212   4.695012
                    6          7          8          9         10
     6  C    0.000000
     7  C    2.442784   0.000000
     8  C    4.257024   2.429173   0.000000
     9  C    2.493557   2.490670   2.509561   0.000000
    10  H    3.141772   3.154295   2.847294   1.095566   0.000000
    11  H    3.255459   3.265388   2.723999   1.090812   1.738381
    12  C    1.360766   2.835227   3.833424   1.511975   2.134996
    13  C    2.513187   4.280568   4.960861   2.473275   2.772638
    14  C    3.707275   1.484430   3.014282   3.913258   4.494489
    15  H    3.982757   2.143797   3.851404   4.539253   4.972677
    16  H    4.035513   2.144109   3.669252   4.511571   5.256995
    17  H    4.576460   2.160678   2.661861   4.243763   4.714311
    18  C    5.234258   3.820565   1.499383   2.964624   2.982303
    19  H    6.075887   4.506444   2.172572   3.846675   3.641189
    20  H    5.789056   4.417071   2.148190   3.564262   3.776259
    21  H    4.985409   4.070049   2.163114   2.523738   2.306835
    22  C    3.101280   5.324040   6.357451   3.909225   4.231321
    23  H    3.009519   5.274851   6.545541   4.261247   4.804546
    24  H    3.279691   5.612878   6.833334   4.383519   4.535888
    25  H    4.132158   6.239705   7.011746   4.557026   4.799414
    26  C    1.499368   3.717237   5.734208   3.933249   4.491766
    27  H    2.158333   4.492899   6.343105   4.293977   4.640951
    28  H    2.148773   4.258448   6.197842   4.410474   5.116894
    29  H    2.135199   3.809978   6.072355   4.603634   5.133159
                   11         12         13         14         15
    11  H    0.000000
    12  C    2.119480   0.000000
    13  C    2.612712   1.452713   0.000000
    14  C    4.606360   4.300506   5.748821   0.000000
    15  H    5.374704   4.760998   6.203715   1.093970   0.000000
    16  H    5.067052   4.739878   6.146654   1.093260   1.763661
    17  H    4.831164   4.946312   6.368028   1.088994   1.745475
    18  C    2.771846   4.463710   5.260931   4.511168   5.311310
    19  H    3.773219   5.351967   6.152596   4.998770   5.685459
    20  H    3.076108   4.986924   5.683496   5.039589   5.956414
    21  H    2.230229   4.002642   4.567202   5.036099   5.771384
    22  C    4.052273   2.607707   1.509450   6.716944   7.070878
    23  H    4.389631   2.868159   2.177707   6.566332   6.939525
    24  H    4.735230   3.032158   2.153672   6.960238   7.152367
    25  H    4.489049   3.453089   2.107802   7.662610   8.075338
    26  C    4.611131   2.572708   3.151531   4.730317   4.796099
    27  H    4.973978   2.861949   3.038553   5.587407   5.579914
    28  H    4.883358   3.025557   3.383964   5.226742   5.420538
    29  H    5.387275   3.415567   4.179107   4.525155   4.378427
                   16         17         18         19         20
    16  H    0.000000
    17  H    1.745187   0.000000
    18  C    5.145928   4.081066   0.000000
    19  H    5.721724   4.394983   1.091959   0.000000
    20  H    5.487341   4.584651   1.093845   1.753396   0.000000
    21  H    5.716150   4.788355   1.087410   1.747820   1.750158
    22  C    6.986837   7.475738   6.747183   7.654277   7.125499
    23  H    6.671277   7.401984   7.091937   8.059605   7.390910
    24  H    7.305913   7.763732   7.289515   8.118629   7.793291
    25  H    7.925865   8.365300   7.209916   8.116729   7.502924
    26  C    4.884394   5.722337   6.731706   7.571271   7.261033
    27  H    5.858111   6.537380   7.203344   8.003556   7.793338
    28  H    5.177545   6.225743   7.167187   8.090201   7.554537
    29  H    4.632235   5.576987   7.220679   7.991238   7.799159
                   21         22         23         24         25
    21  H    0.000000
    22  C    6.072206   0.000000
    23  H    6.545674   1.087011   0.000000
    24  H    6.601404   1.090683   1.761510   0.000000
    25  H    6.444909   1.087212   1.773739   1.764081   0.000000
    26  C    6.449851   2.995601   2.624308   2.890728   4.066994
    27  H    6.780395   2.593812   2.471386   2.127431   3.624868
    28  H    6.903271   2.958098   2.218236   3.087770   3.923010
    29  H    7.054995   4.058624   3.661999   3.828666   5.126834
                   26         27         28         29
    26  C    0.000000
    27  H    1.084488   0.000000
    28  H    1.089932   1.761551   0.000000
    29  H    1.088879   1.751087   1.756204   0.000000
 Stoichiometry    C11H15NO2
 Framework group  C1[X(C11H15NO2)]
 Deg. of freedom    81
 Full point group                 C1      NOp   1
 RotChk:  IX=0 Diff= 4.37D-16
 Largest Abelian subgroup         C1      NOp   1
 Largest concise Abelian subgroup C1      NOp   1
                         Standard orientation:                         
 ---------------------------------------------------------------------
 Center     Atomic      Atomic             Coordinates (Angstroms)
 Number     Number       Type             X           Y           Z
 ---------------------------------------------------------------------
      1          8           0       -2.261950   -2.309797   -0.097575
      2          8           0        3.666054   -0.197287    0.211091
      3          7           0       -0.061038    1.802310   -0.115904
      4          1           0       -0.095912    2.808404   -0.119633
      5          6           0        1.292717   -0.140613   -0.037652
      6          6           0       -1.247349    1.134855   -0.072473
      7          6           0        1.193688    1.219007   -0.034371
      8          6           0        2.542842   -0.798889    0.059207
      9          6           0        0.052930   -0.989622   -0.189503
     10          1           0        0.066695   -1.505187   -1.156079
     11          1           0        0.052342   -1.782119    0.560042
     12          6           0       -1.245608   -0.225861   -0.060910
     13          6           0       -2.409227   -1.091654    0.021343
     14          6           0        2.299990    2.205562    0.045240
     15          1           0        2.230521    2.953567   -0.750016
     16          1           0        2.296972    2.739350    0.999325
     17          1           0        3.286880    1.754638   -0.047623
     18          6           0        2.714119   -2.285982   -0.026640
     19          1           0        3.514947   -2.584733   -0.706196
     20          1           0        2.959563   -2.707638    0.952370
     21          1           0        1.812665   -2.789918   -0.367064
     22          6           0       -3.807280   -0.581304    0.273200
     23          1           0       -3.853201    0.155525    1.071052
     24          1           0       -4.222712   -0.128185   -0.627738
     25          1           0       -4.423378   -1.437152    0.537733
     26          6           0       -2.427334    2.059269   -0.037846
     27          1           0       -3.216686    1.744471   -0.711599
     28          1           0       -2.844285    2.128287    0.966813
     29          1           0       -2.126902    3.062585   -0.335762
 ---------------------------------------------------------------------
 Rotational constants (GHZ):           1.0994203           0.4822890           0.3401133
 Leave Link  202 at Sat Jan 24 18:42:13 2026, MaxMem=  2147483648 cpu:               0.0 elap:               0.0
 (Enter /data/home/wyx/g16/l301.exe)
 Standard basis: TZVP (5D, 7F)
 Ernie: Thresh=  0.10000D-02 Tol=  0.10000D-05 Strict=F.
 There are   370 symmetry adapted cartesian basis functions of A   symmetry.
 There are   356 symmetry adapted basis functions of A   symmetry.
   356 basis functions,   610 primitive gaussians,   370 cartesian basis functions
    52 alpha electrons       52 beta electrons
       nuclear repulsion energy       898.7696791010 Hartrees.
 IExCor=20419 DFT=T Ex+Corr=CAM-B3LYP ExCW=0 ScaHFX=  1.000000
 ScaDFX=  1.000000  1.000000  1.000000  0.810000 ScalE2=  1.000000  1.000000
 IRadAn=      5 IRanWt=     -1 IRanGd=            0 ICorTp=0 IEmpDi=141
 HFx  wShort=  0.000000 wLong=  0.330000 cFull=  0.190000 cShort=  0.000000 cLong=  0.460000
 DFx  wShort=  0.000000 wLong=  0.330000 cFull=  0.190000 cShort=  0.000000 cLong=  0.460000
 NAtoms=   29 NActive=   29 NUniq=   29 SFac= 1.00D+00 NAtFMM=   60 NAOKFM=F Big=F
 Integral buffers will be    131072 words long.
 Raffenetti 1 integral format.
 Two-electron integral symmetry is turned on.
 R6Disp:  Grimme-D3(BJ) Dispersion energy=       -0.0260843601 Hartrees.
 Nuclear repulsion after empirical dispersion term =      898.7435947409 Hartrees.
 ------------------------------------------------------------------------------
 Polarizable Continuum Model (PCM)
 =================================
 Model                : PCM.
 Atomic radii         : UFF (Universal Force Field).
 Polarization charges : Total charges.
 Charge compensation  : None.
 Solution method      : On-the-fly selection.
 Cavity type          : Scaled VdW (van der Waals Surface) (Alpha=1.100).
 Cavity algorithm     : GePol (No added spheres)
                        Default sphere list used, NSphG=   29.
                        Lebedev-Laikov grids with approx.  5.0 points / Ang**2.
                        Smoothing algorithm: York/Karplus (Gamma=1.0000).
                        Polarization charges: spherical gaussians, with
                                              point-specific exponents (IZeta= 3).
                        Self-potential: point-specific (ISelfS= 7).
                        Self-field    : sphere-specific E.n sum rule (ISelfD= 2).
 1st derivatives      : Analytical E(r).r(x)/FMM algorithm (CHGder, D1EAlg=3).
                        Cavity 1st derivative terms included.
 Solvent              : Water, Eps=  78.355300 Eps(inf)=   1.777849
 ------------------------------------------------------------------------------
 GePol: Number of generator spheres                  =      29
 GePol: Total number of spheres                      =      29
 GePol: Number of exposed spheres                    =      29 (100.00%)
 GePol: Number of points                             =    2098
 GePol: Average weight of points                     =       0.13
 GePol: Minimum weight of points                     =   0.22D-08
 GePol: Maximum weight of points                     =    0.20577
 GePol: Number of points with low weight             =     122
 GePol: Fraction of low-weight points (<1% of avg)   =       5.82%
 GePol: Cavity surface area                          =    269.263 Ang**2
 GePol: Cavity volume                                =    286.653 Ang**3
 Leave Link  301 at Sat Jan 24 18:42:13 2026, MaxMem=  2147483648 cpu:               0.6 elap:               0.0
 (Enter /data/home/wyx/g16/l302.exe)
 NPDir=0 NMtPBC=     1 NCelOv=     1 NCel=       1 NClECP=     1 NCelD=      1
         NCelK=      1 NCelE2=     1 NClLst=     1 CellRange=     0.0.
 One-electron integrals computed using PRISM.
 One-electron integral symmetry used in STVInt
 NBasis=   356 RedAO= T EigKep=  3.91D-05  NBF=   356
 NBsUse=   356 1.00D-06 EigRej= -1.00D+00 NBFU=   356
 Precomputing XC quadrature grid using
 IXCGrd= 4 IRadAn=           5 IRanWt=          -1 IRanGd=           0 AccXCQ= 0.00D+00.
 Generated NRdTot=       0 NPtTot=           0 NUsed=           0 NTot=          32
 NSgBfM=   366   366   366   366   366 MxSgAt=    29 MxSgA2=    29.
 Leave Link  302 at Sat Jan 24 18:42:13 2026, MaxMem=  2147483648 cpu:               3.1 elap:               0.2
 (Enter /data/home/wyx/g16/l303.exe)
 DipDrv:  MaxL=1.
 Leave Link  303 at Sat Jan 24 18:42:14 2026, MaxMem=  2147483648 cpu:               0.5 elap:               0.0
 (Enter /data/home/wyx/g16/l308.exe)
 Leave Link  308 at Sat Jan 24 18:42:14 2026, MaxMem=  2147483648 cpu:               0.7 elap:               0.1
 (Enter /data/home/wyx/g16/l401.exe)
 Initial guess from the checkpoint file:  "DDL-S1-cLR-4.chk"
 B after Tr=    -0.000000    0.000000    0.000000
         Rot=    1.000000    0.000000   -0.000000   -0.000000 Ang=   0.00 deg.
 Guess basis will be translated and rotated to current coordinates.
 JPrj=2 DoOrth=T DoCkMO=T.
 Leave Link  401 at Sat Jan 24 18:42:14 2026, MaxMem=  2147483648 cpu:               2.2 elap:               0.2
 (Enter /data/home/wyx/g16/l502.exe)
 Integral symmetry usage will be decided dynamically.
 Closed shell SCF:
 Using DIIS extrapolation, IDIIS=  1040.
 NGot=  2147483648 LenX=  2147200095 LenY=  2147062754
 Requested convergence on RMS density matrix=1.00D-08 within 128 cycles.
 Requested convergence on MAX density matrix=1.00D-06.
 Requested convergence on             energy=1.00D-06.
 No special actions if energy rises.
 Fock matrices will be formed incrementally for  20 cycles.

 Cycle   1  Pass 1  IDiag  1:
 FoFJK:  IHMeth= 1 ICntrl=       0 DoSepK=T KAlg= 0 I1Cent=           0 FoldK=F
 IRaf=         1 NMat=       1 IRICut=       1 DoRegI=T DoRafI=F ISym2E= 0 IDoP0=0 IntGTp=1.
 FoFCou: FMM=F IPFlag=           0 FMFlag=      100000 FMFlg1=           0
         NFxFlg=           0 DoJE=T BraDBF=F KetDBF=F FulRan=T
         wScrn=  0.000000 ICntrl=       500 IOpCl=  0 I1Cent=           0 NGrid=           0
         NMat0=    1 NMatS0=      1 NMatT0=    0 NMatD0=    1 NMtDS0=    0 NMtDT0=    0
 Symmetry not used in FoFCou.
 Inv3:  Mode=1 IEnd=    13204812.
 Iteration    1 A*A^-1 deviation from unit magnitude is 3.55D-15 for   1845.
 Iteration    1 A*A^-1 deviation from orthogonality  is 3.38D-15 for   1339    960.
 Iteration    1 A^-1*A deviation from unit magnitude is 3.33D-15 for   1845.
 Iteration    1 A^-1*A deviation from orthogonality  is 1.50D-15 for   2019   1839.
 E= -633.320259872597    
 DIIS: error= 8.14D-09 at cycle   1 NSaved=   1.
 NSaved= 1 IEnMin= 1 EnMin= -633.320259872597     IErMin= 1 ErrMin= 8.14D-09
 ErrMax= 8.14D-09  0.00D+00 EMaxC= 1.00D-01 BMatC= 2.02D-14 BMatP= 2.02D-14
 IDIUse=1 WtCom= 1.00D+00 WtEn= 0.00D+00
 Coeff-Com:  0.100D+01
 Coeff:      0.100D+01
 Gap=     0.228 Goal=   None    Shift=    0.000
 RMSDP=2.27D-09 MaxDP=1.39D-07              OVMax= 9.72D-08

 Error on total polarization charges =  0.01559
 SCF Done:  E(RCAM-B3LYP) =  -633.320259873     A.U. after    1 cycles
            NFock=  1  Conv=0.23D-08     -V/T= 2.0043
 KE= 6.306209348424D+02 PE=-3.273432576910D+03 EE= 1.110747787454D+03
 Leave Link  502 at Sat Jan 24 18:42:20 2026, MaxMem=  2147483648 cpu:              85.9 elap:               5.6
 (Enter /data/home/wyx/g16/l801.exe)
 DoSCS=F DFT=T ScalE2(SS,OS)=  1.000000  1.000000
 ExpMin= 9.52D-02 ExpMax= 2.70D+04 ExpMxC= 9.22D+02 IAcc=3 IRadAn=         5 AccDes= 0.00D+00
 HarFok:  IExCor=  205 AccDes= 0.00D+00 IRadAn=         5 IDoV=-2 UseB2=F ITyADJ=14
 ICtDFT= 12500011 ScaDFX=  1.000000  1.000000  1.000000  1.000000
 Largest valence mixing into a core orbital is  5.63D-05
 Largest core mixing into a valence orbital is  1.03D-05
 Range of M.O.s used for correlation:    15   356
 NBasis=   356 NAE=    52 NBE=    52 NFC=    14 NFV=     0
 NROrb=    342 NOA=    38 NOB=    38 NVA=   304 NVB=   304

 **** Warning!!: The largest alpha MO coefficient is  0.46702282D+02

 Leave Link  801 at Sat Jan 24 18:42:20 2026, MaxMem=  2147483648 cpu:               1.0 elap:               0.1
 (Enter /data/home/wyx/g16/l914.exe)
 RHF ground state
 Two-electron integrals replicated using symmetry.
 MDV=  2147483648 DFT=T DoStab=F Mixed=T DoRPA=T DoScal=F NonHer=T
 NEqPCM:  Using equilibrium solvation (IEInf=0, Eps=  78.3553, EpsInf=   1.7778)
 Making orbital integer symmetry assigments:
 Orbital symmetries:
       Occupied  (A) (A) (A) (A) (A) (A) (A) (A) (A) (A) (A) (A)
                 (A) (A) (A) (A) (A) (A) (A) (A) (A) (A) (A) (A)
                 (A) (A) (A) (A) (A) (A) (A) (A) (A) (A) (A) (A)
                 (A) (A) (A) (A) (A) (A) (A) (A) (A) (A) (A) (A)
                 (A) (A) (A) (A)
       Virtual   (A) (A) (A) (A) (A) (A) (A) (A) (A) (A) (A) (A)
                 (A) (A) (A) (A) (A) (A) (A) (A) (A) (A) (A) (A)
                 (A) (A) (A) (A) (A) (A) (A) (A) (A) (A) (A) (A)
                 (A) (A) (A) (A) (A) (A) (A) (A) (A) (A) (A) (A)
                 (A) (A) (A) (A) (A) (A) (A) (A) (A) (A) (A) (A)
                 (A) (A) (A) (A) (A) (A) (A) (A) (A) (A) (A) (A)
                 (A) (A) (A) (A) (A) (A) (A) (A) (A) (A) (A) (A)
                 (A) (A) (A) (A) (A) (A) (A) (A) (A) (A) (A) (A)
                 (A) (A) (A) (A) (A) (A) (A) (A) (A) (A) (A) (A)
                 (A) (A) (A) (A) (A) (A) (A) (A) (A) (A) (A) (A)
                 (A) (A) (A) (A) (A) (A) (A) (A) (A) (A) (A) (A)
                 (A) (A) (A) (A) (A) (A) (A) (A) (A) (A) (A) (A)
                 (A) (A) (A) (A) (A) (A) (A) (A) (A) (A) (A) (A)
                 (A) (A) (A) (A) (A) (A) (A) (A) (A) (A) (A) (A)
                 (A) (A) (A) (A) (A) (A) (A) (A) (A) (A) (A) (A)
                 (A) (A) (A) (A) (A) (A) (A) (A) (A) (A) (A) (A)
                 (A) (A) (A) (A) (A) (A) (A) (A) (A) (A) (A) (A)
                 (A) (A) (A) (A) (A) (A) (A) (A) (A) (A) (A) (A)
                 (A) (A) (A) (A) (A) (A) (A) (A) (A) (A) (A) (A)
                 (A) (A) (A) (A) (A) (A) (A) (A) (A) (A) (A) (A)
                 (A) (A) (A) (A) (A) (A) (A) (A) (A) (A) (A) (A)
                 (A) (A) (A) (A) (A) (A) (A) (A) (A) (A) (A) (A)
                 (A) (A) (A) (A) (A) (A) (A) (A) (A) (A) (A) (A)
                 (A) (A) (A) (A) (A) (A) (A) (A) (A) (A) (A) (A)
                 (A) (A) (A) (A) (A) (A) (A) (A) (A) (A) (A) (A)
                 (A) (A) (A) (A)
 PCM Corrected Linear-Response:
 Compute the excitation energies in the ground state reaction field.
    24 initial guesses have been made.
 Convergence on wavefunction:    0.000001000000000
 Davidson Disk Diagonalization:  ConvIn= 1.00D-06 SkipCon=T Conv= 1.00D-06.
 Max sub-space:  2000 roots to seek:    24 dimension of matrix:        23104
 Iteration     1 Dimension    24 NMult     0 NNew     24
 CISAX will form    24 AO SS matrices at one time.
 NMat=    24 NSing=    24 JSym2X= 0.
 FoFJK:  IHMeth= 1 ICntrl=       0 DoSepK=T KAlg= 0 I1Cent=           0 FoldK=F
 IRaf=         1 NMat=      48 IRICut=       1 DoRegI=T DoRafI=F ISym2E= 0 IDoP0=3 IntGTp=3.
 FoFCou: FMM=F IPFlag=           0 FMFlag=      100000 FMFlg1=           0
         NFxFlg=           0 DoJE=F BraDBF=F KetDBF=F FulRan=T
         wScrn=  0.000000 ICntrl=       500 IOpCl=  0 I1Cent=           0 NGrid=           0
         NMat0=   24 NMatS0=     24 NMatT0=    0 NMatD0=   24 NMtDS0=    0 NMtDT0=    0
 Symmetry not used in FoFCou.
 New state      1 was old state      2
 New state      2 was old state      1
 New state      3 was old state      4
 New state      4 was old state      3
 New state      5 was old state      7
 New state      6 was old state      5
 Excitation Energies [eV] at current iteration:
 Root      1 :     3.705893683200589
 Root      2 :     3.831638482057381
 Root      3 :     4.483678203552524
 Root      4 :     5.459626804791085
 Root      5 :     6.349089846029075
 Root      6 :     6.481654279350477
 Root      7 :     6.585593328565465
 Root      8 :     6.693112239496512
 Root      9 :     6.963861531472600
 Root     10 :     7.191299543134045
 Root     11 :     7.223530736965192
 Root     12 :     7.289858736353222
 Root     13 :     7.566718721373162
 Root     14 :     7.644234850015008
 Root     15 :     7.744099200517167
 Root     16 :     7.764497325092790
 Root     17 :     7.961316266805146
 Root     18 :     8.244774195961964
 Root     19 :     8.288838779635254
 Root     20 :     8.420195046351754
 Root     21 :     8.511707388718071
 Root     22 :     8.721849208335769
 Root     23 :     8.791561705276907
 Root     24 :     9.147318931433686
 Iteration     2 Dimension    36 NMult    24 NNew     12
 CISAX will form    12 AO SS matrices at one time.
 NMat=    12 NSing=    12 JSym2X= 0.
 New state      1 was old state      2
 Root      1 not converged, maximum delta is    0.340313753443857
 New state      2 was old state      1
 Root      2 not converged, maximum delta is    0.344628508901473
 Root      3 not converged, maximum delta is    0.092232600440967
 Root      4 not converged, maximum delta is    0.229149505524498
 New state      5 was old state      6
 Root      5 not converged, maximum delta is    0.215379856783119
 New state      6 was old state      5
 Root      6 not converged, maximum delta is    0.127163328398751
 Excitation Energies [eV] at current iteration:
 Root      1 :     3.350018483940198   Change is   -0.481619998117183
 Root      2 :     3.521741529201282   Change is   -0.184152153999307
 Root      3 :     4.244062123860589   Change is   -0.239616079691935
 Root      4 :     5.163264824158094   Change is   -0.296361980632990
 Root      5 :     5.530250181239456   Change is   -0.951404098111021
 Root      6 :     6.207658230059923   Change is   -0.141431615969153
 Iteration     3 Dimension    48 NMult    36 NNew     12
 CISAX will form    12 AO SS matrices at one time.
 NMat=    12 NSing=    12 JSym2X= 0.
 Root      1 not converged, maximum delta is    0.009863712973918
 Root      2 not converged, maximum delta is    0.009975655433686
 Root      3 not converged, maximum delta is    0.017611758673804
 Root      4 not converged, maximum delta is    0.035633592809191
 Root      5 not converged, maximum delta is    0.035297893573187
 Root      6 not converged, maximum delta is    0.017183357178659
 Excitation Energies [eV] at current iteration:
 Root      1 :     3.330175721859767   Change is   -0.019842762080431
 Root      2 :     3.512641559964875   Change is   -0.009099969236407
 Root      3 :     4.231019410319608   Change is   -0.013042713540981
 Root      4 :     5.140604746249557   Change is   -0.022660077908537
 Root      5 :     5.492519081483218   Change is   -0.037731099756237
 Root      6 :     6.197704967275827   Change is   -0.009953262784095
 Iteration     4 Dimension    60 NMult    48 NNew     12
 CISAX will form    12 AO SS matrices at one time.
 NMat=    12 NSing=    12 JSym2X= 0.
 Root      1 not converged, maximum delta is    0.001978863335054
 Root      2 not converged, maximum delta is    0.001434794052722
 Root      3 not converged, maximum delta is    0.002190634641452
 Root      4 not converged, maximum delta is    0.004087772803901
 Root      5 not converged, maximum delta is    0.005168901606406
 Root      6 not converged, maximum delta is    0.003711646884992
 Excitation Energies [eV] at current iteration:
 Root      1 :     3.328686705348389   Change is   -0.001489016511378
 Root      2 :     3.512084271794204   Change is   -0.000557288170671
 Root      3 :     4.230437097979912   Change is   -0.000582312339695
 Root      4 :     5.138148875756190   Change is   -0.002455870493368
 Root      5 :     5.488152139394896   Change is   -0.004366942088323
 Root      6 :     6.196912209288689   Change is   -0.000792757987138
 Iteration     5 Dimension    72 NMult    60 NNew     12
 CISAX will form    12 AO SS matrices at one time.
 NMat=    12 NSing=    12 JSym2X= 0.
 Root      1 not converged, maximum delta is    0.000918933277158
 Root      2 not converged, maximum delta is    0.000242483367142
 Root      3 not converged, maximum delta is    0.000201359953343
 Root      4 not converged, maximum delta is    0.000569733075605
 Root      5 not converged, maximum delta is    0.001493330674085
 Root      6 not converged, maximum delta is    0.000922295369689
 Excitation Energies [eV] at current iteration:
 Root      1 :     3.328579458508484   Change is   -0.000107246839905
 Root      2 :     3.512051606018399   Change is   -0.000032665775806
 Root      3 :     4.230403116578302   Change is   -0.000033981401611
 Root      4 :     5.137983424390124   Change is   -0.000165451366065
 Root      5 :     5.487752474020476   Change is   -0.000399665374420
 Root      6 :     6.196853239040138   Change is   -0.000058970248552
 Iteration     6 Dimension    84 NMult    72 NNew     12
 CISAX will form    12 AO SS matrices at one time.
 NMat=    12 NSing=    12 JSym2X= 0.
 Root      1 not converged, maximum delta is    0.000159289586331
 Root      2 not converged, maximum delta is    0.000069141525001
 Root      3 not converged, maximum delta is    0.000061400095121
 Root      4 not converged, maximum delta is    0.000178947961745
 Root      5 not converged, maximum delta is    0.000416411561656
 Root      6 not converged, maximum delta is    0.000170317135365
 Excitation Energies [eV] at current iteration:
 Root      1 :     3.328572946329519   Change is   -0.000006512178965
 Root      2 :     3.512049724639370   Change is   -0.000001881379029
 Root      3 :     4.230400917897365   Change is   -0.000002198680937
 Root      4 :     5.137970513443058   Change is   -0.000012910947066
 Root      5 :     5.487718107502140   Change is   -0.000034366518336
 Root      6 :     6.196848149660858   Change is   -0.000005089379279
 Iteration     7 Dimension    96 NMult    84 NNew     12
 CISAX will form    12 AO SS matrices at one time.
 NMat=    12 NSing=    12 JSym2X= 0.
 Root      1 not converged, maximum delta is    0.000020285544724
 Root      2 not converged, maximum delta is    0.000017397910289
 Root      3 not converged, maximum delta is    0.000009160734267
 Root      4 not converged, maximum delta is    0.000053446557666
 Root      5 not converged, maximum delta is    0.000112741500586
 Root      6 not converged, maximum delta is    0.000055367330552
 Excitation Energies [eV] at current iteration:
 Root      1 :     3.328572526841549   Change is   -0.000000419487969
 Root      2 :     3.512049638535705   Change is   -0.000000086103664
 Root      3 :     4.230400804989142   Change is   -0.000000112908222
 Root      4 :     5.137969432531379   Change is   -0.000001080911679
 Root      5 :     5.487715310052439   Change is   -0.000002797449700
 Root      6 :     6.196847650520919   Change is   -0.000000499139939
 Iteration     8 Dimension   108 NMult    96 NNew     12
 CISAX will form    12 AO SS matrices at one time.
 NMat=    12 NSing=    12 JSym2X= 0.
 Root      1 not converged, maximum delta is    0.000005157163360
 Root      2 not converged, maximum delta is    0.000003636891749
 Root      3 not converged, maximum delta is    0.000002458614291
 Root      4 not converged, maximum delta is    0.000029220059128
 Root      5 not converged, maximum delta is    0.000038571947677
 Root      6 not converged, maximum delta is    0.000019102391922
 Excitation Energies [eV] at current iteration:
 Root      1 :     3.328572510618212   Change is   -0.000000016223338
 Root      2 :     3.512049634767204   Change is   -0.000000003768502
 Root      3 :     4.230400799943128   Change is   -0.000000005046014
 Root      4 :     5.137969342835693   Change is   -0.000000089695686
 Root      5 :     5.487715096282062   Change is   -0.000000213770378
 Root      6 :     6.196847604379652   Change is   -0.000000046141267
 Iteration     9 Dimension   120 NMult   108 NNew     12
 CISAX will form    12 AO SS matrices at one time.
 NMat=    12 NSing=    12 JSym2X= 0.
 Root      1 has converged.
 Root      2 has converged.
 Root      3 has converged.
 Root      4 not converged, maximum delta is    0.000005385567494
 Root      5 not converged, maximum delta is    0.000008572305399
 Root      6 not converged, maximum delta is    0.000007190309313
 Excitation Energies [eV] at current iteration:
 Root      1 :     3.328572509983757   Change is   -0.000000000634455
 Root      2 :     3.512049634643474   Change is   -0.000000000123730
 Root      3 :     4.230400799775600   Change is   -0.000000000167528
 Root      4 :     5.137969337771692   Change is   -0.000000005064001
 Root      5 :     5.487715084397635   Change is   -0.000000011884427
 Root      6 :     6.196847599956283   Change is   -0.000000004423369
 Iteration    10 Dimension   126 NMult   120 NNew      6
 CISAX will form     6 AO SS matrices at one time.
 NMat=     6 NSing=     6 JSym2X= 0.
 Root      1 has converged.
 Root      2 has converged.
 Root      3 has converged.
 Root      4 not converged, maximum delta is    0.000001065959935
 Root      5 not converged, maximum delta is    0.000002009148711
 Root      6 not converged, maximum delta is    0.000001508088440
 Excitation Energies [eV] at current iteration:
 Root      1 :     3.328572509979262   Change is   -0.000000000004495
 Root      2 :     3.512049634643005   Change is   -0.000000000000468
 Root      3 :     4.230400799774959   Change is   -0.000000000000641
 Root      4 :     5.137969337525468   Change is   -0.000000000246224
 Root      5 :     5.487715083746068   Change is   -0.000000000651567
 Root      6 :     6.196847599568530   Change is   -0.000000000387753
 Iteration    11 Dimension   132 NMult   126 NNew      6
 CISAX will form     6 AO SS matrices at one time.
 NMat=     6 NSing=     6 JSym2X= 0.
 Root      1 has converged.
 Root      2 has converged.
 Root      3 has converged.
 Root      4 has converged.
 Root      5 has converged.
 Root      6 has converged.
 Excitation Energies [eV] at current iteration:
 Root      1 :     3.328572509978595   Change is   -0.000000000000667
 Root      2 :     3.512049634643076   Change is    0.000000000000070
 Root      3 :     4.230400799774667   Change is   -0.000000000000292
 Root      4 :     5.137969337513469   Change is   -0.000000000012000
 Root      5 :     5.487715083712468   Change is   -0.000000000033600
 Root      6 :     6.196847599537938   Change is   -0.000000000030591
 Convergence achieved on expansion vectors.
 PCM Corrected Linear-Response:
 The state of interest is root number   1
 Excitation energy =    3.3286 eV, Total energy =  -633.197937084    
 Recompute the excitation energies using the linear response reaction field.
 Convergence on wavefunction:    0.000001000000000
 Davidson Disk Diagonalization:  ConvIn= 1.00D-06 SkipCon=T Conv= 1.00D-06.
 Max sub-space:  2000 roots to seek:     6 dimension of matrix:        23104
 Iteration     1 Dimension     6 NMult     0 NNew      6
 CISAX will form     6 AO SS matrices at one time.
 NMat=     6 NSing=     6 JSym2X= 0.
 Excitation Energies [eV] at current iteration:
 Root      1 :     3.398577574583286
 Root      2 :     3.537915211749148
 Root      3 :     4.255734871188691
 Root      4 :     5.198916388945488
 Root      5 :     5.645848321532797
 Root      6 :     6.155645267470956
 Iteration     2 Dimension    18 NMult     6 NNew     12
 CISAX will form    12 AO SS matrices at one time.
 NMat=    12 NSing=    12 JSym2X= 0.
 Root      1 not converged, maximum delta is    0.099391148843721
 Root      2 not converged, maximum delta is    0.112060535520730
 Root      3 not converged, maximum delta is    0.007324367409927
 Root      4 not converged, maximum delta is    0.323129512740702
 Root      5 not converged, maximum delta is    0.349390514259106
 Root      6 not converged, maximum delta is    0.010745344726915
 Excitation Energies [eV] at current iteration:
 Root      1 :     3.178634920562898   Change is   -0.219942654020388
 Root      2 :     3.504071202565374   Change is   -0.033844009183774
 Root      3 :     4.224844804336547   Change is   -0.030890066852144
 Root      4 :     4.952928800510640   Change is   -0.245987588434848
 Root      5 :     5.348426886272838   Change is   -0.297421435259958
 Root      6 :     6.142312671452953   Change is   -0.013332596018003
 Iteration     3 Dimension    30 NMult    18 NNew     12
 CISAX will form    12 AO SS matrices at one time.
 NMat=    12 NSing=    12 JSym2X= 0.
 Root      1 not converged, maximum delta is    0.002994438237352
 Root      2 not converged, maximum delta is    0.000940759944005
 Root      3 not converged, maximum delta is    0.001335017650633
 Root      4 not converged, maximum delta is    0.014484476993552
 Root      5 not converged, maximum delta is    0.011601595772775
 Root      6 not converged, maximum delta is    0.005580790476140
 Excitation Energies [eV] at current iteration:
 Root      1 :     3.175098612373668   Change is   -0.003536308189230
 Root      2 :     3.503781593592328   Change is   -0.000289608973047
 Root      3 :     4.224496190656314   Change is   -0.000348613680233
 Root      4 :     4.941207840889406   Change is   -0.011720959621234
 Root      5 :     5.341410166316892   Change is   -0.007016719955947
 Root      6 :     6.140423741830595   Change is   -0.001888929622358
 Iteration     4 Dimension    42 NMult    30 NNew     12
 CISAX will form    12 AO SS matrices at one time.
 NMat=    12 NSing=    12 JSym2X= 0.
 Root      1 not converged, maximum delta is    0.001885649378230
 Root      2 not converged, maximum delta is    0.000221312907543
 Root      3 not converged, maximum delta is    0.000270668165992
 Root      4 not converged, maximum delta is    0.004795610411189
 Root      5 not converged, maximum delta is    0.003691321449632
 Root      6 not converged, maximum delta is    0.005967333408535
 Excitation Energies [eV] at current iteration:
 Root      1 :     3.174633897591144   Change is   -0.000464714782525
 Root      2 :     3.503766168823384   Change is   -0.000015424768944
 Root      3 :     4.224476483135129   Change is   -0.000019707521184
 Root      4 :     4.938861382960952   Change is   -0.002346457928453
 Root      5 :     5.340127253640951   Change is   -0.001282912675941
 Root      6 :     6.139988406082667   Change is   -0.000435335747928
 Iteration     5 Dimension    54 NMult    42 NNew     12
 CISAX will form    12 AO SS matrices at one time.
 NMat=    12 NSing=    12 JSym2X= 0.
 Root      1 not converged, maximum delta is    0.000317836640452
 Root      2 not converged, maximum delta is    0.000071011944762
 Root      3 not converged, maximum delta is    0.000118056543951
 Root      4 not converged, maximum delta is    0.002110483711575
 Root      5 not converged, maximum delta is    0.001052339096991
 Root      6 not converged, maximum delta is    0.003889538396829
 Excitation Energies [eV] at current iteration:
 Root      1 :     3.174597469696582   Change is   -0.000036427894561
 Root      2 :     3.503765264271943   Change is   -0.000000904551441
 Root      3 :     4.224474834167889   Change is   -0.000001648967240
 Root      4 :     4.938556828996119   Change is   -0.000304553964833
 Root      5 :     5.339988060917687   Change is   -0.000139192723264
 Root      6 :     6.139859503740310   Change is   -0.000128902342357
 Iteration     6 Dimension    66 NMult    54 NNew     12
 CISAX will form    12 AO SS matrices at one time.
 NMat=    12 NSing=    12 JSym2X= 0.
 Root      1 not converged, maximum delta is    0.000070006768433
 Root      2 not converged, maximum delta is    0.000016027590359
 Root      3 not converged, maximum delta is    0.000022556866169
 Root      4 not converged, maximum delta is    0.000329484279285
 Root      5 not converged, maximum delta is    0.000235618620718
 Root      6 not converged, maximum delta is    0.001970172039779
 Excitation Energies [eV] at current iteration:
 Root      1 :     3.174595248546809   Change is   -0.000002221149773
 Root      2 :     3.503765204636553   Change is   -0.000000059635389
 Root      3 :     4.224474712026679   Change is   -0.000000122141210
 Root      4 :     4.938532661302090   Change is   -0.000024167694030
 Root      5 :     5.339976137886490   Change is   -0.000011923031197
 Root      6 :     6.139829923731288   Change is   -0.000029580009023
 Iteration     7 Dimension    78 NMult    66 NNew     12
 CISAX will form    12 AO SS matrices at one time.
 NMat=    12 NSing=    12 JSym2X= 0.
 Root      1 not converged, maximum delta is    0.000009852335662
 Root      2 not converged, maximum delta is    0.000003057642073
 Root      3 not converged, maximum delta is    0.000009538390240
 Root      4 not converged, maximum delta is    0.000115027059012
 Root      5 not converged, maximum delta is    0.000113308517111
 Root      6 not converged, maximum delta is    0.000919630930800
 Excitation Energies [eV] at current iteration:
 Root      1 :     3.174595162115573   Change is   -0.000000086431237
 Root      2 :     3.503765201640798   Change is   -0.000000002995755
 Root      3 :     4.224474702948051   Change is   -0.000000009078628
 Root      4 :     4.938530917632758   Change is   -0.000001743669331
 Root      5 :     5.339975205275645   Change is   -0.000000932610845
 Root      6 :     6.139824958788838   Change is   -0.000004964942449
 Iteration     8 Dimension    90 NMult    78 NNew     12
 CISAX will form    12 AO SS matrices at one time.
 NMat=    12 NSing=    12 JSym2X= 0.
 Root      1 not converged, maximum delta is    0.000002819242418
 Root      2 has converged.
 Root      3 not converged, maximum delta is    0.000002064084987
 Root      4 not converged, maximum delta is    0.000044196690666
 Root      5 not converged, maximum delta is    0.000051269908003
 Root      6 not converged, maximum delta is    0.000394218594531
 Excitation Energies [eV] at current iteration:
 Root      1 :     3.174595157436294   Change is   -0.000000004679279
 Root      2 :     3.503765201491389   Change is   -0.000000000149409
 Root      3 :     4.224474702327010   Change is   -0.000000000621041
 Root      4 :     4.938530784787391   Change is   -0.000000132845368
 Root      5 :     5.339975120392772   Change is   -0.000000084882872
 Root      6 :     6.139824050534846   Change is   -0.000000908253993
 Iteration     9 Dimension   100 NMult    90 NNew     10
 CISAX will form    10 AO SS matrices at one time.
 NMat=    10 NSing=    10 JSym2X= 0.
 Root      1 has converged.
 Root      2 has converged.
 Root      3 has converged.
 Root      4 not converged, maximum delta is    0.000020959419871
 Root      5 not converged, maximum delta is    0.000027511851471
 Root      6 not converged, maximum delta is    0.000099450543013
 Excitation Energies [eV] at current iteration:
 Root      1 :     3.174595157298297   Change is   -0.000000000137997
 Root      2 :     3.503765201487564   Change is   -0.000000000003825
 Root      3 :     4.224474702290465   Change is   -0.000000000036545
 Root      4 :     4.938530771670992   Change is   -0.000000013116399
 Root      5 :     5.339975106561694   Change is   -0.000000013831078
 Root      6 :     6.139823921841088   Change is   -0.000000128693757
 Iteration    10 Dimension   106 NMult   100 NNew      6
 CISAX will form     6 AO SS matrices at one time.
 NMat=     6 NSing=     6 JSym2X= 0.
 Root      1 has converged.
 Root      2 has converged.
 Root      3 has converged.
 Root      4 not converged, maximum delta is    0.000005935480532
 Root      5 not converged, maximum delta is    0.000009182217152
 Root      6 not converged, maximum delta is    0.000015471727460
 Excitation Energies [eV] at current iteration:
 Root      1 :     3.174595157296821   Change is   -0.000000000001476
 Root      2 :     3.503765201487142   Change is   -0.000000000000422
 Root      3 :     4.224474702289491   Change is   -0.000000000000974
 Root      4 :     4.938530770314547   Change is   -0.000000001356445
 Root      5 :     5.339975104583855   Change is   -0.000000001977839
 Root      6 :     6.139823908853601   Change is   -0.000000012987487
 Iteration    11 Dimension   112 NMult   106 NNew      6
 CISAX will form     6 AO SS matrices at one time.
 NMat=     6 NSing=     6 JSym2X= 0.
 Root      1 has converged.
 Root      2 has converged.
 Root      3 has converged.
 Root      4 has converged.
 Root      5 not converged, maximum delta is    0.000001575274267
 Root      6 not converged, maximum delta is    0.000004943637287
 Excitation Energies [eV] at current iteration:
 Root      1 :     3.174595157296640   Change is   -0.000000000000181
 Root      2 :     3.503765201487024   Change is   -0.000000000000118
 Root      3 :     4.224474702289375   Change is   -0.000000000000116
 Root      4 :     4.938530770224125   Change is   -0.000000000090422
 Root      5 :     5.339975104418023   Change is   -0.000000000165832
 Root      6 :     6.139823907514758   Change is   -0.000000001338843
 Iteration    12 Dimension   116 NMult   112 NNew      4
 CISAX will form     4 AO SS matrices at one time.
 NMat=     4 NSing=     4 JSym2X= 0.
 Root      1 has converged.
 Root      2 has converged.
 Root      3 has converged.
 Root      4 has converged.
 Root      5 has converged.
 Root      6 not converged, maximum delta is    0.000001418819319
 Excitation Energies [eV] at current iteration:
 Root      1 :     3.174595157296510   Change is   -0.000000000000130
 Root      2 :     3.503765201486977   Change is   -0.000000000000047
 Root      3 :     4.224474702289297   Change is   -0.000000000000078
 Root      4 :     4.938530770221062   Change is   -0.000000000003063
 Root      5 :     5.339975104406646   Change is   -0.000000000011377
 Root      6 :     6.139823907396184   Change is   -0.000000000118575
 Iteration    13 Dimension   118 NMult   116 NNew      2
 CISAX will form     2 AO SS matrices at one time.
 NMat=     2 NSing=     2 JSym2X= 0.
 Root      1 has converged.
 Root      2 has converged.
 Root      3 has converged.
 Root      4 has converged.
 Root      5 has converged.
 Root      6 has converged.
 Excitation Energies [eV] at current iteration:
 Root      1 :     3.174595157296484   Change is   -0.000000000000026
 Root      2 :     3.503765201486954   Change is   -0.000000000000023
 Root      3 :     4.224474702289258   Change is   -0.000000000000039
 Root      4 :     4.938530770221046   Change is   -0.000000000000017
 Root      5 :     5.339975104406616   Change is   -0.000000000000030
 Root      6 :     6.139823907384669   Change is   -0.000000000011515
 Convergence achieved on expansion vectors.
 ***********************************************************************
 Excited states from <AA,BB:AA,BB> singles matrix:
 ***********************************************************************
 
 1PDM for each excited state written to RWF  633
 Ground to excited state transition densities written to RWF  633
 Ground to excited state transition electric dipole moments (Au):
       state          X           Y           Z        Dip. S.      Osc.
         1        -1.7990     -0.0769     -0.0421      3.2441      0.2523
         2         0.2049      0.0222      0.0503      0.0450      0.0039
         3         0.0104     -0.1068      0.0411      0.0132      0.0014
         4         0.0322     -2.0611      0.0734      4.2547      0.5148
         5        -0.3424      1.1932     -0.0096      1.5410      0.2016
         6        -0.0451      0.1004      0.0176      0.0124      0.0019
 Ground to excited state transition velocity dipole moments (Au):
       state          X           Y           Z        Dip. S.      Osc.
         1         0.2041      0.0078      0.0050      0.0417      0.2385
         2        -0.0261     -0.0027     -0.0052      0.0007      0.0037
         3        -0.0018      0.0158     -0.0027      0.0003      0.0011
         4        -0.0103      0.3553     -0.0107      0.1264      0.4644
         5         0.0631     -0.2325      0.0025      0.0581      0.1973
         6         0.0108     -0.0204     -0.0236      0.0011      0.0032
 Ground to excited state transition magnetic dipole moments (Au):
       state          X           Y           Z
         1         0.0842      0.0192     -1.3934
         2         0.7200      0.2656      0.2638
         3        -0.0029     -0.9402     -0.0594
         4         0.0427      0.0746     -0.4886
         5        -0.1242     -0.0791      0.2126
         6         0.0466      0.0145     -0.0203
 Ground to excited state transition velocity quadrupole moments (Au):
       state          XX          YY          ZZ          XY          XZ          YZ
         1         0.4039     -0.1595     -0.0105     -0.5083      0.0377     -0.0074
         2        -0.0528      0.0021     -0.0003      0.0690     -0.0439      0.0328
         3        -0.0229      0.0079     -0.0128     -0.0262      0.0770      0.0052
         4        -1.5364      0.3576      0.0335     -0.2970     -0.0644     -0.0204
         5         0.5475     -0.4212     -0.0288     -0.0837      0.0527     -0.0405
         6        -0.2013     -0.1324      0.1038     -0.0207     -0.0259      0.1040
 <0|del|b> * <b|rxdel|0> + <0|del|b> * <b|delr+rdel|0>
 Rotatory Strengths (R) in cgs (10**-40 erg-esu-cm/Gauss)
       state          XX          YY          ZZ    R(velocity)    E-M Angle
         1       -29.0497     34.2346     58.0069     21.0640       87.91
         2        -7.0549    -56.7973    -50.9734    -38.2752      164.15
         3       -36.0930      0.1953    -31.0449    -22.3142      165.22
         4       112.5916      3.5595      5.7915     40.6475       79.78
         5        55.8115    -17.3766      1.5420     13.3256       79.74
         6         0.2264      2.5423     -0.6077      0.7203       66.75
 1/2[<0|r|b>*<b|rxdel|0> + (<0|rxdel|b>*<b|r|0>)*]
 Rotatory Strengths (R) in cgs (10**-40 erg-esu-cm/Gauss)
       state          XX          YY          ZZ     R(length)
         1       107.1613      1.0453    -41.4977     22.2363
         2      -104.2984     -4.1612     -9.3802    -39.2799
         3         0.0213    -71.0162      1.7286    -23.0887
         4        -0.9714    108.6888     25.3465     44.3546
         5       -30.0861     66.7422      1.4395     12.6986
         6         1.4876     -1.0261      0.2519      0.2378
  1/2[<0|del|b>*<b|r|0> + (<0|r|b>*<b|del|0>)*] (Au)
       state          X           Y           Z        Dip. S.   Osc.(frdel)
         1        -0.3672     -0.0006     -0.0002      0.3680      0.2453
         2        -0.0054     -0.0001     -0.0003      0.0057      0.0038
         3        -0.0000     -0.0017     -0.0001      0.0018      0.0012
         4        -0.0003     -0.7322     -0.0008      0.7334      0.4889
         5        -0.0216     -0.2775     -0.0000      0.2991      0.1994
         6        -0.0005     -0.0020     -0.0004      0.0030      0.0020

 Excitation energies and oscillator strengths:
 
 Excited State   1:      Singlet-A      3.1746 eV  390.55 nm  f=0.2523  <S**2>=0.000
      52 -> 53         0.69740
 This state for optimization and/or second-order correction.
 Total Energy, E(TD-HF/TD-DFT) =  -633.203595647    
 Copying the excited state density for this state as the 1-particle RhoCI density.
 
 Excited State   2:      Singlet-A      3.5038 eV  353.86 nm  f=0.0039  <S**2>=0.000
      51 -> 53         0.62529
      51 -> 54        -0.27902
 
 Excited State   3:      Singlet-A      4.2245 eV  293.49 nm  f=0.0014  <S**2>=0.000
      50 -> 53         0.52170
      50 -> 54         0.41713
      50 -> 58         0.11838
      51 -> 54         0.10369
 
 Excited State   4:      Singlet-A      4.9385 eV  251.05 nm  f=0.5148  <S**2>=0.000
      49 -> 53        -0.18357
      52 -> 54         0.67520
 
 Excited State   5:      Singlet-A      5.3400 eV  232.18 nm  f=0.2016  <S**2>=0.000
      49 -> 53         0.66026
      50 -> 53        -0.13036
      52 -> 54         0.18301
 
 Excited State   6:      Singlet-A      6.1398 eV  201.93 nm  f=0.0019  <S**2>=0.000
      52 -> 55         0.66268
      52 -> 56         0.12519
      52 -> 61        -0.10377
      52 -> 62        -0.10356
 SavETr:  write IOETrn=   770 NScale= 10 NData=  16 NLR=1 NState=    6 LETran=     118.
 The selected state is a singlet.
 CISGrd: IGrad=1 NXY=2 DFT=T
 CISAX will form     1 AO SS matrices at one time.
 NMat=     1 NSing=     1 JSym2X= 0.
 Leave Link  914 at Sat Jan 24 18:51:23 2026, MaxMem=  2147483648 cpu:            8653.8 elap:             543.1
 (Enter /data/home/wyx/g16/l1002.exe)
 Minotr:  Closed shell wavefunction.
          Computing CIS/TDA/TD derivatives.
          Using Z-Vector for PSCF gradient.
          Skipping F1 and S1 gradient terms here.
 NEqPCM:  Using equilibrium solvation (IEInf=0, Eps=  78.3553, EpsInf=   1.7778)
          Frozen-core window.
          Direct CPHF calculation.
          Differentiating once with respect to electric field.
                with respect to dipole field.
          Electric field/nuclear overlap derivatives assumed to be zero.
          Requested convergence is 1.0D-10 RMS, and 1.0D-09 maximum.
          NewPWx=F KeepS1=T KeepF1=T KeepIn=T MapXYZ=F SortEE=F KeepMc=T.
 Two-electron integral symmetry used by symmetrizing perturbed Fock matrices.
          MDV=    2147483648 using IRadAn=       5.
          Solving linear equations separately, MaxMat=     384.
          There are     1 degrees of freedom in the 1st order CPHF.  IDoFFX=0 NUNeed=     1.
 FoFJK:  IHMeth= 1 ICntrl=       0 DoSepK=T KAlg= 0 I1Cent=           0 FoldK=F
 IRaf=         1 NMat=       1 IRICut=       1 DoRegI=T DoRafI=F ISym2E=-1 IDoP0=0 IntGTp=1.
 FoFCou: FMM=F IPFlag=           0 FMFlag=      100000 FMFlg1=           0
         NFxFlg=           0 DoJE=T BraDBF=F KetDBF=F FulRan=T
         wScrn=  0.000000 ICntrl=       500 IOpCl=  0 I1Cent=           0 NGrid=           0
         NMat0=    1 NMatS0=      1 NMatT0=    0 NMatD0=    1 NMtDS0=    0 NMtDT0=    0
 Petite list used in FoFCou.
 LinEq1:  Iter=  0 NonCon=     1 RMS=3.54D-03 Max=1.47D-01 NDo=     1
 AX will form     1 AO Fock derivatives at one time.
 LinEq1:  Iter=  1 NonCon=     1 RMS=1.35D-03 Max=8.45D-02 NDo=     1
 LinEq1:  Iter=  2 NonCon=     1 RMS=5.93D-04 Max=2.84D-02 NDo=     1
 LinEq1:  Iter=  3 NonCon=     1 RMS=3.37D-04 Max=2.02D-02 NDo=     1
 LinEq1:  Iter=  4 NonCon=     1 RMS=1.65D-04 Max=3.22D-03 NDo=     1
 LinEq1:  Iter=  5 NonCon=     1 RMS=8.01D-05 Max=2.90D-03 NDo=     1
 LinEq1:  Iter=  6 NonCon=     1 RMS=5.31D-05 Max=2.14D-03 NDo=     1
 LinEq1:  Iter=  7 NonCon=     1 RMS=2.23D-05 Max=9.75D-04 NDo=     1
 LinEq1:  Iter=  8 NonCon=     1 RMS=1.20D-05 Max=4.56D-04 NDo=     1
 LinEq1:  Iter=  9 NonCon=     1 RMS=8.03D-06 Max=3.39D-04 NDo=     1
 LinEq1:  Iter= 10 NonCon=     1 RMS=5.23D-06 Max=2.04D-04 NDo=     1
 LinEq1:  Iter= 11 NonCon=     1 RMS=2.21D-06 Max=4.59D-05 NDo=     1
 LinEq1:  Iter= 12 NonCon=     1 RMS=9.18D-07 Max=2.39D-05 NDo=     1
 LinEq1:  Iter= 13 NonCon=     1 RMS=3.29D-07 Max=1.42D-05 NDo=     1
 LinEq1:  Iter= 14 NonCon=     1 RMS=1.31D-07 Max=6.74D-06 NDo=     1
 LinEq1:  Iter= 15 NonCon=     1 RMS=6.65D-08 Max=1.78D-06 NDo=     1
 LinEq1:  Iter= 16 NonCon=     1 RMS=3.18D-08 Max=1.20D-06 NDo=     1
 LinEq1:  Iter= 17 NonCon=     1 RMS=1.16D-08 Max=1.42D-07 NDo=     1
 LinEq1:  Iter= 18 NonCon=     1 RMS=5.33D-09 Max=1.73D-07 NDo=     1
 LinEq1:  Iter= 19 NonCon=     1 RMS=1.36D-09 Max=4.80D-08 NDo=     1
 LinEq1:  Iter= 20 NonCon=     1 RMS=3.57D-10 Max=1.21D-08 NDo=     1
 LinEq1:  Iter= 21 NonCon=     1 RMS=1.68D-10 Max=4.95D-09 NDo=     1
 LinEq1:  Iter= 22 NonCon=     1 RMS=7.03D-11 Max=2.16D-09 NDo=     1
 LinEq1:  Iter= 23 NonCon=     0 RMS=1.99D-11 Max=7.99D-10 NDo=     1
 Linear equations converged to 1.000D-10 1.000D-09 after    23 iterations.
 PCM Corrected Linear-Response - Equilibrium solvation:
 Corrected transition energy               =    3.2960          eV
 Total energy after correction             = -633.199133127     a.u.
 NEqPCM:  Using non-equilibrium solvation (IEInf=1, Eps=  78.3553, EpsInf=   1.7778)
 Inv3:  Mode=1 IEnd=    13204812.
 Iteration    1 A*A^-1 deviation from unit magnitude is 3.11D-15 for   1655.
 Iteration    1 A*A^-1 deviation from orthogonality  is 2.16D-15 for   1338    958.
 Iteration    1 A^-1*A deviation from unit magnitude is 2.89D-15 for    191.
 Iteration    1 A^-1*A deviation from orthogonality  is 2.15D-15 for   1352    944.
 NEqSol: Computing the dynamic-inertial partition of the PCM polarization charges.
 End of Minotr F.D. properties file   721 does not exist.
 End of Minotr F.D. properties file   722 does not exist.
 End of Minotr F.D. properties file   788 does not exist.
 Leave Link 1002 at Sat Jan 24 18:53:25 2026, MaxMem=  2147483648 cpu:            1895.8 elap:             121.0
 (Enter /data/home/wyx/g16/l601.exe)
 Copying SCF densities to generalized density rwf, IOpCl= 0 IROHF=0.

 **********************************************************************

            Population analysis using the CI density.

 **********************************************************************

 Orbital symmetries:
       Occupied  (A) (A) (A) (A) (A) (A) (A) (A) (A) (A) (A) (A)
                 (A) (A) (A) (A) (A) (A) (A) (A) (A) (A) (A) (A)
                 (A) (A) (A) (A) (A) (A) (A) (A) (A) (A) (A) (A)
                 (A) (A) (A) (A) (A) (A) (A) (A) (A) (A) (A) (A)
                 (A) (A) (A) (A)
       Virtual   (A) (A) (A) (A) (A) (A) (A) (A) (A) (A) (A) (A)
                 (A) (A) (A) (A) (A) (A) (A) (A) (A) (A) (A) (A)
                 (A) (A) (A) (A) (A) (A) (A) (A) (A) (A) (A) (A)
                 (A) (A) (A) (A) (A) (A) (A) (A) (A) (A) (A) (A)
                 (A) (A) (A) (A) (A) (A) (A) (A) (A) (A) (A) (A)
                 (A) (A) (A) (A) (A) (A) (A) (A) (A) (A) (A) (A)
                 (A) (A) (A) (A) (A) (A) (A) (A) (A) (A) (A) (A)
                 (A) (A) (A) (A) (A) (A) (A) (A) (A) (A) (A) (A)
                 (A) (A) (A) (A) (A) (A) (A) (A) (A) (A) (A) (A)
                 (A) (A) (A) (A) (A) (A) (A) (A) (A) (A) (A) (A)
                 (A) (A) (A) (A) (A) (A) (A) (A) (A) (A) (A) (A)
                 (A) (A) (A) (A) (A) (A) (A) (A) (A) (A) (A) (A)
                 (A) (A) (A) (A) (A) (A) (A) (A) (A) (A) (A) (A)
                 (A) (A) (A) (A) (A) (A) (A) (A) (A) (A) (A) (A)
                 (A) (A) (A) (A) (A) (A) (A) (A) (A) (A) (A) (A)
                 (A) (A) (A) (A) (A) (A) (A) (A) (A) (A) (A) (A)
                 (A) (A) (A) (A) (A) (A) (A) (A) (A) (A) (A) (A)
                 (A) (A) (A) (A) (A) (A) (A) (A) (A) (A) (A) (A)
                 (A) (A) (A) (A) (A) (A) (A) (A) (A) (A) (A) (A)
                 (A) (A) (A) (A) (A) (A) (A) (A) (A) (A) (A) (A)
                 (A) (A) (A) (A) (A) (A) (A) (A) (A) (A) (A) (A)
                 (A) (A) (A) (A) (A) (A) (A) (A) (A) (A) (A) (A)
                 (A) (A) (A) (A) (A) (A) (A) (A) (A) (A) (A) (A)
                 (A) (A) (A) (A) (A) (A) (A) (A) (A) (A) (A) (A)
                 (A) (A) (A) (A) (A) (A) (A) (A) (A) (A) (A) (A)
                 (A) (A) (A) (A)
 The electronic state is 1-A.
 Alpha  occ. eigenvalues --  -19.17798 -19.16665 -14.44478 -10.33426 -10.33349
 Alpha  occ. eigenvalues --  -10.32564 -10.32391 -10.25717 -10.25334 -10.25165
 Alpha  occ. eigenvalues --  -10.25119 -10.24216 -10.24085 -10.23924  -1.11761
 Alpha  occ. eigenvalues --   -1.08943  -1.07748  -0.91547  -0.90632  -0.83939
 Alpha  occ. eigenvalues --   -0.82484  -0.81471  -0.78800  -0.74338  -0.71633
 Alpha  occ. eigenvalues --   -0.69244  -0.62125  -0.58485  -0.56962  -0.55153
 Alpha  occ. eigenvalues --   -0.54712  -0.54250  -0.52415  -0.51815  -0.50659
 Alpha  occ. eigenvalues --   -0.49645  -0.49298  -0.49013  -0.48451  -0.48215
 Alpha  occ. eigenvalues --   -0.46601  -0.45458  -0.44529  -0.43637  -0.42961
 Alpha  occ. eigenvalues --   -0.42436  -0.41749  -0.40784  -0.32988  -0.32269
 Alpha  occ. eigenvalues --   -0.30818  -0.26349
 Alpha virt. eigenvalues --   -0.03555   0.01820   0.06596   0.08427   0.08768
 Alpha virt. eigenvalues --    0.10212   0.10784   0.11700   0.12701   0.13324
 Alpha virt. eigenvalues --    0.14522   0.15402   0.15555   0.16611   0.16945
 Alpha virt. eigenvalues --    0.17499   0.17604   0.17906   0.18510   0.19178
 Alpha virt. eigenvalues --    0.19917   0.20330   0.22482   0.23165   0.24298
 Alpha virt. eigenvalues --    0.24438   0.24884   0.25512   0.25818   0.26272
 Alpha virt. eigenvalues --    0.27493   0.28074   0.28522   0.29359   0.29938
 Alpha virt. eigenvalues --    0.31230   0.31712   0.33449   0.33857   0.34872
 Alpha virt. eigenvalues --    0.35209   0.35988   0.37108   0.37322   0.37650
 Alpha virt. eigenvalues --    0.39989   0.40914   0.41290   0.42371   0.43243
 Alpha virt. eigenvalues --    0.44130   0.44911   0.45472   0.46345   0.46388
 Alpha virt. eigenvalues --    0.47076   0.47953   0.48115   0.48633   0.48852
 Alpha virt. eigenvalues --    0.49457   0.50075   0.50717   0.51551   0.51811
 Alpha virt. eigenvalues --    0.52367   0.52809   0.53069   0.53872   0.54107
 Alpha virt. eigenvalues --    0.54716   0.55753   0.55830   0.57437   0.57958
 Alpha virt. eigenvalues --    0.58842   0.59237   0.60004   0.62130   0.62607
 Alpha virt. eigenvalues --    0.63546   0.64737   0.66371   0.67469   0.68012
 Alpha virt. eigenvalues --    0.68240   0.69047   0.70987   0.71599   0.72208
 Alpha virt. eigenvalues --    0.73481   0.75113   0.76502   0.77216   0.78606
 Alpha virt. eigenvalues --    0.79958   0.80871   0.83245   0.87465   0.88113
 Alpha virt. eigenvalues --    0.91371   0.93169   0.98645   1.01862   1.21493
 Alpha virt. eigenvalues --    1.23477   1.25524   1.27321   1.29890   1.30941
 Alpha virt. eigenvalues --    1.32419   1.33254   1.34299   1.35590   1.36702
 Alpha virt. eigenvalues --    1.37510   1.37687   1.39304   1.39716   1.39941
 Alpha virt. eigenvalues --    1.40514   1.40727   1.41121   1.41398   1.41823
 Alpha virt. eigenvalues --    1.42965   1.43397   1.44575   1.45485   1.45677
 Alpha virt. eigenvalues --    1.48463   1.49677   1.49921   1.50965   1.51425
 Alpha virt. eigenvalues --    1.52166   1.52367   1.54230   1.56680   1.57525
 Alpha virt. eigenvalues --    1.59299   1.59970   1.60233   1.61106   1.61947
 Alpha virt. eigenvalues --    1.62843   1.63190   1.63601   1.64080   1.64621
 Alpha virt. eigenvalues --    1.65865   1.66389   1.66487   1.67809   1.68245
 Alpha virt. eigenvalues --    1.69021   1.69333   1.70332   1.71397   1.73168
 Alpha virt. eigenvalues --    1.73617   1.74143   1.75809   1.76239   1.80300
 Alpha virt. eigenvalues --    1.81339   1.83138   1.84520   1.85047   1.85877
 Alpha virt. eigenvalues --    1.86087   1.86533   1.89468   1.89980   1.90309
 Alpha virt. eigenvalues --    1.91631   1.93168   1.96966   1.98571   2.01442
 Alpha virt. eigenvalues --    2.02213   2.04828   2.05895   2.07395   2.09972
 Alpha virt. eigenvalues --    2.10742   2.13730   2.14765   2.19032   2.20170
 Alpha virt. eigenvalues --    2.20814   2.23106   2.23877   2.24925   2.25561
 Alpha virt. eigenvalues --    2.27587   2.29247   2.29928   2.31852   2.32940
 Alpha virt. eigenvalues --    2.34198   2.34978   2.36239   2.38117   2.38959
 Alpha virt. eigenvalues --    2.40111   2.41100   2.42675   2.43594   2.45711
 Alpha virt. eigenvalues --    2.46714   2.47223   2.49437   2.49568   2.51289
 Alpha virt. eigenvalues --    2.53038   2.53938   2.54823   2.56512   2.56975
 Alpha virt. eigenvalues --    2.58264   2.59732   2.61333   2.62318   2.62981
 Alpha virt. eigenvalues --    2.63971   2.65452   2.66040   2.66825   2.68249
 Alpha virt. eigenvalues --    2.68609   2.71602   2.73582   2.74429   2.75127
 Alpha virt. eigenvalues --    2.76182   2.76773   2.77433   2.78292   2.78656
 Alpha virt. eigenvalues --    2.80345   2.81094   2.83185   2.84073   2.85326
 Alpha virt. eigenvalues --    2.85620   2.87728   2.89464   2.90358   2.92798
 Alpha virt. eigenvalues --    2.98183   2.98570   2.98976   3.03839   3.08706
 Alpha virt. eigenvalues --    3.11081   3.11816   3.13913   3.19585   3.19768
 Alpha virt. eigenvalues --    3.21237   3.22250   3.24990   3.25231   3.25906
 Alpha virt. eigenvalues --    3.28577   3.30461   3.31010   3.35352   3.37658
 Alpha virt. eigenvalues --    3.39300   3.39697   3.40032   3.40548   3.41294
 Alpha virt. eigenvalues --    3.42052   3.44026   3.45289   3.46799   3.49385
 Alpha virt. eigenvalues --    3.51274   3.52107   3.55001   3.58161   3.59588
 Alpha virt. eigenvalues --    3.61909   3.91844   3.99923   4.29579   4.35350
 Alpha virt. eigenvalues --   21.64228  21.76657  22.04974  22.10350  22.11855
 Alpha virt. eigenvalues --   22.12793  22.15968  22.18817  22.20868  22.26478
 Alpha virt. eigenvalues --   22.31143  31.93092  43.64203  43.66871
          Condensed to atoms (all electrons):
               1          2          3          4          5          6
     1  O    7.981304   0.000000  -0.000263   0.000017   0.021659   0.022297
     2  O    0.000000   8.156085   0.000438   0.000027  -0.208345   0.001574
     3  N   -0.000263   0.000438   6.157668   0.365183  -0.059692   0.427248
     4  H    0.000017   0.000027   0.365183   0.382912   0.012355  -0.039325
     5  C    0.021659  -0.208345  -0.059692   0.012355   7.494485  -0.005499
     6  C    0.022297   0.001574   0.427248  -0.039325  -0.005499   5.875619
     7  C   -0.000358   0.010198   0.355136  -0.040712  -0.007884  -0.231453
     8  C   -0.000141   0.601542   0.005234  -0.000980  -0.581996   0.055413
     9  C   -0.013612   0.023939   0.006202   0.000069  -0.656521  -0.125978
    10  H    0.003888  -0.000222   0.000822   0.000041  -0.014356  -0.000484
    11  H    0.011162  -0.000449  -0.001463  -0.000004  -0.089404   0.017594
    12  C   -0.253605  -0.003469  -0.071067   0.017112   0.133314  -0.354976
    13  C    0.710041  -0.000004  -0.000261   0.000582   0.071889   0.104747
    14  C   -0.000016  -0.087429  -0.049788  -0.000359   0.054205  -0.003458
    15  H    0.000000   0.004329   0.000920   0.000131   0.009395   0.003284
    16  H    0.000000   0.000395  -0.000781   0.000176  -0.021033   0.003279
    17  H    0.000000   0.042489   0.004149   0.000697  -0.007474   0.000001
    18  C   -0.000233  -0.101030  -0.000282   0.000015  -0.146494  -0.002408
    19  H   -0.000000   0.006717   0.000011  -0.000001   0.001413   0.000032
    20  H   -0.000016   0.001940  -0.000006  -0.000001  -0.009504   0.000062
    21  H    0.000756   0.008002   0.000076  -0.000000   0.085173  -0.001599
    22  C   -0.116076   0.000000   0.000448   0.000099   0.001670  -0.008964
    23  H    0.004176  -0.000000  -0.000042  -0.000053  -0.000463  -0.028393
    24  H    0.002223   0.000000   0.000104  -0.000014  -0.000086   0.014340
    25  H    0.010090  -0.000000   0.000014  -0.000002  -0.000108  -0.001935
    26  C    0.000814   0.000006  -0.035236  -0.010447  -0.000552   0.205354
    27  H   -0.000233  -0.000000   0.000465   0.000866  -0.000187  -0.053545
    28  H   -0.000069   0.000000  -0.003090   0.000536   0.000778  -0.048859
    29  H    0.000018   0.000000   0.004282   0.001903  -0.000363  -0.052370
               7          8          9         10         11         12
     1  O   -0.000358  -0.000141  -0.013612   0.003888   0.011162  -0.253605
     2  O    0.010198   0.601542   0.023939  -0.000222  -0.000449  -0.003469
     3  N    0.355136   0.005234   0.006202   0.000822  -0.001463  -0.071067
     4  H   -0.040712  -0.000980   0.000069   0.000041  -0.000004   0.017112
     5  C   -0.007884  -0.581996  -0.656521  -0.014356  -0.089404   0.133314
     6  C   -0.231453   0.055413  -0.125978  -0.000484   0.017594  -0.354976
     7  C    6.091841  -0.275144  -0.272567  -0.009227   0.013830   0.082923
     8  C   -0.275144   5.930610   0.229107   0.000319   0.001839  -0.108678
     9  C   -0.272567   0.229107   6.673359   0.358420   0.505638  -0.177773
    10  H   -0.009227   0.000319   0.358420   0.482794  -0.025371   0.007122
    11  H    0.013830   0.001839   0.505638  -0.025371   0.461358  -0.096413
    12  C    0.082923  -0.108678  -0.177773   0.007122  -0.096413   7.664931
    13  C    0.025238  -0.011604  -0.236899  -0.006371   0.001864  -0.476749
    14  C    0.161345  -0.106143   0.021631  -0.000619  -0.000103   0.005759
    15  H   -0.070944   0.008452  -0.002157   0.000117  -0.000015  -0.000200
    16  H   -0.036134   0.008434   0.000629  -0.000037   0.000078  -0.001841
    17  H   -0.041591  -0.020339   0.001902  -0.000001  -0.000001  -0.000777
    18  C    0.029202   0.305903  -0.019706  -0.005983  -0.007497   0.011114
    19  H    0.003986  -0.039592  -0.004780  -0.000292   0.001141  -0.000989
    20  H   -0.003686  -0.030402  -0.000316   0.000764  -0.001213   0.000800
    21  H    0.005797  -0.140556  -0.011785  -0.005234  -0.004174   0.004547
    22  C    0.000826  -0.000048   0.010990   0.001289   0.000349  -0.300009
    23  H    0.000020  -0.000002   0.002296  -0.000133  -0.000041   0.057635
    24  H   -0.000052   0.000002  -0.003329   0.000102  -0.000102  -0.004103
    25  H    0.000020   0.000001   0.000647  -0.000063  -0.000070   0.029452
    26  C    0.005064   0.000871   0.022552  -0.000532   0.000120  -0.086266
    27  H   -0.000626   0.000007   0.001567  -0.000022   0.000025   0.004016
    28  H   -0.000335  -0.000035  -0.002186   0.000010  -0.000001  -0.015864
    29  H    0.003594   0.000026  -0.000938   0.000022   0.000003   0.023410
              13         14         15         16         17         18
     1  O    0.710041  -0.000016   0.000000   0.000000   0.000000  -0.000233
     2  O   -0.000004  -0.087429   0.004329   0.000395   0.042489  -0.101030
     3  N   -0.000261  -0.049788   0.000920  -0.000781   0.004149  -0.000282
     4  H    0.000582  -0.000359   0.000131   0.000176   0.000697   0.000015
     5  C    0.071889   0.054205   0.009395  -0.021033  -0.007474  -0.146494
     6  C    0.104747  -0.003458   0.003284   0.003279   0.000001  -0.002408
     7  C    0.025238   0.161345  -0.070944  -0.036134  -0.041591   0.029202
     8  C   -0.011604  -0.106143   0.008452   0.008434  -0.020339   0.305903
     9  C   -0.236899   0.021631  -0.002157   0.000629   0.001902  -0.019706
    10  H   -0.006371  -0.000619   0.000117  -0.000037  -0.000001  -0.005983
    11  H    0.001864  -0.000103  -0.000015   0.000078  -0.000001  -0.007497
    12  C   -0.476749   0.005759  -0.000200  -0.001841  -0.000777   0.011114
    13  C    5.576736  -0.000080  -0.000010  -0.000059  -0.000006   0.001017
    14  C   -0.000080   5.331980   0.395097   0.389342   0.400352  -0.003506
    15  H   -0.000010   0.395097   0.575901  -0.041663  -0.021610   0.000270
    16  H   -0.000059   0.389342  -0.041663   0.554726  -0.010755   0.000027
    17  H   -0.000006   0.400352  -0.021610  -0.010755   0.462546   0.001925
    18  C    0.001017  -0.003506   0.000270   0.000027   0.001925   5.206548
    19  H   -0.000043  -0.000420  -0.000040   0.000038   0.000290   0.390155
    20  H    0.000032   0.000119   0.000011  -0.000049  -0.000178   0.403222
    21  H    0.002093   0.000574  -0.000035   0.000001  -0.000230   0.396473
    22  C    0.316802   0.000018   0.000001  -0.000002   0.000000   0.000016
    23  H   -0.079622   0.000002  -0.000000   0.000000   0.000000   0.000001
    24  H   -0.036052  -0.000000   0.000000  -0.000000  -0.000000  -0.000001
    25  H   -0.046401   0.000000  -0.000000   0.000000   0.000000   0.000001
    26  C   -0.050578  -0.000135  -0.000358   0.000163   0.000036  -0.000024
    27  H   -0.007394   0.000025  -0.000026   0.000022   0.000000   0.000000
    28  H    0.007624  -0.000117   0.000048  -0.000096  -0.000002  -0.000001
    29  H    0.000013   0.000440  -0.000000   0.000018   0.000000   0.000001
              19         20         21         22         23         24
     1  O   -0.000000  -0.000016   0.000756  -0.116076   0.004176   0.002223
     2  O    0.006717   0.001940   0.008002   0.000000  -0.000000   0.000000
     3  N    0.000011  -0.000006   0.000076   0.000448  -0.000042   0.000104
     4  H   -0.000001  -0.000001  -0.000000   0.000099  -0.000053  -0.000014
     5  C    0.001413  -0.009504   0.085173   0.001670  -0.000463  -0.000086
     6  C    0.000032   0.000062  -0.001599  -0.008964  -0.028393   0.014340
     7  C    0.003986  -0.003686   0.005797   0.000826   0.000020  -0.000052
     8  C   -0.039592  -0.030402  -0.140556  -0.000048  -0.000002   0.000002
     9  C   -0.004780  -0.000316  -0.011785   0.010990   0.002296  -0.003329
    10  H   -0.000292   0.000764  -0.005234   0.001289  -0.000133   0.000102
    11  H    0.001141  -0.001213  -0.004174   0.000349  -0.000041  -0.000102
    12  C   -0.000989   0.000800   0.004547  -0.300009   0.057635  -0.004103
    13  C   -0.000043   0.000032   0.002093   0.316802  -0.079622  -0.036052
    14  C   -0.000420   0.000119   0.000574   0.000018   0.000002  -0.000000
    15  H   -0.000040   0.000011  -0.000035   0.000001  -0.000000   0.000000
    16  H    0.000038  -0.000049   0.000001  -0.000002   0.000000  -0.000000
    17  H    0.000290  -0.000178  -0.000230   0.000000   0.000000  -0.000000
    18  C    0.390155   0.403222   0.396473   0.000016   0.000001  -0.000001
    19  H    0.557426  -0.038242  -0.022237  -0.000001   0.000000  -0.000000
    20  H   -0.038242   0.545618  -0.023832   0.000001  -0.000000   0.000000
    21  H   -0.022237  -0.023832   0.563060   0.000045  -0.000001  -0.000001
    22  C   -0.000001   0.000001   0.000045   5.449130   0.386002   0.405778
    23  H    0.000000  -0.000000  -0.000001   0.386002   0.545420  -0.028625
    24  H   -0.000000   0.000000  -0.000001   0.405778  -0.028625   0.498806
    25  H    0.000000  -0.000000  -0.000000   0.375246  -0.020207  -0.009055
    26  C    0.000001  -0.000000  -0.000012  -0.037772   0.019490  -0.016697
    27  H    0.000000  -0.000000   0.000001   0.011280  -0.008846  -0.003322
    28  H   -0.000000   0.000000  -0.000000  -0.013923  -0.002867   0.002481
    29  H   -0.000000   0.000000  -0.000000   0.001713   0.000803   0.000088
              25         26         27         28         29
     1  O    0.010090   0.000814  -0.000233  -0.000069   0.000018
     2  O   -0.000000   0.000006  -0.000000   0.000000   0.000000
     3  N    0.000014  -0.035236   0.000465  -0.003090   0.004282
     4  H   -0.000002  -0.010447   0.000866   0.000536   0.001903
     5  C   -0.000108  -0.000552  -0.000187   0.000778  -0.000363
     6  C   -0.001935   0.205354  -0.053545  -0.048859  -0.052370
     7  C    0.000020   0.005064  -0.000626  -0.000335   0.003594
     8  C    0.000001   0.000871   0.000007  -0.000035   0.000026
     9  C    0.000647   0.022552   0.001567  -0.002186  -0.000938
    10  H   -0.000063  -0.000532  -0.000022   0.000010   0.000022
    11  H   -0.000070   0.000120   0.000025  -0.000001   0.000003
    12  C    0.029452  -0.086266   0.004016  -0.015864   0.023410
    13  C   -0.046401  -0.050578  -0.007394   0.007624   0.000013
    14  C    0.000000  -0.000135   0.000025  -0.000117   0.000440
    15  H   -0.000000  -0.000358  -0.000026   0.000048  -0.000000
    16  H    0.000000   0.000163   0.000022  -0.000096   0.000018
    17  H    0.000000   0.000036   0.000000  -0.000002   0.000000
    18  C    0.000001  -0.000024   0.000000  -0.000001   0.000001
    19  H    0.000000   0.000001   0.000000  -0.000000  -0.000000
    20  H   -0.000000  -0.000000  -0.000000   0.000000   0.000000
    21  H   -0.000000  -0.000012   0.000001  -0.000000  -0.000000
    22  C    0.375246  -0.037772   0.011280  -0.013923   0.001713
    23  H   -0.020207   0.019490  -0.008846  -0.002867   0.000803
    24  H   -0.009055  -0.016697  -0.003322   0.002481   0.000088
    25  H    0.504298   0.001858   0.001089  -0.000194  -0.000045
    26  C    0.001858   5.234074   0.418518   0.437472   0.387367
    27  H    0.001089   0.418518   0.529061  -0.037296  -0.023092
    28  H   -0.000194   0.437472  -0.037296   0.497924  -0.015586
    29  H   -0.000045   0.387367  -0.023092  -0.015586   0.517090
 Mulliken charges:
               1
     1  O   -0.383822
     2  O   -0.456732
     3  N   -0.106428
     4  H    0.309176
     5  C   -0.076376
     6  C    0.228397
     7  C    0.201694
     8  C    0.167903
     9  C   -0.330402
    10  H    0.213239
    11  H    0.211321
    12  C   -0.089354
    13  C    0.133456
    14  C   -0.508716
    15  H    0.139100
    16  H    0.155122
    17  H    0.188577
    18  C   -0.458726
    19  H    0.145425
    20  H    0.154877
    21  H    0.143098
    22  C   -0.484907
    23  H    0.153449
    24  H    0.177516
    25  H    0.155365
    26  C   -0.495153
    27  H    0.167648
    28  H    0.193650
    29  H    0.151603
 Sum of Mulliken charges =  -0.00000
 Mulliken charges with hydrogens summed into heavy atoms:
               1
     1  O   -0.383822
     2  O   -0.456732
     3  N    0.202748
     5  C   -0.076376
     6  C    0.228397
     7  C    0.201694
     8  C    0.167903
     9  C    0.094157
    12  C   -0.089354
    13  C    0.133456
    14  C   -0.025916
    18  C   -0.015326
    22  C    0.001423
    26  C    0.017748
 Electronic spatial extent (au):  <R**2>=           3233.1047
 Charge=              0.0000 electrons
 Dipole moment (field-independent basis, Debye):
    X=             -6.2785    Y=              7.9798    Z=             -0.4911  Tot=             10.1655
 Quadrupole moment (field-independent basis, Debye-Ang):
   XX=           -107.6801   YY=            -79.1112   ZZ=            -84.4412
   XY=            -13.3096   XZ=             -3.0163   YZ=             -0.7282
 Traceless Quadrupole moment (field-independent basis, Debye-Ang):
   XX=            -17.2692   YY=             11.2996   ZZ=              5.9696
   XY=            -13.3096   XZ=             -3.0163   YZ=             -0.7282
 Octapole moment (field-independent basis, Debye-Ang**2):
  XXX=           -141.4158  YYY=             70.4808  ZZZ=              0.4209  XYY=             31.3943
  XXY=             31.3394  XXZ=             -7.3587  XZZ=             -3.2842  YZZ=             -1.0452
  YYZ=              0.5418  XYZ=              2.4462
 Hexadecapole moment (field-independent basis, Debye-Ang**3):
 XXXX=          -3267.4540 YYYY=          -1291.0972 ZZZZ=           -131.5785 XXXY=            -37.9760
 XXXZ=            -39.6186 YYYX=            -94.1721 YYYZ=            -12.8585 ZZZX=              1.8470
 ZZZY=              2.9861 XXYY=           -721.8037 XXZZ=           -495.5833 YYZZ=           -236.5084
 XXYZ=             -2.5741 YYXZ=             -4.4896 ZZXY=             -2.0702
 N-N= 8.987435947409D+02 E-N=-3.272906437144D+03  KE= 6.306822936126D+02
 No NMR shielding tensors so no spin-rotation constants.
 Leave Link  601 at Sat Jan 24 18:53:25 2026, MaxMem=  2147483648 cpu:               1.8 elap:               0.1
 (Enter /data/home/wyx/g16/l9999.exe)
 Electronic transition elements 
                 1             2             3             4             5 
      1  -0.633204D+03 -0.633191D+03 -0.633165D+03 -0.633139D+03 -0.633124D+03
      2   0.167614D+01 -0.186844D+00  0.344076D-01  0.683701D+00 -0.911777D-01
      3   0.559763D+00 -0.524782D-01 -0.104790D+00 -0.194285D+01  0.123727D+01
      4   0.348372D+00 -0.855484D-01 -0.323032D-01  0.112043D+00 -0.431620D-01
      5  -0.189818D+00  0.240344D-01 -0.425432D-02 -0.113101D+00  0.212591D-01
      6  -0.643423D-01  0.675440D-02  0.154896D-01  0.336494D+00 -0.239883D+00
      7  -0.396234D-01  0.969663D-02  0.149681D-02 -0.203972D-01  0.837045D-02
      8  -0.346541D+00 -0.704000D+00  0.310604D+00 -0.156622D+00  0.181369D+00
      9   0.276405D-01 -0.110982D-01 -0.877499D+00  0.685881D-01 -0.364776D-01
     10   0.135214D+01 -0.403470D+00  0.145233D+00  0.465653D+00 -0.180680D+00
     11  -0.585929D-02  0.959572D-02 -0.628037D-01 -0.142336D+01  0.350002D+00
     12   0.244491D+00 -0.525116D-01  0.225283D-01  0.319347D+00 -0.243851D+00
     13  -0.479306D-02 -0.808748D-02  0.124386D-01 -0.412987D-01 -0.867175D-02
     14   0.556394D+00 -0.612395D-01  0.757077D-02 -0.390424D+00  0.363440D+00
     15   0.177815D-01 -0.262122D-01  0.642644D-01 -0.335752D+00  0.977166D-01
     16   0.119892D+00 -0.572242D-01  0.229843D-01 -0.865703D-01  0.133300D+00
                 6 
      1  -0.633095D+03
      2   0.108029D-01
      3   0.109294D+00
      4  -0.189658D-01
      5  -0.751400D-02
      6  -0.222318D-01
      7   0.232658D-01
      8  -0.517064D-01
      9  -0.224732D-02
     10   0.107893D-01
     11  -0.199821D+00
     12  -0.133038D+00
     13   0.102964D+00
     14   0.122363D-01
     15  -0.469651D-01
     16  -0.993110D-01
 1\1\GINC-CN015\SP\RCAM-B3LYP TD-FC\TZVP\C11H15N1O2\WYX\24-Jan-2026\0\\
 #p CAM-B3LYP TZVP em=gd3bj td(nstates=6,root=1) scrf=(Solvent=Water,Co
 rrectedLR,NonEquilibrium=Save) Geom=Check Guess=Read\\Title Card Requi
 red\\0,1\O,0,2.7628,-1.553973,0.680952\O,0,-3.359321,-1.662849,-0.8046
 42\N,0,-0.66469,1.524611,-0.045964\H,0,-0.974729,2.478783,-0.128956\C,
 0,-1.238131,-0.770933,-0.169935\C,0,0.66333,1.314369,0.170546\C,0,-1.6
 07714,0.536478,-0.281604\C,0,-2.148582,-1.82807,-0.412963\C,0,0.164021
 ,-1.126902,0.263888\H,0,0.144313,-1.587195,1.257873\H,0,0.574685,-1.88
 9653,-0.399012\C,0,1.12574,0.039615,0.283965\C,0,2.507476,-0.365344,0.
 476809\C,0,-2.947134,1.070026,-0.634893\H,0,-3.286739,1.816967,0.08865
 2\H,0,-2.945867,1.543963,-1.620083\H,0,-3.72109,0.304598,-0.666836\C,0
 ,-1.817865,-3.277815,-0.220569\H,0,-2.582471,-3.81908,0.340487\H,0,-1.
 716602,-3.786094,-1.183842\H,0,-0.880149,-3.424034,0.31025\C,0,3.67012
 8,0.595361,0.41576\H,0,3.612602,1.278802,-0.427562\H,0,3.729548,1.1904
 8,1.327841\H,0,4.578217,0.002678,0.337452\C,0,1.44357,2.592367,0.24833
 9\H,0,2.15101,2.593285,1.070314\H,0,1.993586,2.77488,-0.674766\H,0,0.7
 7006,3.434681,0.398499\\Version=ES64L-G16RevA.03\State=1-A\HF=-633.320
 2599\RMSD=2.271e-09\Dipole=1.1745367,3.810225,0.3130081\Quadrupole=-15
 .1227478,12.2664874,2.8562604,0.5090832,-6.0590154,-0.4108866\PG=C01 [
 X(C11H15N1O2)]\\@


 IF YOU WANT TO LEARN FROM THE THEORETICAL PHYSICISTS ABOUT THE
 METHODS WHICH THEY USE, I ADVISE YOU TO FOLLOW THIS PRINCIPLE VERY STRICTLY:
 DON'T LISTEN TO THEIR WORDS; PAY ATTENTION, INSTEAD, TO THEIR ACTIONS.
 -- A.EINSTEIN, 1934
 Job cpu time:       0 days  2 hours 57 minutes 28.5 seconds.
 Elapsed time:       0 days  0 hours 11 minutes 10.8 seconds.
 File lengths (MBytes):  RWF=    734 Int=      0 D2E=      0 Chk=     67 Scr=      1
 Normal termination of Gaussian 16 at Sat Jan 24 18:53:27 2026.
