 Entering Gaussian System, Link 0=g16
 Input=DDL-LR-Eq-9.gjf
 Output=DDL-LR-Eq-9.log
 Initial command:
 /data/home/wyx/g16/l1.exe "/scr/tmp/wyx/13119/Gau-1511930.inp" -scrdir="/scr/tmp/wyx/13119/"
 Entering Link 1 = /data/home/wyx/g16/l1.exe PID=   1511931.
  
 Copyright (c) 1988,1990,1992,1993,1995,1998,2003,2009,2016,
            Gaussian, Inc.  All Rights Reserved.
  
 This is part of the Gaussian(R) 16 program.  It is based on
 the Gaussian(R) 09 system (copyright 2009, Gaussian, Inc.),
 the Gaussian(R) 03 system (copyright 2003, Gaussian, Inc.),
 the Gaussian(R) 98 system (copyright 1998, Gaussian, Inc.),
 the Gaussian(R) 94 system (copyright 1995, Gaussian, Inc.),
 the Gaussian 92(TM) system (copyright 1992, Gaussian, Inc.),
 the Gaussian 90(TM) system (copyright 1990, Gaussian, Inc.),
 the Gaussian 88(TM) system (copyright 1988, Gaussian, Inc.),
 the Gaussian 86(TM) system (copyright 1986, Carnegie Mellon
 University), and the Gaussian 82(TM) system (copyright 1983,
 Carnegie Mellon University). Gaussian is a federally registered
 trademark of Gaussian, Inc.
  
 This software contains proprietary and confidential information,
 including trade secrets, belonging to Gaussian, Inc.
  
 This software is provided under written license and may be
 used, copied, transmitted, or stored only in accord with that
 written license.
  
 The following legend is applicable only to US Government
 contracts under FAR:
  
                    RESTRICTED RIGHTS LEGEND
  
 Use, reproduction and disclosure by the US Government is
 subject to restrictions as set forth in subparagraphs (a)
 and (c) of the Commercial Computer Software - Restricted
 Rights clause in FAR 52.227-19.
  
 Gaussian, Inc.
 340 Quinnipiac St., Bldg. 40, Wallingford CT 06492
  
  
 ---------------------------------------------------------------
 Warning -- This program may not be used in any manner that
 competes with the business of Gaussian, Inc. or will provide
 assistance to any competitor of Gaussian, Inc.  The licensee
 of this program is prohibited from giving any competitor of
 Gaussian, Inc. access to this program.  By using this program,
 the user acknowledges that Gaussian, Inc. is engaged in the
 business of creating and licensing software in the field of
 computational chemistry and represents and warrants to the
 licensee that it is not a competitor of Gaussian, Inc. and that
 it will not use this program in any manner prohibited above.
 ---------------------------------------------------------------
  

 Cite this work as:
 Gaussian 16, Revision A.03,
 M. J. Frisch, G. W. Trucks, H. B. Schlegel, G. E. Scuseria, 
 M. A. Robb, J. R. Cheeseman, G. Scalmani, V. Barone, 
 G. A. Petersson, H. Nakatsuji, X. Li, M. Caricato, A. V. Marenich, 
 J. Bloino, B. G. Janesko, R. Gomperts, B. Mennucci, H. P. Hratchian, 
 J. V. Ortiz, A. F. Izmaylov, J. L. Sonnenberg, D. Williams-Young, 
 F. Ding, F. Lipparini, F. Egidi, J. Goings, B. Peng, A. Petrone, 
 T. Henderson, D. Ranasinghe, V. G. Zakrzewski, J. Gao, N. Rega, 
 G. Zheng, W. Liang, M. Hada, M. Ehara, K. Toyota, R. Fukuda, 
 J. Hasegawa, M. Ishida, T. Nakajima, Y. Honda, O. Kitao, H. Nakai, 
 T. Vreven, K. Throssell, J. A. Montgomery, Jr., J. E. Peralta, 
 F. Ogliaro, M. J. Bearpark, J. J. Heyd, E. N. Brothers, K. N. Kudin, 
 V. N. Staroverov, T. A. Keith, R. Kobayashi, J. Normand, 
 K. Raghavachari, A. P. Rendell, J. C. Burant, S. S. Iyengar, 
 J. Tomasi, M. Cossi, J. M. Millam, M. Klene, C. Adamo, R. Cammi, 
 J. W. Ochterski, R. L. Martin, K. Morokuma, O. Farkas, 
 J. B. Foresman, and D. J. Fox, Gaussian, Inc., Wallingford CT, 2016.
 
 ******************************************
 Gaussian 16:  ES64L-G16RevA.03 25-Dec-2016
                24-Jan-2026 
 ******************************************
 %nprocshared=16
 Will use up to   16 processors via shared memory.
 %mem=16GB
 %oldchk=DDL-LR-9.chk
 %chk=DDL-LR-Eq-9.chk
 Copying data from "DDL-LR-9.chk" to current chk file "DDL-LR-Eq-9.chk"
 IOpt=  2 FromEx=T IUOpen= 4 IOptOp= 5 NList=   0 IFRang= 0 IUIn= 4 IUOut= 2.
 ----------------------------------------------------------------------
 #p CAM-B3LYP TZVP em=gd3bj td(Eqsolv,nstates=6,root=1) scrf=(Solvent=W
 ater) Geom=Check Guess=Read
 ----------------------------------------------------------------------
 1/29=2,38=1,172=1/1;
 2/12=2,40=1/2;
 3/5=19,7=101,11=9,14=-4,25=1,30=1,70=2201,72=1,74=-40,116=-2,124=41/1,2,3,8;
 4/5=1/1;
 5/5=2,38=6,53=1/2;
 8/6=1,10=1,107=1,108=6/1;
 9/8=1,41=6,42=1,70=2,73=2/14;
 6/7=2,8=2,9=2,10=2/1;
 99/5=1,9=1/99;
 Leave Link    1 at Sat Jan 24 16:16:38 2026, MaxMem=  2147483648 cpu:               0.8 elap:               0.1
 (Enter /data/home/wyx/g16/l101.exe)
 -------------------
 Title Card Required
 -------------------
 Structure from the checkpoint file:  "DDL-LR-Eq-9.chk"
 Charge =  0 Multiplicity = 1
 Z-Matrix found in chk file.
 O,0,2.756746,-1.557378,0.701976
 O,0,-3.30744,-1.656124,-0.946491
 N,0,-0.682759,1.521332,0.031125
 H,0,-0.989931,2.47726,-0.042394
 C,0,-1.241283,-0.763631,-0.162046
 C,0,0.655073,1.307875,0.219942
 C,0,-1.610605,0.539222,-0.256069
 C,0,-2.153035,-1.824784,-0.473362
 C,0,0.136705,-1.118768,0.341052
 H,0,0.077853,-1.514042,1.362311
 H,0,0.555522,-1.926574,-0.257988
 C,0,1.112451,0.034591,0.31704
 C,0,2.501375,-0.376564,0.467518
 C,0,-2.941274,1.072502,-0.646417
 H,0,-3.195221,1.971588,-0.079476
 H,0,-2.973242,1.333794,-1.706352
 H,0,-3.756829,0.371028,-0.485348
 C,0,-1.787081,-3.257683,-0.232463
 H,0,-2.64252,-3.886944,0.015502
 H,0,-1.328318,-3.695054,-1.12443
 H,0,-1.065946,-3.395071,0.572529
 C,0,3.663169,0.573483,0.316305
 H,0,3.547442,1.261102,-0.517298
 H,0,3.798262,1.16259,1.224472
 H,0,4.556899,-0.027825,0.168583
 C,0,1.433769,2.586103,0.28769
 H,0,2.202954,2.562417,1.050937
 H,0,1.906876,2.808164,-0.669311
 H,0,0.77039,3.417389,0.522464
 Recover connectivity data from disk.
 ITRead=  0  0  0  0  0  0  0  0  0  0  0  0  0  0  0  0  0  0  0  0
 ITRead=  0  0  0  0  0  0  0  0  0
 MicOpt= -1 -1 -1 -1 -1 -1 -1 -1 -1 -1 -1 -1 -1 -1 -1 -1 -1 -1 -1 -1
 MicOpt= -1 -1 -1 -1 -1 -1 -1 -1 -1
 NAtoms=     29 NQM=       29 NQMF=       0 NMMI=      0 NMMIF=      0
                NMic=       0 NMicF=      0.
                    Isotopes and Nuclear Properties:
 (Nuclear quadrupole moments (NQMom) in fm**2, nuclear magnetic moments (NMagM)
  in nuclear magnetons)

  Atom         1           2           3           4           5           6           7           8           9          10
 IAtWgt=          16          16          14           1          12          12          12          12          12           1
 AtmWgt=  15.9949146  15.9949146  14.0030740   1.0078250  12.0000000  12.0000000  12.0000000  12.0000000  12.0000000   1.0078250
 NucSpn=           0           0           2           1           0           0           0           0           0           1
 AtZEff=   5.6000000   5.6000000   4.5500000   1.0000000   3.6000000   3.6000000   3.6000000   3.6000000   3.6000000   1.0000000
 NQMom=    0.0000000   0.0000000   2.0440000   0.0000000   0.0000000   0.0000000   0.0000000   0.0000000   0.0000000   0.0000000
 NMagM=    0.0000000   0.0000000   0.4037610   2.7928460   0.0000000   0.0000000   0.0000000   0.0000000   0.0000000   2.7928460
 AtZNuc=   8.0000000   8.0000000   7.0000000   1.0000000   6.0000000   6.0000000   6.0000000   6.0000000   6.0000000   1.0000000

  Atom        11          12          13          14          15          16          17          18          19          20
 IAtWgt=           1          12          12          12           1           1           1          12           1           1
 AtmWgt=   1.0078250  12.0000000  12.0000000  12.0000000   1.0078250   1.0078250   1.0078250  12.0000000   1.0078250   1.0078250
 NucSpn=           1           0           0           0           1           1           1           0           1           1
 AtZEff=   1.0000000   3.6000000   3.6000000   3.6000000   1.0000000   1.0000000   1.0000000   3.6000000   1.0000000   1.0000000
 NQMom=    0.0000000   0.0000000   0.0000000   0.0000000   0.0000000   0.0000000   0.0000000   0.0000000   0.0000000   0.0000000
 NMagM=    2.7928460   0.0000000   0.0000000   0.0000000   2.7928460   2.7928460   2.7928460   0.0000000   2.7928460   2.7928460
 AtZNuc=   1.0000000   6.0000000   6.0000000   6.0000000   1.0000000   1.0000000   1.0000000   6.0000000   1.0000000   1.0000000

  Atom        21          22          23          24          25          26          27          28          29
 IAtWgt=           1          12           1           1           1          12           1           1           1
 AtmWgt=   1.0078250  12.0000000   1.0078250   1.0078250   1.0078250  12.0000000   1.0078250   1.0078250   1.0078250
 NucSpn=           1           0           1           1           1           0           1           1           1
 AtZEff=   1.0000000   3.6000000   1.0000000   1.0000000   1.0000000   3.6000000   1.0000000   1.0000000   1.0000000
 NQMom=    0.0000000   0.0000000   0.0000000   0.0000000   0.0000000   0.0000000   0.0000000   0.0000000   0.0000000
 NMagM=    2.7928460   0.0000000   2.7928460   2.7928460   2.7928460   0.0000000   2.7928460   2.7928460   2.7928460
 AtZNuc=   1.0000000   6.0000000   1.0000000   1.0000000   1.0000000   6.0000000   1.0000000   1.0000000   1.0000000
 Leave Link  101 at Sat Jan 24 16:16:41 2026, MaxMem=  2147483648 cpu:               0.9 elap:               0.1
 (Enter /data/home/wyx/g16/l202.exe)
                          Input orientation:                          
 ---------------------------------------------------------------------
 Center     Atomic      Atomic             Coordinates (Angstroms)
 Number     Number       Type             X           Y           Z
 ---------------------------------------------------------------------
      1          8           0        2.756746   -1.557378    0.701976
      2          8           0       -3.307440   -1.656124   -0.946491
      3          7           0       -0.682759    1.521332    0.031125
      4          1           0       -0.989931    2.477260   -0.042394
      5          6           0       -1.241283   -0.763631   -0.162046
      6          6           0        0.655073    1.307875    0.219942
      7          6           0       -1.610605    0.539222   -0.256069
      8          6           0       -2.153035   -1.824784   -0.473362
      9          6           0        0.136705   -1.118768    0.341052
     10          1           0        0.077853   -1.514042    1.362311
     11          1           0        0.555522   -1.926574   -0.257988
     12          6           0        1.112451    0.034591    0.317040
     13          6           0        2.501375   -0.376564    0.467518
     14          6           0       -2.941274    1.072502   -0.646417
     15          1           0       -3.195221    1.971588   -0.079476
     16          1           0       -2.973242    1.333794   -1.706352
     17          1           0       -3.756829    0.371028   -0.485348
     18          6           0       -1.787081   -3.257683   -0.232463
     19          1           0       -2.642520   -3.886944    0.015502
     20          1           0       -1.328318   -3.695054   -1.124430
     21          1           0       -1.065946   -3.395071    0.572529
     22          6           0        3.663169    0.573483    0.316305
     23          1           0        3.547442    1.261102   -0.517298
     24          1           0        3.798262    1.162590    1.224472
     25          1           0        4.556899   -0.027825    0.168583
     26          6           0        1.433769    2.586103    0.287690
     27          1           0        2.202954    2.562417    1.050937
     28          1           0        1.906876    2.808164   -0.669311
     29          1           0        0.770390    3.417389    0.522464
 ---------------------------------------------------------------------
                    Distance matrix (angstroms):
                    1          2          3          4          5
     1  O    0.000000
     2  O    6.285026   0.000000
     3  N    4.664621   4.235671   0.000000
     4  H    5.556076   4.824220   1.006756   0.000000
     5  C    4.166630   2.383464   2.360153   3.252825   0.000000
     6  C    3.585953   5.084030   1.367849   2.035269   2.834293
     7  C    4.938354   2.859279   1.381274   2.046188   1.357448
     8  C    5.055579   1.258947   3.689541   4.477290   1.433267
     9  C    2.680907   3.716000   2.781673   3.787843   1.509331
    10  H    2.759418   4.100117   3.400600   4.363926   2.151023
    11  H    2.429655   3.933148   3.674913   4.672115   2.142463
    12  C    2.320829   4.898006   2.348388   3.242813   2.531155
    13  C    1.230653   6.113839   3.732447   4.538010   3.814926
    14  C    6.418868   2.769390   2.400292   2.479098   2.548719
    15  H    6.963489   3.731568   2.554883   2.262826   3.362457
    16  H    6.855048   3.103013   2.881026   2.830158   3.127899
    17  H    6.896024   2.126958   3.322627   3.505445   2.778479
    18  C    4.940706   2.320844   4.912025   5.793198   2.554046
    19  H    5.920321   2.518751   5.752422   6.575522   3.427838
    20  H    4.959150   2.847072   5.381704   6.275569   3.086584
    21  H    4.243447   3.218020   4.960944   5.904928   2.737667
    22  C    2.347533   7.426654   4.457223   5.040275   5.105913
    23  H    3.171066   7.462159   4.273533   4.721475   5.211299
    24  H    2.959051   7.946649   4.651056   5.124461   5.570437
    25  H    2.421692   8.108180   5.465601   6.089933   5.854028
    26  C    4.369249   6.480645   2.383118   2.448494   4.310323
    27  H    4.171471   7.221513   3.232834   3.375965   4.939301
    28  H    4.654102   6.869919   2.975358   2.982283   4.788104
    29  H    5.359677   6.672860   2.438870   2.074039   4.690022
                    6          7          8          9         10
     6  C    0.000000
     7  C    2.439408   0.000000
     8  C    4.263765   2.435153   0.000000
     9  C    2.484345   2.481648   2.530739   0.000000
    10  H    3.098613   3.112224   2.905704   1.096665   0.000000
    11  H    3.271084   3.282112   2.719012   1.089407   1.738884
    12  C    1.356420   2.828098   3.839975   1.510925   2.135708
    13  C    2.511466   4.274415   4.964487   2.481637   2.822759
    14  C    3.706709   1.485745   3.007580   3.905216   4.454248
    15  H    3.918537   2.143330   3.956481   4.563866   4.994135
    16  H    4.108035   2.142766   3.488498   4.458553   5.180352
    17  H    4.565084   2.164979   2.719171   4.249945   4.655332
    18  C    5.197413   3.801077   1.498384   2.933399   3.010244
    19  H    6.156465   4.552971   2.175106   3.936099   3.852919
    20  H    5.547114   4.331608   2.145217   3.306233   3.594163
    21  H    5.020351   4.057325   2.177487   2.584861   2.338868
    22  C    3.097944   5.304854   6.340622   3.911556   4.278596
    23  H    2.985215   5.214863   6.482288   4.246607   4.824148
    24  H    3.303002   5.642378   6.872043   4.403638   4.585281
    25  H    4.124437   6.208057   6.975985   4.556097   4.867821
    26  C    1.498274   3.708586   5.735877   3.925722   4.450226
    27  H    2.158788   4.510523   6.367547   4.280706   4.607659
    28  H    2.146776   4.206131   6.163236   4.424379   5.114125
    29  H    2.134213   3.815638   6.084280   4.583796   5.050145
                   11         12         13         14         15
    11  H    0.000000
    12  C    2.118253   0.000000
    13  C    2.591377   1.456297   0.000000
    14  C    4.623085   4.293972   5.741348   0.000000
    15  H    5.412542   4.739749   6.185808   1.092825   0.000000
    16  H    5.017961   4.740773   6.133716   1.092134   1.761471
    17  H    4.891527   4.946403   6.374321   1.087722   1.744112
    18  C    2.694493   4.421347   5.213605   4.500447   5.417706
    19  H    3.761026   5.437754   6.243936   5.012334   5.885312
    20  H    2.725270   4.684596   5.311612   5.055662   6.057069
    21  H    2.339957   4.071028   4.674205   4.996188   5.810331
    22  C    4.029586   2.607023   1.508383   6.692871   7.010624
    23  H    4.379510   2.851251   2.178547   6.492740   6.794114
    24  H    4.717625   3.051130   2.150323   6.994976   7.159858
    25  H    4.449520   3.448211   2.106219   7.622174   8.009654
    26  C    4.629615   2.571832   3.154285   4.722769   4.684014
    27  H    4.957656   2.849159   3.011153   5.618179   5.546819
    28  H    4.940960   3.049050   3.433410   5.149525   5.203764
    29  H    5.404925   3.406248   4.170540   4.543262   4.263654
                   16         17         18         19         20
    16  H    0.000000
    17  H    1.741200   0.000000
    18  C    4.965983   4.136593   0.000000
    19  H    5.507292   4.429770   1.090519   0.000000
    20  H    5.322943   4.779029   1.094240   1.750255   0.000000
    21  H    5.585091   4.747995   1.089460   1.742930   1.743129
    22  C    6.979338   7.465923   6.684624   7.729658   6.723918
    23  H    6.628609   7.358371   6.996977   8.068574   6.978906
    24  H    7.380536   7.786492   7.270318   8.273033   7.442840
    25  H    7.878605   8.348939   7.130140   8.169937   7.053810
    26  C    4.996622   5.696179   6.692852   7.654447   7.005437
    27  H    5.992092   6.533098   7.172242   8.132958   7.507200
    28  H    5.202381   6.168552   7.115522   8.123450   7.277737
    29  H    4.829469   5.549028   7.187987   8.078258   7.596294
                   21         22         23         24         25
    21  H    0.000000
    22  C    6.178964   0.000000
    23  H    6.644623   1.086787   0.000000
    24  H    6.697598   1.090901   1.762492   0.000000
    25  H    6.566422   1.087266   1.775041   1.762816   0.000000
    26  C    6.488771   3.003612   2.621306   2.914580   4.074401
    27  H    6.812213   2.574446   2.441399   2.129469   3.609565
    28  H    6.989990   3.008289   2.260081   3.141921   3.970834
    29  H    7.055795   4.061831   3.666428   3.839914   5.131509
                   26         27         28         29
    26  C    0.000000
    27  H    1.083860   0.000000
    28  H    1.090409   1.762755   0.000000
    29  H    1.089140   1.750000   1.755871   0.000000
 Stoichiometry    C11H15NO2
 Framework group  C1[X(C11H15NO2)]
 Deg. of freedom    81
 Full point group                 C1      NOp   1
 RotChk:  IX=0 Diff= 4.08D-16
 Largest Abelian subgroup         C1      NOp   1
 Largest concise Abelian subgroup C1      NOp   1
                         Standard orientation:                         
 ---------------------------------------------------------------------
 Center     Atomic      Atomic             Coordinates (Angstroms)
 Number     Number       Type             X           Y           Z
 ---------------------------------------------------------------------
      1          8           0       -2.271910   -2.299961   -0.127887
      2          8           0        3.640340   -0.217553    0.330826
      3          7           0       -0.048706    1.800465   -0.178539
      4          1           0       -0.083310    2.806623   -0.180922
      5          6           0        1.290143   -0.139467   -0.058244
      6          6           0       -1.241231    1.134600   -0.104266
      7          6           0        1.196423    1.214742   -0.058112
      8          6           0        2.551968   -0.802797    0.090238
      9          6           0        0.054903   -0.977338   -0.282379
     10          1           0        0.068156   -1.411462   -1.289373
     11          1           0        0.052378   -1.827380    0.398965
     12          6           0       -1.239462   -0.221755   -0.091049
     13          6           0       -2.404048   -1.087164    0.033884
     14          6           0        2.306801    2.194636    0.061497
     15          1           0        2.131331    3.077437   -0.558293
     16          1           0        2.430354    2.536779    1.091269
     17          1           0        3.273331    1.797920   -0.241118
     18          6           0        2.668211   -2.289826   -0.052538
     19          1           0        3.631417   -2.612444   -0.449253
     20          1           0        2.551713   -2.781953    0.917824
     21          1           0        1.910751   -2.726921   -0.702250
     22          6           0       -3.777499   -0.574579    0.389003
     23          1           0       -3.763553    0.177290    1.173607
     24          1           0       -4.263839   -0.141283   -0.486092
     25          1           0       -4.367854   -1.427455    0.714933
     26          6           0       -2.413069    2.066178   -0.042758
     27          1           0       -3.246891    1.722977   -0.644178
     28          1           0       -2.759544    2.193157    0.983314
     29          1           0       -2.129788    3.050197   -0.413816
 ---------------------------------------------------------------------
 Rotational constants (GHZ):           1.0938272           0.4855200           0.3428428
 Leave Link  202 at Sat Jan 24 16:16:42 2026, MaxMem=  2147483648 cpu:               0.1 elap:               0.0
 (Enter /data/home/wyx/g16/l301.exe)
 Standard basis: TZVP (5D, 7F)
 Ernie: Thresh=  0.10000D-02 Tol=  0.10000D-05 Strict=F.
 There are   370 symmetry adapted cartesian basis functions of A   symmetry.
 There are   356 symmetry adapted basis functions of A   symmetry.
   356 basis functions,   610 primitive gaussians,   370 cartesian basis functions
    52 alpha electrons       52 beta electrons
       nuclear repulsion energy       899.8802834167 Hartrees.
 IExCor=20419 DFT=T Ex+Corr=CAM-B3LYP ExCW=0 ScaHFX=  1.000000
 ScaDFX=  1.000000  1.000000  1.000000  0.810000 ScalE2=  1.000000  1.000000
 IRadAn=      5 IRanWt=     -1 IRanGd=            0 ICorTp=0 IEmpDi=141
 HFx  wShort=  0.000000 wLong=  0.330000 cFull=  0.190000 cShort=  0.000000 cLong=  0.460000
 DFx  wShort=  0.000000 wLong=  0.330000 cFull=  0.190000 cShort=  0.000000 cLong=  0.460000
 NAtoms=   29 NActive=   29 NUniq=   29 SFac= 1.00D+00 NAtFMM=   60 NAOKFM=F Big=F
 Integral buffers will be    131072 words long.
 Raffenetti 1 integral format.
 Two-electron integral symmetry is turned on.
 R6Disp:  Grimme-D3(BJ) Dispersion energy=       -0.0261362486 Hartrees.
 Nuclear repulsion after empirical dispersion term =      899.8541471682 Hartrees.
 ------------------------------------------------------------------------------
 Polarizable Continuum Model (PCM)
 =================================
 Model                : PCM.
 Atomic radii         : UFF (Universal Force Field).
 Polarization charges : Total charges.
 Charge compensation  : None.
 Solution method      : On-the-fly selection.
 Cavity type          : Scaled VdW (van der Waals Surface) (Alpha=1.100).
 Cavity algorithm     : GePol (No added spheres)
                        Default sphere list used, NSphG=   29.
                        Lebedev-Laikov grids with approx.  5.0 points / Ang**2.
                        Smoothing algorithm: York/Karplus (Gamma=1.0000).
                        Polarization charges: spherical gaussians, with
                                              point-specific exponents (IZeta= 3).
                        Self-potential: point-specific (ISelfS= 7).
                        Self-field    : sphere-specific E.n sum rule (ISelfD= 2).
 Solvent              : Water, Eps=  78.355300 Eps(inf)=   1.777849
 ------------------------------------------------------------------------------
 GePol: Number of generator spheres                  =      29
 GePol: Total number of spheres                      =      29
 GePol: Number of exposed spheres                    =      29 (100.00%)
 GePol: Number of points                             =    2100
 GePol: Average weight of points                     =       0.13
 GePol: Minimum weight of points                     =   0.20D-10
 GePol: Maximum weight of points                     =    0.20577
 GePol: Number of points with low weight             =     121
 GePol: Fraction of low-weight points (<1% of avg)   =       5.76%
 GePol: Cavity surface area                          =    269.096 Ang**2
 GePol: Cavity volume                                =    286.539 Ang**3
 Leave Link  301 at Sat Jan 24 16:16:42 2026, MaxMem=  2147483648 cpu:               0.6 elap:               0.0
 (Enter /data/home/wyx/g16/l302.exe)
 NPDir=0 NMtPBC=     1 NCelOv=     1 NCel=       1 NClECP=     1 NCelD=      1
         NCelK=      1 NCelE2=     1 NClLst=     1 CellRange=     0.0.
 One-electron integrals computed using PRISM.
 One-electron integral symmetry used in STVInt
 NBasis=   356 RedAO= T EigKep=  4.22D-05  NBF=   356
 NBsUse=   356 1.00D-06 EigRej= -1.00D+00 NBFU=   356
 Precomputing XC quadrature grid using
 IXCGrd= 4 IRadAn=           5 IRanWt=          -1 IRanGd=           0 AccXCQ= 0.00D+00.
 Generated NRdTot=       0 NPtTot=           0 NUsed=           0 NTot=          32
 NSgBfM=   366   366   366   366   366 MxSgAt=    29 MxSgA2=    29.
 Leave Link  302 at Sat Jan 24 16:16:42 2026, MaxMem=  2147483648 cpu:               3.1 elap:               0.2
 (Enter /data/home/wyx/g16/l303.exe)
 DipDrv:  MaxL=1.
 Leave Link  303 at Sat Jan 24 16:16:42 2026, MaxMem=  2147483648 cpu:               0.6 elap:               0.0
 (Enter /data/home/wyx/g16/l308.exe)
 Leave Link  308 at Sat Jan 24 16:16:43 2026, MaxMem=  2147483648 cpu:               0.7 elap:               0.1
 (Enter /data/home/wyx/g16/l401.exe)
 Initial guess from the checkpoint file:  "DDL-LR-Eq-9.chk"
 B after Tr=    -0.000000   -0.000000    0.000000
         Rot=    1.000000   -0.000000    0.000000   -0.000000 Ang=   0.00 deg.
 Guess basis will be translated and rotated to current coordinates.
 JPrj=2 DoOrth=T DoCkMO=T.
 Leave Link  401 at Sat Jan 24 16:16:43 2026, MaxMem=  2147483648 cpu:               2.3 elap:               0.2
 (Enter /data/home/wyx/g16/l502.exe)
 Integral symmetry usage will be decided dynamically.
 Closed shell SCF:
 Using DIIS extrapolation, IDIIS=  1040.
 NGot=  2147483648 LenX=  2147200095 LenY=  2147062754
 Requested convergence on RMS density matrix=1.00D-08 within 128 cycles.
 Requested convergence on MAX density matrix=1.00D-06.
 Requested convergence on             energy=1.00D-06.
 No special actions if energy rises.
 Fock matrices will be formed incrementally for  20 cycles.

 Cycle   1  Pass 1  IDiag  1:
 FoFJK:  IHMeth= 1 ICntrl=       0 DoSepK=T KAlg= 0 I1Cent=           0 FoldK=F
 IRaf=         1 NMat=       1 IRICut=       1 DoRegI=T DoRafI=F ISym2E= 0 IDoP0=0 IntGTp=1.
 FoFCou: FMM=F IPFlag=           0 FMFlag=      100000 FMFlg1=           0
         NFxFlg=           0 DoJE=T BraDBF=F KetDBF=F FulRan=T
         wScrn=  0.000000 ICntrl=       500 IOpCl=  0 I1Cent=           0 NGrid=           0
         NMat0=    1 NMatS0=      1 NMatT0=    0 NMatD0=    1 NMtDS0=    0 NMtDT0=    0
 Symmetry not used in FoFCou.
 Inv3:  Mode=1 IEnd=    13230000.
 Iteration    1 A*A^-1 deviation from unit magnitude is 3.11D-15 for    725.
 Iteration    1 A*A^-1 deviation from orthogonality  is 1.86D-15 for   2009   1599.
 Iteration    1 A^-1*A deviation from unit magnitude is 2.66D-15 for    562.
 Iteration    1 A^-1*A deviation from orthogonality  is 3.00D-15 for   1506   1268.
 E= -633.326532622388    
 DIIS: error= 6.73D-09 at cycle   1 NSaved=   1.
 NSaved= 1 IEnMin= 1 EnMin= -633.326532622388     IErMin= 1 ErrMin= 6.73D-09
 ErrMax= 6.73D-09  0.00D+00 EMaxC= 1.00D-01 BMatC= 1.58D-14 BMatP= 1.58D-14
 IDIUse=1 WtCom= 1.00D+00 WtEn= 0.00D+00
 Coeff-Com:  0.100D+01
 Coeff:      0.100D+01
 Gap=     0.233 Goal=   None    Shift=    0.000
 RMSDP=1.89D-09 MaxDP=1.20D-07              OVMax= 1.12D-07

 Error on total polarization charges =  0.01552
 SCF Done:  E(RCAM-B3LYP) =  -633.326532622     A.U. after    1 cycles
            NFock=  1  Conv=0.19D-08     -V/T= 2.0042
 KE= 6.306768846044D+02 PE=-3.275723807495D+03 EE= 1.111866243100D+03
 Leave Link  502 at Sat Jan 24 16:16:49 2026, MaxMem=  2147483648 cpu:              86.2 elap:               5.7
 (Enter /data/home/wyx/g16/l801.exe)
 DoSCS=F DFT=T ScalE2(SS,OS)=  1.000000  1.000000
 ExpMin= 9.52D-02 ExpMax= 2.70D+04 ExpMxC= 9.22D+02 IAcc=3 IRadAn=         5 AccDes= 0.00D+00
 HarFok:  IExCor=  205 AccDes= 0.00D+00 IRadAn=         5 IDoV=-2 UseB2=F ITyADJ=14
 ICtDFT= 12500011 ScaDFX=  1.000000  1.000000  1.000000  1.000000
 Largest valence mixing into a core orbital is  5.66D-05
 Largest core mixing into a valence orbital is  1.16D-05
 Range of M.O.s used for correlation:    15   356
 NBasis=   356 NAE=    52 NBE=    52 NFC=    14 NFV=     0
 NROrb=    342 NOA=    38 NOB=    38 NVA=   304 NVB=   304

 **** Warning!!: The largest alpha MO coefficient is  0.35617545D+02

 Leave Link  801 at Sat Jan 24 16:16:49 2026, MaxMem=  2147483648 cpu:               1.0 elap:               0.1
 (Enter /data/home/wyx/g16/l914.exe)
 RHF ground state
 Two-electron integrals replicated using symmetry.
 MDV=  2147483648 DFT=T DoStab=F Mixed=T DoRPA=T DoScal=F NonHer=T
 NEqPCM:  Using equilibrium solvation (IEInf=0, Eps=  78.3553, EpsInf=   1.7778)
 Making orbital integer symmetry assigments:
 Orbital symmetries:
       Occupied  (A) (A) (A) (A) (A) (A) (A) (A) (A) (A) (A) (A)
                 (A) (A) (A) (A) (A) (A) (A) (A) (A) (A) (A) (A)
                 (A) (A) (A) (A) (A) (A) (A) (A) (A) (A) (A) (A)
                 (A) (A) (A) (A) (A) (A) (A) (A) (A) (A) (A) (A)
                 (A) (A) (A) (A)
       Virtual   (A) (A) (A) (A) (A) (A) (A) (A) (A) (A) (A) (A)
                 (A) (A) (A) (A) (A) (A) (A) (A) (A) (A) (A) (A)
                 (A) (A) (A) (A) (A) (A) (A) (A) (A) (A) (A) (A)
                 (A) (A) (A) (A) (A) (A) (A) (A) (A) (A) (A) (A)
                 (A) (A) (A) (A) (A) (A) (A) (A) (A) (A) (A) (A)
                 (A) (A) (A) (A) (A) (A) (A) (A) (A) (A) (A) (A)
                 (A) (A) (A) (A) (A) (A) (A) (A) (A) (A) (A) (A)
                 (A) (A) (A) (A) (A) (A) (A) (A) (A) (A) (A) (A)
                 (A) (A) (A) (A) (A) (A) (A) (A) (A) (A) (A) (A)
                 (A) (A) (A) (A) (A) (A) (A) (A) (A) (A) (A) (A)
                 (A) (A) (A) (A) (A) (A) (A) (A) (A) (A) (A) (A)
                 (A) (A) (A) (A) (A) (A) (A) (A) (A) (A) (A) (A)
                 (A) (A) (A) (A) (A) (A) (A) (A) (A) (A) (A) (A)
                 (A) (A) (A) (A) (A) (A) (A) (A) (A) (A) (A) (A)
                 (A) (A) (A) (A) (A) (A) (A) (A) (A) (A) (A) (A)
                 (A) (A) (A) (A) (A) (A) (A) (A) (A) (A) (A) (A)
                 (A) (A) (A) (A) (A) (A) (A) (A) (A) (A) (A) (A)
                 (A) (A) (A) (A) (A) (A) (A) (A) (A) (A) (A) (A)
                 (A) (A) (A) (A) (A) (A) (A) (A) (A) (A) (A) (A)
                 (A) (A) (A) (A) (A) (A) (A) (A) (A) (A) (A) (A)
                 (A) (A) (A) (A) (A) (A) (A) (A) (A) (A) (A) (A)
                 (A) (A) (A) (A) (A) (A) (A) (A) (A) (A) (A) (A)
                 (A) (A) (A) (A) (A) (A) (A) (A) (A) (A) (A) (A)
                 (A) (A) (A) (A) (A) (A) (A) (A) (A) (A) (A) (A)
                 (A) (A) (A) (A) (A) (A) (A) (A) (A) (A) (A) (A)
                 (A) (A) (A) (A)
    24 initial guesses have been made.
 Convergence on wavefunction:    0.001000000000000
 Davidson Disk Diagonalization:  ConvIn= 1.00D-03 SkipCon=T Conv= 1.00D-03.
 Max sub-space:  2000 roots to seek:    24 dimension of matrix:        23104
 Iteration     1 Dimension    24 NMult     0 NNew     24
 CISAX will form    24 AO SS matrices at one time.
 NMat=    24 NSing=    24 JSym2X= 0.
 FoFJK:  IHMeth= 1 ICntrl=       0 DoSepK=T KAlg= 0 I1Cent=           0 FoldK=F
 IRaf=         1 NMat=      48 IRICut=       1 DoRegI=T DoRafI=F ISym2E= 0 IDoP0=3 IntGTp=3.
 FoFCou: FMM=F IPFlag=           0 FMFlag=      100000 FMFlg1=           0
         NFxFlg=           0 DoJE=F BraDBF=F KetDBF=F FulRan=T
         wScrn=  0.000000 ICntrl=       500 IOpCl=  0 I1Cent=           0 NGrid=           0
         NMat0=   24 NMatS0=     24 NMatT0=    0 NMatD0=   24 NMtDS0=    0 NMtDT0=    0
 Symmetry not used in FoFCou.
 New state      3 was old state      4
 New state      4 was old state      3
 Excitation Energies [eV] at current iteration:
 Root      1 :     3.729621520037186
 Root      2 :     4.017321407148312
 Root      3 :     4.514127649504741
 Root      4 :     5.460104438561698
 Root      5 :     6.154562602664617
 Root      6 :     6.329734514005795
 Root      7 :     6.741832399444289
 Root      8 :     6.784186728921458
 Root      9 :     6.896249313030852
 Root     10 :     7.174478899373308
 Root     11 :     7.206432272388895
 Root     12 :     7.427280841374438
 Root     13 :     7.543753400066255
 Root     14 :     7.651845091843192
 Root     15 :     7.757413493269651
 Root     16 :     7.797128402436942
 Root     17 :     8.004126073189507
 Root     18 :     8.216225551721514
 Root     19 :     8.299602021188052
 Root     20 :     8.383557073212847
 Root     21 :     8.507635230536795
 Root     22 :     8.778620180342488
 Root     23 :     8.820043283874217
 Root     24 :     9.225044963453929
 Iteration     2 Dimension    36 NMult    24 NNew     12
 CISAX will form    12 AO SS matrices at one time.
 NMat=    12 NSing=    12 JSym2X= 0.
 Root      1 not converged, maximum delta is    0.074911065507816
 Root      2 not converged, maximum delta is    0.069113778849409
 Root      3 not converged, maximum delta is    0.093980999247017
 Root      4 not converged, maximum delta is    0.407948399767086
 Root      5 not converged, maximum delta is    0.376559019968649
 Root      6 not converged, maximum delta is    0.192486646645968
 Excitation Energies [eV] at current iteration:
 Root      1 :     3.314243527666415   Change is   -0.415377992370770
 Root      2 :     3.789337112927484   Change is   -0.227984294220828
 Root      3 :     4.260531430370487   Change is   -0.253596219134253
 Root      4 :     5.013178970059824   Change is   -0.446925468501874
 Root      5 :     5.483480550828096   Change is   -0.671082051836521
 Root      6 :     6.130727781975931   Change is   -0.199006732029864
 Iteration     3 Dimension    48 NMult    36 NNew     12
 CISAX will form    12 AO SS matrices at one time.
 NMat=    12 NSing=    12 JSym2X= 0.
 Root      1 not converged, maximum delta is    0.007558623046631
 Root      2 not converged, maximum delta is    0.010546533699459
 Root      3 not converged, maximum delta is    0.016018602669914
 Root      4 not converged, maximum delta is    0.012624016512193
 Root      5 not converged, maximum delta is    0.012512899094155
 Root      6 not converged, maximum delta is    0.017950006435600
 Excitation Energies [eV] at current iteration:
 Root      1 :     3.299904562131992   Change is   -0.014338965534423
 Root      2 :     3.778392295384281   Change is   -0.010944817543203
 Root      3 :     4.247525213319765   Change is   -0.013006217050722
 Root      4 :     4.991460152429905   Change is   -0.021718817629920
 Root      5 :     5.469216734313748   Change is   -0.014263816514348
 Root      6 :     6.118351930422621   Change is   -0.012375851553309
 Iteration     4 Dimension    60 NMult    48 NNew     12
 CISAX will form    12 AO SS matrices at one time.
 NMat=    12 NSing=    12 JSym2X= 0.
 Root      1 not converged, maximum delta is    0.001643547895496
 Root      2 not converged, maximum delta is    0.001720645893288
 Root      3 not converged, maximum delta is    0.002219017551675
 Root      4 not converged, maximum delta is    0.003085939941460
 Root      5 not converged, maximum delta is    0.002874235946083
 Root      6 not converged, maximum delta is    0.003701191544780
 Excitation Energies [eV] at current iteration:
 Root      1 :     3.298784011020691   Change is   -0.001120551111301
 Root      2 :     3.777592893457759   Change is   -0.000799401926522
 Root      3 :     4.246877761124299   Change is   -0.000647452195466
 Root      4 :     4.989004399302662   Change is   -0.002455753127242
 Root      5 :     5.467471620372214   Change is   -0.001745113941534
 Root      6 :     6.117470246605384   Change is   -0.000881683817237
 Iteration     5 Dimension    72 NMult    60 NNew     12
 CISAX will form    12 AO SS matrices at one time.
 NMat=    12 NSing=    12 JSym2X= 0.
 Root      1 has converged.
 Root      2 has converged.
 Root      3 has converged.
 Root      4 has converged.
 Root      5 has converged.
 Root      6 has converged.
 Excitation Energies [eV] at current iteration:
 Root      1 :     3.298730979740151   Change is   -0.000053031280540
 Root      2 :     3.777561218314543   Change is   -0.000031675143216
 Root      3 :     4.246845157586367   Change is   -0.000032603537931
 Root      4 :     4.988851543980810   Change is   -0.000152855321853
 Root      5 :     5.467340858023070   Change is   -0.000130762349144
 Root      6 :     6.117413019220488   Change is   -0.000057227384896
 Convergence achieved on expansion vectors.
 ***********************************************************************
 Excited states from <AA,BB:AA,BB> singles matrix:
 ***********************************************************************
 
 1PDM for each excited state written to RWF  633
 Ground to excited state transition densities written to RWF  633
 Ground to excited state transition electric dipole moments (Au):
       state          X           Y           Z        Dip. S.      Osc.
         1        -1.7513     -0.1356     -0.0532      3.0881      0.2496
         2         0.2433      0.0448      0.0530      0.0640      0.0059
         3         0.0146     -0.1392      0.0435      0.0215      0.0022
         4         0.0919     -2.0125      0.1123      4.0711      0.4976
         5        -0.2458      1.3526     -0.0108      1.8902      0.2532
         6        -0.0407      0.1952      0.0366      0.0411      0.0062
 Ground to excited state transition velocity dipole moments (Au):
       state          X           Y           Z        Dip. S.      Osc.
         1         0.2050      0.0141      0.0066      0.0423      0.2325
         2        -0.0335     -0.0054     -0.0055      0.0012      0.0057
         3        -0.0023      0.0207     -0.0031      0.0004      0.0019
         4        -0.0200      0.3517     -0.0166      0.1244      0.4523
         5         0.0474     -0.2686      0.0030      0.0744      0.2468
         6         0.0103     -0.0401     -0.0280      0.0025      0.0074
 Ground to excited state transition magnetic dipole moments (Au):
       state          X           Y           Z
         1         0.0925      0.0150     -1.4170
         2         0.7659      0.2640      0.3950
         3        -0.0201     -0.9581     -0.0886
         4         0.0757      0.1002     -0.3253
         5        -0.1983     -0.1036      0.2046
         6         0.0476      0.0162     -0.0228
 Ground to excited state transition velocity quadrupole moments (Au):
       state          XX          YY          ZZ          XY          XZ          YZ
         1         0.3196     -0.1423     -0.0050     -0.5335      0.0536     -0.0093
         2        -0.0465     -0.0074      0.0023      0.0967     -0.0418      0.0621
         3        -0.0262      0.0113     -0.0202     -0.0354      0.0741      0.0046
         4        -1.4725      0.3370      0.0207     -0.2343     -0.0822     -0.0299
         5         0.5366     -0.3549     -0.0391      0.0220      0.0595     -0.0680
         6        -0.2787     -0.1921      0.1531     -0.0209     -0.0308      0.1068
 <0|del|b> * <b|rxdel|0> + <0|del|b> * <b|delr+rdel|0>
 Rotatory Strengths (R) in cgs (10**-40 erg-esu-cm/Gauss)
       state          XX          YY          ZZ    R(velocity)    E-M Angle
         1       -39.2223     32.6541     63.6923     19.0414       88.08
         2       -11.0779    -74.8795    -63.1476    -49.7017      160.76
         3       -47.5042      0.4488    -41.2945    -29.4500      164.45
         4       141.6478      1.1370      8.1190     50.3013       71.45
         5        78.2756    -21.2319      9.9985     22.3474       76.68
         6        -1.0380      2.5908     -0.0347      0.5060       79.94
 1/2[<0|r|b>*<b|rxdel|0> + (<0|rxdel|b>*<b|r|0>)*]
 Rotatory Strengths (R) in cgs (10**-40 erg-esu-cm/Gauss)
       state          XX          YY          ZZ     R(length)
         1       114.4964      1.4394    -53.3009     20.8783
         2      -131.7771     -8.3721    -14.8130    -51.6541
         3         0.2078    -94.2850      2.7217    -30.4518
         4        -4.9196    142.6127     25.8345     54.5092
         5       -34.4768     99.1152      1.5633     22.0672
         6         1.3699     -2.2312      0.5907     -0.0902
  1/2[<0|del|b>*<b|r|0> + (<0|r|b>*<b|del|0>)*] (Au)
       state          X           Y           Z        Dip. S.   Osc.(frdel)
         1        -0.3591     -0.0019     -0.0004      0.3613      0.2409
         2        -0.0082     -0.0002     -0.0003      0.0087      0.0058
         3        -0.0000     -0.0029     -0.0001      0.0030      0.0020
         4        -0.0018     -0.7078     -0.0019      0.7115      0.4744
         5        -0.0116     -0.3633     -0.0000      0.3749      0.2500
         6        -0.0004     -0.0078     -0.0010      0.0093      0.0062

 Excitation energies and oscillator strengths:
 
 Excited State   1:      Singlet-A      3.2987 eV  375.85 nm  f=0.2496  <S**2>=0.000
      52 -> 53         0.69712
 This state for optimization and/or second-order correction.
 Total Energy, E(TD-HF/TD-DFT) =  -633.205306489    
 Copying the excited state density for this state as the 1-particle RhoCI density.
 
 Excited State   2:      Singlet-A      3.7776 eV  328.21 nm  f=0.0059  <S**2>=0.000
      50 -> 53        -0.10073
      51 -> 53         0.59864
      51 -> 54        -0.31285
 
 Excited State   3:      Singlet-A      4.2468 eV  291.94 nm  f=0.0022  <S**2>=0.000
      49 -> 53         0.13161
      49 -> 54         0.11035
      50 -> 53         0.52412
      50 -> 54         0.37579
      50 -> 58         0.11750
      51 -> 53         0.10245
      51 -> 54         0.13164
 
 Excited State   4:      Singlet-A      4.9889 eV  248.52 nm  f=0.4976  <S**2>=0.000
      49 -> 53        -0.15139
      52 -> 54         0.68268
 
 Excited State   5:      Singlet-A      5.4673 eV  226.77 nm  f=0.2532  <S**2>=0.000
      49 -> 53         0.65139
      50 -> 53        -0.19327
      52 -> 54         0.15033
 
 Excited State   6:      Singlet-A      6.1174 eV  202.67 nm  f=0.0062  <S**2>=0.000
      52 -> 55         0.66396
      52 -> 56         0.12825
 SavETr:  write IOETrn=   770 NScale= 10 NData=  16 NLR=1 NState=    6 LETran=     118.
 Leave Link  914 at Sat Jan 24 16:18:48 2026, MaxMem=  2147483648 cpu:            1888.4 elap:             118.4
 (Enter /data/home/wyx/g16/l601.exe)
 Copying SCF densities to generalized density rwf, IOpCl= 0 IROHF=0.

 **********************************************************************

            Population analysis using the SCF density.

 **********************************************************************

 Orbital symmetries:
       Occupied  (A) (A) (A) (A) (A) (A) (A) (A) (A) (A) (A) (A)
                 (A) (A) (A) (A) (A) (A) (A) (A) (A) (A) (A) (A)
                 (A) (A) (A) (A) (A) (A) (A) (A) (A) (A) (A) (A)
                 (A) (A) (A) (A) (A) (A) (A) (A) (A) (A) (A) (A)
                 (A) (A) (A) (A)
       Virtual   (A) (A) (A) (A) (A) (A) (A) (A) (A) (A) (A) (A)
                 (A) (A) (A) (A) (A) (A) (A) (A) (A) (A) (A) (A)
                 (A) (A) (A) (A) (A) (A) (A) (A) (A) (A) (A) (A)
                 (A) (A) (A) (A) (A) (A) (A) (A) (A) (A) (A) (A)
                 (A) (A) (A) (A) (A) (A) (A) (A) (A) (A) (A) (A)
                 (A) (A) (A) (A) (A) (A) (A) (A) (A) (A) (A) (A)
                 (A) (A) (A) (A) (A) (A) (A) (A) (A) (A) (A) (A)
                 (A) (A) (A) (A) (A) (A) (A) (A) (A) (A) (A) (A)
                 (A) (A) (A) (A) (A) (A) (A) (A) (A) (A) (A) (A)
                 (A) (A) (A) (A) (A) (A) (A) (A) (A) (A) (A) (A)
                 (A) (A) (A) (A) (A) (A) (A) (A) (A) (A) (A) (A)
                 (A) (A) (A) (A) (A) (A) (A) (A) (A) (A) (A) (A)
                 (A) (A) (A) (A) (A) (A) (A) (A) (A) (A) (A) (A)
                 (A) (A) (A) (A) (A) (A) (A) (A) (A) (A) (A) (A)
                 (A) (A) (A) (A) (A) (A) (A) (A) (A) (A) (A) (A)
                 (A) (A) (A) (A) (A) (A) (A) (A) (A) (A) (A) (A)
                 (A) (A) (A) (A) (A) (A) (A) (A) (A) (A) (A) (A)
                 (A) (A) (A) (A) (A) (A) (A) (A) (A) (A) (A) (A)
                 (A) (A) (A) (A) (A) (A) (A) (A) (A) (A) (A) (A)
                 (A) (A) (A) (A) (A) (A) (A) (A) (A) (A) (A) (A)
                 (A) (A) (A) (A) (A) (A) (A) (A) (A) (A) (A) (A)
                 (A) (A) (A) (A) (A) (A) (A) (A) (A) (A) (A) (A)
                 (A) (A) (A) (A) (A) (A) (A) (A) (A) (A) (A) (A)
                 (A) (A) (A) (A) (A) (A) (A) (A) (A) (A) (A) (A)
                 (A) (A) (A) (A) (A) (A) (A) (A) (A) (A) (A) (A)
                 (A) (A) (A) (A)
 The electronic state is 1-A.
 Alpha  occ. eigenvalues --  -19.17883 -19.17039 -14.44274 -10.33411 -10.33348
 Alpha  occ. eigenvalues --  -10.32211 -10.32111 -10.25658 -10.25074 -10.25053
 Alpha  occ. eigenvalues --  -10.25032 -10.24474 -10.24100 -10.23831  -1.11917
 Alpha  occ. eigenvalues --   -1.10059  -1.07699  -0.91445  -0.90551  -0.83908
 Alpha  occ. eigenvalues --   -0.82500  -0.81482  -0.78707  -0.74233  -0.71443
 Alpha  occ. eigenvalues --   -0.69041  -0.61992  -0.58447  -0.56921  -0.55148
 Alpha  occ. eigenvalues --   -0.54660  -0.54184  -0.52508  -0.51863  -0.50674
 Alpha  occ. eigenvalues --   -0.49810  -0.49393  -0.49074  -0.48382  -0.48276
 Alpha  occ. eigenvalues --   -0.46685  -0.45250  -0.44680  -0.43546  -0.42998
 Alpha  occ. eigenvalues --   -0.42433  -0.41926  -0.41255  -0.33003  -0.32310
 Alpha  occ. eigenvalues --   -0.31167  -0.26327
 Alpha virt. eigenvalues --   -0.02980   0.02023   0.06565   0.08309   0.08805
 Alpha virt. eigenvalues --    0.10199   0.10663   0.12008   0.12691   0.13757
 Alpha virt. eigenvalues --    0.14094   0.15514   0.15678   0.16570   0.16719
 Alpha virt. eigenvalues --    0.17470   0.17631   0.17881   0.18203   0.19106
 Alpha virt. eigenvalues --    0.19889   0.21063   0.22668   0.23316   0.23792
 Alpha virt. eigenvalues --    0.24431   0.24683   0.25467   0.25798   0.26416
 Alpha virt. eigenvalues --    0.27418   0.27729   0.28897   0.29748   0.29943
 Alpha virt. eigenvalues --    0.31443   0.32111   0.32503   0.33674   0.34677
 Alpha virt. eigenvalues --    0.35410   0.35752   0.36885   0.37817   0.38277
 Alpha virt. eigenvalues --    0.39498   0.41251   0.41833   0.42181   0.42945
 Alpha virt. eigenvalues --    0.44111   0.44641   0.45267   0.46223   0.46417
 Alpha virt. eigenvalues --    0.46813   0.48205   0.48265   0.48579   0.48934
 Alpha virt. eigenvalues --    0.49551   0.49790   0.50671   0.51444   0.51884
 Alpha virt. eigenvalues --    0.52132   0.52869   0.53590   0.53798   0.54475
 Alpha virt. eigenvalues --    0.54650   0.55615   0.55822   0.56776   0.58060
 Alpha virt. eigenvalues --    0.58723   0.59104   0.59788   0.61499   0.62189
 Alpha virt. eigenvalues --    0.63691   0.64784   0.66031   0.66918   0.67868
 Alpha virt. eigenvalues --    0.69796   0.70946   0.71259   0.71800   0.72585
 Alpha virt. eigenvalues --    0.73467   0.74711   0.75353   0.76735   0.78419
 Alpha virt. eigenvalues --    0.79294   0.80010   0.81401   0.84418   0.86258
 Alpha virt. eigenvalues --    0.87925   0.89690   0.95617   1.00711   1.24275
 Alpha virt. eigenvalues --    1.24771   1.27034   1.28308   1.29898   1.30868
 Alpha virt. eigenvalues --    1.32742   1.33004   1.34020   1.35765   1.35938
 Alpha virt. eigenvalues --    1.37292   1.37684   1.38427   1.39445   1.39578
 Alpha virt. eigenvalues --    1.40145   1.40948   1.41132   1.41826   1.42124
 Alpha virt. eigenvalues --    1.42889   1.43915   1.44330   1.45091   1.46927
 Alpha virt. eigenvalues --    1.47865   1.49429   1.49727   1.50809   1.51636
 Alpha virt. eigenvalues --    1.51895   1.52737   1.53345   1.55490   1.57264
 Alpha virt. eigenvalues --    1.58333   1.60254   1.60664   1.61562   1.61848
 Alpha virt. eigenvalues --    1.62922   1.63189   1.64479   1.65736   1.66010
 Alpha virt. eigenvalues --    1.66513   1.67281   1.67561   1.68640   1.69036
 Alpha virt. eigenvalues --    1.69353   1.70404   1.71238   1.72267   1.73374
 Alpha virt. eigenvalues --    1.73867   1.74454   1.75957   1.77017   1.79456
 Alpha virt. eigenvalues --    1.80643   1.83059   1.84598   1.85495   1.86266
 Alpha virt. eigenvalues --    1.86848   1.86961   1.87990   1.89702   1.90122
 Alpha virt. eigenvalues --    1.91536   1.93680   1.96310   1.98417   2.00668
 Alpha virt. eigenvalues --    2.01283   2.04178   2.05205   2.06874   2.09619
 Alpha virt. eigenvalues --    2.10974   2.13930   2.14276   2.18241   2.19915
 Alpha virt. eigenvalues --    2.21100   2.22344   2.22880   2.23917   2.25154
 Alpha virt. eigenvalues --    2.27349   2.28708   2.29740   2.31406   2.32295
 Alpha virt. eigenvalues --    2.34170   2.34467   2.36223   2.37510   2.39001
 Alpha virt. eigenvalues --    2.39912   2.40792   2.41232   2.44389   2.44837
 Alpha virt. eigenvalues --    2.45410   2.48039   2.48744   2.50210   2.51513
 Alpha virt. eigenvalues --    2.52816   2.53450   2.54188   2.56324   2.57996
 Alpha virt. eigenvalues --    2.58515   2.59980   2.60788   2.61719   2.63229
 Alpha virt. eigenvalues --    2.63873   2.66339   2.66605   2.67609   2.68638
 Alpha virt. eigenvalues --    2.70163   2.72071   2.72664   2.73606   2.75072
 Alpha virt. eigenvalues --    2.76268   2.77017   2.77627   2.78221   2.79198
 Alpha virt. eigenvalues --    2.79753   2.81256   2.83371   2.84540   2.84897
 Alpha virt. eigenvalues --    2.85846   2.86565   2.88100   2.89591   2.92750
 Alpha virt. eigenvalues --    2.97659   2.98717   2.99495   3.04639   3.09553
 Alpha virt. eigenvalues --    3.09953   3.11365   3.13544   3.18647   3.19599
 Alpha virt. eigenvalues --    3.21603   3.22774   3.23077   3.25065   3.26139
 Alpha virt. eigenvalues --    3.26810   3.29685   3.32050   3.35184   3.37275
 Alpha virt. eigenvalues --    3.38557   3.39463   3.39907   3.40987   3.41328
 Alpha virt. eigenvalues --    3.42149   3.44422   3.45394   3.46743   3.49636
 Alpha virt. eigenvalues --    3.49914   3.51266   3.54233   3.57353   3.59111
 Alpha virt. eigenvalues --    3.60784   3.90735   3.99598   4.31957   4.34900
 Alpha virt. eigenvalues --   21.63562  21.77162  22.06200  22.10263  22.11389
 Alpha virt. eigenvalues --   22.12873  22.15716  22.18155  22.21036  22.26029
 Alpha virt. eigenvalues --   22.30883  31.93226  43.63076  43.65336
          Condensed to atoms (all electrons):
               1          2          3          4          5          6
     1  O    7.952967   0.000000  -0.000230   0.000017   0.016919   0.016444
     2  O    0.000000   8.059152   0.000491   0.000035  -0.189579   0.001376
     3  N   -0.000230   0.000491   6.369563   0.373886  -0.104494   0.357797
     4  H    0.000017   0.000035   0.373886   0.396131   0.013223  -0.042587
     5  C    0.016919  -0.189579  -0.104494   0.013223   7.087548  -0.047486
     6  C    0.016444   0.001376   0.357797  -0.042587  -0.047486   5.592181
     7  C   -0.000254  -0.017212   0.367228  -0.043477   0.376764  -0.126471
     8  C   -0.000276   0.659974   0.004292  -0.000867  -0.415609   0.041738
     9  C   -0.019159   0.019723   0.017739   0.000150  -0.582848  -0.102782
    10  H    0.004173   0.000050   0.003118   0.000028  -0.029050  -0.009427
    11  H    0.014223  -0.000189  -0.001410   0.000004  -0.116869   0.023035
    12  C   -0.232552  -0.002817  -0.097579   0.016396   0.170212  -0.162787
    13  C    0.723675  -0.000016   0.000312   0.000437   0.069102   0.148210
    14  C   -0.000010  -0.050041  -0.045493  -0.001379  -0.029013  -0.003655
    15  H    0.000000   0.004797   0.004315   0.000030   0.008583   0.005099
    16  H   -0.000000   0.000801  -0.003762   0.000609  -0.012299  -0.000523
    17  H    0.000000   0.016823   0.003621   0.000717   0.002647  -0.000474
    18  C   -0.000233  -0.101420  -0.000348   0.000018  -0.187166  -0.001370
    19  H   -0.000003   0.005194   0.000006  -0.000001   0.015990   0.000032
    20  H    0.000017  -0.000525   0.000014  -0.000001  -0.011291   0.000184
    21  H    0.000342   0.006159   0.000110   0.000000   0.068721  -0.001482
    22  C   -0.113815   0.000000   0.000146   0.000107   0.002478  -0.010629
    23  H    0.004382  -0.000000  -0.000010  -0.000050  -0.000453  -0.031010
    24  H    0.001722   0.000000   0.000022  -0.000017  -0.000082   0.011014
    25  H    0.009080   0.000000   0.000026  -0.000002  -0.000120  -0.001270
    26  C    0.000913   0.000005  -0.029247  -0.008170   0.000530   0.188369
    27  H   -0.000164  -0.000000   0.001866   0.000879   0.000097  -0.041096
    28  H   -0.000037  -0.000000  -0.002711   0.000500   0.000388  -0.036207
    29  H    0.000022  -0.000000   0.002137   0.001421  -0.000451  -0.051154
               7          8          9         10         11         12
     1  O   -0.000254  -0.000276  -0.019159   0.004173   0.014223  -0.232552
     2  O   -0.017212   0.659974   0.019723   0.000050  -0.000189  -0.002817
     3  N    0.367228   0.004292   0.017739   0.003118  -0.001410  -0.097579
     4  H   -0.043477  -0.000867   0.000150   0.000028   0.000004   0.016396
     5  C    0.376764  -0.415609  -0.582848  -0.029050  -0.116869   0.170212
     6  C   -0.126471   0.041738  -0.102782  -0.009427   0.023035  -0.162787
     7  C    5.447805  -0.238453  -0.197839  -0.006069   0.016701   0.029477
     8  C   -0.238453   5.619438   0.148236  -0.000988  -0.005712  -0.062428
     9  C   -0.197839   0.148236   6.383328   0.395085   0.541592  -0.076263
    10  H   -0.006069  -0.000988   0.395085   0.549429  -0.036419  -0.018988
    11  H    0.016701  -0.005712   0.541592  -0.036419   0.502154  -0.104167
    12  C    0.029477  -0.062428  -0.076263  -0.018988  -0.104167   7.389905
    13  C    0.019576  -0.009009  -0.250479  -0.003853   0.000152  -0.437615
    14  C    0.224754  -0.072883   0.016406  -0.001366   0.000409   0.001349
    15  H   -0.063239   0.006296  -0.000948   0.000129  -0.000006  -0.000787
    16  H   -0.016480   0.004775  -0.000285  -0.000043   0.000051   0.000000
    17  H   -0.043251  -0.018672   0.001187   0.000109  -0.000063  -0.000255
    18  C    0.013112   0.319077  -0.003477  -0.010084  -0.000248   0.006490
    19  H    0.000286  -0.044389  -0.001667   0.000258   0.000526  -0.000228
    20  H   -0.000830  -0.008609  -0.002715   0.000480  -0.000663  -0.001991
    21  H    0.003869  -0.110289  -0.014908   0.000627  -0.006625   0.006285
    22  C    0.000458  -0.000033   0.008103   0.001519   0.000649  -0.272761
    23  H    0.000003  -0.000004   0.002885  -0.000139  -0.000036   0.058699
    24  H   -0.000015   0.000003  -0.002155   0.000159  -0.000114  -0.006685
    25  H    0.000013   0.000002  -0.000026  -0.000048  -0.000105   0.026386
    26  C    0.003161   0.000670   0.020518  -0.000519   0.000036  -0.079671
    27  H   -0.000700  -0.000003  -0.000940  -0.000053   0.000005  -0.004698
    28  H   -0.001089  -0.000014  -0.000176  -0.000021   0.000052  -0.019418
    29  H    0.003487   0.000005  -0.000579   0.000066  -0.000007   0.023535
              13         14         15         16         17         18
     1  O    0.723675  -0.000010   0.000000  -0.000000   0.000000  -0.000233
     2  O   -0.000016  -0.050041   0.004797   0.000801   0.016823  -0.101420
     3  N    0.000312  -0.045493   0.004315  -0.003762   0.003621  -0.000348
     4  H    0.000437  -0.001379   0.000030   0.000609   0.000717   0.000018
     5  C    0.069102  -0.029013   0.008583  -0.012299   0.002647  -0.187166
     6  C    0.148210  -0.003655   0.005099  -0.000523  -0.000474  -0.001370
     7  C    0.019576   0.224754  -0.063239  -0.016480  -0.043251   0.013112
     8  C   -0.009009  -0.072883   0.006296   0.004775  -0.018672   0.319077
     9  C   -0.250479   0.016406  -0.000948  -0.000285   0.001187  -0.003477
    10  H   -0.003853  -0.001366   0.000129  -0.000043   0.000109  -0.010084
    11  H    0.000152   0.000409  -0.000006   0.000051  -0.000063  -0.000248
    12  C   -0.437615   0.001349  -0.000787   0.000000  -0.000255   0.006490
    13  C    5.487985  -0.000033  -0.000017  -0.000026   0.000002   0.000858
    14  C   -0.000033   5.226602   0.383803   0.398544   0.421874  -0.000045
    15  H   -0.000017   0.383803   0.567338  -0.028002  -0.026467   0.000180
    16  H   -0.000026   0.398544  -0.028002   0.503732  -0.020633   0.000011
    17  H    0.000002   0.421874  -0.026467  -0.020633   0.482112   0.000537
    18  C    0.000858  -0.000045   0.000180   0.000011   0.000537   5.239271
    19  H   -0.000014   0.000006  -0.000002  -0.000013   0.000091   0.402996
    20  H   -0.000084  -0.000296  -0.000005   0.000014   0.000023   0.391858
    21  H    0.001283   0.000327  -0.000021  -0.000002  -0.000109   0.398678
    22  C    0.305431  -0.000001   0.000002  -0.000001   0.000000   0.000020
    23  H   -0.082836   0.000001  -0.000000   0.000000   0.000000   0.000002
    24  H   -0.029122  -0.000001   0.000000   0.000000  -0.000000  -0.000001
    25  H   -0.045735   0.000001   0.000000  -0.000000  -0.000000  -0.000000
    26  C   -0.055629   0.000862  -0.000245  -0.000072   0.000027  -0.000006
    27  H   -0.006736   0.000080  -0.000013   0.000004  -0.000002   0.000000
    28  H    0.006502  -0.000063   0.000013  -0.000017   0.000002  -0.000001
    29  H   -0.000269  -0.000088   0.000083   0.000003   0.000001   0.000000
              19         20         21         22         23         24
     1  O   -0.000003   0.000017   0.000342  -0.113815   0.004382   0.001722
     2  O    0.005194  -0.000525   0.006159   0.000000  -0.000000   0.000000
     3  N    0.000006   0.000014   0.000110   0.000146  -0.000010   0.000022
     4  H   -0.000001  -0.000001   0.000000   0.000107  -0.000050  -0.000017
     5  C    0.015990  -0.011291   0.068721   0.002478  -0.000453  -0.000082
     6  C    0.000032   0.000184  -0.001482  -0.010629  -0.031010   0.011014
     7  C    0.000286  -0.000830   0.003869   0.000458   0.000003  -0.000015
     8  C   -0.044389  -0.008609  -0.110289  -0.000033  -0.000004   0.000003
     9  C   -0.001667  -0.002715  -0.014908   0.008103   0.002885  -0.002155
    10  H    0.000258   0.000480   0.000627   0.001519  -0.000139   0.000159
    11  H    0.000526  -0.000663  -0.006625   0.000649  -0.000036  -0.000114
    12  C   -0.000228  -0.001991   0.006285  -0.272761   0.058699  -0.006685
    13  C   -0.000014  -0.000084   0.001283   0.305431  -0.082836  -0.029122
    14  C    0.000006  -0.000296   0.000327  -0.000001   0.000001  -0.000001
    15  H   -0.000002  -0.000005  -0.000021   0.000002  -0.000000   0.000000
    16  H   -0.000013   0.000014  -0.000002  -0.000001   0.000000   0.000000
    17  H    0.000091   0.000023  -0.000109   0.000000   0.000000  -0.000000
    18  C    0.402996   0.391858   0.398678   0.000020   0.000002  -0.000001
    19  H    0.506187  -0.012738  -0.028286  -0.000000   0.000000   0.000000
    20  H   -0.012738   0.491998  -0.020456  -0.000004  -0.000000   0.000000
    21  H   -0.028286  -0.020456   0.541203   0.000031  -0.000000  -0.000000
    22  C   -0.000000  -0.000004   0.000031   5.425282   0.393069   0.403340
    23  H    0.000000  -0.000000  -0.000000   0.393069   0.539738  -0.027714
    24  H    0.000000   0.000000  -0.000000   0.403340  -0.027714   0.493170
    25  H   -0.000000  -0.000000  -0.000000   0.382717  -0.021362  -0.008006
    26  C    0.000000   0.000002  -0.000014  -0.033379   0.018083  -0.015695
    27  H   -0.000000   0.000000  -0.000000   0.011025  -0.009626  -0.001165
    28  H    0.000000  -0.000000  -0.000000  -0.012387  -0.001720   0.001383
    29  H    0.000000  -0.000000   0.000000   0.001824   0.000731   0.000195
              25         26         27         28         29
     1  O    0.009080   0.000913  -0.000164  -0.000037   0.000022
     2  O    0.000000   0.000005  -0.000000  -0.000000  -0.000000
     3  N    0.000026  -0.029247   0.001866  -0.002711   0.002137
     4  H   -0.000002  -0.008170   0.000879   0.000500   0.001421
     5  C   -0.000120   0.000530   0.000097   0.000388  -0.000451
     6  C   -0.001270   0.188369  -0.041096  -0.036207  -0.051154
     7  C    0.000013   0.003161  -0.000700  -0.001089   0.003487
     8  C    0.000002   0.000670  -0.000003  -0.000014   0.000005
     9  C   -0.000026   0.020518  -0.000940  -0.000176  -0.000579
    10  H   -0.000048  -0.000519  -0.000053  -0.000021   0.000066
    11  H   -0.000105   0.000036   0.000005   0.000052  -0.000007
    12  C    0.026386  -0.079671  -0.004698  -0.019418   0.023535
    13  C   -0.045735  -0.055629  -0.006736   0.006502  -0.000269
    14  C    0.000001   0.000862   0.000080  -0.000063  -0.000088
    15  H    0.000000  -0.000245  -0.000013   0.000013   0.000083
    16  H   -0.000000  -0.000072   0.000004  -0.000017   0.000003
    17  H   -0.000000   0.000027  -0.000002   0.000002   0.000001
    18  C   -0.000000  -0.000006   0.000000  -0.000001   0.000000
    19  H   -0.000000   0.000000  -0.000000   0.000000   0.000000
    20  H   -0.000000   0.000002   0.000000  -0.000000  -0.000000
    21  H   -0.000000  -0.000014  -0.000000  -0.000000   0.000000
    22  C    0.382717  -0.033379   0.011025  -0.012387   0.001824
    23  H   -0.021362   0.018083  -0.009626  -0.001720   0.000731
    24  H   -0.008006  -0.015695  -0.001165   0.001383   0.000195
    25  H    0.498946   0.001886   0.000801   0.000108  -0.000047
    26  C    0.001886   5.250854   0.419617   0.433760   0.389365
    27  H    0.000801   0.419617   0.511147  -0.026570  -0.025606
    28  H    0.000108   0.433760  -0.026570   0.474318  -0.016486
    29  H   -0.000047   0.389365  -0.025606  -0.016486   0.516327
 Mulliken charges:
               1
     1  O   -0.378162
     2  O   -0.412781
     3  N   -0.221406
     4  H    0.291960
     5  C   -0.106390
     6  C    0.284932
     7  C    0.248684
     8  C    0.183733
     9  C   -0.297707
    10  H    0.161837
    11  H    0.173042
    12  C   -0.147045
    13  C    0.157949
    14  C   -0.470650
    15  H    0.139086
    16  H    0.173613
    17  H    0.180152
    18  C   -0.468710
    19  H    0.155769
    20  H    0.175619
    21  H    0.154560
    22  C   -0.493193
    23  H    0.157367
    24  H    0.179765
    25  H    0.156759
    26  C   -0.506011
    27  H    0.171850
    28  H    0.199892
    29  H    0.155486
 Sum of Mulliken charges =  -0.00000
 Mulliken charges with hydrogens summed into heavy atoms:
               1
     1  O   -0.378162
     2  O   -0.412781
     3  N    0.070554
     5  C   -0.106390
     6  C    0.284932
     7  C    0.248684
     8  C    0.183733
     9  C    0.037173
    12  C   -0.147045
    13  C    0.157949
    14  C    0.022201
    18  C    0.017238
    22  C    0.000698
    26  C    0.021218
 Electronic spatial extent (au):  <R**2>=           3208.9986
 Charge=              0.0000 electrons
 Dipole moment (field-independent basis, Debye):
    X=             -4.3889    Y=              7.6438    Z=             -0.3156  Tot=              8.8199
 Quadrupole moment (field-independent basis, Debye-Ang):
   XX=            -99.2776   YY=            -78.2870   ZZ=            -84.6337
   XY=            -13.3886   XZ=             -4.1771   YZ=             -1.1579
 Traceless Quadrupole moment (field-independent basis, Debye-Ang):
   XX=            -11.8782   YY=              9.1124   ZZ=              2.7657
   XY=            -13.3886   XZ=             -4.1771   YZ=             -1.1579
 Octapole moment (field-independent basis, Debye-Ang**2):
  XXX=           -117.9372  YYY=             65.6849  ZZZ=              2.1881  XYY=             37.3719
  XXY=             30.2406  XXZ=             -9.7530  XZZ=             -2.2493  YZZ=             -0.8291
  YYZ=              2.3035  XYZ=              3.3904
 Hexadecapole moment (field-independent basis, Debye-Ang**3):
 XXXX=          -3113.5087 YYYY=          -1271.2995 ZZZZ=           -141.2412 XXXY=            -44.5606
 XXXZ=            -55.4911 YYYX=            -94.7160 YYYZ=            -17.9849 ZZZX=              3.6869
 ZZZY=              3.7018 XXYY=           -688.9064 XXZZ=           -488.4199 YYZZ=           -236.6888
 XXYZ=             -2.4575 YYXZ=             -4.2456 ZZXY=             -0.7491
 N-N= 8.998541471682D+02 E-N=-3.275723807799D+03  KE= 6.306768846044D+02
 Leave Link  601 at Sat Jan 24 16:18:48 2026, MaxMem=  2147483648 cpu:               0.7 elap:               0.1
 (Enter /data/home/wyx/g16/l9999.exe)
 Electronic transition elements 
                 1             2             3             4             5 
      1  -0.633205D+03 -0.633188D+03 -0.633170D+03 -0.633143D+03 -0.633126D+03
      2   0.165013D+01 -0.229277D+00  0.416729D-01  0.614086D+00 -0.230630D+00
      3   0.479377D+00 -0.429485D-01 -0.136323D+00 -0.192161D+01  0.135417D+01
      4   0.367982D+00 -0.980383D-01 -0.338655D-01  0.375564D-01 -0.566876D-01
      5  -0.192511D+00  0.316731D-01 -0.545809D-02 -0.103070D+00  0.472965D-01
      6  -0.578141D-01  0.663228D-02  0.202366D-01  0.337174D+00 -0.268381D+00
      7  -0.433166D-01  0.116673D-01  0.171712D-02 -0.886060D-02  0.106860D-01
      8  -0.361515D+00 -0.719391D+00  0.324030D+00 -0.165797D+00  0.256870D+00
      9   0.544198D-02 -0.237426D-01 -0.890417D+00  0.731769D-01 -0.319893D-01
     10   0.137334D+01 -0.542357D+00  0.168384D+00  0.297868D+00 -0.157802D+00
     11  -0.933786D-01  0.264273D-01 -0.703818D-01 -0.132536D+01  0.415946D+00
     12   0.260114D+00 -0.772165D-01  0.304995D-01  0.272480D+00 -0.259709D+00
     13   0.562929D-02 -0.863736D-03  0.485327D-02 -0.618821D-01 -0.137050D-01
     14   0.541757D+00 -0.712398D-01  0.116843D-01 -0.401928D+00  0.251225D+00
     15   0.208693D-01 -0.120323D-01  0.612028D-01 -0.343285D+00  0.117112D+00
     16   0.129044D+00 -0.866327D-01  0.231385D-01 -0.830194D-01  0.138641D+00
                 6 
      1  -0.633102D+03
      2  -0.211860D-01
      3   0.196581D+00
      4  -0.447190D-01
      5  -0.137483D-02
      6  -0.407521D-01
      7   0.289736D-01
      8  -0.537212D-01
      9  -0.931842D-03
     10   0.127970D-01
     11  -0.268934D+00
     12  -0.192466D+00
     13   0.143653D+00
     14   0.829734D-02
     15  -0.747873D-01
     16  -0.105539D+00
 1\1\GINC-CN015\SP\RCAM-B3LYP TD-FC\TZVP\C11H15N1O2\WYX\24-Jan-2026\0\\
 #p CAM-B3LYP TZVP em=gd3bj td(Eqsolv,nstates=6,root=1) scrf=(Solvent=W
 ater) Geom=Check Guess=Read\\Title Card Required\\0,1\O,0,2.756746,-1.
 557378,0.701976\O,0,-3.30744,-1.656124,-0.946491\N,0,-0.682759,1.52133
 2,0.031125\H,0,-0.989931,2.47726,-0.042394\C,0,-1.241283,-0.763631,-0.
 162046\C,0,0.655073,1.307875,0.219942\C,0,-1.610605,0.539222,-0.256069
 \C,0,-2.153035,-1.824784,-0.473362\C,0,0.136705,-1.118768,0.341052\H,0
 ,0.077853,-1.514042,1.362311\H,0,0.555522,-1.926574,-0.257988\C,0,1.11
 2451,0.034591,0.31704\C,0,2.501375,-0.376564,0.467518\C,0,-2.941274,1.
 072502,-0.646417\H,0,-3.195221,1.971588,-0.079476\H,0,-2.973242,1.3337
 94,-1.706352\H,0,-3.756829,0.371028,-0.485348\C,0,-1.787081,-3.257683,
 -0.232463\H,0,-2.64252,-3.886944,0.015502\H,0,-1.328318,-3.695054,-1.1
 2443\H,0,-1.065946,-3.395071,0.572529\C,0,3.663169,0.573483,0.316305\H
 ,0,3.547442,1.261102,-0.517298\H,0,3.798262,1.16259,1.224472\H,0,4.556
 899,-0.027825,0.168583\C,0,1.433769,2.586103,0.28769\H,0,2.202954,2.56
 2417,1.050937\H,0,1.906876,2.808164,-0.669311\H,0,0.77039,3.417389,0.5
 22464\\Version=ES64L-G16RevA.03\State=1-A\HF=-633.3265326\RMSD=1.889e-
 09\PG=C01 [X(C11H15N1O2)]\\@


 SUCCESS-- IF YOU HAVE TRIED TO DO SOMETHING AND FAILED
           YOU ARE BETTER OFF THAN IF YOU HAD TRIED TO DO
           NOTHING AND SUCCEEDED.

                   -- FROM THE BACK OF A SUGAR PACKET
 Job cpu time:       0 days  0 hours 33 minutes  5.6 seconds.
 Elapsed time:       0 days  0 hours  2 minutes  5.0 seconds.
 File lengths (MBytes):  RWF=    734 Int=      0 D2E=      0 Chk=     67 Scr=      1
 Normal termination of Gaussian 16 at Sat Jan 24 16:18:50 2026.
