 Entering Gaussian System, Link 0=g16
 Input=DDL-S2-cLR-8.gjf
 Output=DDL-S2-cLR-8.log
 Initial command:
 /data/home/wyx/g16/l1.exe "/scr/tmp/wyx/13119/Gau-1520578.inp" -scrdir="/scr/tmp/wyx/13119/"
 Entering Link 1 = /data/home/wyx/g16/l1.exe PID=   1520579.
  
 Copyright (c) 1988,1990,1992,1993,1995,1998,2003,2009,2016,
            Gaussian, Inc.  All Rights Reserved.
  
 This is part of the Gaussian(R) 16 program.  It is based on
 the Gaussian(R) 09 system (copyright 2009, Gaussian, Inc.),
 the Gaussian(R) 03 system (copyright 2003, Gaussian, Inc.),
 the Gaussian(R) 98 system (copyright 1998, Gaussian, Inc.),
 the Gaussian(R) 94 system (copyright 1995, Gaussian, Inc.),
 the Gaussian 92(TM) system (copyright 1992, Gaussian, Inc.),
 the Gaussian 90(TM) system (copyright 1990, Gaussian, Inc.),
 the Gaussian 88(TM) system (copyright 1988, Gaussian, Inc.),
 the Gaussian 86(TM) system (copyright 1986, Carnegie Mellon
 University), and the Gaussian 82(TM) system (copyright 1983,
 Carnegie Mellon University). Gaussian is a federally registered
 trademark of Gaussian, Inc.
  
 This software contains proprietary and confidential information,
 including trade secrets, belonging to Gaussian, Inc.
  
 This software is provided under written license and may be
 used, copied, transmitted, or stored only in accord with that
 written license.
  
 The following legend is applicable only to US Government
 contracts under FAR:
  
                    RESTRICTED RIGHTS LEGEND
  
 Use, reproduction and disclosure by the US Government is
 subject to restrictions as set forth in subparagraphs (a)
 and (c) of the Commercial Computer Software - Restricted
 Rights clause in FAR 52.227-19.
  
 Gaussian, Inc.
 340 Quinnipiac St., Bldg. 40, Wallingford CT 06492
  
  
 ---------------------------------------------------------------
 Warning -- This program may not be used in any manner that
 competes with the business of Gaussian, Inc. or will provide
 assistance to any competitor of Gaussian, Inc.  The licensee
 of this program is prohibited from giving any competitor of
 Gaussian, Inc. access to this program.  By using this program,
 the user acknowledges that Gaussian, Inc. is engaged in the
 business of creating and licensing software in the field of
 computational chemistry and represents and warrants to the
 licensee that it is not a competitor of Gaussian, Inc. and that
 it will not use this program in any manner prohibited above.
 ---------------------------------------------------------------
  

 Cite this work as:
 Gaussian 16, Revision A.03,
 M. J. Frisch, G. W. Trucks, H. B. Schlegel, G. E. Scuseria, 
 M. A. Robb, J. R. Cheeseman, G. Scalmani, V. Barone, 
 G. A. Petersson, H. Nakatsuji, X. Li, M. Caricato, A. V. Marenich, 
 J. Bloino, B. G. Janesko, R. Gomperts, B. Mennucci, H. P. Hratchian, 
 J. V. Ortiz, A. F. Izmaylov, J. L. Sonnenberg, D. Williams-Young, 
 F. Ding, F. Lipparini, F. Egidi, J. Goings, B. Peng, A. Petrone, 
 T. Henderson, D. Ranasinghe, V. G. Zakrzewski, J. Gao, N. Rega, 
 G. Zheng, W. Liang, M. Hada, M. Ehara, K. Toyota, R. Fukuda, 
 J. Hasegawa, M. Ishida, T. Nakajima, Y. Honda, O. Kitao, H. Nakai, 
 T. Vreven, K. Throssell, J. A. Montgomery, Jr., J. E. Peralta, 
 F. Ogliaro, M. J. Bearpark, J. J. Heyd, E. N. Brothers, K. N. Kudin, 
 V. N. Staroverov, T. A. Keith, R. Kobayashi, J. Normand, 
 K. Raghavachari, A. P. Rendell, J. C. Burant, S. S. Iyengar, 
 J. Tomasi, M. Cossi, J. M. Millam, M. Klene, C. Adamo, R. Cammi, 
 J. W. Ochterski, R. L. Martin, K. Morokuma, O. Farkas, 
 J. B. Foresman, and D. J. Fox, Gaussian, Inc., Wallingford CT, 2016.
 
 ******************************************
 Gaussian 16:  ES64L-G16RevA.03 25-Dec-2016
                24-Jan-2026 
 ******************************************
 %nprocshared=16
 Will use up to   16 processors via shared memory.
 %mem=16GB
 %oldchk=DDL-LR-8.chk
 %chk=DDL-S2-cLR-8.chk
 Copying data from "DDL-LR-8.chk" to current chk file "DDL-S2-cLR-8.chk"
 IOpt=  2 FromEx=T IUOpen= 4 IOptOp= 5 NList=   0 IFRang= 0 IUIn= 4 IUOut= 2.
 ----------------------------------------------------------------------
 #p CAM-B3LYP TZVP em=gd3bj td(nstates=6,root=2) scrf=(Solvent=Water,Co
 rrectedLR,NonEquilibrium=Save) Geom=Check Guess=Read
 ----------------------------------------------------------------------
 1/29=2,30=1,38=1,172=1/1;
 2/12=2,40=1/2;
 3/5=19,7=101,11=9,14=-4,25=1,30=1,70=9002201,71=1,72=1,74=-40,116=-2,124=41/1,2,3,8;
 4/5=1/1;
 5/5=2,38=6,53=1/2;
 8/6=1,10=1,107=2,108=6/1;
 9/8=2,15=1,41=6,42=1,70=2,73=22/14;
 10/5=4,13=10,28=2,74=20/2;
 6/7=2,8=2,9=2,10=2,22=-1/1;
 99/5=1,9=1/99;
 Leave Link    1 at Sat Jan 24 19:59:11 2026, MaxMem=  2147483648 cpu:               0.8 elap:               0.1
 (Enter /data/home/wyx/g16/l101.exe)
 -------------------
 Title Card Required
 -------------------
 Structure from the checkpoint file:  "DDL-S2-cLR-8.chk"
 Charge =  0 Multiplicity = 1
 Z-Matrix found in chk file.
 O,0,2.757988,-1.556846,0.697942
 O,0,-3.318432,-1.658458,-0.919099
 N,0,-0.679008,1.522195,0.015791
 H,0,-0.986691,2.477782,-0.059774
 C,0,-1.240545,-0.764858,-0.163619
 C,0,0.656772,1.309271,0.210153
 C,0,-1.609855,0.53875,-0.261129
 C,0,-2.152406,-1.82488,-0.46128
 C,0,0.142357,-1.120184,0.325722
 H,0,0.091423,-1.527928,1.342268
 H,0,0.559703,-1.919262,-0.286436
 C,0,1.115198,0.035804,0.310449
 C,0,2.5026,-0.374418,0.469468
 C,0,-2.942056,1.071888,-0.644132
 H,0,-3.214333,1.94351,-0.043202
 H,0,-2.966862,1.376836,-1.692792
 H,0,-3.752151,0.356231,-0.520849
 C,0,-1.793861,-3.260932,-0.229849
 H,0,-2.638627,-3.875619,0.084155
 H,0,-1.403977,-3.715366,-1.145791
 H,0,-1.022193,-3.401523,0.52573
 C,0,3.66484,0.57792,0.336114
 H,0,3.560651,1.264677,-0.499761
 H,0,3.784878,1.168252,1.245542
 H,0,4.561771,-0.021814,0.202152
 C,0,1.435664,2.587414,0.279899
 H,0,2.192886,2.568609,1.055322
 H,0,1.924335,2.801646,-0.670939
 H,0,0.769929,3.421304,0.497944
 Recover connectivity data from disk.
 ITRead=  0  0  0  0  0  0  0  0  0  0  0  0  0  0  0  0  0  0  0  0
 ITRead=  0  0  0  0  0  0  0  0  0
 MicOpt= -1 -1 -1 -1 -1 -1 -1 -1 -1 -1 -1 -1 -1 -1 -1 -1 -1 -1 -1 -1
 MicOpt= -1 -1 -1 -1 -1 -1 -1 -1 -1
 NAtoms=     29 NQM=       29 NQMF=       0 NMMI=      0 NMMIF=      0
                NMic=       0 NMicF=      0.
                    Isotopes and Nuclear Properties:
 (Nuclear quadrupole moments (NQMom) in fm**2, nuclear magnetic moments (NMagM)
  in nuclear magnetons)

  Atom         1           2           3           4           5           6           7           8           9          10
 IAtWgt=          16          16          14           1          12          12          12          12          12           1
 AtmWgt=  15.9949146  15.9949146  14.0030740   1.0078250  12.0000000  12.0000000  12.0000000  12.0000000  12.0000000   1.0078250
 NucSpn=           0           0           2           1           0           0           0           0           0           1
 AtZEff=   5.6000000   5.6000000   4.5500000   1.0000000   3.6000000   3.6000000   3.6000000   3.6000000   3.6000000   1.0000000
 NQMom=    0.0000000   0.0000000   2.0440000   0.0000000   0.0000000   0.0000000   0.0000000   0.0000000   0.0000000   0.0000000
 NMagM=    0.0000000   0.0000000   0.4037610   2.7928460   0.0000000   0.0000000   0.0000000   0.0000000   0.0000000   2.7928460
 AtZNuc=   8.0000000   8.0000000   7.0000000   1.0000000   6.0000000   6.0000000   6.0000000   6.0000000   6.0000000   1.0000000

  Atom        11          12          13          14          15          16          17          18          19          20
 IAtWgt=           1          12          12          12           1           1           1          12           1           1
 AtmWgt=   1.0078250  12.0000000  12.0000000  12.0000000   1.0078250   1.0078250   1.0078250  12.0000000   1.0078250   1.0078250
 NucSpn=           1           0           0           0           1           1           1           0           1           1
 AtZEff=   1.0000000   3.6000000   3.6000000   3.6000000   1.0000000   1.0000000   1.0000000   3.6000000   1.0000000   1.0000000
 NQMom=    0.0000000   0.0000000   0.0000000   0.0000000   0.0000000   0.0000000   0.0000000   0.0000000   0.0000000   0.0000000
 NMagM=    2.7928460   0.0000000   0.0000000   0.0000000   2.7928460   2.7928460   2.7928460   0.0000000   2.7928460   2.7928460
 AtZNuc=   1.0000000   6.0000000   6.0000000   6.0000000   1.0000000   1.0000000   1.0000000   6.0000000   1.0000000   1.0000000

  Atom        21          22          23          24          25          26          27          28          29
 IAtWgt=           1          12           1           1           1          12           1           1           1
 AtmWgt=   1.0078250  12.0000000   1.0078250   1.0078250   1.0078250  12.0000000   1.0078250   1.0078250   1.0078250
 NucSpn=           1           0           1           1           1           0           1           1           1
 AtZEff=   1.0000000   3.6000000   1.0000000   1.0000000   1.0000000   3.6000000   1.0000000   1.0000000   1.0000000
 NQMom=    0.0000000   0.0000000   0.0000000   0.0000000   0.0000000   0.0000000   0.0000000   0.0000000   0.0000000
 NMagM=    2.7928460   0.0000000   2.7928460   2.7928460   2.7928460   0.0000000   2.7928460   2.7928460   2.7928460
 AtZNuc=   1.0000000   6.0000000   1.0000000   1.0000000   1.0000000   6.0000000   1.0000000   1.0000000   1.0000000
 Leave Link  101 at Sat Jan 24 19:59:14 2026, MaxMem=  2147483648 cpu:               0.9 elap:               0.1
 (Enter /data/home/wyx/g16/l202.exe)
                          Input orientation:                          
 ---------------------------------------------------------------------
 Center     Atomic      Atomic             Coordinates (Angstroms)
 Number     Number       Type             X           Y           Z
 ---------------------------------------------------------------------
      1          8           0        2.757988   -1.556846    0.697942
      2          8           0       -3.318432   -1.658458   -0.919099
      3          7           0       -0.679008    1.522195    0.015791
      4          1           0       -0.986691    2.477782   -0.059774
      5          6           0       -1.240545   -0.764858   -0.163619
      6          6           0        0.656772    1.309271    0.210153
      7          6           0       -1.609855    0.538750   -0.261129
      8          6           0       -2.152406   -1.824880   -0.461280
      9          6           0        0.142357   -1.120184    0.325722
     10          1           0        0.091423   -1.527928    1.342268
     11          1           0        0.559703   -1.919262   -0.286436
     12          6           0        1.115198    0.035804    0.310449
     13          6           0        2.502600   -0.374418    0.469468
     14          6           0       -2.942056    1.071888   -0.644132
     15          1           0       -3.214333    1.943510   -0.043202
     16          1           0       -2.966862    1.376836   -1.692792
     17          1           0       -3.752151    0.356231   -0.520849
     18          6           0       -1.793861   -3.260932   -0.229849
     19          1           0       -2.638627   -3.875619    0.084155
     20          1           0       -1.403977   -3.715366   -1.145791
     21          1           0       -1.022193   -3.401523    0.525730
     22          6           0        3.664840    0.577920    0.336114
     23          1           0        3.560651    1.264677   -0.499761
     24          1           0        3.784878    1.168252    1.245542
     25          1           0        4.561771   -0.021814    0.202152
     26          6           0        1.435664    2.587414    0.279899
     27          1           0        2.192886    2.568609    1.055322
     28          1           0        1.924335    2.801646   -0.670939
     29          1           0        0.769929    3.421304    0.497944
 ---------------------------------------------------------------------
                    Distance matrix (angstroms):
                    1          2          3          4          5
     1  O    0.000000
     2  O    6.288722   0.000000
     3  N    4.664629   4.237586   0.000000
     4  H    5.556526   4.825343   1.006740   0.000000
     5  C    4.166269   2.384719   2.361805   3.254219   0.000000
     6  C    3.587154   5.087718   1.366536   2.034514   2.835759
     7  C    4.938562   2.860049   1.382145   2.046637   1.358415
     8  C    5.052485   1.263689   3.688009   4.475824   1.429594
     9  C    2.677825   3.717039   2.784397   3.790609   1.509347
    10  H    2.743458   4.093645   3.414141   4.378786   2.150374
    11  H    2.435734   3.938047   3.670064   4.666552   2.142108
    12  C    2.320656   4.902998   2.348480   3.243187   2.532849
    13  C    1.231081   6.120563   3.731701   4.537653   3.816330
    14  C    6.418871   2.769847   2.399929   2.478198   2.549445
    15  H    6.962069   3.708397   2.570770   2.290875   3.353445
    16  H    6.862653   3.152017   2.859136   2.792831   3.147284
    17  H    6.893999   2.098973   3.330415   3.515869   2.773557
    18  C    4.948134   2.316745   4.917473   5.797697   2.557524
    19  H    5.905666   2.526748   5.742924   6.566225   3.419482
    20  H    5.037908   2.819113   5.413585   6.301479   3.113980
    21  H    4.209781   3.224674   4.961936   5.908494   2.734023
    22  C    2.347451   7.439290   4.456824   5.040133   5.110341
    23  H    3.168557   7.486144   4.278647   4.726894   5.223360
    24  H    2.963196   7.945626   4.643688   5.117283   5.565746
    25  H    2.419869   8.126094   5.466668   6.091142   5.861124
    26  C    4.370148   6.485866   2.382495   2.448510   4.312369
    27  H    4.179287   7.220877   3.228526   3.370667   4.938245
    28  H    4.643842   6.887722   2.980937   2.992070   4.795184
    29  H    5.364173   6.672832   2.436905   2.070506   4.690802
                    6          7          8          9         10
     6  C    0.000000
     7  C    2.439961   0.000000
     8  C    4.262066   2.433345   0.000000
     9  C    2.486007   2.483285   2.526243   0.000000
    10  H    3.106606   3.120318   2.894086   1.096456   0.000000
    11  H    3.267943   3.278635   2.719377   1.089698   1.739283
    12  C    1.357178   2.829412   3.838613   1.510947   2.134953
    13  C    2.511799   4.275504   4.963790   2.479431   2.811786
    14  C    3.706443   1.485156   3.008030   3.906328   4.461706
    15  H    3.930891   2.143640   3.937416   4.559572   4.989833
    16  H    4.093469   2.143249   3.525755   4.469536   5.196379
    17  H    4.569601   2.165687   2.705546   4.250138   4.668439
    18  C    5.204417   3.804263   1.498119   2.939456   3.004854
    19  H    6.144804   4.545794   2.177026   3.922327   3.814141
    20  H    5.597522   4.350002   2.145376   3.360278   3.634769
    21  H    5.010997   4.060818   2.176551   2.569180   2.327495
    22  C    3.098260   5.308544   6.344260   3.910441   4.268050
    23  H    2.989729   5.226667   6.495065   4.248967   4.819466
    24  H    3.298024   5.636442   6.864650   4.398973   4.573877
    25  H    4.125636   6.214324   6.983650   4.555536   4.853067
    26  C    1.498395   3.710111   5.735149   3.926961   4.457763
    27  H    2.158678   4.507129   6.362734   4.283011   4.613036
    28  H    2.147143   4.216532   6.169969   4.421485   5.114468
    29  H    2.134552   3.814273   6.081332   4.587878   5.066375
                   11         12         13         14         15
    11  H    0.000000
    12  C    2.118285   0.000000
    13  C    2.594761   1.455491   0.000000
    14  C    4.619225   4.294881   5.742489   0.000000
    15  H    5.405878   4.744391   6.190230   1.093150   0.000000
    16  H    5.027799   4.740734   6.136552   1.092381   1.761678
    17  H    4.881076   4.948213   6.374675   1.087942   1.742656
    18  C    2.709713   4.429787   5.223082   4.501479   5.398036
    19  H    3.767491   5.426015   6.232102   5.010020   5.848925
    20  H    2.796519   4.747437   5.388167   5.053232   6.042844
    21  H    2.314974   4.053394   4.646579   5.006581   5.805044
    22  C    4.033034   2.606765   1.508487   6.697459   7.023656
    23  H    4.380487   2.854262   2.178419   6.507166   6.824197
    24  H    4.720323   3.046970   2.150897   6.987975   7.158969
    25  H    4.455960   3.448755   2.106175   7.630190   8.024369
    26  C    4.625816   2.571837   3.153845   4.723884   4.705473
    27  H    4.960704   2.851552   3.016713   5.612125   5.552974
    28  H    4.929202   3.044291   3.423785   5.164740   5.247510
    29  H    5.401953   3.408222   4.172585   4.539045   4.283813
                   16         17         18         19         20
    16  H    0.000000
    17  H    1.741196   0.000000
    18  C    5.002502   4.123524   0.000000
    19  H    5.554598   4.417524   1.090902   0.000000
    20  H    5.354656   4.741558   1.094290   1.750088   0.000000
    21  H    5.615718   4.761167   1.089099   1.741440   1.743054
    22  C    6.980988   7.469624   6.697351   7.722123   6.805972
    23  H    6.636590   7.369043   7.016038   8.074320   7.061566
    24  H    7.366363   7.783722   7.274392   8.249295   7.516144
    25  H    7.888431   8.353858   7.146507   8.167709   7.144888
    26  C    4.973856   5.703753   6.700211   7.642575   7.058413
    27  H    5.966192   6.536237   7.178396   8.112630   7.567738
    28  H    5.195967   6.182643   7.125615   8.122602   7.333116
    29  H    4.789862   5.557141   7.194093   8.064401   7.639358
                   21         22         23         24         25
    21  H    0.000000
    22  C    6.151439   0.000000
    23  H    6.620235   1.086820   0.000000
    24  H    6.671499   1.090853   1.762288   0.000000
    25  H    6.535120   1.087250   1.774819   1.763089   0.000000
    26  C    6.478338   3.001741   2.621655   2.909518   4.072672
    27  H    6.801447   2.578129   2.447305   2.128761   3.612452
    28  H    6.970893   2.998078   2.251467   3.130894   3.961096
    29  H    7.054321   4.060977   3.665322   3.837325   5.130363
                   26         27         28         29
    26  C    0.000000
    27  H    1.083983   0.000000
    28  H    1.090315   1.762499   0.000000
    29  H    1.089091   1.750019   1.755824   0.000000
 Stoichiometry    C11H15NO2
 Framework group  C1[X(C11H15NO2)]
 Deg. of freedom    81
 Full point group                 C1      NOp   1
 RotChk:  IX=0 Diff= 8.70D-16
 Largest Abelian subgroup         C1      NOp   1
 Largest concise Abelian subgroup C1      NOp   1
                         Standard orientation:                         
 ---------------------------------------------------------------------
 Center     Atomic      Atomic             Coordinates (Angstroms)
 Number     Number       Type             X           Y           Z
 ---------------------------------------------------------------------
      1          8           0       -2.269844   -2.302246   -0.121830
      2          8           0        3.646431   -0.213873    0.307610
      3          7           0       -0.051364    1.800819   -0.166164
      4          1           0       -0.086081    2.806957   -0.168706
      5          6           0        1.290486   -0.139547   -0.054173
      6          6           0       -1.242539    1.134577   -0.098015
      7          6           0        1.195671    1.215555   -0.053490
      8          6           0        2.550156   -0.801288    0.083922
      9          6           0        0.054345   -0.979854   -0.263856
     10          1           0        0.067267   -1.429963   -1.263582
     11          1           0        0.052378   -1.818747    0.431627
     12          6           0       -1.240815   -0.222538   -0.084994
     13          6           0       -2.405054   -1.088246    0.031407
     14          6           0        2.305048    2.196629    0.058156
     15          1           0        2.150052    3.055579   -0.599992
     16          1           0        2.403147    2.578559    1.076882
     17          1           0        3.278813    1.788339   -0.203948
     18          6           0        2.677716   -2.288147   -0.047758
     19          1           0        3.615509   -2.605997   -0.505560
     20          1           0        2.633968   -2.769215    0.934143
     21          1           0        1.884656   -2.743262   -0.639418
     22          6           0       -3.783815   -0.575889    0.366135
     23          1           0       -3.781676    0.173066    1.153687
     24          1           0       -4.256180   -0.138752   -0.514628
     25          1           0       -4.379589   -1.429481    0.680057
     26          6           0       -2.415934    2.064728   -0.041904
     27          1           0       -3.241340    1.727029   -0.658090
     28          1           0       -2.776639    2.180307    0.980505
     29          1           0       -2.129026    3.052929   -0.398641
 ---------------------------------------------------------------------
 Rotational constants (GHZ):           1.0952175           0.4848509           0.3422638
 Leave Link  202 at Sat Jan 24 19:59:14 2026, MaxMem=  2147483648 cpu:               0.0 elap:               0.0
 (Enter /data/home/wyx/g16/l301.exe)
 Standard basis: TZVP (5D, 7F)
 Ernie: Thresh=  0.10000D-02 Tol=  0.10000D-05 Strict=F.
 There are   370 symmetry adapted cartesian basis functions of A   symmetry.
 There are   356 symmetry adapted basis functions of A   symmetry.
   356 basis functions,   610 primitive gaussians,   370 cartesian basis functions
    52 alpha electrons       52 beta electrons
       nuclear repulsion energy       899.6875756740 Hartrees.
 IExCor=20419 DFT=T Ex+Corr=CAM-B3LYP ExCW=0 ScaHFX=  1.000000
 ScaDFX=  1.000000  1.000000  1.000000  0.810000 ScalE2=  1.000000  1.000000
 IRadAn=      5 IRanWt=     -1 IRanGd=            0 ICorTp=0 IEmpDi=141
 HFx  wShort=  0.000000 wLong=  0.330000 cFull=  0.190000 cShort=  0.000000 cLong=  0.460000
 DFx  wShort=  0.000000 wLong=  0.330000 cFull=  0.190000 cShort=  0.000000 cLong=  0.460000
 NAtoms=   29 NActive=   29 NUniq=   29 SFac= 1.00D+00 NAtFMM=   60 NAOKFM=F Big=F
 Integral buffers will be    131072 words long.
 Raffenetti 1 integral format.
 Two-electron integral symmetry is turned on.
 R6Disp:  Grimme-D3(BJ) Dispersion energy=       -0.0261252170 Hartrees.
 Nuclear repulsion after empirical dispersion term =      899.6614504570 Hartrees.
 ------------------------------------------------------------------------------
 Polarizable Continuum Model (PCM)
 =================================
 Model                : PCM.
 Atomic radii         : UFF (Universal Force Field).
 Polarization charges : Total charges.
 Charge compensation  : None.
 Solution method      : On-the-fly selection.
 Cavity type          : Scaled VdW (van der Waals Surface) (Alpha=1.100).
 Cavity algorithm     : GePol (No added spheres)
                        Default sphere list used, NSphG=   29.
                        Lebedev-Laikov grids with approx.  5.0 points / Ang**2.
                        Smoothing algorithm: York/Karplus (Gamma=1.0000).
                        Polarization charges: spherical gaussians, with
                                              point-specific exponents (IZeta= 3).
                        Self-potential: point-specific (ISelfS= 7).
                        Self-field    : sphere-specific E.n sum rule (ISelfD= 2).
 1st derivatives      : Analytical E(r).r(x)/FMM algorithm (CHGder, D1EAlg=3).
                        Cavity 1st derivative terms included.
 Solvent              : Water, Eps=  78.355300 Eps(inf)=   1.777849
 ------------------------------------------------------------------------------
 GePol: Number of generator spheres                  =      29
 GePol: Total number of spheres                      =      29
 GePol: Number of exposed spheres                    =      29 (100.00%)
 GePol: Number of points                             =    2118
 GePol: Average weight of points                     =       0.13
 GePol: Minimum weight of points                     =   0.57D-09
 GePol: Maximum weight of points                     =    0.20577
 GePol: Number of points with low weight             =     144
 GePol: Fraction of low-weight points (<1% of avg)   =       6.80%
 GePol: Cavity surface area                          =    268.934 Ang**2
 GePol: Cavity volume                                =    286.451 Ang**3
 Leave Link  301 at Sat Jan 24 19:59:14 2026, MaxMem=  2147483648 cpu:               0.6 elap:               0.0
 (Enter /data/home/wyx/g16/l302.exe)
 NPDir=0 NMtPBC=     1 NCelOv=     1 NCel=       1 NClECP=     1 NCelD=      1
         NCelK=      1 NCelE2=     1 NClLst=     1 CellRange=     0.0.
 One-electron integrals computed using PRISM.
 One-electron integral symmetry used in STVInt
 NBasis=   356 RedAO= T EigKep=  4.15D-05  NBF=   356
 NBsUse=   356 1.00D-06 EigRej= -1.00D+00 NBFU=   356
 Precomputing XC quadrature grid using
 IXCGrd= 4 IRadAn=           5 IRanWt=          -1 IRanGd=           0 AccXCQ= 0.00D+00.
 Generated NRdTot=       0 NPtTot=           0 NUsed=           0 NTot=          32
 NSgBfM=   366   366   366   366   366 MxSgAt=    29 MxSgA2=    29.
 Leave Link  302 at Sat Jan 24 19:59:14 2026, MaxMem=  2147483648 cpu:               3.1 elap:               0.2
 (Enter /data/home/wyx/g16/l303.exe)
 DipDrv:  MaxL=1.
 Leave Link  303 at Sat Jan 24 19:59:14 2026, MaxMem=  2147483648 cpu:               0.6 elap:               0.0
 (Enter /data/home/wyx/g16/l308.exe)
 Leave Link  308 at Sat Jan 24 19:59:15 2026, MaxMem=  2147483648 cpu:               0.7 elap:               0.1
 (Enter /data/home/wyx/g16/l401.exe)
 Initial guess from the checkpoint file:  "DDL-S2-cLR-8.chk"
 B after Tr=    -0.000000    0.000000    0.000000
         Rot=    1.000000    0.000000   -0.000000    0.000000 Ang=   0.00 deg.
 Guess basis will be translated and rotated to current coordinates.
 JPrj=2 DoOrth=T DoCkMO=T.
 Leave Link  401 at Sat Jan 24 19:59:15 2026, MaxMem=  2147483648 cpu:               2.2 elap:               0.2
 (Enter /data/home/wyx/g16/l502.exe)
 Integral symmetry usage will be decided dynamically.
 Closed shell SCF:
 Using DIIS extrapolation, IDIIS=  1040.
 NGot=  2147483648 LenX=  2147200095 LenY=  2147062754
 Requested convergence on RMS density matrix=1.00D-08 within 128 cycles.
 Requested convergence on MAX density matrix=1.00D-06.
 Requested convergence on             energy=1.00D-06.
 No special actions if energy rises.
 Fock matrices will be formed incrementally for  20 cycles.

 Cycle   1  Pass 1  IDiag  1:
 FoFJK:  IHMeth= 1 ICntrl=       0 DoSepK=T KAlg= 0 I1Cent=           0 FoldK=F
 IRaf=         1 NMat=       1 IRICut=       1 DoRegI=T DoRafI=F ISym2E= 0 IDoP0=0 IntGTp=1.
 FoFCou: FMM=F IPFlag=           0 FMFlag=      100000 FMFlg1=           0
         NFxFlg=           0 DoJE=T BraDBF=F KetDBF=F FulRan=T
         wScrn=  0.000000 ICntrl=       500 IOpCl=  0 I1Cent=           0 NGrid=           0
         NMat0=    1 NMatS0=      1 NMatT0=    0 NMatD0=    1 NMtDS0=    0 NMtDT0=    0
 Symmetry not used in FoFCou.
 Inv3:  Mode=1 IEnd=    13457772.
 Iteration    1 A*A^-1 deviation from unit magnitude is 2.89D-15 for    455.
 Iteration    1 A*A^-1 deviation from orthogonality  is 2.00D-15 for   2006     54.
 Iteration    1 A^-1*A deviation from unit magnitude is 2.89D-15 for    355.
 Iteration    1 A^-1*A deviation from orthogonality  is 1.62D-15 for   1368    879.
 E= -633.325242171649    
 DIIS: error= 6.97D-09 at cycle   1 NSaved=   1.
 NSaved= 1 IEnMin= 1 EnMin= -633.325242171649     IErMin= 1 ErrMin= 6.97D-09
 ErrMax= 6.97D-09  0.00D+00 EMaxC= 1.00D-01 BMatC= 1.67D-14 BMatP= 1.67D-14
 IDIUse=1 WtCom= 1.00D+00 WtEn= 0.00D+00
 Coeff-Com:  0.100D+01
 Coeff:      0.100D+01
 Gap=     0.232 Goal=   None    Shift=    0.000
 RMSDP=1.97D-09 MaxDP=1.24D-07              OVMax= 1.08D-07

 Error on total polarization charges =  0.01553
 SCF Done:  E(RCAM-B3LYP) =  -633.325242172     A.U. after    1 cycles
            NFock=  1  Conv=0.20D-08     -V/T= 2.0042
 KE= 6.306687879942D+02 PE=-3.275326402451D+03 EE= 1.111670921828D+03
 Leave Link  502 at Sat Jan 24 19:59:21 2026, MaxMem=  2147483648 cpu:              85.8 elap:               5.7
 (Enter /data/home/wyx/g16/l801.exe)
 DoSCS=F DFT=T ScalE2(SS,OS)=  1.000000  1.000000
 ExpMin= 9.52D-02 ExpMax= 2.70D+04 ExpMxC= 9.22D+02 IAcc=3 IRadAn=         5 AccDes= 0.00D+00
 HarFok:  IExCor=  205 AccDes= 0.00D+00 IRadAn=         5 IDoV=-2 UseB2=F ITyADJ=14
 ICtDFT= 12500011 ScaDFX=  1.000000  1.000000  1.000000  1.000000
 Largest valence mixing into a core orbital is  5.81D-05
 Largest core mixing into a valence orbital is  1.15D-05
 Range of M.O.s used for correlation:    15   356
 NBasis=   356 NAE=    52 NBE=    52 NFC=    14 NFV=     0
 NROrb=    342 NOA=    38 NOB=    38 NVA=   304 NVB=   304

 **** Warning!!: The largest alpha MO coefficient is  0.39452097D+02

 Leave Link  801 at Sat Jan 24 19:59:21 2026, MaxMem=  2147483648 cpu:               1.0 elap:               0.1
 (Enter /data/home/wyx/g16/l914.exe)
 RHF ground state
 Two-electron integrals replicated using symmetry.
 MDV=  2147483648 DFT=T DoStab=F Mixed=T DoRPA=T DoScal=F NonHer=T
 NEqPCM:  Using equilibrium solvation (IEInf=0, Eps=  78.3553, EpsInf=   1.7778)
 Making orbital integer symmetry assigments:
 Orbital symmetries:
       Occupied  (A) (A) (A) (A) (A) (A) (A) (A) (A) (A) (A) (A)
                 (A) (A) (A) (A) (A) (A) (A) (A) (A) (A) (A) (A)
                 (A) (A) (A) (A) (A) (A) (A) (A) (A) (A) (A) (A)
                 (A) (A) (A) (A) (A) (A) (A) (A) (A) (A) (A) (A)
                 (A) (A) (A) (A)
       Virtual   (A) (A) (A) (A) (A) (A) (A) (A) (A) (A) (A) (A)
                 (A) (A) (A) (A) (A) (A) (A) (A) (A) (A) (A) (A)
                 (A) (A) (A) (A) (A) (A) (A) (A) (A) (A) (A) (A)
                 (A) (A) (A) (A) (A) (A) (A) (A) (A) (A) (A) (A)
                 (A) (A) (A) (A) (A) (A) (A) (A) (A) (A) (A) (A)
                 (A) (A) (A) (A) (A) (A) (A) (A) (A) (A) (A) (A)
                 (A) (A) (A) (A) (A) (A) (A) (A) (A) (A) (A) (A)
                 (A) (A) (A) (A) (A) (A) (A) (A) (A) (A) (A) (A)
                 (A) (A) (A) (A) (A) (A) (A) (A) (A) (A) (A) (A)
                 (A) (A) (A) (A) (A) (A) (A) (A) (A) (A) (A) (A)
                 (A) (A) (A) (A) (A) (A) (A) (A) (A) (A) (A) (A)
                 (A) (A) (A) (A) (A) (A) (A) (A) (A) (A) (A) (A)
                 (A) (A) (A) (A) (A) (A) (A) (A) (A) (A) (A) (A)
                 (A) (A) (A) (A) (A) (A) (A) (A) (A) (A) (A) (A)
                 (A) (A) (A) (A) (A) (A) (A) (A) (A) (A) (A) (A)
                 (A) (A) (A) (A) (A) (A) (A) (A) (A) (A) (A) (A)
                 (A) (A) (A) (A) (A) (A) (A) (A) (A) (A) (A) (A)
                 (A) (A) (A) (A) (A) (A) (A) (A) (A) (A) (A) (A)
                 (A) (A) (A) (A) (A) (A) (A) (A) (A) (A) (A) (A)
                 (A) (A) (A) (A) (A) (A) (A) (A) (A) (A) (A) (A)
                 (A) (A) (A) (A) (A) (A) (A) (A) (A) (A) (A) (A)
                 (A) (A) (A) (A) (A) (A) (A) (A) (A) (A) (A) (A)
                 (A) (A) (A) (A) (A) (A) (A) (A) (A) (A) (A) (A)
                 (A) (A) (A) (A) (A) (A) (A) (A) (A) (A) (A) (A)
                 (A) (A) (A) (A) (A) (A) (A) (A) (A) (A) (A) (A)
                 (A) (A) (A) (A)
 PCM Corrected Linear-Response:
 Compute the excitation energies in the ground state reaction field.
    24 initial guesses have been made.
 Convergence on wavefunction:    0.000001000000000
 Davidson Disk Diagonalization:  ConvIn= 1.00D-06 SkipCon=T Conv= 1.00D-06.
 Max sub-space:  2000 roots to seek:    24 dimension of matrix:        23104
 Iteration     1 Dimension    24 NMult     0 NNew     24
 CISAX will form    24 AO SS matrices at one time.
 NMat=    24 NSing=    24 JSym2X= 0.
 FoFJK:  IHMeth= 1 ICntrl=       0 DoSepK=T KAlg= 0 I1Cent=           0 FoldK=F
 IRaf=         1 NMat=      48 IRICut=       1 DoRegI=T DoRafI=F ISym2E= 0 IDoP0=3 IntGTp=3.
 FoFCou: FMM=F IPFlag=           0 FMFlag=      100000 FMFlg1=           0
         NFxFlg=           0 DoJE=F BraDBF=F KetDBF=F FulRan=T
         wScrn=  0.000000 ICntrl=       500 IOpCl=  0 I1Cent=           0 NGrid=           0
         NMat0=   24 NMatS0=     24 NMatT0=    0 NMatD0=   24 NMtDS0=    0 NMtDT0=    0
 Symmetry not used in FoFCou.
 New state      3 was old state      4
 New state      4 was old state      3
 New state      5 was old state      6
 New state      6 was old state      5
 Excitation Energies [eV] at current iteration:
 Root      1 :     3.865098693317254
 Root      2 :     4.000967449515068
 Root      3 :     4.514828238152906
 Root      4 :     5.505457128371057
 Root      5 :     6.332480590316669
 Root      6 :     6.561760238560386
 Root      7 :     6.719270915724923
 Root      8 :     6.763974267489511
 Root      9 :     6.950601972313143
 Root     10 :     7.215463040500150
 Root     11 :     7.295737798275207
 Root     12 :     7.390632938701486
 Root     13 :     7.569105112633706
 Root     14 :     7.697908995453001
 Root     15 :     7.760080245951934
 Root     16 :     7.797655069457178
 Root     17 :     8.084127245571201
 Root     18 :     8.232194703222168
 Root     19 :     8.309408655857057
 Root     20 :     8.405200395290448
 Root     21 :     8.626576882216012
 Root     22 :     8.840000118665234
 Root     23 :     8.899414489660378
 Root     24 :     9.215107586274241
 Iteration     2 Dimension    36 NMult    24 NNew     12
 CISAX will form    12 AO SS matrices at one time.
 NMat=    12 NSing=    12 JSym2X= 0.
 Root      1 not converged, maximum delta is    0.274230599323183
 Root      2 not converged, maximum delta is    0.264194960629448
 Root      3 not converged, maximum delta is    0.092711295415707
 Root      4 not converged, maximum delta is    0.233477318954572
 New state      5 was old state      6
 Root      5 not converged, maximum delta is    0.248939731775273
 New state      6 was old state      5
 Root      6 not converged, maximum delta is    0.149682643934678
 Excitation Energies [eV] at current iteration:
 Root      1 :     3.445002088815369   Change is   -0.420096604501885
 Root      2 :     3.742119396486466   Change is   -0.258848053028602
 Root      3 :     4.263209252661539   Change is   -0.251618985491367
 Root      4 :     5.195987563586783   Change is   -0.309469564784274
 Root      5 :     5.637665829814969   Change is   -0.924094408745417
 Root      6 :     6.195022732599817   Change is   -0.137457857716852
 Iteration     3 Dimension    48 NMult    36 NNew     12
 CISAX will form    12 AO SS matrices at one time.
 NMat=    12 NSing=    12 JSym2X= 0.
 Root      1 not converged, maximum delta is    0.010482043850482
 Root      2 not converged, maximum delta is    0.010304073010654
 Root      3 not converged, maximum delta is    0.016648918922859
 Root      4 not converged, maximum delta is    0.029530175389731
 Root      5 not converged, maximum delta is    0.029470254121238
 Root      6 not converged, maximum delta is    0.018376390459213
 Excitation Energies [eV] at current iteration:
 Root      1 :     3.424942309161962   Change is   -0.020059779653408
 Root      2 :     3.731005455612392   Change is   -0.011113940874073
 Root      3 :     4.249687940957645   Change is   -0.013521311703894
 Root      4 :     5.173263838600672   Change is   -0.022723724986111
 Root      5 :     5.600677471253576   Change is   -0.036988358561392
 Root      6 :     6.183535940321318   Change is   -0.011486792278499
 Iteration     4 Dimension    60 NMult    48 NNew     12
 CISAX will form    12 AO SS matrices at one time.
 NMat=    12 NSing=    12 JSym2X= 0.
 Root      1 not converged, maximum delta is    0.001945312895529
 Root      2 not converged, maximum delta is    0.001672466224477
 Root      3 not converged, maximum delta is    0.002301693585204
 Root      4 not converged, maximum delta is    0.003339728014906
 Root      5 not converged, maximum delta is    0.004744110544768
 Root      6 not converged, maximum delta is    0.003321376500230
 Excitation Energies [eV] at current iteration:
 Root      1 :     3.423368138434755   Change is   -0.001574170727207
 Root      2 :     3.730190670238723   Change is   -0.000814785373669
 Root      3 :     4.249007243516909   Change is   -0.000680697440736
 Root      4 :     5.170902371633856   Change is   -0.002361466966816
 Root      5 :     5.596364908476135   Change is   -0.004312562777442
 Root      6 :     6.182617945329264   Change is   -0.000917994992053
 Iteration     5 Dimension    72 NMult    60 NNew     12
 CISAX will form    12 AO SS matrices at one time.
 NMat=    12 NSing=    12 JSym2X= 0.
 Root      1 not converged, maximum delta is    0.000901493185267
 Root      2 not converged, maximum delta is    0.000239880448496
 Root      3 not converged, maximum delta is    0.000200822837514
 Root      4 not converged, maximum delta is    0.000550502366875
 Root      5 not converged, maximum delta is    0.001245727908505
 Root      6 not converged, maximum delta is    0.001062352297735
 Excitation Energies [eV] at current iteration:
 Root      1 :     3.423257983998633   Change is   -0.000110154436121
 Root      2 :     3.730149922957429   Change is   -0.000040747281294
 Root      3 :     4.248969875176716   Change is   -0.000037368340192
 Root      4 :     5.170730432033615   Change is   -0.000171939600242
 Root      5 :     5.595954917175214   Change is   -0.000409991300920
 Root      6 :     6.182545438564105   Change is   -0.000072506765159
 Iteration     6 Dimension    84 NMult    72 NNew     12
 CISAX will form    12 AO SS matrices at one time.
 NMat=    12 NSing=    12 JSym2X= 0.
 Root      1 not converged, maximum delta is    0.000171527955868
 Root      2 not converged, maximum delta is    0.000057084809730
 Root      3 not converged, maximum delta is    0.000065769508633
 Root      4 not converged, maximum delta is    0.000241130851522
 Root      5 not converged, maximum delta is    0.000375569291375
 Root      6 not converged, maximum delta is    0.000212218981785
 Excitation Energies [eV] at current iteration:
 Root      1 :     3.423251467452970   Change is   -0.000006516545664
 Root      2 :     3.730147192019633   Change is   -0.000002730937796
 Root      3 :     4.248967377437336   Change is   -0.000002497739380
 Root      4 :     5.170717217122609   Change is   -0.000013214911006
 Root      5 :     5.595923737880443   Change is   -0.000031179294771
 Root      6 :     6.182539538780916   Change is   -0.000005899783189
 Iteration     7 Dimension    96 NMult    84 NNew     12
 CISAX will form    12 AO SS matrices at one time.
 NMat=    12 NSing=    12 JSym2X= 0.
 Root      1 not converged, maximum delta is    0.000016968393855
 Root      2 not converged, maximum delta is    0.000015002013744
 Root      3 not converged, maximum delta is    0.000009575505740
 Root      4 not converged, maximum delta is    0.000057084140331
 Root      5 not converged, maximum delta is    0.000106270483424
 Root      6 not converged, maximum delta is    0.000071651775499
 Excitation Energies [eV] at current iteration:
 Root      1 :     3.423251037944606   Change is   -0.000000429508364
 Root      2 :     3.730147067400643   Change is   -0.000000124618989
 Root      3 :     4.248967237569024   Change is   -0.000000139868313
 Root      4 :     5.170716178435280   Change is   -0.000001038687329
 Root      5 :     5.595921320736662   Change is   -0.000002417143781
 Root      6 :     6.182539002522166   Change is   -0.000000536258750
 Iteration     8 Dimension   108 NMult    96 NNew     12
 CISAX will form    12 AO SS matrices at one time.
 NMat=    12 NSing=    12 JSym2X= 0.
 Root      1 not converged, maximum delta is    0.000005732199408
 Root      2 not converged, maximum delta is    0.000003632532299
 Root      3 not converged, maximum delta is    0.000002196162057
 Root      4 not converged, maximum delta is    0.000024408153929
 Root      5 not converged, maximum delta is    0.000025887405666
 Root      6 not converged, maximum delta is    0.000023446677436
 Excitation Energies [eV] at current iteration:
 Root      1 :     3.423251021147838   Change is   -0.000000016796768
 Root      2 :     3.730147062262149   Change is   -0.000000005138494
 Root      3 :     4.248967231520853   Change is   -0.000000006048171
 Root      4 :     5.170716102261981   Change is   -0.000000076173300
 Root      5 :     5.595921135150553   Change is   -0.000000185586109
 Root      6 :     6.182538951981769   Change is   -0.000000050540397
 Iteration     9 Dimension   120 NMult   108 NNew     12
 CISAX will form    12 AO SS matrices at one time.
 NMat=    12 NSing=    12 JSym2X= 0.
 Root      1 not converged, maximum delta is    0.000001093473704
 Root      2 has converged.
 Root      3 has converged.
 Root      4 not converged, maximum delta is    0.000003640474684
 Root      5 not converged, maximum delta is    0.000005848206320
 Root      6 not converged, maximum delta is    0.000007195152234
 Excitation Energies [eV] at current iteration:
 Root      1 :     3.423251020462297   Change is   -0.000000000685541
 Root      2 :     3.730147062111095   Change is   -0.000000000151054
 Root      3 :     4.248967231323274   Change is   -0.000000000197579
 Root      4 :     5.170716098385089   Change is   -0.000000003876892
 Root      5 :     5.595921125038049   Change is   -0.000000010112504
 Root      6 :     6.182538948105495   Change is   -0.000000003876275
 Iteration    10 Dimension   128 NMult   120 NNew      8
 CISAX will form     8 AO SS matrices at one time.
 NMat=     8 NSing=     8 JSym2X= 0.
 Root      1 has converged.
 Root      2 has converged.
 Root      3 has converged.
 Root      4 has converged.
 Root      5 not converged, maximum delta is    0.000001339025157
 Root      6 not converged, maximum delta is    0.000001773793802
 Excitation Energies [eV] at current iteration:
 Root      1 :     3.423251020441453   Change is   -0.000000000020845
 Root      2 :     3.730147062110809   Change is   -0.000000000000286
 Root      3 :     4.248967231321978   Change is   -0.000000000001296
 Root      4 :     5.170716098211890   Change is   -0.000000000173199
 Root      5 :     5.595921124498095   Change is   -0.000000000539954
 Root      6 :     6.182538947778741   Change is   -0.000000000326754
 Iteration    11 Dimension   132 NMult   128 NNew      4
 CISAX will form     4 AO SS matrices at one time.
 NMat=     4 NSing=     4 JSym2X= 0.
 Root      1 has converged.
 Root      2 has converged.
 Root      3 has converged.
 Root      4 has converged.
 Root      5 has converged.
 Root      6 has converged.
 Excitation Energies [eV] at current iteration:
 Root      1 :     3.423251020441405   Change is   -0.000000000000048
 Root      2 :     3.730147062110766   Change is   -0.000000000000044
 Root      3 :     4.248967231321746   Change is   -0.000000000000232
 Root      4 :     5.170716098207549   Change is   -0.000000000004341
 Root      5 :     5.595921124467612   Change is   -0.000000000030483
 Root      6 :     6.182538947750246   Change is   -0.000000000028495
 Convergence achieved on expansion vectors.
 PCM Corrected Linear-Response:
 The state of interest is root number   2
 Excitation energy =    3.7301 eV, Total energy =  -633.188161789    
 Recompute the excitation energies using the linear response reaction field.
 Convergence on wavefunction:    0.000001000000000
 Davidson Disk Diagonalization:  ConvIn= 1.00D-06 SkipCon=T Conv= 1.00D-06.
 Max sub-space:  2000 roots to seek:     6 dimension of matrix:        23104
 Iteration     1 Dimension     6 NMult     0 NNew      6
 CISAX will form     6 AO SS matrices at one time.
 NMat=     6 NSing=     6 JSym2X= 0.
 Excitation Energies [eV] at current iteration:
 Root      1 :     3.492053188609126
 Root      2 :     3.756629209640539
 Root      3 :     4.274629984596813
 Root      4 :     5.232280043746633
 Root      5 :     5.741034295850362
 Root      6 :     6.141559403165345
 Iteration     2 Dimension    18 NMult     6 NNew     12
 CISAX will form    12 AO SS matrices at one time.
 NMat=    12 NSing=    12 JSym2X= 0.
 Root      1 not converged, maximum delta is    0.058976223295868
 Root      2 not converged, maximum delta is    0.069091442153692
 Root      3 not converged, maximum delta is    0.008857115195201
 Root      4 not converged, maximum delta is    0.269859236132853
 Root      5 not converged, maximum delta is    0.298397768517075
 Root      6 not converged, maximum delta is    0.026446715498811
 Excitation Energies [eV] at current iteration:
 Root      1 :     3.277374684814643   Change is   -0.214678503794483
 Root      2 :     3.721441726809712   Change is   -0.035187482830827
 Root      3 :     4.243019356431800   Change is   -0.031610628165013
 Root      4 :     4.990627754815375   Change is   -0.241652288931258
 Root      5 :     5.454053517563057   Change is   -0.286980778287305
 Root      6 :     6.124368815332087   Change is   -0.017190587833258
 Iteration     3 Dimension    30 NMult    18 NNew     12
 CISAX will form    12 AO SS matrices at one time.
 NMat=    12 NSing=    12 JSym2X= 0.
 Root      1 not converged, maximum delta is    0.003413607327936
 Root      2 not converged, maximum delta is    0.001038937527585
 Root      3 not converged, maximum delta is    0.001351338437350
 Root      4 not converged, maximum delta is    0.013366435694220
 Root      5 not converged, maximum delta is    0.010630382203583
 Root      6 not converged, maximum delta is    0.006956562161335
 Excitation Energies [eV] at current iteration:
 Root      1 :     3.273811343463181   Change is   -0.003563341351462
 Root      2 :     3.721091794872532   Change is   -0.000349931937180
 Root      3 :     4.242656172896454   Change is   -0.000363183535346
 Root      4 :     4.979755043529090   Change is   -0.010872711286286
 Root      5 :     5.446369598027631   Change is   -0.007683919535427
 Root      6 :     6.122783059906014   Change is   -0.001585755426073
 Iteration     4 Dimension    42 NMult    30 NNew     12
 CISAX will form    12 AO SS matrices at one time.
 NMat=    12 NSing=    12 JSym2X= 0.
 Root      1 not converged, maximum delta is    0.001891227443614
 Root      2 not converged, maximum delta is    0.000300820580001
 Root      3 not converged, maximum delta is    0.000235813204744
 Root      4 not converged, maximum delta is    0.003185967186826
 Root      5 not converged, maximum delta is    0.003341470161380
 Root      6 not converged, maximum delta is    0.007431399228490
 Excitation Energies [eV] at current iteration:
 Root      1 :     3.273341560016145   Change is   -0.000469783447036
 Root      2 :     3.721070763010340   Change is   -0.000021031862192
 Root      3 :     4.242634937393477   Change is   -0.000021235502977
 Root      4 :     4.977739479372123   Change is   -0.002015564156967
 Root      5 :     5.444991126493999   Change is   -0.001378471533631
 Root      6 :     6.122271598924440   Change is   -0.000511460981573
 Iteration     5 Dimension    54 NMult    42 NNew     12
 CISAX will form    12 AO SS matrices at one time.
 NMat=    12 NSing=    12 JSym2X= 0.
 Root      1 not converged, maximum delta is    0.000508108358829
 Root      2 not converged, maximum delta is    0.000080829270939
 Root      3 not converged, maximum delta is    0.000105591068316
 Root      4 not converged, maximum delta is    0.001466474859292
 Root      5 not converged, maximum delta is    0.000921989573140
 Root      6 not converged, maximum delta is    0.003971098936714
 Excitation Energies [eV] at current iteration:
 Root      1 :     3.273307639490594   Change is   -0.000033920525551
 Root      2 :     3.721069373265586   Change is   -0.000001389744754
 Root      3 :     4.242633215587629   Change is   -0.000001721805848
 Root      4 :     4.977497748060304   Change is   -0.000241731311819
 Root      5 :     5.444836773200192   Change is   -0.000154353293807
 Root      6 :     6.122143018105056   Change is   -0.000128580819385
 Iteration     6 Dimension    66 NMult    54 NNew     12
 CISAX will form    12 AO SS matrices at one time.
 NMat=    12 NSing=    12 JSym2X= 0.
 Root      1 not converged, maximum delta is    0.000077198495172
 Root      2 not converged, maximum delta is    0.000017089485473
 Root      3 not converged, maximum delta is    0.000025160579065
 Root      4 not converged, maximum delta is    0.000446187798736
 Root      5 not converged, maximum delta is    0.000411753059156
 Root      6 not converged, maximum delta is    0.000982310524963
 Excitation Energies [eV] at current iteration:
 Root      1 :     3.273305331842070   Change is   -0.000002307648524
 Root      2 :     3.721069271474849   Change is   -0.000000101790737
 Root      3 :     4.242633072173140   Change is   -0.000000143414489
 Root      4 :     4.977475315981135   Change is   -0.000022432079170
 Root      5 :     5.444820962032668   Change is   -0.000015811167525
 Root      6 :     6.122121672959898   Change is   -0.000021345145157
 Iteration     7 Dimension    78 NMult    66 NNew     12
 CISAX will form    12 AO SS matrices at one time.
 NMat=    12 NSing=    12 JSym2X= 0.
 Root      1 not converged, maximum delta is    0.000015191927025
 Root      2 not converged, maximum delta is    0.000003498921024
 Root      3 not converged, maximum delta is    0.000009140147795
 Root      4 not converged, maximum delta is    0.000140964794893
 Root      5 not converged, maximum delta is    0.000154049797248
 Root      6 not converged, maximum delta is    0.000226301974167
 Excitation Energies [eV] at current iteration:
 Root      1 :     3.273305227943018   Change is   -0.000000103899052
 Root      2 :     3.721069266188414   Change is   -0.000000005286435
 Root      3 :     4.242633061723279   Change is   -0.000000010449861
 Root      4 :     4.977473524142145   Change is   -0.000001791838989
 Root      5 :     5.444819511984504   Change is   -0.000001450048163
 Root      6 :     6.122119539024421   Change is   -0.000002133935477
 Iteration     8 Dimension    90 NMult    78 NNew     12
 CISAX will form    12 AO SS matrices at one time.
 NMat=    12 NSing=    12 JSym2X= 0.
 Root      1 not converged, maximum delta is    0.000002712781206
 Root      2 has converged.
 Root      3 not converged, maximum delta is    0.000001753182298
 Root      4 not converged, maximum delta is    0.000035863045710
 Root      5 not converged, maximum delta is    0.000045433594582
 Root      6 not converged, maximum delta is    0.000073423053759
 Excitation Energies [eV] at current iteration:
 Root      1 :     3.273305223188160   Change is   -0.000000004754858
 Root      2 :     3.721069265968241   Change is   -0.000000000220173
 Root      3 :     4.242633061166631   Change is   -0.000000000556649
 Root      4 :     4.977473414288767   Change is   -0.000000109853378
 Root      5 :     5.444819398406533   Change is   -0.000000113577971
 Root      6 :     6.122119265582084   Change is   -0.000000273442337
 Iteration     9 Dimension   100 NMult    90 NNew     10
 CISAX will form    10 AO SS matrices at one time.
 NMat=    10 NSing=    10 JSym2X= 0.
 Root      1 has converged.
 Root      2 has converged.
 Root      3 has converged.
 Root      4 not converged, maximum delta is    0.000011063657752
 Root      5 not converged, maximum delta is    0.000016772468681
 Root      6 not converged, maximum delta is    0.000048376549717
 Excitation Energies [eV] at current iteration:
 Root      1 :     3.273305223018562   Change is   -0.000000000169598
 Root      2 :     3.721069265965480   Change is   -0.000000000002761
 Root      3 :     4.242633061140434   Change is   -0.000000000026197
 Root      4 :     4.977473406081910   Change is   -0.000000008206856
 Root      5 :     5.444819385859650   Change is   -0.000000012546883
 Root      6 :     6.122119221703542   Change is   -0.000000043878542
 Iteration    10 Dimension   106 NMult   100 NNew      6
 CISAX will form     6 AO SS matrices at one time.
 NMat=     6 NSing=     6 JSym2X= 0.
 Root      1 has converged.
 Root      2 has converged.
 Root      3 has converged.
 Root      4 not converged, maximum delta is    0.000002098719422
 Root      5 not converged, maximum delta is    0.000003641438251
 Root      6 not converged, maximum delta is    0.000016728910015
 Excitation Energies [eV] at current iteration:
 Root      1 :     3.273305223017281   Change is   -0.000000000001281
 Root      2 :     3.721069265965060   Change is   -0.000000000000420
 Root      3 :     4.242633061140006   Change is   -0.000000000000427
 Root      4 :     4.977473405461705   Change is   -0.000000000620205
 Root      5 :     5.444819384705989   Change is   -0.000000001153662
 Root      6 :     6.122119215708245   Change is   -0.000000005995298
 Iteration    11 Dimension   112 NMult   106 NNew      6
 CISAX will form     6 AO SS matrices at one time.
 NMat=     6 NSing=     6 JSym2X= 0.
 Root      1 has converged.
 Root      2 has converged.
 Root      3 has converged.
 Root      4 has converged.
 Root      5 has converged.
 Root      6 not converged, maximum delta is    0.000002930516671
 Excitation Energies [eV] at current iteration:
 Root      1 :     3.273305223016779   Change is   -0.000000000000502
 Root      2 :     3.721069265964861   Change is   -0.000000000000199
 Root      3 :     4.242633061139852   Change is   -0.000000000000155
 Root      4 :     4.977473405422794   Change is   -0.000000000038911
 Root      5 :     5.444819384633909   Change is   -0.000000000072079
 Root      6 :     6.122119215087833   Change is   -0.000000000620412
 Iteration    12 Dimension   114 NMult   112 NNew      2
 CISAX will form     2 AO SS matrices at one time.
 NMat=     2 NSing=     2 JSym2X= 0.
 Root      1 has converged.
 Root      2 has converged.
 Root      3 has converged.
 Root      4 has converged.
 Root      5 has converged.
 Root      6 has converged.
 Excitation Energies [eV] at current iteration:
 Root      1 :     3.273305223016854   Change is    0.000000000000076
 Root      2 :     3.721069265964795   Change is   -0.000000000000066
 Root      3 :     4.242633061139832   Change is   -0.000000000000020
 Root      4 :     4.977473405422645   Change is   -0.000000000000149
 Root      5 :     5.444819384633713   Change is   -0.000000000000196
 Root      6 :     6.122119215034913   Change is   -0.000000000052919
 Convergence achieved on expansion vectors.
 ***********************************************************************
 Excited states from <AA,BB:AA,BB> singles matrix:
 ***********************************************************************
 
 1PDM for each excited state written to RWF  633
 Ground to excited state transition densities written to RWF  633
 Ground to excited state transition electric dipole moments (Au):
       state          X           Y           Z        Dip. S.      Osc.
         1        -1.7597     -0.1223     -0.0518      3.1142      0.2497
         2         0.2447      0.0426      0.0531      0.0645      0.0059
         3         0.0139     -0.1333      0.0430      0.0198      0.0021
         4         0.0763     -2.0190      0.1049      4.0932      0.4992
         5        -0.2690      1.3289     -0.0106      1.8384      0.2452
         6        -0.0420      0.1779      0.0330      0.0345      0.0052
 Ground to excited state transition velocity dipole moments (Au):
       state          X           Y           Z        Dip. S.      Osc.
         1         0.2047      0.0127      0.0064      0.0421      0.2333
         2        -0.0333     -0.0051     -0.0055      0.0012      0.0057
         3        -0.0022      0.0198     -0.0030      0.0004      0.0017
         4        -0.0174      0.3516     -0.0155      0.1242      0.4526
         5         0.0514     -0.2628      0.0028      0.0717      0.2390
         6         0.0106     -0.0365     -0.0271      0.0022      0.0064
 Ground to excited state transition magnetic dipole moments (Au):
       state          X           Y           Z
         1         0.0927      0.0170     -1.4126
         2         0.7558      0.2650      0.3778
         3        -0.0147     -0.9541     -0.0825
         4         0.0696      0.0948     -0.3601
         5        -0.1866     -0.1004      0.2060
         6         0.0485      0.0152     -0.0218
 Ground to excited state transition velocity quadrupole moments (Au):
       state          XX          YY          ZZ          XY          XZ          YZ
         1         0.3380     -0.1463     -0.0062     -0.5280      0.0508     -0.0092
         2        -0.0518     -0.0061      0.0016      0.0946     -0.0426      0.0559
         3        -0.0261      0.0107     -0.0188     -0.0335      0.0746      0.0050
         4        -1.4863      0.3399      0.0235     -0.2495     -0.0790     -0.0276
         5         0.5483     -0.3717     -0.0369     -0.0008      0.0589     -0.0644
         6        -0.2642     -0.1803      0.1435     -0.0203     -0.0291      0.1068
 <0|del|b> * <b|rxdel|0> + <0|del|b> * <b|delr+rdel|0>
 Rotatory Strengths (R) in cgs (10**-40 erg-esu-cm/Gauss)
       state          XX          YY          ZZ    R(velocity)    E-M Angle
         1       -37.5537     33.7388     63.8373     20.0075       87.99
         2       -10.7452    -73.8213    -63.1195    -49.2287      161.09
         3       -45.3632      0.3812    -39.3619    -28.1146      164.71
         4       136.3775      1.8899      7.4980     48.5885       73.60
         5        75.0460    -21.7844      8.1793     20.4803       77.32
         6        -0.7495      2.6472     -0.1758      0.5740       77.74
 1/2[<0|r|b>*<b|rxdel|0> + (<0|rxdel|b>*<b|r|0>)*]
 Rotatory Strengths (R) in cgs (10**-40 erg-esu-cm/Gauss)
       state          XX          YY          ZZ     R(length)
         1       115.4085      1.4720    -51.7904     21.6967
         2      -130.7693     -7.9762    -14.1849    -50.9768
         3         0.1445    -89.9407      2.5073    -29.0963
         4        -3.7561    135.4159     26.7212     52.7937
         5       -35.4984     94.3953      1.5446     20.1472
         6         1.4415     -1.9182      0.5100      0.0111
  1/2[<0|del|b>*<b|r|0> + (<0|r|b>*<b|del|0>)*] (Au)
       state          X           Y           Z        Dip. S.   Osc.(frdel)
         1        -0.3602     -0.0015     -0.0003      0.3621      0.2414
         2        -0.0081     -0.0002     -0.0003      0.0086      0.0058
         3        -0.0000     -0.0026     -0.0001      0.0028      0.0019
         4        -0.0013     -0.7100     -0.0016      0.7129      0.4753
         5        -0.0138     -0.3493     -0.0000      0.3632      0.2421
         6        -0.0004     -0.0065     -0.0009      0.0078      0.0052

 Excitation energies and oscillator strengths:
 
 Excited State   1:      Singlet-A      3.2733 eV  378.77 nm  f=0.2497  <S**2>=0.000
      52 -> 53         0.69698
 
 Excited State   2:      Singlet-A      3.7211 eV  333.20 nm  f=0.0059  <S**2>=0.000
      51 -> 53         0.60475
      51 -> 54        -0.30586
 This state for optimization and/or second-order correction.
 Total Energy, E(TD-HF/TD-DFT) =  -633.188495392    
 Copying the excited state density for this state as the 1-particle RhoCI density.
 
 Excited State   3:      Singlet-A      4.2426 eV  292.23 nm  f=0.0021  <S**2>=0.000
      49 -> 53         0.11968
      49 -> 54         0.10338
      50 -> 53         0.52394
      50 -> 54         0.38649
      50 -> 58         0.11788
      51 -> 54         0.12472
 
 Excited State   4:      Singlet-A      4.9775 eV  249.09 nm  f=0.4992  <S**2>=0.000
      49 -> 53        -0.15574
      52 -> 54         0.68186
 
 Excited State   5:      Singlet-A      5.4448 eV  227.71 nm  f=0.2452  <S**2>=0.000
      49 -> 53         0.65465
      50 -> 53        -0.18018
      52 -> 54         0.15476
 
 Excited State   6:      Singlet-A      6.1221 eV  202.52 nm  f=0.0052  <S**2>=0.000
      52 -> 55         0.66370
      52 -> 56         0.12760
 SavETr:  write IOETrn=   770 NScale= 10 NData=  16 NLR=1 NState=    6 LETran=     118.
 The selected state is a singlet.
 CISGrd: IGrad=1 NXY=2 DFT=T
 CISAX will form     1 AO SS matrices at one time.
 NMat=     1 NSing=     1 JSym2X= 0.
 Leave Link  914 at Sat Jan 24 20:07:52 2026, MaxMem=  2147483648 cpu:            8147.6 elap:             511.0
 (Enter /data/home/wyx/g16/l1002.exe)
 Minotr:  Closed shell wavefunction.
          Computing CIS/TDA/TD derivatives.
          Using Z-Vector for PSCF gradient.
          Skipping F1 and S1 gradient terms here.
 NEqPCM:  Using equilibrium solvation (IEInf=0, Eps=  78.3553, EpsInf=   1.7778)
          Frozen-core window.
          Direct CPHF calculation.
          Differentiating once with respect to electric field.
                with respect to dipole field.
          Electric field/nuclear overlap derivatives assumed to be zero.
          Requested convergence is 1.0D-10 RMS, and 1.0D-09 maximum.
          NewPWx=F KeepS1=T KeepF1=T KeepIn=T MapXYZ=F SortEE=F KeepMc=T.
 Two-electron integral symmetry used by symmetrizing perturbed Fock matrices.
          MDV=    2147483648 using IRadAn=       5.
          Solving linear equations separately, MaxMat=     384.
          There are     1 degrees of freedom in the 1st order CPHF.  IDoFFX=0 NUNeed=     1.
 FoFJK:  IHMeth= 1 ICntrl=       0 DoSepK=T KAlg= 0 I1Cent=           0 FoldK=F
 IRaf=         1 NMat=       1 IRICut=       1 DoRegI=T DoRafI=F ISym2E=-1 IDoP0=0 IntGTp=1.
 FoFCou: FMM=F IPFlag=           0 FMFlag=      100000 FMFlg1=           0
         NFxFlg=           0 DoJE=T BraDBF=F KetDBF=F FulRan=T
         wScrn=  0.000000 ICntrl=       500 IOpCl=  0 I1Cent=           0 NGrid=           0
         NMat0=    1 NMatS0=      1 NMatT0=    0 NMatD0=    1 NMtDS0=    0 NMtDT0=    0
 Petite list used in FoFCou.
 LinEq1:  Iter=  0 NonCon=     1 RMS=9.02D-03 Max=3.85D-01 NDo=     1
 AX will form     1 AO Fock derivatives at one time.
 LinEq1:  Iter=  1 NonCon=     1 RMS=2.28D-03 Max=8.21D-02 NDo=     1
 LinEq1:  Iter=  2 NonCon=     1 RMS=1.51D-03 Max=8.18D-02 NDo=     1
 LinEq1:  Iter=  3 NonCon=     1 RMS=6.29D-04 Max=3.45D-02 NDo=     1
 LinEq1:  Iter=  4 NonCon=     1 RMS=3.25D-04 Max=1.49D-02 NDo=     1
 LinEq1:  Iter=  5 NonCon=     1 RMS=1.69D-04 Max=8.00D-03 NDo=     1
 LinEq1:  Iter=  6 NonCon=     1 RMS=8.16D-05 Max=2.51D-03 NDo=     1
 LinEq1:  Iter=  7 NonCon=     1 RMS=4.70D-05 Max=1.90D-03 NDo=     1
 LinEq1:  Iter=  8 NonCon=     1 RMS=1.99D-05 Max=5.16D-04 NDo=     1
 LinEq1:  Iter=  9 NonCon=     1 RMS=1.47D-05 Max=6.81D-04 NDo=     1
 LinEq1:  Iter= 10 NonCon=     1 RMS=5.89D-06 Max=9.93D-05 NDo=     1
 LinEq1:  Iter= 11 NonCon=     1 RMS=3.61D-06 Max=1.37D-04 NDo=     1
 LinEq1:  Iter= 12 NonCon=     1 RMS=1.30D-06 Max=3.81D-05 NDo=     1
 LinEq1:  Iter= 13 NonCon=     1 RMS=6.22D-07 Max=2.23D-05 NDo=     1
 LinEq1:  Iter= 14 NonCon=     1 RMS=2.38D-07 Max=1.12D-05 NDo=     1
 LinEq1:  Iter= 15 NonCon=     1 RMS=1.23D-07 Max=5.43D-06 NDo=     1
 LinEq1:  Iter= 16 NonCon=     1 RMS=5.22D-08 Max=1.88D-06 NDo=     1
 LinEq1:  Iter= 17 NonCon=     1 RMS=1.66D-08 Max=2.98D-07 NDo=     1
 LinEq1:  Iter= 18 NonCon=     1 RMS=6.97D-09 Max=9.06D-08 NDo=     1
 LinEq1:  Iter= 19 NonCon=     1 RMS=1.91D-09 Max=3.47D-08 NDo=     1
 LinEq1:  Iter= 20 NonCon=     1 RMS=4.79D-10 Max=1.02D-08 NDo=     1
 LinEq1:  Iter= 21 NonCon=     1 RMS=1.93D-10 Max=5.16D-09 NDo=     1
 LinEq1:  Iter= 22 NonCon=     1 RMS=8.13D-11 Max=3.41D-09 NDo=     1
 LinEq1:  Iter= 23 NonCon=     1 RMS=2.59D-11 Max=1.07D-09 NDo=     1
 LinEq1:  Iter= 24 NonCon=     0 RMS=1.26D-11 Max=4.49D-10 NDo=     1
 Linear equations converged to 1.000D-10 1.000D-09 after    24 iterations.
 PCM Corrected Linear-Response - Equilibrium solvation:
 Corrected transition energy               =    3.6239          eV
 Total energy after correction             = -633.192066742     a.u.
 NEqPCM:  Using non-equilibrium solvation (IEInf=1, Eps=  78.3553, EpsInf=   1.7778)
 Inv3:  Mode=1 IEnd=    13457772.
 Iteration    1 A*A^-1 deviation from unit magnitude is 3.77D-15 for   1635.
 Iteration    1 A*A^-1 deviation from orthogonality  is 2.44D-15 for   1947    370.
 Iteration    1 A^-1*A deviation from unit magnitude is 3.77D-15 for   1635.
 Iteration    1 A^-1*A deviation from orthogonality  is 1.75D-15 for   1775    201.
 NEqSol: Computing the dynamic-inertial partition of the PCM polarization charges.
 End of Minotr F.D. properties file   721 does not exist.
 End of Minotr F.D. properties file   722 does not exist.
 End of Minotr F.D. properties file   788 does not exist.
 Leave Link 1002 at Sat Jan 24 20:09:58 2026, MaxMem=  2147483648 cpu:            1974.3 elap:             124.2
 (Enter /data/home/wyx/g16/l601.exe)
 Copying SCF densities to generalized density rwf, IOpCl= 0 IROHF=0.

 **********************************************************************

            Population analysis using the CI density.

 **********************************************************************

 Orbital symmetries:
       Occupied  (A) (A) (A) (A) (A) (A) (A) (A) (A) (A) (A) (A)
                 (A) (A) (A) (A) (A) (A) (A) (A) (A) (A) (A) (A)
                 (A) (A) (A) (A) (A) (A) (A) (A) (A) (A) (A) (A)
                 (A) (A) (A) (A) (A) (A) (A) (A) (A) (A) (A) (A)
                 (A) (A) (A) (A)
       Virtual   (A) (A) (A) (A) (A) (A) (A) (A) (A) (A) (A) (A)
                 (A) (A) (A) (A) (A) (A) (A) (A) (A) (A) (A) (A)
                 (A) (A) (A) (A) (A) (A) (A) (A) (A) (A) (A) (A)
                 (A) (A) (A) (A) (A) (A) (A) (A) (A) (A) (A) (A)
                 (A) (A) (A) (A) (A) (A) (A) (A) (A) (A) (A) (A)
                 (A) (A) (A) (A) (A) (A) (A) (A) (A) (A) (A) (A)
                 (A) (A) (A) (A) (A) (A) (A) (A) (A) (A) (A) (A)
                 (A) (A) (A) (A) (A) (A) (A) (A) (A) (A) (A) (A)
                 (A) (A) (A) (A) (A) (A) (A) (A) (A) (A) (A) (A)
                 (A) (A) (A) (A) (A) (A) (A) (A) (A) (A) (A) (A)
                 (A) (A) (A) (A) (A) (A) (A) (A) (A) (A) (A) (A)
                 (A) (A) (A) (A) (A) (A) (A) (A) (A) (A) (A) (A)
                 (A) (A) (A) (A) (A) (A) (A) (A) (A) (A) (A) (A)
                 (A) (A) (A) (A) (A) (A) (A) (A) (A) (A) (A) (A)
                 (A) (A) (A) (A) (A) (A) (A) (A) (A) (A) (A) (A)
                 (A) (A) (A) (A) (A) (A) (A) (A) (A) (A) (A) (A)
                 (A) (A) (A) (A) (A) (A) (A) (A) (A) (A) (A) (A)
                 (A) (A) (A) (A) (A) (A) (A) (A) (A) (A) (A) (A)
                 (A) (A) (A) (A) (A) (A) (A) (A) (A) (A) (A) (A)
                 (A) (A) (A) (A) (A) (A) (A) (A) (A) (A) (A) (A)
                 (A) (A) (A) (A) (A) (A) (A) (A) (A) (A) (A) (A)
                 (A) (A) (A) (A) (A) (A) (A) (A) (A) (A) (A) (A)
                 (A) (A) (A) (A) (A) (A) (A) (A) (A) (A) (A) (A)
                 (A) (A) (A) (A) (A) (A) (A) (A) (A) (A) (A) (A)
                 (A) (A) (A) (A) (A) (A) (A) (A) (A) (A) (A) (A)
                 (A) (A) (A) (A)
 The electronic state is 1-A.
 Alpha  occ. eigenvalues --  -19.17866 -19.16960 -14.44313 -10.33396 -10.33365
 Alpha  occ. eigenvalues --  -10.32247 -10.32203 -10.25668 -10.25106 -10.25082
 Alpha  occ. eigenvalues --  -10.25060 -10.24420 -10.24093 -10.23839  -1.11885
 Alpha  occ. eigenvalues --   -1.09826  -1.07725  -0.91473  -0.90576  -0.83915
 Alpha  occ. eigenvalues --   -0.82498  -0.81480  -0.78729  -0.74258  -0.71489
 Alpha  occ. eigenvalues --   -0.69088  -0.62030  -0.58465  -0.56934  -0.55151
 Alpha  occ. eigenvalues --   -0.54676  -0.54206  -0.52493  -0.51854  -0.50672
 Alpha  occ. eigenvalues --   -0.49770  -0.49364  -0.49073  -0.48396  -0.48269
 Alpha  occ. eigenvalues --   -0.46667  -0.45259  -0.44643  -0.43566  -0.42986
 Alpha  occ. eigenvalues --   -0.42434  -0.41895  -0.41145  -0.33010  -0.32301
 Alpha  occ. eigenvalues --   -0.31099  -0.26333
 Alpha virt. eigenvalues --   -0.03097   0.01973   0.06572   0.08330   0.08800
 Alpha virt. eigenvalues --    0.10208   0.10671   0.11970   0.12695   0.13666
 Alpha virt. eigenvalues --    0.14158   0.15542   0.15691   0.16566   0.16711
 Alpha virt. eigenvalues --    0.17487   0.17643   0.17894   0.18230   0.19096
 Alpha virt. eigenvalues --    0.19896   0.20891   0.22636   0.23275   0.23893
 Alpha virt. eigenvalues --    0.24440   0.24717   0.25475   0.25797   0.26386
 Alpha virt. eigenvalues --    0.27449   0.27823   0.28812   0.29660   0.30036
 Alpha virt. eigenvalues --    0.31418   0.32047   0.32660   0.33702   0.34747
 Alpha virt. eigenvalues --    0.35315   0.35817   0.36916   0.37705   0.38099
 Alpha virt. eigenvalues --    0.39618   0.41231   0.41746   0.42191   0.43041
 Alpha virt. eigenvalues --    0.44132   0.44725   0.45302   0.46239   0.46392
 Alpha virt. eigenvalues --    0.46831   0.48174   0.48203   0.48605   0.48932
 Alpha virt. eigenvalues --    0.49536   0.49887   0.50687   0.51459   0.51983
 Alpha virt. eigenvalues --    0.52003   0.52841   0.53447   0.53798   0.54394
 Alpha virt. eigenvalues --    0.54707   0.55657   0.55830   0.56851   0.58028
 Alpha virt. eigenvalues --    0.58721   0.59231   0.59685   0.61583   0.62292
 Alpha virt. eigenvalues --    0.63759   0.64666   0.66105   0.67052   0.67891
 Alpha virt. eigenvalues --    0.69751   0.70678   0.71278   0.71457   0.72579
 Alpha virt. eigenvalues --    0.73402   0.74701   0.75562   0.76843   0.78624
 Alpha virt. eigenvalues --    0.79413   0.80308   0.81373   0.85064   0.86473
 Alpha virt. eigenvalues --    0.88491   0.89835   0.96120   1.00938   1.23849
 Alpha virt. eigenvalues --    1.24482   1.26922   1.28102   1.29870   1.30795
 Alpha virt. eigenvalues --    1.32754   1.33066   1.34080   1.35780   1.36054
 Alpha virt. eigenvalues --    1.37363   1.37680   1.38603   1.39483   1.39680
 Alpha virt. eigenvalues --    1.40144   1.40970   1.41087   1.41816   1.42118
 Alpha virt. eigenvalues --    1.42839   1.43896   1.44410   1.45076   1.46704
 Alpha virt. eigenvalues --    1.48000   1.49492   1.49768   1.50853   1.51743
 Alpha virt. eigenvalues --    1.51789   1.52647   1.53484   1.55729   1.57291
 Alpha virt. eigenvalues --    1.58457   1.60254   1.60621   1.61405   1.61850
 Alpha virt. eigenvalues --    1.62885   1.63199   1.64470   1.65522   1.65819
 Alpha virt. eigenvalues --    1.66406   1.67111   1.67337   1.68720   1.68827
 Alpha virt. eigenvalues --    1.69335   1.70153   1.71122   1.72101   1.73408
 Alpha virt. eigenvalues --    1.73883   1.74347   1.75893   1.76879   1.79827
 Alpha virt. eigenvalues --    1.80711   1.83062   1.84590   1.85402   1.86248
 Alpha virt. eigenvalues --    1.86645   1.86814   1.88169   1.89748   1.90143
 Alpha virt. eigenvalues --    1.91574   1.93580   1.96479   1.98469   2.00906
 Alpha virt. eigenvalues --    2.01447   2.04308   2.05340   2.06940   2.09690
 Alpha virt. eigenvalues --    2.10937   2.14110   2.14178   2.18471   2.20003
 Alpha virt. eigenvalues --    2.21045   2.22584   2.23079   2.24119   2.25164
 Alpha virt. eigenvalues --    2.27427   2.28844   2.29812   2.31514   2.32407
 Alpha virt. eigenvalues --    2.34162   2.34610   2.36271   2.37655   2.39045
 Alpha virt. eigenvalues --    2.40438   2.40710   2.41188   2.44244   2.45017
 Alpha virt. eigenvalues --    2.45500   2.47881   2.48860   2.50036   2.51460
 Alpha virt. eigenvalues --    2.52868   2.53556   2.54287   2.56235   2.57802
 Alpha virt. eigenvalues --    2.58457   2.59919   2.60867   2.61842   2.63273
 Alpha virt. eigenvalues --    2.63871   2.66130   2.66698   2.67756   2.68510
 Alpha virt. eigenvalues --    2.69606   2.72190   2.72606   2.73806   2.74949
 Alpha virt. eigenvalues --    2.76486   2.76954   2.77474   2.78254   2.78943
 Alpha virt. eigenvalues --    2.79891   2.81231   2.83352   2.84603   2.85163
 Alpha virt. eigenvalues --    2.85809   2.86851   2.88305   2.89546   2.92786
 Alpha virt. eigenvalues --    2.97761   2.98609   2.99298   3.04406   3.09576
 Alpha virt. eigenvalues --    3.09801   3.11159   3.13509   3.18859   3.20033
 Alpha virt. eigenvalues --    3.21658   3.22405   3.23140   3.25074   3.26081
 Alpha virt. eigenvalues --    3.27024   3.29791   3.31817   3.35219   3.37362
 Alpha virt. eigenvalues --    3.38870   3.39433   3.40065   3.41014   3.41105
 Alpha virt. eigenvalues --    3.42056   3.44342   3.45366   3.46756   3.49772
 Alpha virt. eigenvalues --    3.50187   3.51446   3.54373   3.57624   3.59199
 Alpha virt. eigenvalues --    3.60985   3.90953   3.99648   4.31441   4.34989
 Alpha virt. eigenvalues --   21.63687  21.77045  22.05899  22.10248  22.11474
 Alpha virt. eigenvalues --   22.12806  22.15763  22.18278  22.21010  22.26145
 Alpha virt. eigenvalues --   22.30937  31.93205  43.63312  43.65553
          Condensed to atoms (all electrons):
               1          2          3          4          5          6
     1  O    7.975120   0.000000  -0.000217   0.000018   0.018011   0.016711
     2  O    0.000000   8.024162   0.000814   0.000028  -0.077684   0.000306
     3  N   -0.000217   0.000814   6.377909   0.374082  -0.081816   0.413125
     4  H    0.000018   0.000028   0.374082   0.405685   0.013358  -0.044321
     5  C    0.018011  -0.077684  -0.081816   0.013358   6.031399  -0.079748
     6  C    0.016711   0.000306   0.413125  -0.044321  -0.079748   5.569566
     7  C   -0.000240   0.016951   0.295780  -0.045236   0.282136  -0.098722
     8  C   -0.000210   0.263446   0.012968  -0.001354   0.392800   0.021459
     9  C   -0.020518   0.012875   0.010036   0.000319  -0.537411  -0.110841
    10  H    0.005351  -0.000145   0.003453   0.000029  -0.016007  -0.011147
    11  H    0.014820  -0.000207  -0.001161   0.000007  -0.117226   0.022236
    12  C   -0.248336  -0.001336  -0.113662   0.017899   0.246413  -0.150381
    13  C    0.733525   0.000026  -0.000965   0.000510   0.075971   0.155560
    14  C   -0.000011  -0.015484  -0.043972  -0.000454  -0.028049  -0.003108
    15  H    0.000000  -0.000250   0.003275  -0.000005   0.011670   0.001155
    16  H    0.000000  -0.001261   0.000782   0.000424  -0.018879   0.002112
    17  H    0.000000   0.015960   0.004276   0.000736   0.022290  -0.000292
    18  C   -0.000241  -0.052771  -0.000257   0.000015   0.003861  -0.002063
    19  H   -0.000002   0.004981   0.000004  -0.000001   0.000245   0.000130
    20  H   -0.000005   0.003040  -0.000026  -0.000000  -0.014658  -0.000022
    21  H    0.000385   0.003105   0.000029   0.000000   0.000752  -0.000616
    22  C   -0.116996   0.000000   0.000212   0.000117   0.002608  -0.009467
    23  H    0.004488  -0.000000   0.000010  -0.000052  -0.000462  -0.029746
    24  H    0.002075  -0.000000   0.000045  -0.000018  -0.000083   0.011176
    25  H    0.009996   0.000000   0.000030  -0.000003  -0.000142  -0.001509
    26  C    0.000881   0.000006  -0.030879  -0.008875  -0.003431   0.183832
    27  H   -0.000216   0.000000   0.001023   0.000901  -0.000165  -0.052262
    28  H   -0.000037   0.000000  -0.003725   0.000544   0.000696  -0.034913
    29  H    0.000024  -0.000000   0.002150   0.001630  -0.000291  -0.050120
               7          8          9         10         11         12
     1  O   -0.000240  -0.000210  -0.020518   0.005351   0.014820  -0.248336
     2  O    0.016951   0.263446   0.012875  -0.000145  -0.000207  -0.001336
     3  N    0.295780   0.012968   0.010036   0.003453  -0.001161  -0.113662
     4  H   -0.045236  -0.001354   0.000319   0.000029   0.000007   0.017899
     5  C    0.282136   0.392800  -0.537411  -0.016007  -0.117226   0.246413
     6  C   -0.098722   0.021459  -0.110841  -0.011147   0.022236  -0.150381
     7  C    5.542710  -0.129906  -0.052072  -0.010021   0.015839  -0.045029
     8  C   -0.129906   5.368514  -0.012506  -0.008140  -0.005515  -0.035403
     9  C   -0.052072  -0.012506   6.556419   0.379779   0.543129  -0.223460
    10  H   -0.010021  -0.008140   0.379779   0.557786  -0.040090  -0.008354
    11  H    0.015839  -0.005515   0.543129  -0.040090   0.511116  -0.107141
    12  C   -0.045029  -0.035403  -0.223460  -0.008354  -0.107141   7.575122
    13  C    0.013902  -0.004229  -0.269243  -0.001448   0.001660  -0.448699
    14  C    0.175309  -0.058818   0.018283  -0.000982   0.000304   0.002190
    15  H   -0.060039   0.002717  -0.003295   0.000162  -0.000013   0.001387
    16  H   -0.036479   0.006070   0.001787  -0.000075   0.000072  -0.002077
    17  H   -0.054368  -0.044100   0.003623  -0.000016  -0.000051  -0.001010
    18  C    0.007957   0.206461  -0.014733  -0.010010  -0.001209   0.005534
    19  H    0.003150  -0.041201   0.000754  -0.000253   0.000660  -0.001524
    20  H   -0.004061  -0.051846  -0.003627   0.001031  -0.000945   0.002547
    21  H    0.003697  -0.052309  -0.001200   0.001106  -0.006440   0.001456
    22  C    0.000515  -0.000064   0.006494   0.001721   0.000654  -0.292305
    23  H   -0.000038   0.000002   0.003035  -0.000144  -0.000046   0.059584
    24  H   -0.000006  -0.000000  -0.002556   0.000170  -0.000127  -0.005367
    25  H    0.000017   0.000001   0.000257  -0.000068  -0.000096   0.027910
    26  C    0.002325   0.000672   0.028931  -0.000708   0.000010  -0.082088
    27  H   -0.000993   0.000011   0.001334  -0.000098   0.000019   0.000309
    28  H   -0.000065  -0.000040  -0.001897  -0.000005   0.000049  -0.018453
    29  H    0.003904  -0.000009  -0.001175   0.000074  -0.000009   0.022487
              13         14         15         16         17         18
     1  O    0.733525  -0.000011   0.000000   0.000000   0.000000  -0.000241
     2  O    0.000026  -0.015484  -0.000250  -0.001261   0.015960  -0.052771
     3  N   -0.000965  -0.043972   0.003275   0.000782   0.004276  -0.000257
     4  H    0.000510  -0.000454  -0.000005   0.000424   0.000736   0.000015
     5  C    0.075971  -0.028049   0.011670  -0.018879   0.022290   0.003861
     6  C    0.155560  -0.003108   0.001155   0.002112  -0.000292  -0.002063
     7  C    0.013902   0.175309  -0.060039  -0.036479  -0.054368   0.007957
     8  C   -0.004229  -0.058818   0.002717   0.006070  -0.044100   0.206461
     9  C   -0.269243   0.018283  -0.003295   0.001787   0.003623  -0.014733
    10  H   -0.001448  -0.000982   0.000162  -0.000075  -0.000016  -0.010010
    11  H    0.001660   0.000304  -0.000013   0.000072  -0.000051  -0.001209
    12  C   -0.448699   0.002190   0.001387  -0.002077  -0.001010   0.005534
    13  C    5.498661  -0.000112   0.000027  -0.000052   0.000002   0.000706
    14  C   -0.000112   5.223750   0.413464   0.390121   0.425068   0.002831
    15  H    0.000027   0.413464   0.554850  -0.038360  -0.032124   0.000046
    16  H   -0.000052   0.390121  -0.038360   0.544989  -0.014504  -0.000202
    17  H    0.000002   0.425068  -0.032124  -0.014504   0.504891  -0.001463
    18  C    0.000706   0.002831   0.000046  -0.000202  -0.001463   5.082049
    19  H   -0.000037  -0.000866  -0.000018   0.000062   0.000660   0.378048
    20  H   -0.000026   0.000309   0.000014  -0.000081  -0.000282   0.422359
    21  H    0.000767  -0.000223  -0.000006   0.000018   0.000069   0.416687
    22  C    0.313937  -0.000000   0.000003  -0.000003  -0.000000   0.000007
    23  H   -0.083354   0.000001  -0.000000   0.000001   0.000000   0.000002
    24  H   -0.031778  -0.000001   0.000000  -0.000000  -0.000000  -0.000001
    25  H   -0.047311   0.000001  -0.000000   0.000000  -0.000000   0.000000
    26  C   -0.055957   0.001019  -0.000674   0.000294   0.000095  -0.000002
    27  H   -0.007920   0.000095  -0.000028   0.000014   0.000001   0.000001
    28  H    0.007242  -0.000113   0.000040  -0.000061  -0.000003  -0.000001
    29  H    0.000066  -0.000121   0.000129  -0.000034  -0.000009   0.000000
              19         20         21         22         23         24
     1  O   -0.000002  -0.000005   0.000385  -0.116996   0.004488   0.002075
     2  O    0.004981   0.003040   0.003105   0.000000  -0.000000  -0.000000
     3  N    0.000004  -0.000026   0.000029   0.000212   0.000010   0.000045
     4  H   -0.000001  -0.000000   0.000000   0.000117  -0.000052  -0.000018
     5  C    0.000245  -0.014658   0.000752   0.002608  -0.000462  -0.000083
     6  C    0.000130  -0.000022  -0.000616  -0.009467  -0.029746   0.011176
     7  C    0.003150  -0.004061   0.003697   0.000515  -0.000038  -0.000006
     8  C   -0.041201  -0.051846  -0.052309  -0.000064   0.000002  -0.000000
     9  C    0.000754  -0.003627  -0.001200   0.006494   0.003035  -0.002556
    10  H   -0.000253   0.001031   0.001106   0.001721  -0.000144   0.000170
    11  H    0.000660  -0.000945  -0.006440   0.000654  -0.000046  -0.000127
    12  C   -0.001524   0.002547   0.001456  -0.292305   0.059584  -0.005367
    13  C   -0.000037  -0.000026   0.000767   0.313937  -0.083354  -0.031778
    14  C   -0.000866   0.000309  -0.000223  -0.000000   0.000001  -0.000001
    15  H   -0.000018   0.000014  -0.000006   0.000003  -0.000000   0.000000
    16  H    0.000062  -0.000081   0.000018  -0.000003   0.000001  -0.000000
    17  H    0.000660  -0.000282   0.000069  -0.000000   0.000000  -0.000000
    18  C    0.378048   0.422359   0.416687   0.000007   0.000002  -0.000001
    19  H    0.564248  -0.047934  -0.019909  -0.000001   0.000000  -0.000000
    20  H   -0.047934   0.553042  -0.030302   0.000002  -0.000000   0.000000
    21  H   -0.019909  -0.030302   0.500335   0.000030  -0.000000  -0.000000
    22  C   -0.000001   0.000002   0.000030   5.443524   0.390465   0.403840
    23  H    0.000000  -0.000000  -0.000000   0.390465   0.544781  -0.028302
    24  H   -0.000000   0.000000  -0.000000   0.403840  -0.028302   0.500105
    25  H    0.000000  -0.000000  -0.000000   0.380573  -0.021146  -0.008728
    26  C    0.000001  -0.000003  -0.000006  -0.035922   0.017701  -0.015366
    27  H    0.000000  -0.000000   0.000000   0.009372  -0.008895  -0.002039
    28  H   -0.000000   0.000000  -0.000000  -0.011724  -0.002314   0.001586
    29  H   -0.000000   0.000000   0.000000   0.001874   0.000715   0.000210
              25         26         27         28         29
     1  O    0.009996   0.000881  -0.000216  -0.000037   0.000024
     2  O    0.000000   0.000006   0.000000   0.000000  -0.000000
     3  N    0.000030  -0.030879   0.001023  -0.003725   0.002150
     4  H   -0.000003  -0.008875   0.000901   0.000544   0.001630
     5  C   -0.000142  -0.003431  -0.000165   0.000696  -0.000291
     6  C   -0.001509   0.183832  -0.052262  -0.034913  -0.050120
     7  C    0.000017   0.002325  -0.000993  -0.000065   0.003904
     8  C    0.000001   0.000672   0.000011  -0.000040  -0.000009
     9  C    0.000257   0.028931   0.001334  -0.001897  -0.001175
    10  H   -0.000068  -0.000708  -0.000098  -0.000005   0.000074
    11  H   -0.000096   0.000010   0.000019   0.000049  -0.000009
    12  C    0.027910  -0.082088   0.000309  -0.018453   0.022487
    13  C   -0.047311  -0.055957  -0.007920   0.007242   0.000066
    14  C    0.000001   0.001019   0.000095  -0.000113  -0.000121
    15  H   -0.000000  -0.000674  -0.000028   0.000040   0.000129
    16  H    0.000000   0.000294   0.000014  -0.000061  -0.000034
    17  H   -0.000000   0.000095   0.000001  -0.000003  -0.000009
    18  C    0.000000  -0.000002   0.000001  -0.000001   0.000000
    19  H    0.000000   0.000001   0.000000  -0.000000  -0.000000
    20  H   -0.000000  -0.000003  -0.000000   0.000000   0.000000
    21  H   -0.000000  -0.000006   0.000000  -0.000000   0.000000
    22  C    0.380573  -0.035922   0.009372  -0.011724   0.001874
    23  H   -0.021146   0.017701  -0.008895  -0.002314   0.000715
    24  H   -0.008728  -0.015366  -0.002039   0.001586   0.000210
    25  H    0.504824   0.001940   0.000853   0.000083  -0.000052
    26  C    0.001940   5.259796   0.425870   0.428513   0.388453
    27  H    0.000853   0.425870   0.524896  -0.031154  -0.026789
    28  H    0.000083   0.428513  -0.031154   0.489346  -0.016252
    29  H   -0.000052   0.388453  -0.026789  -0.016252   0.521488
 Mulliken charges:
               1
     1  O   -0.394375
     2  O   -0.196563
     3  N   -0.223323
     4  H    0.284016
     5  C   -0.126159
     6  C    0.281910
     7  C    0.173085
     8  C    0.170527
     9  C   -0.312524
    10  H    0.157050
    11  H    0.169703
    12  C   -0.178215
    13  C    0.148572
    14  C   -0.500431
    15  H    0.145873
    16  H    0.165323
    17  H    0.170551
    18  C   -0.443609
    19  H    0.158802
    20  H    0.171474
    21  H    0.182574
    22  C   -0.489466
    23  H    0.153716
    24  H    0.175166
    25  H    0.152572
    26  C   -0.506426
    27  H    0.165861
    28  H    0.192659
    29  H    0.151657
 Sum of Mulliken charges =   0.00000
 Mulliken charges with hydrogens summed into heavy atoms:
               1
     1  O   -0.394375
     2  O   -0.196563
     3  N    0.060693
     5  C   -0.126159
     6  C    0.281910
     7  C    0.173085
     8  C    0.170527
     9  C    0.014228
    12  C   -0.178215
    13  C    0.148572
    14  C   -0.018683
    18  C    0.069241
    22  C   -0.008012
    26  C    0.003751
 Electronic spatial extent (au):  <R**2>=           3205.4175
 Charge=             -0.0000 electrons
 Dipole moment (field-independent basis, Debye):
    X=             -0.4109    Y=              6.6891    Z=             -0.0221  Tot=              6.7017
 Quadrupole moment (field-independent basis, Debye-Ang):
   XX=            -87.3108   YY=            -79.2233   ZZ=            -86.0008
   XY=            -16.0319   XZ=             -2.5978   YZ=             -0.8742
 Traceless Quadrupole moment (field-independent basis, Debye-Ang):
   XX=             -3.1325   YY=              4.9550   ZZ=             -1.8225
   XY=            -16.0319   XZ=             -2.5978   YZ=             -0.8742
 Octapole moment (field-independent basis, Debye-Ang**2):
  XXX=            -46.7101  YYY=             58.9456  ZZZ=              2.0785  XYY=             44.2300
  XXY=             21.7402  XXZ=             -3.7191  XZZ=             -2.1608  YZZ=             -1.3949
  YYZ=              0.6373  XYZ=              3.2281
 Hexadecapole moment (field-independent basis, Debye-Ang**3):
 XXXX=          -2885.8300 YYYY=          -1275.6889 ZZZZ=           -142.4019 XXXY=            -84.2252
 XXXZ=            -27.8949 YYYX=           -110.1297 YYYZ=            -14.8174 ZZZX=              3.9367
 ZZZY=              3.5145 XXYY=           -686.6826 XXZZ=           -491.8302 YYZZ=           -239.7884
 XXYZ=             -3.4181 YYXZ=             -7.3782 ZZXY=             -1.9099
 N-N= 8.996614504570D+02 E-N=-3.275525088432D+03  KE= 6.307553857247D+02
 No NMR shielding tensors so no spin-rotation constants.
 Leave Link  601 at Sat Jan 24 20:09:58 2026, MaxMem=  2147483648 cpu:               1.8 elap:               0.1
 (Enter /data/home/wyx/g16/l9999.exe)
 Electronic transition elements 
                 1             2             3             4             5 
      1  -0.633205D+03 -0.633188D+03 -0.633169D+03 -0.633142D+03 -0.633125D+03
      2   0.165361D+01 -0.229769D+00  0.403073D-01  0.630380D+00 -0.202055D+00
      3   0.496632D+00 -0.459333D-01 -0.130646D+00 -0.192174D+01  0.133965D+01
      4   0.364807D+00 -0.978951D-01 -0.334587D-01  0.525174D-01 -0.541850D-01
      5  -0.191755D+00  0.313300D-01 -0.523820D-02 -0.105444D+00  0.417259D-01
      6  -0.592383D-01  0.686764D-02  0.193630D-01  0.336075D+00 -0.264381D+00
      7  -0.426294D-01  0.115487D-01  0.166992D-02 -0.111989D-01  0.103009D-01
      8  -0.360800D+00 -0.714070D+00  0.319441D+00 -0.164887D+00  0.245227D+00
      9   0.103996D-01 -0.207814D-01 -0.888042D+00  0.715696D-01 -0.333504D-01
     10   0.136899D+01 -0.523345D+00  0.163181D+00  0.333483D+00 -0.161611D+00
     11  -0.744995D-01  0.219620D-01 -0.694053D-01 -0.134747D+01  0.409479D+00
     12   0.256428D+00 -0.756616D-01  0.289133D-01  0.282340D+00 -0.257399D+00
     13   0.356265D-02 -0.264062D-02  0.634706D-02 -0.577546D-01 -0.124051D-01
     14   0.544918D+00 -0.728808D-01  0.106628D-01 -0.397508D+00  0.278727D+00
     15   0.208684D-01 -0.154769D-01  0.617349D-01 -0.342609D+00  0.114661D+00
     16   0.127630D+00 -0.811359D-01  0.227782D-01 -0.838203D-01  0.140756D+00
                 6 
      1  -0.633100D+03
      2  -0.149314D-01
      3   0.180757D+00
      4  -0.400358D-01
      5  -0.262293D-02
      6  -0.373540D-01
      7   0.277728D-01
      8  -0.540334D-01
      9  -0.211537D-02
     10   0.117771D-01
     11  -0.255936D+00
     12  -0.181196D+00
     13   0.136147D+00
     14   0.837337D-02
     15  -0.684624D-01
     16  -0.104432D+00
 1\1\GINC-CN015\SP\RCAM-B3LYP TD-FC\TZVP\C11H15N1O2\WYX\24-Jan-2026\0\\
 #p CAM-B3LYP TZVP em=gd3bj td(nstates=6,root=2) scrf=(Solvent=Water,Co
 rrectedLR,NonEquilibrium=Save) Geom=Check Guess=Read\\Title Card Requi
 red\\0,1\O,0,2.757988,-1.556846,0.697942\O,0,-3.318432,-1.658458,-0.91
 9099\N,0,-0.679008,1.522195,0.015791\H,0,-0.986691,2.477782,-0.059774\
 C,0,-1.240545,-0.764858,-0.163619\C,0,0.656772,1.309271,0.210153\C,0,-
 1.609855,0.53875,-0.261129\C,0,-2.152406,-1.82488,-0.46128\C,0,0.14235
 7,-1.120184,0.325722\H,0,0.091423,-1.527928,1.342268\H,0,0.559703,-1.9
 19262,-0.286436\C,0,1.115198,0.035804,0.310449\C,0,2.5026,-0.374418,0.
 469468\C,0,-2.942056,1.071888,-0.644132\H,0,-3.214333,1.94351,-0.04320
 2\H,0,-2.966862,1.376836,-1.692792\H,0,-3.752151,0.356231,-0.520849\C,
 0,-1.793861,-3.260932,-0.229849\H,0,-2.638627,-3.875619,0.084155\H,0,-
 1.403977,-3.715366,-1.145791\H,0,-1.022193,-3.401523,0.52573\C,0,3.664
 84,0.57792,0.336114\H,0,3.560651,1.264677,-0.499761\H,0,3.784878,1.168
 252,1.245542\H,0,4.561771,-0.021814,0.202152\C,0,1.435664,2.587414,0.2
 79899\H,0,2.192886,2.568609,1.055322\H,0,1.924335,2.801646,-0.670939\H
 ,0,0.769929,3.421304,0.497944\\Version=ES64L-G16RevA.03\State=1-A\HF=-
 633.3252422\RMSD=1.971e-09\Dipole=-0.7398575,2.5240633,-0.1834069\Quad
 rupole=-8.2561673,10.7095956,-2.4534283,6.9802498,-3.5131921,1.0642145
 \PG=C01 [X(C11H15N1O2)]\\@


 IT PROBABLY IS NOT POSSIBLE FOR A SCIENTIST TO INTERROGATE NATURE 
 FROM A WHOLLY DISINTERESTED VIEWPOINT.
 EVEN IF HE HAS NO PARTICULAR AXE TO GRIND, HE IS LIKELY TO HAVE 
 A DISTINCTIVE WAY OF VIEWING NATURE.

                                                   -- JOHN LOSEE
 Job cpu time:       0 days  2 hours 50 minutes 20.0 seconds.
 Elapsed time:       0 days  0 hours 10 minutes 41.9 seconds.
 File lengths (MBytes):  RWF=    735 Int=      0 D2E=      0 Chk=     67 Scr=      1
 Normal termination of Gaussian 16 at Sat Jan 24 20:10:00 2026.
