 Entering Gaussian System, Link 0=g16
 Input=DDL-S1-cLR-gs-12.gjf
 Output=DDL-S1-cLR-gs-12.log
 Initial command:
 /data/home/wyx/g16/l1.exe "/scr/tmp/wyx/13119/Gau-1530788.inp" -scrdir="/scr/tmp/wyx/13119/"
 Entering Link 1 = /data/home/wyx/g16/l1.exe PID=   1530789.
  
 Copyright (c) 1988,1990,1992,1993,1995,1998,2003,2009,2016,
            Gaussian, Inc.  All Rights Reserved.
  
 This is part of the Gaussian(R) 16 program.  It is based on
 the Gaussian(R) 09 system (copyright 2009, Gaussian, Inc.),
 the Gaussian(R) 03 system (copyright 2003, Gaussian, Inc.),
 the Gaussian(R) 98 system (copyright 1998, Gaussian, Inc.),
 the Gaussian(R) 94 system (copyright 1995, Gaussian, Inc.),
 the Gaussian 92(TM) system (copyright 1992, Gaussian, Inc.),
 the Gaussian 90(TM) system (copyright 1990, Gaussian, Inc.),
 the Gaussian 88(TM) system (copyright 1988, Gaussian, Inc.),
 the Gaussian 86(TM) system (copyright 1986, Carnegie Mellon
 University), and the Gaussian 82(TM) system (copyright 1983,
 Carnegie Mellon University). Gaussian is a federally registered
 trademark of Gaussian, Inc.
  
 This software contains proprietary and confidential information,
 including trade secrets, belonging to Gaussian, Inc.
  
 This software is provided under written license and may be
 used, copied, transmitted, or stored only in accord with that
 written license.
  
 The following legend is applicable only to US Government
 contracts under FAR:
  
                    RESTRICTED RIGHTS LEGEND
  
 Use, reproduction and disclosure by the US Government is
 subject to restrictions as set forth in subparagraphs (a)
 and (c) of the Commercial Computer Software - Restricted
 Rights clause in FAR 52.227-19.
  
 Gaussian, Inc.
 340 Quinnipiac St., Bldg. 40, Wallingford CT 06492
  
  
 ---------------------------------------------------------------
 Warning -- This program may not be used in any manner that
 competes with the business of Gaussian, Inc. or will provide
 assistance to any competitor of Gaussian, Inc.  The licensee
 of this program is prohibited from giving any competitor of
 Gaussian, Inc. access to this program.  By using this program,
 the user acknowledges that Gaussian, Inc. is engaged in the
 business of creating and licensing software in the field of
 computational chemistry and represents and warrants to the
 licensee that it is not a competitor of Gaussian, Inc. and that
 it will not use this program in any manner prohibited above.
 ---------------------------------------------------------------
  

 Cite this work as:
 Gaussian 16, Revision A.03,
 M. J. Frisch, G. W. Trucks, H. B. Schlegel, G. E. Scuseria, 
 M. A. Robb, J. R. Cheeseman, G. Scalmani, V. Barone, 
 G. A. Petersson, H. Nakatsuji, X. Li, M. Caricato, A. V. Marenich, 
 J. Bloino, B. G. Janesko, R. Gomperts, B. Mennucci, H. P. Hratchian, 
 J. V. Ortiz, A. F. Izmaylov, J. L. Sonnenberg, D. Williams-Young, 
 F. Ding, F. Lipparini, F. Egidi, J. Goings, B. Peng, A. Petrone, 
 T. Henderson, D. Ranasinghe, V. G. Zakrzewski, J. Gao, N. Rega, 
 G. Zheng, W. Liang, M. Hada, M. Ehara, K. Toyota, R. Fukuda, 
 J. Hasegawa, M. Ishida, T. Nakajima, Y. Honda, O. Kitao, H. Nakai, 
 T. Vreven, K. Throssell, J. A. Montgomery, Jr., J. E. Peralta, 
 F. Ogliaro, M. J. Bearpark, J. J. Heyd, E. N. Brothers, K. N. Kudin, 
 V. N. Staroverov, T. A. Keith, R. Kobayashi, J. Normand, 
 K. Raghavachari, A. P. Rendell, J. C. Burant, S. S. Iyengar, 
 J. Tomasi, M. Cossi, J. M. Millam, M. Klene, C. Adamo, R. Cammi, 
 J. W. Ochterski, R. L. Martin, K. Morokuma, O. Farkas, 
 J. B. Foresman, and D. J. Fox, Gaussian, Inc., Wallingford CT, 2016.
 
 ******************************************
 Gaussian 16:  ES64L-G16RevA.03 25-Dec-2016
                24-Jan-2026 
 ******************************************
 %nprocshared=16
 Will use up to   16 processors via shared memory.
 %mem=16GB
 %oldchk=DDL-S1-cLR-12.chk
 %chk=DDL-S1-cLR-gs-12.chk
 Copying data from "DDL-S1-cLR-12.chk" to current chk file "DDL-S1-cLR-gs-12.chk"
 IOpt=  2 FromEx=T IUOpen= 4 IOptOp= 5 NList=   0 IFRang= 0 IUIn= 4 IUOut= 2.
 ----------------------------------------------------------------------
 #p CAM-B3LYP TZVP em=gd3bj scrf=(Solvent=Water,NonEquilibrium=Read) Ge
 om=Check Guess=Read
 ----------------------------------------------------------------------
 1/29=2,38=1,172=1/1;
 2/12=2,40=1/2;
 3/5=19,7=101,11=2,14=-4,25=1,30=1,70=6002201,72=1,74=-40,116=-2,124=41/1,2,3;
 4/5=1/1;
 5/5=2,38=6,53=1/2;
 6/7=2,8=2,9=2,10=2,28=1/1;
 99/5=1,9=1/99;
 Leave Link    1 at Sat Jan 24 23:38:36 2026, MaxMem=  2147483648 cpu:               0.8 elap:               0.1
 (Enter /data/home/wyx/g16/l101.exe)
 -------------------
 Title Card Required
 -------------------
 Structure from the checkpoint file:  "DDL-S1-cLR-gs-12.chk"
 Charge =  0 Multiplicity = 1
 Z-Matrix found in chk file.
 O,0,2.752819,-1.558423,0.714536
 O,0,-3.271583,-1.647854,-1.027699
 N,0,-0.694759,1.518226,0.077759
 H,0,-1.001005,2.475031,0.010874
 C,0,-1.243798,-0.760528,-0.157247
 C,0,0.649528,1.303463,0.249896
 C,0,-1.613387,0.540424,-0.241145
 C,0,-2.153419,-1.826261,-0.510182
 C,0,0.118796,-1.114629,0.38823
 H,0,0.035008,-1.473102,1.421925
 H,0,0.542304,-1.947697,-0.169951
 C,0,1.103799,0.030494,0.337596
 C,0,2.497544,-0.38275,0.461657
 C,0,-2.939548,1.075219,-0.654313
 H,0,-3.13435,2.046966,-0.196701
 H,0,-2.994408,1.202292,-1.736857
 H,0,-3.764154,0.421081,-0.382928
 C,0,-1.764189,-3.25017,-0.240751
 H,0,-2.628135,-3.911567,-0.192663
 H,0,-1.115871,-3.6297,-1.035619
 H,0,-1.209467,-3.37622,0.689314
 C,0,3.657152,0.559698,0.256052
 H,0,3.506389,1.249979,-0.569631
 H,0,3.838048,1.14504,1.158854
 H,0,4.540033,-0.046037,0.066572
 C,0,1.428075,2.581959,0.311575
 H,0,2.232626,2.543483,1.036267
 H,0,1.853156,2.827622,-0.662359
 H,0,0.772795,3.403962,0.596939
 Recover connectivity data from disk.
 ITRead=  0  0  0  0  0  0  0  0  0  0  0  0  0  0  0  0  0  0  0  0
 ITRead=  0  0  0  0  0  0  0  0  0
 MicOpt= -1 -1 -1 -1 -1 -1 -1 -1 -1 -1 -1 -1 -1 -1 -1 -1 -1 -1 -1 -1
 MicOpt= -1 -1 -1 -1 -1 -1 -1 -1 -1
 NAtoms=     29 NQM=       29 NQMF=       0 NMMI=      0 NMMIF=      0
                NMic=       0 NMicF=      0.
                    Isotopes and Nuclear Properties:
 (Nuclear quadrupole moments (NQMom) in fm**2, nuclear magnetic moments (NMagM)
  in nuclear magnetons)

  Atom         1           2           3           4           5           6           7           8           9          10
 IAtWgt=          16          16          14           1          12          12          12          12          12           1
 AtmWgt=  15.9949146  15.9949146  14.0030740   1.0078250  12.0000000  12.0000000  12.0000000  12.0000000  12.0000000   1.0078250
 NucSpn=           0           0           2           1           0           0           0           0           0           1
 AtZEff=   5.6000000   5.6000000   4.5500000   1.0000000   3.6000000   3.6000000   3.6000000   3.6000000   3.6000000   1.0000000
 NQMom=    0.0000000   0.0000000   2.0440000   0.0000000   0.0000000   0.0000000   0.0000000   0.0000000   0.0000000   0.0000000
 NMagM=    0.0000000   0.0000000   0.4037610   2.7928460   0.0000000   0.0000000   0.0000000   0.0000000   0.0000000   2.7928460
 AtZNuc=   8.0000000   8.0000000   7.0000000   1.0000000   6.0000000   6.0000000   6.0000000   6.0000000   6.0000000   1.0000000

  Atom        11          12          13          14          15          16          17          18          19          20
 IAtWgt=           1          12          12          12           1           1           1          12           1           1
 AtmWgt=   1.0078250  12.0000000  12.0000000  12.0000000   1.0078250   1.0078250   1.0078250  12.0000000   1.0078250   1.0078250
 NucSpn=           1           0           0           0           1           1           1           0           1           1
 AtZEff=   1.0000000   3.6000000   3.6000000   3.6000000   1.0000000   1.0000000   1.0000000   3.6000000   1.0000000   1.0000000
 NQMom=    0.0000000   0.0000000   0.0000000   0.0000000   0.0000000   0.0000000   0.0000000   0.0000000   0.0000000   0.0000000
 NMagM=    2.7928460   0.0000000   0.0000000   0.0000000   2.7928460   2.7928460   2.7928460   0.0000000   2.7928460   2.7928460
 AtZNuc=   1.0000000   6.0000000   6.0000000   6.0000000   1.0000000   1.0000000   1.0000000   6.0000000   1.0000000   1.0000000

  Atom        21          22          23          24          25          26          27          28          29
 IAtWgt=           1          12           1           1           1          12           1           1           1
 AtmWgt=   1.0078250  12.0000000   1.0078250   1.0078250   1.0078250  12.0000000   1.0078250   1.0078250   1.0078250
 NucSpn=           1           0           1           1           1           0           1           1           1
 AtZEff=   1.0000000   3.6000000   1.0000000   1.0000000   1.0000000   3.6000000   1.0000000   1.0000000   1.0000000
 NQMom=    0.0000000   0.0000000   0.0000000   0.0000000   0.0000000   0.0000000   0.0000000   0.0000000   0.0000000
 NMagM=    2.7928460   0.0000000   2.7928460   2.7928460   2.7928460   0.0000000   2.7928460   2.7928460   2.7928460
 AtZNuc=   1.0000000   6.0000000   1.0000000   1.0000000   1.0000000   6.0000000   1.0000000   1.0000000   1.0000000
 Leave Link  101 at Sat Jan 24 23:38:39 2026, MaxMem=  2147483648 cpu:               0.9 elap:               0.1
 (Enter /data/home/wyx/g16/l202.exe)
                          Input orientation:                          
 ---------------------------------------------------------------------
 Center     Atomic      Atomic             Coordinates (Angstroms)
 Number     Number       Type             X           Y           Z
 ---------------------------------------------------------------------
      1          8           0        2.752819   -1.558423    0.714536
      2          8           0       -3.271583   -1.647854   -1.027699
      3          7           0       -0.694759    1.518226    0.077759
      4          1           0       -1.001005    2.475031    0.010874
      5          6           0       -1.243798   -0.760528   -0.157247
      6          6           0        0.649528    1.303463    0.249896
      7          6           0       -1.613387    0.540424   -0.241145
      8          6           0       -2.153419   -1.826261   -0.510182
      9          6           0        0.118796   -1.114629    0.388230
     10          1           0        0.035008   -1.473102    1.421925
     11          1           0        0.542304   -1.947697   -0.169951
     12          6           0        1.103799    0.030494    0.337596
     13          6           0        2.497544   -0.382750    0.461657
     14          6           0       -2.939548    1.075219   -0.654313
     15          1           0       -3.134350    2.046966   -0.196701
     16          1           0       -2.994408    1.202292   -1.736857
     17          1           0       -3.764154    0.421081   -0.382928
     18          6           0       -1.764189   -3.250170   -0.240751
     19          1           0       -2.628135   -3.911567   -0.192663
     20          1           0       -1.115871   -3.629700   -1.035619
     21          1           0       -1.209467   -3.376220    0.689314
     22          6           0        3.657152    0.559698    0.256052
     23          1           0        3.506389    1.249979   -0.569631
     24          1           0        3.838048    1.145040    1.158854
     25          1           0        4.540033   -0.046037    0.066572
     26          6           0        1.428075    2.581959    0.311575
     27          1           0        2.232626    2.543483    1.036267
     28          1           0        1.853156    2.827622   -0.662359
     29          1           0        0.772795    3.403962    0.596939
 ---------------------------------------------------------------------
                    Distance matrix (angstroms):
                    1          2          3          4          5
     1  O    0.000000
     2  O    6.271906   0.000000
     3  N    4.664445   4.229199   0.000000
     4  H    5.554735   4.819994   1.006845   0.000000
     5  C    4.167684   2.378434   2.355715   3.249008   0.000000
     6  C    3.581915   5.071256   1.372174   2.038127   2.830284
     7  C    4.937838   2.856019   1.379012   2.044806   1.355032
     8  C    5.063876   1.244967   3.695803   4.483377   1.444908
     9  C    2.691005   3.712661   2.773119   3.779155   1.509833
    10  H    2.809658   4.118828   3.359670   4.318813   2.153344
    11  H    2.412515   3.920634   3.688402   4.687752   2.144689
    12  C    2.320777   4.881071   2.348547   3.242331   2.526222
    13  C    1.229358   6.091100   3.735222   4.539820   3.810958
    14  C    6.419724   2.768536   2.402345   2.481914   2.548060
    15  H    6.963328   3.789602   2.511274   2.185747   3.384932
    16  H    6.830922   2.950095   2.946359   2.940762   3.067974
    17  H    6.898826   2.222352   3.291982   3.465369   2.792727
    18  C    4.917107   2.336438   4.897217   5.781323   2.544818
    19  H    5.942639   2.497140   5.770071   6.593756   3.441902
    20  H    4.724404   2.928288   5.283757   6.194843   3.003340
    21  H    4.359442   3.191818   4.959287   5.894139   2.749489
    22  C    2.348289   7.384353   4.459786   5.042523   5.092458
    23  H    3.178691   7.385673   4.259192   4.706840   5.174599
    24  H    2.946838   7.945321   4.674866   5.148123   5.584664
    25  H    2.429260   8.048888   5.463524   6.087856   5.832092
    26  C    4.365786   6.463107   2.385922   2.449956   4.304755
    27  H    4.147257   7.219666   3.246455   3.393005   4.942316
    28  H    4.684295   6.813685   2.958744   2.953608   4.766664
    29  H    5.344117   6.672128   2.445253   2.086325   4.688115
                    6          7          8          9         10
     6  C    0.000000
     7  C    2.438059   0.000000
     8  C    4.269590   2.442379   0.000000
     9  C    2.479512   2.477049   2.544902   0.000000
    10  H    3.075809   3.088251   2.940573   1.097292   0.000000
    11  H    3.279910   3.292844   2.719821   1.088544   1.736853
    12  C    1.354438   2.824548   3.843922   1.511324   2.139833
    13  C    2.510641   4.271526   4.965849   2.489876   2.859207
    14  C    3.708255   1.488428   3.009545   3.903306   4.433135
    15  H    3.882007   2.141255   4.007790   4.573925   5.005563
    16  H    4.151589   2.140664   3.374037   4.424495   5.129620
    17  H    4.545289   2.158737   2.767889   4.246221   4.612923
    18  C    5.177097   3.793593   1.500537   2.915782   3.026478
    19  H    6.175392   4.566431   2.162100   3.963071   3.955419
    20  H    5.394931   4.274184   2.145922   3.142822   3.466260
    21  H    5.054541   4.045863   2.175364   2.640024   2.388995
    22  C    3.098230   5.293974   6.327926   3.916734   4.314100
    23  H    2.972565   5.179139   6.442066   4.240832   4.840656
    24  H    3.319332   5.660716   6.892894   4.419593   4.624607
    25  H    4.121988   6.188958   6.950118   4.559900   4.916172
    26  C    1.498163   3.704572   5.738884   3.922353   4.429112
    27  H    2.159219   4.520602   6.381501   4.274344   4.594694
    28  H    2.145691   4.174400   6.142836   4.433180   5.113329
    29  H    2.132541   3.820484   6.094561   4.570442   5.001068
                   11         12         13         14         15
    11  H    0.000000
    12  C    2.118046   0.000000
    13  C    2.582818   1.459002   0.000000
    14  C    4.636369   4.292317   5.738731   0.000000
    15  H    5.429165   4.723721   6.168888   1.091627   0.000000
    16  H    4.988583   4.740439   6.124325   1.091356   1.762140
    17  H    4.919558   4.936464   6.369327   1.086978   1.753521
    18  C    2.649785   4.395748   5.184384   4.501277   5.471648
    19  H    3.729475   5.454205   6.257257   5.017782   5.979999
    20  H    2.515563   4.495517   5.083433   5.060381   6.082974
    21  H    2.418205   4.132869   4.770180   4.961232   5.822469
    22  C    4.021292   2.608892   1.508367   6.679145   6.967169
    23  H    4.378433   2.842999   2.178790   6.448862   6.698782
    24  H    4.710910   3.064767   2.148762   7.016285   7.159981
    25  H    4.433293   3.447755   2.107422   7.597435   7.959028
    26  C    4.640500   2.572121   3.155279   4.720099   4.621719
    27  H    4.948015   2.842095   2.993860   5.636066   5.529120
    28  H    4.976391   3.063555   3.461956   5.103038   5.069662
    29  H    5.411238   3.399575   4.163202   4.557430   4.211542
                   16         17         18         19         20
    16  H    0.000000
    17  H    1.742390   0.000000
    18  C    4.855532   4.183080   0.000000
    19  H    5.354460   4.483144   1.089110   0.000000
    20  H    5.231518   4.883465   1.093698   1.754128   0.000000
    21  H    5.480428   4.700598   1.090241   1.754166   1.745969
    22  C    6.973368   7.450053   6.644761   7.726473   6.480835
    23  H    6.604926   7.320022   6.938191   8.025961   6.737485
    24  H    7.420975   7.790679   7.256847   8.319098   7.221853
    25  H    7.847196   8.329452   7.078427   8.148138   6.785773
    26  C    5.065364   5.666654   6.671532   7.672873   6.846262
    27  H    6.067198   6.517674   7.153441   8.173429   7.322113
    28  H    5.224473   6.117491   7.085372   8.106741   7.116983
    29  H    4.948310   5.517393   7.170459   8.105971   7.463559
                   21         22         23         24         25
    21  H    0.000000
    22  C    6.274006   0.000000
    23  H    6.725025   1.086724   0.000000
    24  H    6.792619   1.091055   1.763142   0.000000
    25  H    6.673431   1.087335   1.775621   1.761967   0.000000
    26  C    6.526807   3.010217   2.621084   2.930970   4.080524
    27  H    6.856476   2.563867   2.423744   2.132616   3.601395
    28  H    7.049421   3.039960   2.287080   3.176113   4.001070
    29  H    7.064613   4.065164   3.670567   3.848929   5.135744
                   26         27         28         29
    26  C    0.000000
    27  H    1.083495   0.000000
    28  H    1.090684   1.763537   0.000000
    29  H    1.089272   1.750583   1.756468   0.000000
 Stoichiometry    C11H15NO2
 Framework group  C1[X(C11H15NO2)]
 Deg. of freedom    81
 Full point group                 C1      NOp   1
 RotChk:  IX=0 Diff= 4.67D-16
 Largest Abelian subgroup         C1      NOp   1
 Largest concise Abelian subgroup C1      NOp   1
                         Standard orientation:                         
 ---------------------------------------------------------------------
 Center     Atomic      Atomic             Coordinates (Angstroms)
 Number     Number       Type             X           Y           Z
 ---------------------------------------------------------------------
      1          8           0       -2.278144   -2.292261   -0.146466
      2          8           0        3.619342   -0.228754    0.399795
      3          7           0       -0.040209    1.799663   -0.216111
      4          1           0       -0.073996    2.805938   -0.218466
      5          6           0        1.289609   -0.139361   -0.070629
      6          6           0       -1.237031    1.134933   -0.123306
      7          6           0        1.199243    1.212654   -0.071700
      8          6           0        2.556982   -0.809435    0.109720
      9          6           0        0.057092   -0.969010   -0.339295
     10          1           0        0.072913   -1.354941   -1.366357
     11          1           0        0.051800   -1.851597    0.297839
     12          6           0       -1.235039   -0.219437   -0.109863
     13          6           0       -2.400825   -1.083567    0.041492
     14          6           0        2.312584    2.189939    0.072530
     15          1           0        2.077330    3.133723   -0.423026
     16          1           0        2.512708    2.408593    1.122863
     17          1           0        3.249017    1.831338   -0.347018
     18          6           0        2.638307   -2.297390   -0.066312
     19          1           0        3.653344   -2.632944   -0.274313
     20          1           0        2.312355   -2.811553    0.842295
     21          1           0        2.004033   -2.671064   -0.870482
     22          6           0       -3.756830   -0.571249    0.458569
     23          1           0       -3.707243    0.189339    1.233176
     24          1           0       -4.285465   -0.149498   -0.397627
     25          1           0       -4.329521   -1.421685    0.820620
     26          6           0       -2.404536    2.070519   -0.045182
     27          1           0       -3.262615    1.710801   -0.600398
     28          1           0       -2.707086    2.231738    0.990223
     29          1           0       -2.133029    3.040716   -0.459326
 ---------------------------------------------------------------------
 Rotational constants (GHZ):           1.0885941           0.4876486           0.3447089
 Leave Link  202 at Sat Jan 24 23:38:39 2026, MaxMem=  2147483648 cpu:               0.0 elap:               0.0
 (Enter /data/home/wyx/g16/l301.exe)
 Standard basis: TZVP (5D, 7F)
 Ernie: Thresh=  0.10000D-02 Tol=  0.10000D-05 Strict=F.
 There are   370 symmetry adapted cartesian basis functions of A   symmetry.
 There are   356 symmetry adapted basis functions of A   symmetry.
   356 basis functions,   610 primitive gaussians,   370 cartesian basis functions
    52 alpha electrons       52 beta electrons
       nuclear repulsion energy       900.3810609039 Hartrees.
 IExCor=20419 DFT=T Ex+Corr=CAM-B3LYP ExCW=0 ScaHFX=  1.000000
 ScaDFX=  1.000000  1.000000  1.000000  0.810000 ScalE2=  1.000000  1.000000
 IRadAn=      5 IRanWt=     -1 IRanGd=            0 ICorTp=0 IEmpDi=141
 HFx  wShort=  0.000000 wLong=  0.330000 cFull=  0.190000 cShort=  0.000000 cLong=  0.460000
 DFx  wShort=  0.000000 wLong=  0.330000 cFull=  0.190000 cShort=  0.000000 cLong=  0.460000
 NAtoms=   29 NActive=   29 NUniq=   29 SFac= 1.00D+00 NAtFMM=   60 NAOKFM=F Big=F
 Integral buffers will be    131072 words long.
 Raffenetti 2 integral format.
 Two-electron integral symmetry is turned on.
 R6Disp:  Grimme-D3(BJ) Dispersion energy=       -0.0261713255 Hartrees.
 Nuclear repulsion after empirical dispersion term =      900.3548895784 Hartrees.
 ------------------------------------------------------------------------------
 Polarizable Continuum Model (PCM)
 =================================
 Model                : PCM.
 Atomic radii         : UFF (Universal Force Field).
 Polarization charges : Total charges.
 Charge compensation  : None.
 Solution method      : On-the-fly selection.
 Cavity type          : Scaled VdW (van der Waals Surface) (Alpha=1.100).
 Cavity algorithm     : GePol (No added spheres)
                        Default sphere list used, NSphG=   29.
                        Lebedev-Laikov grids with approx.  5.0 points / Ang**2.
                        Smoothing algorithm: York/Karplus (Gamma=1.0000).
                        Polarization charges: spherical gaussians, with
                                              point-specific exponents (IZeta= 3).
                        Self-potential: point-specific (ISelfS= 7).
                        Self-field    : sphere-specific E.n sum rule (ISelfD= 2).
 Solvent              : Water, Eps=  78.355300 Eps(inf)=   1.777849
 ------------------------------------------------------------------------------
 GePol: Number of generator spheres                  =      29
 GePol: Total number of spheres                      =      29
 GePol: Number of exposed spheres                    =      29 (100.00%)
 GePol: Number of points                             =    2111
 GePol: Average weight of points                     =       0.13
 GePol: Minimum weight of points                     =   0.58D-10
 GePol: Maximum weight of points                     =    0.20577
 GePol: Number of points with low weight             =     131
 GePol: Fraction of low-weight points (<1% of avg)   =       6.21%
 GePol: Cavity surface area                          =    268.718 Ang**2
 GePol: Cavity volume                                =    286.125 Ang**3
 Leave Link  301 at Sat Jan 24 23:38:39 2026, MaxMem=  2147483648 cpu:               0.6 elap:               0.0
 (Enter /data/home/wyx/g16/l302.exe)
 NPDir=0 NMtPBC=     1 NCelOv=     1 NCel=       1 NClECP=     1 NCelD=      1
         NCelK=      1 NCelE2=     1 NClLst=     1 CellRange=     0.0.
 One-electron integrals computed using PRISM.
 One-electron integral symmetry used in STVInt
 NBasis=   356 RedAO= T EigKep=  4.42D-05  NBF=   356
 NBsUse=   356 1.00D-06 EigRej= -1.00D+00 NBFU=   356
 Precomputing XC quadrature grid using
 IXCGrd= 4 IRadAn=           5 IRanWt=          -1 IRanGd=           0 AccXCQ= 0.00D+00.
 Generated NRdTot=       0 NPtTot=           0 NUsed=           0 NTot=          32
 NSgBfM=   366   366   366   366   366 MxSgAt=    29 MxSgA2=    29.
 Leave Link  302 at Sat Jan 24 23:38:40 2026, MaxMem=  2147483648 cpu:               3.2 elap:               0.2
 (Enter /data/home/wyx/g16/l303.exe)
 DipDrv:  MaxL=1.
 Leave Link  303 at Sat Jan 24 23:38:40 2026, MaxMem=  2147483648 cpu:               0.6 elap:               0.0
 (Enter /data/home/wyx/g16/l401.exe)
 Initial guess from the checkpoint file:  "DDL-S1-cLR-gs-12.chk"
 B after Tr=    -0.000000   -0.000000    0.000000
         Rot=    1.000000    0.000000   -0.000000    0.000000 Ang=   0.00 deg.
 Guess basis will be translated and rotated to current coordinates.
 JPrj=2 DoOrth=T DoCkMO=T.
 Leave Link  401 at Sat Jan 24 23:38:40 2026, MaxMem=  2147483648 cpu:               2.2 elap:               0.2
 (Enter /data/home/wyx/g16/l502.exe)
 Integral symmetry usage will be decided dynamically.
 Closed shell SCF:
 Using DIIS extrapolation, IDIIS=  1040.
 NGot=  2147483648 LenX=  2147200095 LenY=  2147062754
 Requested convergence on RMS density matrix=1.00D-08 within 128 cycles.
 Requested convergence on MAX density matrix=1.00D-06.
 Requested convergence on             energy=1.00D-06.
 No special actions if energy rises.
 Fock matrices will be formed incrementally for  20 cycles.

 Cycle   1  Pass 1  IDiag  1:
 FoFJK:  IHMeth= 1 ICntrl=       0 DoSepK=T KAlg= 0 I1Cent=           0 FoldK=F
 IRaf=         1 NMat=       1 IRICut=       1 DoRegI=T DoRafI=F ISym2E= 0 IDoP0=0 IntGTp=1.
 FoFCou: FMM=F IPFlag=           0 FMFlag=      100000 FMFlg1=           0
         NFxFlg=           0 DoJE=T BraDBF=F KetDBF=F FulRan=T
         wScrn=  0.000000 ICntrl=       500 IOpCl=  0 I1Cent=           0 NGrid=           0
         NMat0=    1 NMatS0=      1 NMatT0=    0 NMatD0=    1 NMtDS0=    0 NMtDT0=    0
 Symmetry not used in FoFCou.
 Inv3:  Mode=1 IEnd=    13368963.
 Iteration    1 A*A^-1 deviation from unit magnitude is 2.66D-15 for    720.
 Iteration    1 A*A^-1 deviation from orthogonality  is 1.63D-15 for   1404    869.
 Iteration    1 A^-1*A deviation from unit magnitude is 2.66D-15 for   1574.
 Iteration    1 A^-1*A deviation from orthogonality  is 3.41D-15 for   1514   1277.
 NEqPCM:  Using non-equilibrium solvation (IEInf=1, Eps=  78.3553, EpsInf=   1.7778)
 Inv3:  Mode=1 IEnd=    13368963.
 Iteration    1 A*A^-1 deviation from unit magnitude is 3.33D-15 for    874.
 Iteration    1 A*A^-1 deviation from orthogonality  is 1.87D-15 for   1908   1463.
 Iteration    1 A^-1*A deviation from unit magnitude is 3.55D-15 for    874.
 Iteration    1 A^-1*A deviation from orthogonality  is 2.44D-15 for   1954    338.
 E= -633.329467085473    
 DIIS: error= 3.85D-04 at cycle   1 NSaved=   1.
 NSaved= 1 IEnMin= 1 EnMin= -633.329467085473     IErMin= 1 ErrMin= 3.85D-04
 ErrMax= 3.85D-04  0.00D+00 EMaxC= 1.00D-01 BMatC= 3.22D-05 BMatP= 3.22D-05
 IDIUse=3 WtCom= 9.96D-01 WtEn= 3.85D-03
 Coeff-Com:  0.100D+01
 Coeff-En:   0.100D+01
 Coeff:      0.100D+01
 Gap=     0.235 Goal=   None    Shift=    0.000
 RMSDP=2.27D-04 MaxDP=1.11D-02              OVMax= 5.77D-03

 Cycle   2  Pass 1  IDiag  1:
 RMSU=  2.26D-04    CP:  9.98D-01
 E= -633.329519159339     Delta-E=       -0.000052073866 Rises=F Damp=F
 DIIS: error= 2.51D-04 at cycle   2 NSaved=   2.
 NSaved= 2 IEnMin= 2 EnMin= -633.329519159339     IErMin= 2 ErrMin= 2.51D-04
 ErrMax= 2.51D-04  0.00D+00 EMaxC= 1.00D-01 BMatC= 2.65D-05 BMatP= 3.22D-05
 IDIUse=3 WtCom= 9.97D-01 WtEn= 2.51D-03
 Coeff-Com:  0.467D+00 0.533D+00
 Coeff-En:   0.000D+00 0.100D+01
 Coeff:      0.466D+00 0.534D+00
 Gap=     0.235 Goal=   None    Shift=    0.000
 RMSDP=5.37D-05 MaxDP=2.80D-03 DE=-5.21D-05 OVMax= 1.77D-03

 Cycle   3  Pass 1  IDiag  1:
 RMSU=  4.33D-05    CP:  1.00D+00  8.94D-01
 E= -633.329541844501     Delta-E=       -0.000022685161 Rises=F Damp=F
 DIIS: error= 1.30D-04 at cycle   3 NSaved=   3.
 NSaved= 3 IEnMin= 3 EnMin= -633.329541844501     IErMin= 3 ErrMin= 1.30D-04
 ErrMax= 1.30D-04  0.00D+00 EMaxC= 1.00D-01 BMatC= 4.03D-06 BMatP= 2.65D-05
 IDIUse=3 WtCom= 9.99D-01 WtEn= 1.30D-03
 Coeff-Com:  0.924D-01 0.264D+00 0.643D+00
 Coeff-En:   0.000D+00 0.191D-01 0.981D+00
 Coeff:      0.923D-01 0.264D+00 0.644D+00
 Gap=     0.235 Goal=   None    Shift=    0.000
 RMSDP=1.59D-05 MaxDP=6.89D-04 DE=-2.27D-05 OVMax= 8.10D-04

 Cycle   4  Pass 1  IDiag  1:
 RMSU=  1.51D-05    CP:  9.99D-01  8.83D-01  9.48D-01
 E= -633.329544955321     Delta-E=       -0.000003110820 Rises=F Damp=F
 DIIS: error= 2.64D-05 at cycle   4 NSaved=   4.
 NSaved= 4 IEnMin= 4 EnMin= -633.329544955321     IErMin= 4 ErrMin= 2.64D-05
 ErrMax= 2.64D-05  0.00D+00 EMaxC= 1.00D-01 BMatC= 3.61D-07 BMatP= 4.03D-06
 IDIUse=1 WtCom= 1.00D+00 WtEn= 0.00D+00
 Coeff-Com: -0.348D-02 0.421D-01 0.247D+00 0.715D+00
 Coeff:     -0.348D-02 0.421D-01 0.247D+00 0.715D+00
 Gap=     0.235 Goal=   None    Shift=    0.000
 RMSDP=8.90D-06 MaxDP=4.41D-04 DE=-3.11D-06 OVMax= 2.52D-04

 Cycle   5  Pass 1  IDiag  1:
 RMSU=  4.98D-06    CP:  1.00D+00  8.89D-01  1.09D+00  1.14D+00
 E= -633.329545255444     Delta-E=       -0.000000300123 Rises=F Damp=F
 DIIS: error= 1.15D-05 at cycle   5 NSaved=   5.
 NSaved= 5 IEnMin= 5 EnMin= -633.329545255444     IErMin= 5 ErrMin= 1.15D-05
 ErrMax= 1.15D-05  0.00D+00 EMaxC= 1.00D-01 BMatC= 6.95D-08 BMatP= 3.61D-07
 IDIUse=1 WtCom= 1.00D+00 WtEn= 0.00D+00
 Coeff-Com: -0.117D-01-0.197D-01 0.252D-01 0.332D+00 0.674D+00
 Coeff:     -0.117D-01-0.197D-01 0.252D-01 0.332D+00 0.674D+00
 Gap=     0.235 Goal=   None    Shift=    0.000
 RMSDP=2.35D-06 MaxDP=8.14D-05 DE=-3.00D-07 OVMax= 1.03D-04

 Cycle   6  Pass 1  IDiag  1:
 RMSU=  1.44D-06    CP:  1.00D+00  8.87D-01  1.12D+00  1.23D+00  1.07D+00
 E= -633.329545327978     Delta-E=       -0.000000072534 Rises=F Damp=F
 DIIS: error= 4.50D-06 at cycle   6 NSaved=   6.
 NSaved= 6 IEnMin= 6 EnMin= -633.329545327978     IErMin= 6 ErrMin= 4.50D-06
 ErrMax= 4.50D-06  0.00D+00 EMaxC= 1.00D-01 BMatC= 6.55D-09 BMatP= 6.95D-08
 IDIUse=1 WtCom= 1.00D+00 WtEn= 0.00D+00
 Coeff-Com: -0.293D-02-0.124D-01-0.103D-01 0.343D-01 0.233D+00 0.758D+00
 Coeff:     -0.293D-02-0.124D-01-0.103D-01 0.343D-01 0.233D+00 0.758D+00
 Gap=     0.235 Goal=   None    Shift=    0.000
 RMSDP=1.44D-06 MaxDP=6.03D-05 DE=-7.25D-08 OVMax= 7.36D-05

 Cycle   7  Pass 1  IDiag  1:
 RMSU=  5.49D-07    CP:  1.00D+00  8.85D-01  1.13D+00  1.28D+00  1.20D+00
                    CP:  1.11D+00
 E= -633.329545336403     Delta-E=       -0.000000008424 Rises=F Damp=F
 DIIS: error= 2.28D-06 at cycle   7 NSaved=   7.
 NSaved= 7 IEnMin= 7 EnMin= -633.329545336403     IErMin= 7 ErrMin= 2.28D-06
 ErrMax= 2.28D-06  0.00D+00 EMaxC= 1.00D-01 BMatC= 2.31D-09 BMatP= 6.55D-09
 IDIUse=1 WtCom= 1.00D+00 WtEn= 0.00D+00
 Coeff-Com:  0.581D-03-0.419D-02-0.666D-02-0.422D-01-0.861D-02 0.401D+00
 Coeff-Com:  0.660D+00
 Coeff:      0.581D-03-0.419D-02-0.666D-02-0.422D-01-0.861D-02 0.401D+00
 Coeff:      0.660D+00
 Gap=     0.235 Goal=   None    Shift=    0.000
 RMSDP=5.37D-07 MaxDP=2.42D-05 DE=-8.42D-09 OVMax= 3.01D-05

 Cycle   8  Pass 1  IDiag  1:
 RMSU=  2.18D-07    CP:  1.00D+00  8.85D-01  1.14D+00  1.30D+00  1.25D+00
                    CP:  1.26D+00  1.05D+00
 E= -633.329545339244     Delta-E=       -0.000000002841 Rises=F Damp=F
 DIIS: error= 5.57D-07 at cycle   8 NSaved=   8.
 NSaved= 8 IEnMin= 8 EnMin= -633.329545339244     IErMin= 8 ErrMin= 5.57D-07
 ErrMax= 5.57D-07  0.00D+00 EMaxC= 1.00D-01 BMatC= 1.78D-10 BMatP= 2.31D-09
 IDIUse=1 WtCom= 1.00D+00 WtEn= 0.00D+00
 Coeff-Com:  0.621D-03-0.428D-03 0.842D-03-0.176D-01-0.396D-01 0.183D-01
 Coeff-Com:  0.168D+00 0.870D+00
 Coeff:      0.621D-03-0.428D-03 0.842D-03-0.176D-01-0.396D-01 0.183D-01
 Coeff:      0.168D+00 0.870D+00
 Gap=     0.235 Goal=   None    Shift=    0.000
 RMSDP=2.29D-07 MaxDP=8.18D-06 DE=-2.84D-09 OVMax= 1.38D-05

 Cycle   9  Pass 1  IDiag  1:
 RMSU=  8.41D-08    CP:  1.00D+00  8.84D-01  1.14D+00  1.30D+00  1.26D+00
                    CP:  1.31D+00  1.17D+00  1.15D+00
 E= -633.329545339558     Delta-E=       -0.000000000314 Rises=F Damp=F
 DIIS: error= 2.66D-07 at cycle   9 NSaved=   9.
 NSaved= 9 IEnMin= 9 EnMin= -633.329545339558     IErMin= 9 ErrMin= 2.66D-07
 ErrMax= 2.66D-07  0.00D+00 EMaxC= 1.00D-01 BMatC= 1.81D-11 BMatP= 1.78D-10
 IDIUse=1 WtCom= 1.00D+00 WtEn= 0.00D+00
 Coeff-Com:  0.125D-03 0.113D-03 0.129D-02 0.239D-03-0.116D-01-0.436D-01
 Coeff-Com: -0.360D-01 0.259D+00 0.830D+00
 Coeff:      0.125D-03 0.113D-03 0.129D-02 0.239D-03-0.116D-01-0.436D-01
 Coeff:     -0.360D-01 0.259D+00 0.830D+00
 Gap=     0.235 Goal=   None    Shift=    0.000
 RMSDP=6.26D-08 MaxDP=1.88D-06 DE=-3.14D-10 OVMax= 5.77D-06

 Cycle  10  Pass 1  IDiag  1:
 RMSU=  2.60D-08    CP:  1.00D+00  8.84D-01  1.14D+00  1.30D+00  1.27D+00
                    CP:  1.33D+00  1.23D+00  1.26D+00  1.16D+00
 E= -633.329545339596     Delta-E=       -0.000000000039 Rises=F Damp=F
 DIIS: error= 9.62D-08 at cycle  10 NSaved=  10.
 NSaved=10 IEnMin=10 EnMin= -633.329545339596     IErMin=10 ErrMin= 9.62D-08
 ErrMax= 9.62D-08  0.00D+00 EMaxC= 1.00D-01 BMatC= 2.55D-12 BMatP= 1.81D-11
 IDIUse=1 WtCom= 1.00D+00 WtEn= 0.00D+00
 Coeff-Com: -0.107D-04 0.833D-04 0.380D-03 0.204D-02-0.370D-03-0.175D-01
 Coeff-Com: -0.308D-01-0.711D-03 0.310D+00 0.737D+00
 Coeff:     -0.107D-04 0.833D-04 0.380D-03 0.204D-02-0.370D-03-0.175D-01
 Coeff:     -0.308D-01-0.711D-03 0.310D+00 0.737D+00
 Gap=     0.235 Goal=   None    Shift=    0.000
 RMSDP=2.51D-08 MaxDP=1.56D-06 DE=-3.88D-11 OVMax= 1.62D-06

 Cycle  11  Pass 1  IDiag  1:
 RMSU=  1.37D-08    CP:  1.00D+00  8.84D-01  1.14D+00  1.30D+00  1.26D+00
                    CP:  1.33D+00  1.24D+00  1.31D+00  1.30D+00  1.31D+00
 E= -633.329545339606     Delta-E=       -0.000000000010 Rises=F Damp=F
 DIIS: error= 6.28D-08 at cycle  11 NSaved=  11.
 NSaved=11 IEnMin=11 EnMin= -633.329545339606     IErMin=11 ErrMin= 6.28D-08
 ErrMax= 6.28D-08  0.00D+00 EMaxC= 1.00D-01 BMatC= 4.01D-13 BMatP= 2.55D-12
 IDIUse=1 WtCom= 1.00D+00 WtEn= 0.00D+00
 Coeff-Com: -0.271D-04 0.125D-04-0.113D-03 0.832D-03 0.196D-02 0.132D-02
 Coeff-Com: -0.562D-02-0.486D-01-0.117D-01 0.267D+00 0.795D+00
 Coeff:     -0.271D-04 0.125D-04-0.113D-03 0.832D-03 0.196D-02 0.132D-02
 Coeff:     -0.562D-02-0.486D-01-0.117D-01 0.267D+00 0.795D+00
 Gap=     0.235 Goal=   None    Shift=    0.000
 RMSDP=9.75D-09 MaxDP=3.81D-07 DE=-9.78D-12 OVMax= 1.10D-06

 Error on total polarization charges =  0.00838
 SCF Done:  E(RCAM-B3LYP) =  -633.329545340     A.U. after   11 cycles
            NFock= 11  Conv=0.98D-08     -V/T= 2.0042
 KE= 6.306914359668D+02 PE=-3.276680273336D+03 EE= 1.112304402452D+03
 Leave Link  502 at Sat Jan 24 23:39:25 2026, MaxMem=  2147483648 cpu:             703.3 elap:              44.6
 (Enter /data/home/wyx/g16/l601.exe)
 Copying SCF densities to generalized density rwf, IOpCl= 0 IROHF=0.

 **********************************************************************

            Population analysis using the SCF density.

 **********************************************************************

 Orbital symmetries:
       Occupied  (A) (A) (A) (A) (A) (A) (A) (A) (A) (A) (A) (A)
                 (A) (A) (A) (A) (A) (A) (A) (A) (A) (A) (A) (A)
                 (A) (A) (A) (A) (A) (A) (A) (A) (A) (A) (A) (A)
                 (A) (A) (A) (A) (A) (A) (A) (A) (A) (A) (A) (A)
                 (A) (A) (A) (A)
       Virtual   (A) (A) (A) (A) (A) (A) (A) (A) (A) (A) (A) (A)
                 (A) (A) (A) (A) (A) (A) (A) (A) (A) (A) (A) (A)
                 (A) (A) (A) (A) (A) (A) (A) (A) (A) (A) (A) (A)
                 (A) (A) (A) (A) (A) (A) (A) (A) (A) (A) (A) (A)
                 (A) (A) (A) (A) (A) (A) (A) (A) (A) (A) (A) (A)
                 (A) (A) (A) (A) (A) (A) (A) (A) (A) (A) (A) (A)
                 (A) (A) (A) (A) (A) (A) (A) (A) (A) (A) (A) (A)
                 (A) (A) (A) (A) (A) (A) (A) (A) (A) (A) (A) (A)
                 (A) (A) (A) (A) (A) (A) (A) (A) (A) (A) (A) (A)
                 (A) (A) (A) (A) (A) (A) (A) (A) (A) (A) (A) (A)
                 (A) (A) (A) (A) (A) (A) (A) (A) (A) (A) (A) (A)
                 (A) (A) (A) (A) (A) (A) (A) (A) (A) (A) (A) (A)
                 (A) (A) (A) (A) (A) (A) (A) (A) (A) (A) (A) (A)
                 (A) (A) (A) (A) (A) (A) (A) (A) (A) (A) (A) (A)
                 (A) (A) (A) (A) (A) (A) (A) (A) (A) (A) (A) (A)
                 (A) (A) (A) (A) (A) (A) (A) (A) (A) (A) (A) (A)
                 (A) (A) (A) (A) (A) (A) (A) (A) (A) (A) (A) (A)
                 (A) (A) (A) (A) (A) (A) (A) (A) (A) (A) (A) (A)
                 (A) (A) (A) (A) (A) (A) (A) (A) (A) (A) (A) (A)
                 (A) (A) (A) (A) (A) (A) (A) (A) (A) (A) (A) (A)
                 (A) (A) (A) (A) (A) (A) (A) (A) (A) (A) (A) (A)
                 (A) (A) (A) (A) (A) (A) (A) (A) (A) (A) (A) (A)
                 (A) (A) (A) (A) (A) (A) (A) (A) (A) (A) (A) (A)
                 (A) (A) (A) (A) (A) (A) (A) (A) (A) (A) (A) (A)
                 (A) (A) (A) (A) (A) (A) (A) (A) (A) (A) (A) (A)
                 (A) (A) (A) (A)
 The electronic state is 1-A.
 Alpha  occ. eigenvalues --  -19.17832 -19.17270 -14.43891 -10.33361 -10.33266
 Alpha  occ. eigenvalues --  -10.31883 -10.31671 -10.25484 -10.24822 -10.24692
 Alpha  occ. eigenvalues --  -10.24648 -10.24545 -10.24150 -10.23849  -1.11922
 Alpha  occ. eigenvalues --   -1.10780  -1.07321  -0.91158  -0.90215  -0.83818
 Alpha  occ. eigenvalues --   -0.82410  -0.81408  -0.78530  -0.73885  -0.71127
 Alpha  occ. eigenvalues --   -0.68724  -0.61716  -0.58211  -0.56758  -0.54953
 Alpha  occ. eigenvalues --   -0.54380  -0.54022  -0.52453  -0.51839  -0.50567
 Alpha  occ. eigenvalues --   -0.49905  -0.49410  -0.48990  -0.48291  -0.48085
 Alpha  occ. eigenvalues --   -0.46670  -0.45290  -0.44719  -0.43234  -0.42819
 Alpha  occ. eigenvalues --   -0.42371  -0.41868  -0.41630  -0.32783  -0.32246
 Alpha  occ. eigenvalues --   -0.31340  -0.26059
 Alpha virt. eigenvalues --   -0.02529   0.02297   0.06732   0.08429   0.08953
 Alpha virt. eigenvalues --    0.10248   0.10762   0.12187   0.12799   0.13862
 Alpha virt. eigenvalues --    0.14275   0.15357   0.15770   0.16466   0.17080
 Alpha virt. eigenvalues --    0.17467   0.17622   0.17969   0.18215   0.19227
 Alpha virt. eigenvalues --    0.19953   0.21724   0.22929   0.23552   0.23699
 Alpha virt. eigenvalues --    0.24381   0.24746   0.25560   0.25801   0.26676
 Alpha virt. eigenvalues --    0.27331   0.27616   0.29123   0.29460   0.30140
 Alpha virt. eigenvalues --    0.31652   0.32304   0.32505   0.33858   0.34625
 Alpha virt. eigenvalues --    0.35575   0.35942   0.37005   0.38248   0.38907
 Alpha virt. eigenvalues --    0.39497   0.41285   0.42105   0.42523   0.42836
 Alpha virt. eigenvalues --    0.44165   0.44447   0.45399   0.46163   0.46384
 Alpha virt. eigenvalues --    0.47087   0.48215   0.48512   0.48641   0.48952
 Alpha virt. eigenvalues --    0.49562   0.49742   0.50867   0.51470   0.51586
 Alpha virt. eigenvalues --    0.52632   0.53141   0.53908   0.54082   0.54537
 Alpha virt. eigenvalues --    0.54763   0.55742   0.55975   0.56792   0.58290
 Alpha virt. eigenvalues --    0.58728   0.59123   0.60281   0.61394   0.62260
 Alpha virt. eigenvalues --    0.63428   0.65306   0.65946   0.66730   0.67964
 Alpha virt. eigenvalues --    0.69651   0.71021   0.71840   0.72722   0.73095
 Alpha virt. eigenvalues --    0.73855   0.74731   0.75080   0.76589   0.77405
 Alpha virt. eigenvalues --    0.78860   0.79692   0.82657   0.83515   0.85789
 Alpha virt. eigenvalues --    0.87718   0.90477   0.94622   1.00093   1.25171
 Alpha virt. eigenvalues --    1.25648   1.27292   1.28515   1.29824   1.31499
 Alpha virt. eigenvalues --    1.32768   1.32898   1.34067   1.35657   1.35901
 Alpha virt. eigenvalues --    1.37114   1.37512   1.38205   1.39386   1.39715
 Alpha virt. eigenvalues --    1.40226   1.40846   1.41439   1.41780   1.42052
 Alpha virt. eigenvalues --    1.43387   1.43975   1.44298   1.45456   1.47318
 Alpha virt. eigenvalues --    1.47925   1.49389   1.49831   1.50858   1.51448
 Alpha virt. eigenvalues --    1.52372   1.52898   1.53500   1.54957   1.57480
 Alpha virt. eigenvalues --    1.58276   1.60328   1.60886   1.61593   1.62281
 Alpha virt. eigenvalues --    1.62940   1.63449   1.64540   1.65795   1.66379
 Alpha virt. eigenvalues --    1.67013   1.67705   1.68141   1.68534   1.69291
 Alpha virt. eigenvalues --    1.69611   1.70882   1.71338   1.72434   1.73386
 Alpha virt. eigenvalues --    1.73559   1.74954   1.76232   1.77287   1.78676
 Alpha virt. eigenvalues --    1.80554   1.83388   1.84735   1.85872   1.86445
 Alpha virt. eigenvalues --    1.87117   1.87637   1.87793   1.89660   1.90515
 Alpha virt. eigenvalues --    1.91512   1.94184   1.96023   1.98333   2.00079
 Alpha virt. eigenvalues --    2.01089   2.04019   2.04918   2.06851   2.09700
 Alpha virt. eigenvalues --    2.11292   2.13491   2.14703   2.17671   2.19787
 Alpha virt. eigenvalues --    2.21388   2.21727   2.22472   2.23375   2.25482
 Alpha virt. eigenvalues --    2.27175   2.28371   2.29490   2.31204   2.32006
 Alpha virt. eigenvalues --    2.34259   2.34565   2.36003   2.37342   2.38248
 Alpha virt. eigenvalues --    2.39391   2.40923   2.41613   2.44629   2.44866
 Alpha virt. eigenvalues --    2.45538   2.48097   2.49124   2.50808   2.51933
 Alpha virt. eigenvalues --    2.52620   2.53380   2.54289   2.56767   2.58400
 Alpha virt. eigenvalues --    2.59201   2.60529   2.60652   2.61466   2.62933
 Alpha virt. eigenvalues --    2.64280   2.66130   2.66717   2.67450   2.69369
 Alpha virt. eigenvalues --    2.71205   2.71390   2.73334   2.73563   2.74928
 Alpha virt. eigenvalues --    2.75915   2.77154   2.77924   2.78290   2.79192
 Alpha virt. eigenvalues --    2.80513   2.81353   2.82834   2.83862   2.84795
 Alpha virt. eigenvalues --    2.85951   2.86198   2.88088   2.90132   2.92560
 Alpha virt. eigenvalues --    2.97578   2.99137   3.00431   3.05055   3.10374
 Alpha virt. eigenvalues --    3.10814   3.12536   3.14564   3.18056   3.18510
 Alpha virt. eigenvalues --    3.21526   3.22331   3.24610   3.25302   3.26461
 Alpha virt. eigenvalues --    3.26655   3.29594   3.32924   3.35042   3.36882
 Alpha virt. eigenvalues --    3.37547   3.39324   3.39885   3.40853   3.42164
 Alpha virt. eigenvalues --    3.42540   3.44746   3.45772   3.46996   3.47603
 Alpha virt. eigenvalues --    3.49948   3.50650   3.54453   3.57228   3.59155
 Alpha virt. eigenvalues --    3.60384   3.90411   3.99765   4.33512   4.34743
 Alpha virt. eigenvalues --   21.63406  21.77848  22.07224  22.10584  22.11306
 Alpha virt. eigenvalues --   22.13325  22.15658  22.17942  22.21328  22.25854
 Alpha virt. eigenvalues --   22.30938  31.93564  43.62666  43.64944
          Condensed to atoms (all electrons):
               1          2          3          4          5          6
     1  O    7.957050   0.000000  -0.000237   0.000017   0.015790   0.016382
     2  O    0.000000   8.031710   0.000374   0.000031  -0.198738   0.001198
     3  N   -0.000237   0.000374   6.367348   0.374162  -0.105388   0.345728
     4  H    0.000017   0.000031   0.374162   0.397221   0.014859  -0.043252
     5  C    0.015790  -0.198738  -0.105388   0.014859   7.013788  -0.057555
     6  C    0.016382   0.001198   0.345728  -0.043252  -0.057555   5.576248
     7  C   -0.000308  -0.023199   0.374011  -0.042004   0.388682  -0.100581
     8  C   -0.000237   0.690932   0.004271  -0.000748  -0.357888   0.035249
     9  C   -0.027522   0.018112   0.016324  -0.000045  -0.499288  -0.114040
    10  H    0.003787   0.000069   0.003394   0.000020  -0.027098  -0.011316
    11  H    0.016077  -0.000114  -0.001502   0.000009  -0.112592   0.023894
    12  C   -0.226774  -0.002430  -0.090700   0.015759   0.160892  -0.148958
    13  C    0.722004  -0.000024   0.000266   0.000378   0.069538   0.163761
    14  C   -0.000007  -0.034799  -0.040586  -0.004459  -0.050530   0.000608
    15  H   -0.000000   0.004623   0.004476   0.000199   0.011317   0.005811
    16  H   -0.000000   0.000849  -0.003929   0.000770  -0.008578  -0.001207
    17  H    0.000000   0.008989   0.003124   0.000745  -0.001909  -0.000580
    18  C   -0.000198  -0.106670  -0.000473   0.000018  -0.233716  -0.000341
    19  H   -0.000004   0.007562   0.000004  -0.000001   0.021690   0.000027
    20  H    0.000018   0.000351   0.000016  -0.000001  -0.006536   0.000224
    21  H    0.000174   0.004938   0.000121   0.000001   0.058105  -0.001321
    22  C   -0.112058   0.000000   0.000100   0.000106   0.003047  -0.008176
    23  H    0.004509  -0.000000  -0.000050  -0.000050  -0.000468  -0.031891
    24  H    0.001536   0.000000  -0.000005  -0.000017  -0.000087   0.010861
    25  H    0.008847   0.000000   0.000029  -0.000002  -0.000129  -0.001447
    26  C    0.000877   0.000004  -0.030072  -0.007357  -0.000189   0.182158
    27  H   -0.000177  -0.000000   0.002345   0.000892   0.000039  -0.044508
    28  H   -0.000039  -0.000000  -0.002499   0.000470   0.000386  -0.036400
    29  H    0.000023  -0.000000   0.001613   0.001088  -0.000422  -0.048786
               7          8          9         10         11         12
     1  O   -0.000308  -0.000237  -0.027522   0.003787   0.016077  -0.226774
     2  O   -0.023199   0.690932   0.018112   0.000069  -0.000114  -0.002430
     3  N    0.374011   0.004271   0.016324   0.003394  -0.001502  -0.090700
     4  H   -0.042004  -0.000748  -0.000045   0.000020   0.000009   0.015759
     5  C    0.388682  -0.357888  -0.499288  -0.027098  -0.112592   0.160892
     6  C   -0.100581   0.035249  -0.114040  -0.011316   0.023894  -0.148958
     7  C    5.409556  -0.218261  -0.169103  -0.006406   0.018219   0.001935
     8  C   -0.218261   5.522648   0.108421  -0.002192  -0.007843  -0.044394
     9  C   -0.169103   0.108421   6.271254   0.394955   0.532034  -0.011047
    10  H   -0.006406  -0.002192   0.394955   0.536013  -0.033860  -0.017273
    11  H    0.018219  -0.007843   0.532034  -0.033860   0.501984  -0.106113
    12  C    0.001935  -0.044394  -0.011047  -0.017273  -0.106113   7.297378
    13  C    0.016229  -0.007748  -0.262513  -0.001118   0.000348  -0.422426
    14  C    0.234010  -0.060510   0.013370  -0.001364   0.000445  -0.001001
    15  H   -0.065880   0.006005  -0.000615   0.000108  -0.000003  -0.000871
    16  H   -0.018944   0.003057  -0.000183  -0.000052   0.000054   0.000418
    17  H   -0.038815  -0.014144   0.000619   0.000144  -0.000064  -0.000235
    18  C    0.005896   0.329195   0.003754  -0.010145   0.005083   0.001481
    19  H    0.000510  -0.050740  -0.000882   0.000094   0.000520  -0.000239
    20  H   -0.000094  -0.012314  -0.004608   0.000681  -0.001651  -0.002737
    21  H    0.002394  -0.089641  -0.013307   0.001763  -0.005986   0.006224
    22  C    0.000158  -0.000036   0.004708   0.001480   0.001023  -0.268675
    23  H   -0.000003  -0.000007   0.003147  -0.000125  -0.000065   0.061092
    24  H    0.000004   0.000003  -0.001992   0.000142  -0.000117  -0.008357
    25  H    0.000012   0.000003   0.000172  -0.000042  -0.000132   0.026361
    26  C    0.003194   0.000530   0.020335  -0.000608   0.000009  -0.075225
    27  H   -0.000697  -0.000001  -0.000934  -0.000052   0.000001  -0.004567
    28  H   -0.000968  -0.000012  -0.000155  -0.000024   0.000051  -0.019078
    29  H    0.003526  -0.000002  -0.000553   0.000074  -0.000006   0.022095
              13         14         15         16         17         18
     1  O    0.722004  -0.000007  -0.000000  -0.000000   0.000000  -0.000198
     2  O   -0.000024  -0.034799   0.004623   0.000849   0.008989  -0.106670
     3  N    0.000266  -0.040586   0.004476  -0.003929   0.003124  -0.000473
     4  H    0.000378  -0.004459   0.000199   0.000770   0.000745   0.000018
     5  C    0.069538  -0.050530   0.011317  -0.008578  -0.001909  -0.233716
     6  C    0.163761   0.000608   0.005811  -0.001207  -0.000580  -0.000341
     7  C    0.016229   0.234010  -0.065880  -0.018944  -0.038815   0.005896
     8  C   -0.007748  -0.060510   0.006005   0.003057  -0.014144   0.329195
     9  C   -0.262513   0.013370  -0.000615  -0.000183   0.000619   0.003754
    10  H   -0.001118  -0.001364   0.000108  -0.000052   0.000144  -0.010145
    11  H    0.000348   0.000445  -0.000003   0.000054  -0.000064   0.005083
    12  C   -0.422426  -0.001001  -0.000871   0.000418  -0.000235   0.001481
    13  C    5.481723  -0.000035  -0.000014  -0.000025   0.000001   0.000532
    14  C   -0.000035   5.178314   0.384426   0.400916   0.423973   0.001011
    15  H   -0.000014   0.384426   0.567288  -0.026140  -0.028390   0.000225
    16  H   -0.000025   0.400916  -0.026140   0.509336  -0.025041  -0.000015
    17  H    0.000001   0.423973  -0.028390  -0.025041   0.502035   0.000124
    18  C    0.000532   0.001011   0.000225  -0.000015   0.000124   5.296074
    19  H   -0.000012   0.000040  -0.000004  -0.000016   0.000079   0.396697
    20  H   -0.000092  -0.000329  -0.000005   0.000009   0.000030   0.389764
    21  H    0.000842   0.000237  -0.000019   0.000000  -0.000081   0.392729
    22  C    0.298034  -0.000014   0.000003  -0.000001   0.000000   0.000016
    23  H   -0.085026  -0.000000  -0.000000   0.000000   0.000000   0.000003
    24  H   -0.026750  -0.000001   0.000000   0.000000   0.000000  -0.000001
    25  H   -0.045425   0.000001  -0.000000  -0.000000  -0.000000  -0.000000
    26  C   -0.057370   0.001250  -0.000209  -0.000126   0.000042   0.000007
    27  H   -0.006560   0.000097  -0.000014   0.000003  -0.000002   0.000000
    28  H    0.006366  -0.000070   0.000009  -0.000017   0.000003  -0.000001
    29  H   -0.000197  -0.000233   0.000124   0.000002  -0.000001   0.000000
              19         20         21         22         23         24
     1  O   -0.000004   0.000018   0.000174  -0.112058   0.004509   0.001536
     2  O    0.007562   0.000351   0.004938   0.000000  -0.000000   0.000000
     3  N    0.000004   0.000016   0.000121   0.000100  -0.000050  -0.000005
     4  H   -0.000001  -0.000001   0.000001   0.000106  -0.000050  -0.000017
     5  C    0.021690  -0.006536   0.058105   0.003047  -0.000468  -0.000087
     6  C    0.000027   0.000224  -0.001321  -0.008176  -0.031891   0.010861
     7  C    0.000510  -0.000094   0.002394   0.000158  -0.000003   0.000004
     8  C   -0.050740  -0.012314  -0.089641  -0.000036  -0.000007   0.000003
     9  C   -0.000882  -0.004608  -0.013307   0.004708   0.003147  -0.001992
    10  H    0.000094   0.000681   0.001763   0.001480  -0.000125   0.000142
    11  H    0.000520  -0.001651  -0.005986   0.001023  -0.000065  -0.000117
    12  C   -0.000239  -0.002737   0.006224  -0.268675   0.061092  -0.008357
    13  C   -0.000012  -0.000092   0.000842   0.298034  -0.085026  -0.026750
    14  C    0.000040  -0.000329   0.000237  -0.000014  -0.000000  -0.000001
    15  H   -0.000004  -0.000005  -0.000019   0.000003  -0.000000   0.000000
    16  H   -0.000016   0.000009   0.000000  -0.000001   0.000000   0.000000
    17  H    0.000079   0.000030  -0.000081   0.000000   0.000000   0.000000
    18  C    0.396697   0.389764   0.392729   0.000016   0.000003  -0.000001
    19  H    0.510173  -0.011304  -0.026139  -0.000000   0.000000   0.000000
    20  H   -0.011304   0.496313  -0.022025  -0.000006  -0.000000   0.000000
    21  H   -0.026139  -0.022025   0.532737   0.000022  -0.000000  -0.000000
    22  C   -0.000000  -0.000006   0.000022   5.426923   0.395140   0.402520
    23  H    0.000000  -0.000000  -0.000000   0.395140   0.537059  -0.026921
    24  H    0.000000   0.000000  -0.000000   0.402520  -0.026921   0.493339
    25  H   -0.000000  -0.000000  -0.000000   0.382708  -0.021542  -0.008328
    26  C    0.000000   0.000003  -0.000014  -0.031434   0.016627  -0.015566
    27  H   -0.000000   0.000000  -0.000000   0.010658  -0.009996  -0.001292
    28  H    0.000000  -0.000000  -0.000000  -0.011908  -0.001509   0.001305
    29  H    0.000000  -0.000000   0.000000   0.001806   0.000725   0.000203
              25         26         27         28         29
     1  O    0.008847   0.000877  -0.000177  -0.000039   0.000023
     2  O    0.000000   0.000004  -0.000000  -0.000000  -0.000000
     3  N    0.000029  -0.030072   0.002345  -0.002499   0.001613
     4  H   -0.000002  -0.007357   0.000892   0.000470   0.001088
     5  C   -0.000129  -0.000189   0.000039   0.000386  -0.000422
     6  C   -0.001447   0.182158  -0.044508  -0.036400  -0.048786
     7  C    0.000012   0.003194  -0.000697  -0.000968   0.003526
     8  C    0.000003   0.000530  -0.000001  -0.000012  -0.000002
     9  C    0.000172   0.020335  -0.000934  -0.000155  -0.000553
    10  H   -0.000042  -0.000608  -0.000052  -0.000024   0.000074
    11  H   -0.000132   0.000009   0.000001   0.000051  -0.000006
    12  C    0.026361  -0.075225  -0.004567  -0.019078   0.022095
    13  C   -0.045425  -0.057370  -0.006560   0.006366  -0.000197
    14  C    0.000001   0.001250   0.000097  -0.000070  -0.000233
    15  H   -0.000000  -0.000209  -0.000014   0.000009   0.000124
    16  H   -0.000000  -0.000126   0.000003  -0.000017   0.000002
    17  H   -0.000000   0.000042  -0.000002   0.000003  -0.000001
    18  C   -0.000000   0.000007   0.000000  -0.000001   0.000000
    19  H   -0.000000   0.000000  -0.000000   0.000000   0.000000
    20  H   -0.000000   0.000003   0.000000  -0.000000  -0.000000
    21  H   -0.000000  -0.000014  -0.000000  -0.000000   0.000000
    22  C    0.382708  -0.031434   0.010658  -0.011908   0.001806
    23  H   -0.021542   0.016627  -0.009996  -0.001509   0.000725
    24  H   -0.008328  -0.015566  -0.001292   0.001305   0.000203
    25  H    0.500687   0.001978   0.000849   0.000110  -0.000047
    26  C    0.001978   5.256467   0.422442   0.431717   0.390324
    27  H    0.000849   0.422442   0.514310  -0.026758  -0.025977
    28  H    0.000110   0.431717  -0.026758   0.478751  -0.017001
    29  H   -0.000047   0.390324  -0.025977  -0.017001   0.513275
 Mulliken charges:
               1
     1  O   -0.379529
     2  O   -0.403767
     3  N   -0.222264
     4  H    0.291191
     5  C   -0.097022
     6  C    0.288212
     7  C    0.226926
     8  C    0.166403
     9  C   -0.280417
    10  H    0.168952
    11  H    0.170297
    12  C   -0.142535
    13  C    0.155313
    14  C   -0.444758
    15  H    0.137551
    16  H    0.168862
    17  H    0.169353
    18  C   -0.471048
    19  H    0.151946
    20  H    0.174293
    21  H    0.158248
    22  C   -0.496142
    23  H    0.159352
    24  H    0.179521
    25  H    0.155340
    26  C   -0.509795
    27  H    0.169899
    28  H    0.197273
    29  H    0.158347
 Sum of Mulliken charges =  -0.00000
 Mulliken charges with hydrogens summed into heavy atoms:
               1
     1  O   -0.379529
     2  O   -0.403767
     3  N    0.068926
     5  C   -0.097022
     6  C    0.288212
     7  C    0.226926
     8  C    0.166403
     9  C    0.058832
    12  C   -0.142535
    13  C    0.155313
    14  C    0.031008
    18  C    0.013439
    22  C   -0.001929
    26  C    0.015723
 Electronic spatial extent (au):  <R**2>=           3198.3412
 Charge=             -0.0000 electrons
 Dipole moment (field-independent basis, Debye):
    X=             -4.3146    Y=              7.6605    Z=             -0.4835  Tot=              8.8053
 Quadrupole moment (field-independent basis, Debye-Ang):
   XX=            -99.9706   YY=            -78.3194   ZZ=            -84.7545
   XY=            -13.1944   XZ=             -5.0271   YZ=             -1.2521
 Traceless Quadrupole moment (field-independent basis, Debye-Ang):
   XX=            -12.2891   YY=              9.3621   ZZ=              2.9270
   XY=            -13.1944   XZ=             -5.0271   YZ=             -1.2521
 Octapole moment (field-independent basis, Debye-Ang**2):
  XXX=           -115.0269  YYY=             65.9994  ZZZ=              1.9731  XYY=             36.2779
  XXY=             31.2160  XXZ=            -11.3986  XZZ=             -2.8229  YZZ=             -0.9220
  YYZ=              2.0884  XYZ=              4.1361
 Hexadecapole moment (field-independent basis, Debye-Ang**3):
 XXXX=          -3096.0571 YYYY=          -1268.6640 ZZZZ=           -148.6443 XXXY=            -42.4907
 XXXZ=            -63.2863 YYYX=            -92.8116 YYYZ=            -20.4961 ZZZX=              3.1959
 ZZZY=              5.0662 XXYY=           -693.4920 XXZZ=           -490.1886 YYZZ=           -238.7077
 XXYZ=             -3.2873 YYXZ=             -5.2174 ZZXY=              0.3805
 N-N= 9.003548895784D+02 E-N=-3.276680268949D+03  KE= 6.306914359668D+02
 No NMR shielding tensors so no spin-rotation constants.
 Leave Link  601 at Sat Jan 24 23:39:26 2026, MaxMem=  2147483648 cpu:               1.8 elap:               0.1
 (Enter /data/home/wyx/g16/l9999.exe)
 1\1\GINC-CN015\SP\RCAM-B3LYP\TZVP\C11H15N1O2\WYX\24-Jan-2026\0\\#p CAM
 -B3LYP TZVP em=gd3bj scrf=(Solvent=Water,NonEquilibrium=Read) Geom=Che
 ck Guess=Read\\Title Card Required\\0,1\O,0,2.752819,-1.558423,0.71453
 6\O,0,-3.271583,-1.647854,-1.027699\N,0,-0.694759,1.518226,0.077759\H,
 0,-1.001005,2.475031,0.010874\C,0,-1.243798,-0.760528,-0.157247\C,0,0.
 649528,1.303463,0.249896\C,0,-1.613387,0.540424,-0.241145\C,0,-2.15341
 9,-1.826261,-0.510182\C,0,0.118796,-1.114629,0.38823\H,0,0.035008,-1.4
 73102,1.421925\H,0,0.542304,-1.947697,-0.169951\C,0,1.103799,0.030494,
 0.337596\C,0,2.497544,-0.38275,0.461657\C,0,-2.939548,1.075219,-0.6543
 13\H,0,-3.13435,2.046966,-0.196701\H,0,-2.994408,1.202292,-1.736857\H,
 0,-3.764154,0.421081,-0.382928\C,0,-1.764189,-3.25017,-0.240751\H,0,-2
 .628135,-3.911567,-0.192663\H,0,-1.115871,-3.6297,-1.035619\H,0,-1.209
 467,-3.37622,0.689314\C,0,3.657152,0.559698,0.256052\H,0,3.506389,1.24
 9979,-0.569631\H,0,3.838048,1.14504,1.158854\H,0,4.540033,-0.046037,0.
 066572\C,0,1.428075,2.581959,0.311575\H,0,2.232626,2.543483,1.036267\H
 ,0,1.853156,2.827622,-0.662359\H,0,0.772795,3.403962,0.596939\\Version
 =ES64L-G16RevA.03\State=1-A\HF=-633.3295453\RMSD=9.754e-09\Dipole=0.51
 95571,3.4148782,0.2641236\Quadrupole=-11.5159614,11.3795099,0.1364515,
 2.3323237,-6.5490891,-0.0424413\PG=C01 [X(C11H15N1O2)]\\@


 SIGN SEEN IN A RESTAURANT-
 WE RESERVE THE RIGHT TO SERVE REFUSE TO ANYONE.
 Job cpu time:       0 days  0 hours 11 minutes 53.7 seconds.
 Elapsed time:       0 days  0 hours  0 minutes 45.4 seconds.
 File lengths (MBytes):  RWF=    342 Int=      0 D2E=      0 Chk=     67 Scr=      1
 Normal termination of Gaussian 16 at Sat Jan 24 23:39:27 2026.
