 Entering Gaussian System, Link 0=g16
 Input=DDL-LR-Eq-3.gjf
 Output=DDL-LR-Eq-3.log
 Initial command:
 /data/home/wyx/g16/l1.exe "/scr/tmp/wyx/13119/Gau-1509211.inp" -scrdir="/scr/tmp/wyx/13119/"
 Entering Link 1 = /data/home/wyx/g16/l1.exe PID=   1509212.
  
 Copyright (c) 1988,1990,1992,1993,1995,1998,2003,2009,2016,
            Gaussian, Inc.  All Rights Reserved.
  
 This is part of the Gaussian(R) 16 program.  It is based on
 the Gaussian(R) 09 system (copyright 2009, Gaussian, Inc.),
 the Gaussian(R) 03 system (copyright 2003, Gaussian, Inc.),
 the Gaussian(R) 98 system (copyright 1998, Gaussian, Inc.),
 the Gaussian(R) 94 system (copyright 1995, Gaussian, Inc.),
 the Gaussian 92(TM) system (copyright 1992, Gaussian, Inc.),
 the Gaussian 90(TM) system (copyright 1990, Gaussian, Inc.),
 the Gaussian 88(TM) system (copyright 1988, Gaussian, Inc.),
 the Gaussian 86(TM) system (copyright 1986, Carnegie Mellon
 University), and the Gaussian 82(TM) system (copyright 1983,
 Carnegie Mellon University). Gaussian is a federally registered
 trademark of Gaussian, Inc.
  
 This software contains proprietary and confidential information,
 including trade secrets, belonging to Gaussian, Inc.
  
 This software is provided under written license and may be
 used, copied, transmitted, or stored only in accord with that
 written license.
  
 The following legend is applicable only to US Government
 contracts under FAR:
  
                    RESTRICTED RIGHTS LEGEND
  
 Use, reproduction and disclosure by the US Government is
 subject to restrictions as set forth in subparagraphs (a)
 and (c) of the Commercial Computer Software - Restricted
 Rights clause in FAR 52.227-19.
  
 Gaussian, Inc.
 340 Quinnipiac St., Bldg. 40, Wallingford CT 06492
  
  
 ---------------------------------------------------------------
 Warning -- This program may not be used in any manner that
 competes with the business of Gaussian, Inc. or will provide
 assistance to any competitor of Gaussian, Inc.  The licensee
 of this program is prohibited from giving any competitor of
 Gaussian, Inc. access to this program.  By using this program,
 the user acknowledges that Gaussian, Inc. is engaged in the
 business of creating and licensing software in the field of
 computational chemistry and represents and warrants to the
 licensee that it is not a competitor of Gaussian, Inc. and that
 it will not use this program in any manner prohibited above.
 ---------------------------------------------------------------
  

 Cite this work as:
 Gaussian 16, Revision A.03,
 M. J. Frisch, G. W. Trucks, H. B. Schlegel, G. E. Scuseria, 
 M. A. Robb, J. R. Cheeseman, G. Scalmani, V. Barone, 
 G. A. Petersson, H. Nakatsuji, X. Li, M. Caricato, A. V. Marenich, 
 J. Bloino, B. G. Janesko, R. Gomperts, B. Mennucci, H. P. Hratchian, 
 J. V. Ortiz, A. F. Izmaylov, J. L. Sonnenberg, D. Williams-Young, 
 F. Ding, F. Lipparini, F. Egidi, J. Goings, B. Peng, A. Petrone, 
 T. Henderson, D. Ranasinghe, V. G. Zakrzewski, J. Gao, N. Rega, 
 G. Zheng, W. Liang, M. Hada, M. Ehara, K. Toyota, R. Fukuda, 
 J. Hasegawa, M. Ishida, T. Nakajima, Y. Honda, O. Kitao, H. Nakai, 
 T. Vreven, K. Throssell, J. A. Montgomery, Jr., J. E. Peralta, 
 F. Ogliaro, M. J. Bearpark, J. J. Heyd, E. N. Brothers, K. N. Kudin, 
 V. N. Staroverov, T. A. Keith, R. Kobayashi, J. Normand, 
 K. Raghavachari, A. P. Rendell, J. C. Burant, S. S. Iyengar, 
 J. Tomasi, M. Cossi, J. M. Millam, M. Klene, C. Adamo, R. Cammi, 
 J. W. Ochterski, R. L. Martin, K. Morokuma, O. Farkas, 
 J. B. Foresman, and D. J. Fox, Gaussian, Inc., Wallingford CT, 2016.
 
 ******************************************
 Gaussian 16:  ES64L-G16RevA.03 25-Dec-2016
                24-Jan-2026 
 ******************************************
 %nprocshared=16
 Will use up to   16 processors via shared memory.
 %mem=16GB
 %oldchk=DDL-LR-3.chk
 %chk=DDL-LR-Eq-3.chk
 Copying data from "DDL-LR-3.chk" to current chk file "DDL-LR-Eq-3.chk"
 IOpt=  2 FromEx=T IUOpen= 4 IOptOp= 5 NList=   0 IFRang= 0 IUIn= 4 IUOut= 2.
 ----------------------------------------------------------------------
 #p CAM-B3LYP TZVP em=gd3bj td(Eqsolv,nstates=6,root=1) scrf=(Solvent=W
 ater) Geom=Check Guess=Read
 ----------------------------------------------------------------------
 1/29=2,38=1,172=1/1;
 2/12=2,40=1/2;
 3/5=19,7=101,11=9,14=-4,25=1,30=1,70=2201,72=1,74=-40,116=-2,124=41/1,2,3,8;
 4/5=1/1;
 5/5=2,38=6,53=1/2;
 8/6=1,10=1,107=1,108=6/1;
 9/8=1,41=6,42=1,70=2,73=2/14;
 6/7=2,8=2,9=2,10=2/1;
 99/5=1,9=1/99;
 Leave Link    1 at Sat Jan 24 15:42:22 2026, MaxMem=  2147483648 cpu:               0.8 elap:               0.2
 (Enter /data/home/wyx/g16/l101.exe)
 -------------------
 Title Card Required
 -------------------
 Structure from the checkpoint file:  "DDL-LR-Eq-3.chk"
 Charge =  0 Multiplicity = 1
 Z-Matrix found in chk file.
 O,0,2.764018,-1.55307,0.676186
 O,0,-3.368916,-1.662261,-0.774467
 N,0,-0.66119,1.524926,-0.061796
 H,0,-0.971768,2.47877,-0.146514
 C,0,-1.237669,-0.772792,-0.17154
 C,0,0.664999,1.315519,0.160273
 C,0,-1.607426,0.535828,-0.286741
 C,0,-2.147465,-1.829629,-0.400695
 C,0,0.169337,-1.128956,0.247799
 H,0,0.157696,-1.603062,1.235141
 H,0,0.577797,-1.882381,-0.427447
 C,0,1.128333,0.040277,0.27703
 C,0,2.508753,-0.362918,0.478441
 C,0,-2.949155,1.069564,-0.63228
 H,0,-3.30405,1.781903,0.118454
 H,0,-2.941891,1.584218,-1.596993
 H,0,-3.710101,0.29328,-0.70349
 C,0,-1.823322,-3.283357,-0.218529
 H,0,-2.560177,-3.80305,0.397662
 H,0,-1.79431,-3.80041,-1.18172
 H,0,-0.854372,-3.428069,0.252306
 C,0,3.671141,0.599729,0.436092
 H,0,3.625629,1.282374,-0.408689
 H,0,3.715037,1.196016,1.348245
 H,0,4.581655,0.009052,0.372107
 C,0,1.445704,2.593553,0.240132
 H,0,2.13999,2.59953,1.073394
 H,0,2.011057,2.767906,-0.675135
 H,0,0.770667,3.437511,0.372773
 Recover connectivity data from disk.
 ITRead=  0  0  0  0  0  0  0  0  0  0  0  0  0  0  0  0  0  0  0  0
 ITRead=  0  0  0  0  0  0  0  0  0
 MicOpt= -1 -1 -1 -1 -1 -1 -1 -1 -1 -1 -1 -1 -1 -1 -1 -1 -1 -1 -1 -1
 MicOpt= -1 -1 -1 -1 -1 -1 -1 -1 -1
 NAtoms=     29 NQM=       29 NQMF=       0 NMMI=      0 NMMIF=      0
                NMic=       0 NMicF=      0.
                    Isotopes and Nuclear Properties:
 (Nuclear quadrupole moments (NQMom) in fm**2, nuclear magnetic moments (NMagM)
  in nuclear magnetons)

  Atom         1           2           3           4           5           6           7           8           9          10
 IAtWgt=          16          16          14           1          12          12          12          12          12           1
 AtmWgt=  15.9949146  15.9949146  14.0030740   1.0078250  12.0000000  12.0000000  12.0000000  12.0000000  12.0000000   1.0078250
 NucSpn=           0           0           2           1           0           0           0           0           0           1
 AtZEff=   5.6000000   5.6000000   4.5500000   1.0000000   3.6000000   3.6000000   3.6000000   3.6000000   3.6000000   1.0000000
 NQMom=    0.0000000   0.0000000   2.0440000   0.0000000   0.0000000   0.0000000   0.0000000   0.0000000   0.0000000   0.0000000
 NMagM=    0.0000000   0.0000000   0.4037610   2.7928460   0.0000000   0.0000000   0.0000000   0.0000000   0.0000000   2.7928460
 AtZNuc=   8.0000000   8.0000000   7.0000000   1.0000000   6.0000000   6.0000000   6.0000000   6.0000000   6.0000000   1.0000000

  Atom        11          12          13          14          15          16          17          18          19          20
 IAtWgt=           1          12          12          12           1           1           1          12           1           1
 AtmWgt=   1.0078250  12.0000000  12.0000000  12.0000000   1.0078250   1.0078250   1.0078250  12.0000000   1.0078250   1.0078250
 NucSpn=           1           0           0           0           1           1           1           0           1           1
 AtZEff=   1.0000000   3.6000000   3.6000000   3.6000000   1.0000000   1.0000000   1.0000000   3.6000000   1.0000000   1.0000000
 NQMom=    0.0000000   0.0000000   0.0000000   0.0000000   0.0000000   0.0000000   0.0000000   0.0000000   0.0000000   0.0000000
 NMagM=    2.7928460   0.0000000   0.0000000   0.0000000   2.7928460   2.7928460   2.7928460   0.0000000   2.7928460   2.7928460
 AtZNuc=   1.0000000   6.0000000   6.0000000   6.0000000   1.0000000   1.0000000   1.0000000   6.0000000   1.0000000   1.0000000

  Atom        21          22          23          24          25          26          27          28          29
 IAtWgt=           1          12           1           1           1          12           1           1           1
 AtmWgt=   1.0078250  12.0000000   1.0078250   1.0078250   1.0078250  12.0000000   1.0078250   1.0078250   1.0078250
 NucSpn=           1           0           1           1           1           0           1           1           1
 AtZEff=   1.0000000   3.6000000   1.0000000   1.0000000   1.0000000   3.6000000   1.0000000   1.0000000   1.0000000
 NQMom=    0.0000000   0.0000000   0.0000000   0.0000000   0.0000000   0.0000000   0.0000000   0.0000000   0.0000000
 NMagM=    2.7928460   0.0000000   2.7928460   2.7928460   2.7928460   0.0000000   2.7928460   2.7928460   2.7928460
 AtZNuc=   1.0000000   6.0000000   1.0000000   1.0000000   1.0000000   6.0000000   1.0000000   1.0000000   1.0000000
 Leave Link  101 at Sat Jan 24 15:42:26 2026, MaxMem=  2147483648 cpu:               0.8 elap:               0.1
 (Enter /data/home/wyx/g16/l202.exe)
                          Input orientation:                          
 ---------------------------------------------------------------------
 Center     Atomic      Atomic             Coordinates (Angstroms)
 Number     Number       Type             X           Y           Z
 ---------------------------------------------------------------------
      1          8           0        2.764018   -1.553070    0.676186
      2          8           0       -3.368916   -1.662261   -0.774467
      3          7           0       -0.661190    1.524926   -0.061796
      4          1           0       -0.971768    2.478770   -0.146514
      5          6           0       -1.237669   -0.772792   -0.171540
      6          6           0        0.664999    1.315519    0.160273
      7          6           0       -1.607426    0.535828   -0.286741
      8          6           0       -2.147465   -1.829629   -0.400695
      9          6           0        0.169337   -1.128956    0.247799
     10          1           0        0.157696   -1.603062    1.235141
     11          1           0        0.577797   -1.882381   -0.427447
     12          6           0        1.128333    0.040277    0.277030
     13          6           0        2.508753   -0.362918    0.478441
     14          6           0       -2.949155    1.069564   -0.632280
     15          1           0       -3.304050    1.781903    0.118454
     16          1           0       -2.941891    1.584218   -1.596993
     17          1           0       -3.710101    0.293280   -0.703490
     18          6           0       -1.823322   -3.283357   -0.218529
     19          1           0       -2.560177   -3.803050    0.397662
     20          1           0       -1.794310   -3.800410   -1.181720
     21          1           0       -0.854372   -3.428069    0.252306
     22          6           0        3.671141    0.599729    0.436092
     23          1           0        3.625629    1.282374   -0.408689
     24          1           0        3.715037    1.196016    1.348245
     25          1           0        4.581655    0.009052    0.372107
     26          6           0        1.445704    2.593553    0.240132
     27          1           0        2.139990    2.599530    1.073394
     28          1           0        2.011057    2.767906   -0.675135
     29          1           0        0.770667    3.437511    0.372773
 ---------------------------------------------------------------------
                    Distance matrix (angstroms):
                    1          2          3          4          5
     1  O    0.000000
     2  O    6.303110   0.000000
     3  N    4.663767   4.242386   0.000000
     4  H    5.557757   4.825845   1.006705   0.000000
     5  C    4.164249   2.386816   2.371472   3.262512   0.000000
     6  C    3.591775   5.100332   1.360861   2.031324   2.844519
     7  C    4.939661   2.858727   1.387183   2.049085   1.364726
     8  C    5.035754   1.288278   3.684685   4.473161   1.413204
     9  C    2.663786   3.721381   2.797984   3.804378   1.510749
    10  H    2.666054   4.059436   3.483810   4.454886   2.148288
    11  H    2.471035   3.968050   3.643972   4.636778   2.143034
    12  C    2.318091   4.922350   2.349761   3.245930   2.541704
    13  C    1.233177   6.148582   3.728854   4.536495   3.824415
    14  C    6.421109   2.767541   2.401581   2.476265   2.556510
    15  H    6.946550   3.558621   2.661435   2.448545   3.298559
    16  H    6.896906   3.376170   2.749899   2.604899   3.239103
    17  H    6.872171   1.986350   3.350311   3.547542   2.744522
    18  C    4.983783   2.307787   4.949212   5.825156   2.578398
    19  H    5.786799   2.571171   5.674908   6.502341   3.354919
    20  H    5.411165   2.686433   5.558542   6.416878   3.239874
    21  H    4.097321   3.239641   4.966703   5.921451   2.716074
    22  C    2.348417   7.492960   4.457911   5.042502   5.133171
    23  H    3.155799   7.597916   4.307666   4.757747   5.285037
    24  H    2.985561   7.928306   4.609529   5.083887   5.542134
    25  H    2.415884   8.204846   5.474812   6.099917   5.896725
    26  C    4.372937   6.505531   2.381623   2.450886   4.324609
    27  H    4.217970   7.205935   3.207809   3.344517   4.932646
    28  H    4.589537   6.969961   3.010330   3.043072   4.831601
    29  H    5.382509   6.667832   2.428383   2.055462   4.696418
                    6          7          8          9         10
     6  C    0.000000
     7  C    2.443697   0.000000
     8  C    4.256359   2.428995   0.000000
     9  C    2.495756   2.492815   2.505805   0.000000
    10  H    3.151319   3.163326   2.835676   1.095334   0.000000
    11  H    3.252627   3.262320   2.725904   1.091076   1.737441
    12  C    1.361820   2.836862   3.832325   1.512493   2.135574
    13  C    2.513526   4.282076   4.960291   2.472423   2.763697
    14  C    3.708199   1.484759   3.016896   3.915740   4.503633
    15  H    3.996575   2.143693   3.827580   4.533679   4.968769
    16  H    4.021174   2.143987   3.703592   4.521538   5.271354
    17  H    4.575211   2.157256   2.653349   4.240017   4.723797
    18  C    5.242604   3.825890   1.500526   2.971464   2.976740
    19  H    6.054574   4.494664   2.168432   3.824066   3.595574
    20  H    5.832827   4.431577   2.149115   3.610554   3.805244
    21  H    4.981826   4.070644   2.157200   2.516728   2.306707
    22  C    3.102470   5.328212   6.360674   3.909787   4.223158
    23  H    3.014987   5.287444   6.558448   4.265143   4.801508
    24  H    3.275407   5.606928   6.825119   4.380464   4.527947
    25  H    4.134238   6.246303   7.018478   4.558406   4.786977
    26  C    1.499750   3.719332   5.734637   3.935257   4.501176
    27  H    2.158257   4.489093   6.338190   4.297288   4.649455
    28  H    2.149234   4.269244   6.205316   4.407865   5.117564
    29  H    2.135222   3.809206   6.070956   4.607585   5.150416
                   11         12         13         14         15
    11  H    0.000000
    12  C    2.120375   0.000000
    13  C    2.618777   1.452134   0.000000
    14  C    4.603838   4.302579   5.751040   0.000000
    15  H    5.365978   4.764916   6.206330   1.094065   0.000000
    16  H    5.076746   4.739456   6.148844   1.093432   1.764369
    17  H    4.816199   4.943265   6.364095   1.089370   1.748276
    18  C    2.787786   4.472627   5.270826   4.515153   5.288003
    19  H    3.770498   5.328304   6.126588   4.995443   5.641188
    20  H    3.142396   5.041892   5.752290   5.035097   5.927224
    21  H    2.214119   3.995141   4.555974   5.039773   5.758702
    22  C    4.058983   2.608478   1.509844   6.722387   7.081788
    23  H    4.393780   2.872195   2.177475   6.582026   6.967629
    24  H    4.740452   3.028906   2.154520   6.953411   7.150051
    25  H    4.499743   3.454772   2.108694   7.671152   8.086512
    26  C    4.607918   2.573189   3.150807   4.732698   4.820139
    27  H    4.978001   2.864860   3.044019   5.581175   5.587307
    28  H    4.872448   3.020891   3.373499   5.243082   5.463730
    29  H    5.383196   3.417351   4.180355   4.522652   4.405569
                   16         17         18         19         20
    16  H    0.000000
    17  H    1.747860   0.000000
    18  C    5.181182   4.072770   0.000000
    19  H    5.757344   4.394858   1.092121   0.000000
    20  H    5.521197   4.545026   1.093582   1.755280   0.000000
    21  H    5.735910   4.787188   1.086964   1.752572   1.754580
    22  C    6.988193   7.474978   6.759882   7.629893   7.200673
    23  H    6.680980   7.407979   7.111479   8.048350   7.470476
    24  H    7.289706   7.756109   7.293352   8.079145   7.856074
    25  H    7.934875   8.366057   7.225824   8.095588   7.588103
    26  C    4.862589   5.723985   6.740547   7.549068   7.307675
    27  H    5.829866   6.534498   7.210081   7.971274   7.843691
    28  H    5.175194   6.233476   7.178352   8.076171   7.607905
    29  H    4.593230   5.578693   7.228311   7.969998   7.834734
                   21         22         23         24         25
    21  H    0.000000
    22  C    6.061122   0.000000
    23  H    6.534187   1.087074   0.000000
    24  H    6.592628   1.090646   1.761326   0.000000
    25  H    6.432616   1.087212   1.773408   1.764300   0.000000
    26  C    6.445962   2.994379   2.625306   2.886329   4.065864
    27  H    6.780290   2.598034   2.477618   2.127479   3.628238
    28  H    6.889190   2.948168   2.210123   3.077085   3.913562
    29  H    7.056306   4.058296   3.661435   3.826900   5.126203
                   26         27         28         29
    26  C    0.000000
    27  H    1.084617   0.000000
    28  H    1.089833   1.761343   0.000000
    29  H    1.088822   1.751607   1.756431   0.000000
 Stoichiometry    C11H15NO2
 Framework group  C1[X(C11H15NO2)]
 Deg. of freedom    81
 Full point group                 C1      NOp   1
 RotChk:  IX=0 Diff= 2.55D-16
 Largest Abelian subgroup         C1      NOp   1
 Largest concise Abelian subgroup C1      NOp   1
                         Standard orientation:                         
 ---------------------------------------------------------------------
 Center     Atomic      Atomic             Coordinates (Angstroms)
 Number     Number       Type             X           Y           Z
 ---------------------------------------------------------------------
      1          8           0       -2.260097   -2.311275   -0.091371
      2          8           0        3.669676   -0.192274    0.185808
      3          7           0       -0.063252    1.802660   -0.102870
      4          1           0       -0.098207    2.808750   -0.106946
      5          6           0        1.293499   -0.141121   -0.033411
      6          6           0       -1.248497    1.135007   -0.065772
      7          6           0        1.193454    1.219928   -0.029444
      8          6           0        2.541121   -0.799231    0.053043
      9          6           0        0.052759   -0.992103   -0.170369
     10          1           0        0.066984   -1.524518   -1.127494
     11          1           0        0.052622   -1.772550    0.592092
     12          6           0       -1.246673   -0.226767   -0.054729
     13          6           0       -2.410389   -1.092252    0.018713
     14          6           0        2.299453    2.207948    0.041905
     15          1           0        2.252194    2.924651   -0.783373
     16          1           0        2.271275    2.777669    0.974760
     17          1           0        3.285232    1.746925   -0.007317
     18          6           0        2.723127   -2.286846   -0.020814
     19          1           0        3.482997   -2.580519   -0.748194
     20          1           0        3.037177   -2.690071    0.945987
     21          1           0        1.803270   -2.795881   -0.296925
     22          6           0       -3.812841   -0.582648    0.249059
     23          1           0       -3.871223    0.150945    1.049161
     24          1           0       -4.213490   -0.125272   -0.656367
     25          1           0       -4.433801   -1.438893    0.500620
     26          6           0       -2.430218    2.058008   -0.036588
     27          1           0       -3.209776    1.749312   -0.724622
     28          1           0       -2.861293    2.114925    0.962748
     29          1           0       -2.126600    3.064758   -0.319084
 ---------------------------------------------------------------------
 Rotational constants (GHZ):           1.1001271           0.4816514           0.3396021
 Leave Link  202 at Sat Jan 24 15:42:26 2026, MaxMem=  2147483648 cpu:               0.0 elap:               0.0
 (Enter /data/home/wyx/g16/l301.exe)
 Standard basis: TZVP (5D, 7F)
 Ernie: Thresh=  0.10000D-02 Tol=  0.10000D-05 Strict=F.
 There are   370 symmetry adapted cartesian basis functions of A   symmetry.
 There are   356 symmetry adapted basis functions of A   symmetry.
   356 basis functions,   610 primitive gaussians,   370 cartesian basis functions
    52 alpha electrons       52 beta electrons
       nuclear repulsion energy       898.4851849727 Hartrees.
 IExCor=20419 DFT=T Ex+Corr=CAM-B3LYP ExCW=0 ScaHFX=  1.000000
 ScaDFX=  1.000000  1.000000  1.000000  0.810000 ScalE2=  1.000000  1.000000
 IRadAn=      5 IRanWt=     -1 IRanGd=            0 ICorTp=0 IEmpDi=141
 HFx  wShort=  0.000000 wLong=  0.330000 cFull=  0.190000 cShort=  0.000000 cLong=  0.460000
 DFx  wShort=  0.000000 wLong=  0.330000 cFull=  0.190000 cShort=  0.000000 cLong=  0.460000
 NAtoms=   29 NActive=   29 NUniq=   29 SFac= 1.00D+00 NAtFMM=   60 NAOKFM=F Big=F
 Integral buffers will be    131072 words long.
 Raffenetti 1 integral format.
 Two-electron integral symmetry is turned on.
 R6Disp:  Grimme-D3(BJ) Dispersion energy=       -0.0260746237 Hartrees.
 Nuclear repulsion after empirical dispersion term =      898.4591103489 Hartrees.
 ------------------------------------------------------------------------------
 Polarizable Continuum Model (PCM)
 =================================
 Model                : PCM.
 Atomic radii         : UFF (Universal Force Field).
 Polarization charges : Total charges.
 Charge compensation  : None.
 Solution method      : On-the-fly selection.
 Cavity type          : Scaled VdW (van der Waals Surface) (Alpha=1.100).
 Cavity algorithm     : GePol (No added spheres)
                        Default sphere list used, NSphG=   29.
                        Lebedev-Laikov grids with approx.  5.0 points / Ang**2.
                        Smoothing algorithm: York/Karplus (Gamma=1.0000).
                        Polarization charges: spherical gaussians, with
                                              point-specific exponents (IZeta= 3).
                        Self-potential: point-specific (ISelfS= 7).
                        Self-field    : sphere-specific E.n sum rule (ISelfD= 2).
 Solvent              : Water, Eps=  78.355300 Eps(inf)=   1.777849
 ------------------------------------------------------------------------------
 GePol: Number of generator spheres                  =      29
 GePol: Total number of spheres                      =      29
 GePol: Number of exposed spheres                    =      29 (100.00%)
 GePol: Number of points                             =    2100
 GePol: Average weight of points                     =       0.13
 GePol: Minimum weight of points                     =   0.67D-09
 GePol: Maximum weight of points                     =    0.20577
 GePol: Number of points with low weight             =     126
 GePol: Fraction of low-weight points (<1% of avg)   =       6.00%
 GePol: Cavity surface area                          =    269.351 Ang**2
 GePol: Cavity volume                                =    286.760 Ang**3
 Leave Link  301 at Sat Jan 24 15:42:26 2026, MaxMem=  2147483648 cpu:               0.6 elap:               0.0
 (Enter /data/home/wyx/g16/l302.exe)
 NPDir=0 NMtPBC=     1 NCelOv=     1 NCel=       1 NClECP=     1 NCelD=      1
         NCelK=      1 NCelE2=     1 NClLst=     1 CellRange=     0.0.
 One-electron integrals computed using PRISM.
 One-electron integral symmetry used in STVInt
 NBasis=   356 RedAO= T EigKep=  3.87D-05  NBF=   356
 NBsUse=   356 1.00D-06 EigRej= -1.00D+00 NBFU=   356
 Precomputing XC quadrature grid using
 IXCGrd= 4 IRadAn=           5 IRanWt=          -1 IRanGd=           0 AccXCQ= 0.00D+00.
 Generated NRdTot=       0 NPtTot=           0 NUsed=           0 NTot=          32
 NSgBfM=   366   366   366   366   366 MxSgAt=    29 MxSgA2=    29.
 Leave Link  302 at Sat Jan 24 15:42:27 2026, MaxMem=  2147483648 cpu:               3.1 elap:               0.2
 (Enter /data/home/wyx/g16/l303.exe)
 DipDrv:  MaxL=1.
 Leave Link  303 at Sat Jan 24 15:42:27 2026, MaxMem=  2147483648 cpu:               0.6 elap:               0.0
 (Enter /data/home/wyx/g16/l308.exe)
 Leave Link  308 at Sat Jan 24 15:42:27 2026, MaxMem=  2147483648 cpu:               0.7 elap:               0.1
 (Enter /data/home/wyx/g16/l401.exe)
 Initial guess from the checkpoint file:  "DDL-LR-Eq-3.chk"
 B after Tr=     0.000000    0.000000    0.000000
         Rot=    1.000000    0.000000   -0.000000    0.000000 Ang=   0.00 deg.
 Guess basis will be translated and rotated to current coordinates.
 JPrj=2 DoOrth=T DoCkMO=T.
 Leave Link  401 at Sat Jan 24 15:42:28 2026, MaxMem=  2147483648 cpu:               2.2 elap:               0.2
 (Enter /data/home/wyx/g16/l502.exe)
 Integral symmetry usage will be decided dynamically.
 Closed shell SCF:
 Using DIIS extrapolation, IDIIS=  1040.
 NGot=  2147483648 LenX=  2147200095 LenY=  2147062754
 Requested convergence on RMS density matrix=1.00D-08 within 128 cycles.
 Requested convergence on MAX density matrix=1.00D-06.
 Requested convergence on             energy=1.00D-06.
 No special actions if energy rises.
 Fock matrices will be formed incrementally for  20 cycles.

 Cycle   1  Pass 1  IDiag  1:
 FoFJK:  IHMeth= 1 ICntrl=       0 DoSepK=T KAlg= 0 I1Cent=           0 FoldK=F
 IRaf=         1 NMat=       1 IRICut=       1 DoRegI=T DoRafI=F ISym2E= 0 IDoP0=0 IntGTp=1.
 FoFCou: FMM=F IPFlag=           0 FMFlag=      100000 FMFlg1=           0
         NFxFlg=           0 DoJE=T BraDBF=F KetDBF=F FulRan=T
         wScrn=  0.000000 ICntrl=       500 IOpCl=  0 I1Cent=           0 NGrid=           0
         NMat0=    1 NMatS0=      1 NMatT0=    0 NMatD0=    1 NMtDS0=    0 NMtDT0=    0
 Symmetry not used in FoFCou.
 Inv3:  Mode=1 IEnd=    13230000.
 Iteration    1 A*A^-1 deviation from unit magnitude is 3.55D-15 for   1644.
 Iteration    1 A*A^-1 deviation from orthogonality  is 2.95D-15 for   1682    739.
 Iteration    1 A^-1*A deviation from unit magnitude is 3.55D-15 for   1644.
 Iteration    1 A^-1*A deviation from orthogonality  is 3.16D-15 for   1990     76.
 E= -633.319097444195    
 DIIS: error= 8.63D-09 at cycle   1 NSaved=   1.
 NSaved= 1 IEnMin= 1 EnMin= -633.319097444195     IErMin= 1 ErrMin= 8.63D-09
 ErrMax= 8.63D-09  0.00D+00 EMaxC= 1.00D-01 BMatC= 2.15D-14 BMatP= 2.15D-14
 IDIUse=1 WtCom= 1.00D+00 WtEn= 0.00D+00
 Coeff-Com:  0.100D+01
 Coeff:      0.100D+01
 Gap=     0.227 Goal=   None    Shift=    0.000
 RMSDP=2.37D-09 MaxDP=1.43D-07              OVMax= 9.90D-08

 Error on total polarization charges =  0.01559
 SCF Done:  E(RCAM-B3LYP) =  -633.319097444     A.U. after    1 cycles
            NFock=  1  Conv=0.24D-08     -V/T= 2.0043
 KE= 6.306033852275D+02 PE=-3.272845115939D+03 EE= 1.110463522919D+03
 Leave Link  502 at Sat Jan 24 15:42:33 2026, MaxMem=  2147483648 cpu:              85.7 elap:               5.6
 (Enter /data/home/wyx/g16/l801.exe)
 DoSCS=F DFT=T ScalE2(SS,OS)=  1.000000  1.000000
 ExpMin= 9.52D-02 ExpMax= 2.70D+04 ExpMxC= 9.22D+02 IAcc=3 IRadAn=         5 AccDes= 0.00D+00
 HarFok:  IExCor=  205 AccDes= 0.00D+00 IRadAn=         5 IDoV=-2 UseB2=F ITyADJ=14
 ICtDFT= 12500011 ScaDFX=  1.000000  1.000000  1.000000  1.000000
 Largest valence mixing into a core orbital is  5.63D-05
 Largest core mixing into a valence orbital is  1.02D-05
 Range of M.O.s used for correlation:    15   356
 NBasis=   356 NAE=    52 NBE=    52 NFC=    14 NFV=     0
 NROrb=    342 NOA=    38 NOB=    38 NVA=   304 NVB=   304

 **** Warning!!: The largest alpha MO coefficient is  0.46139263D+02

 Leave Link  801 at Sat Jan 24 15:42:34 2026, MaxMem=  2147483648 cpu:               1.0 elap:               0.1
 (Enter /data/home/wyx/g16/l914.exe)
 RHF ground state
 Two-electron integrals replicated using symmetry.
 MDV=  2147483648 DFT=T DoStab=F Mixed=T DoRPA=T DoScal=F NonHer=T
 NEqPCM:  Using equilibrium solvation (IEInf=0, Eps=  78.3553, EpsInf=   1.7778)
 Making orbital integer symmetry assigments:
 Orbital symmetries:
       Occupied  (A) (A) (A) (A) (A) (A) (A) (A) (A) (A) (A) (A)
                 (A) (A) (A) (A) (A) (A) (A) (A) (A) (A) (A) (A)
                 (A) (A) (A) (A) (A) (A) (A) (A) (A) (A) (A) (A)
                 (A) (A) (A) (A) (A) (A) (A) (A) (A) (A) (A) (A)
                 (A) (A) (A) (A)
       Virtual   (A) (A) (A) (A) (A) (A) (A) (A) (A) (A) (A) (A)
                 (A) (A) (A) (A) (A) (A) (A) (A) (A) (A) (A) (A)
                 (A) (A) (A) (A) (A) (A) (A) (A) (A) (A) (A) (A)
                 (A) (A) (A) (A) (A) (A) (A) (A) (A) (A) (A) (A)
                 (A) (A) (A) (A) (A) (A) (A) (A) (A) (A) (A) (A)
                 (A) (A) (A) (A) (A) (A) (A) (A) (A) (A) (A) (A)
                 (A) (A) (A) (A) (A) (A) (A) (A) (A) (A) (A) (A)
                 (A) (A) (A) (A) (A) (A) (A) (A) (A) (A) (A) (A)
                 (A) (A) (A) (A) (A) (A) (A) (A) (A) (A) (A) (A)
                 (A) (A) (A) (A) (A) (A) (A) (A) (A) (A) (A) (A)
                 (A) (A) (A) (A) (A) (A) (A) (A) (A) (A) (A) (A)
                 (A) (A) (A) (A) (A) (A) (A) (A) (A) (A) (A) (A)
                 (A) (A) (A) (A) (A) (A) (A) (A) (A) (A) (A) (A)
                 (A) (A) (A) (A) (A) (A) (A) (A) (A) (A) (A) (A)
                 (A) (A) (A) (A) (A) (A) (A) (A) (A) (A) (A) (A)
                 (A) (A) (A) (A) (A) (A) (A) (A) (A) (A) (A) (A)
                 (A) (A) (A) (A) (A) (A) (A) (A) (A) (A) (A) (A)
                 (A) (A) (A) (A) (A) (A) (A) (A) (A) (A) (A) (A)
                 (A) (A) (A) (A) (A) (A) (A) (A) (A) (A) (A) (A)
                 (A) (A) (A) (A) (A) (A) (A) (A) (A) (A) (A) (A)
                 (A) (A) (A) (A) (A) (A) (A) (A) (A) (A) (A) (A)
                 (A) (A) (A) (A) (A) (A) (A) (A) (A) (A) (A) (A)
                 (A) (A) (A) (A) (A) (A) (A) (A) (A) (A) (A) (A)
                 (A) (A) (A) (A) (A) (A) (A) (A) (A) (A) (A) (A)
                 (A) (A) (A) (A) (A) (A) (A) (A) (A) (A) (A) (A)
                 (A) (A) (A) (A)
    24 initial guesses have been made.
 Convergence on wavefunction:    0.001000000000000
 Davidson Disk Diagonalization:  ConvIn= 1.00D-03 SkipCon=T Conv= 1.00D-03.
 Max sub-space:  2000 roots to seek:    24 dimension of matrix:        23104
 Iteration     1 Dimension    24 NMult     0 NNew     24
 CISAX will form    24 AO SS matrices at one time.
 NMat=    24 NSing=    24 JSym2X= 0.
 FoFJK:  IHMeth= 1 ICntrl=       0 DoSepK=T KAlg= 0 I1Cent=           0 FoldK=F
 IRaf=         1 NMat=      48 IRICut=       1 DoRegI=T DoRafI=F ISym2E= 0 IDoP0=3 IntGTp=3.
 FoFCou: FMM=F IPFlag=           0 FMFlag=      100000 FMFlg1=           0
         NFxFlg=           0 DoJE=F BraDBF=F KetDBF=F FulRan=T
         wScrn=  0.000000 ICntrl=       500 IOpCl=  0 I1Cent=           0 NGrid=           0
         NMat0=   24 NMatS0=     24 NMatT0=    0 NMatD0=   24 NMtDS0=    0 NMtDT0=    0
 Symmetry not used in FoFCou.
 New state      3 was old state      4
 New state      4 was old state      3
 New state      6 was old state      7
 Excitation Energies [eV] at current iteration:
 Root      1 :     3.583296815499676
 Root      2 :     3.674211569922329
 Root      3 :     4.468146187661922
 Root      4 :     5.400369660891837
 Root      5 :     6.054362866942607
 Root      6 :     6.318477280844258
 Root      7 :     6.553761265488429
 Root      8 :     6.675233058431926
 Root      9 :     6.936492426343439
 Root     10 :     7.133887341260989
 Root     11 :     7.173257808387473
 Root     12 :     7.210166393696793
 Root     13 :     7.533367128374637
 Root     14 :     7.619940359588529
 Root     15 :     7.665350436829860
 Root     16 :     7.740335181906467
 Root     17 :     7.876283507360864
 Root     18 :     8.172426857410676
 Root     19 :     8.239622471617015
 Root     20 :     8.321432630233927
 Root     21 :     8.411890365821009
 Root     22 :     8.623901665259469
 Root     23 :     8.673186186097540
 Root     24 :     9.126318620632331
 Iteration     2 Dimension    36 NMult    24 NNew     12
 CISAX will form    12 AO SS matrices at one time.
 NMat=    12 NSing=    12 JSym2X= 0.
 Root      1 not converged, maximum delta is    0.175510224582606
 Root      2 not converged, maximum delta is    0.168688341830492
 Root      3 not converged, maximum delta is    0.093582613851436
 Root      4 not converged, maximum delta is    0.487397167777646
 Root      5 not converged, maximum delta is    0.468506563135974
 Root      6 not converged, maximum delta is    0.079092979361226
 Excitation Energies [eV] at current iteration:
 Root      1 :     3.167206461273113   Change is   -0.416090354226563
 Root      2 :     3.462925478835635   Change is   -0.211286091086693
 Root      3 :     4.232353581971165   Change is   -0.235792605690756
 Root      4 :     4.958053685214014   Change is   -0.442315975677823
 Root      5 :     5.327809129964709   Change is   -0.726553736977897
 Root      6 :     6.154700727971349   Change is   -0.163776552872909
 Iteration     3 Dimension    48 NMult    36 NNew     12
 CISAX will form    12 AO SS matrices at one time.
 NMat=    12 NSing=    12 JSym2X= 0.
 Root      1 not converged, maximum delta is    0.006938972028969
 Root      2 not converged, maximum delta is    0.009993897786461
 Root      3 not converged, maximum delta is    0.017431559030113
 Root      4 not converged, maximum delta is    0.015491778403104
 Root      5 not converged, maximum delta is    0.014905340273652
 Root      6 not converged, maximum delta is    0.017657261814266
 Excitation Energies [eV] at current iteration:
 Root      1 :     3.153098268472169   Change is   -0.014108192800943
 Root      2 :     3.454998373534906   Change is   -0.007927105300729
 Root      3 :     4.220007564776917   Change is   -0.012346017194249
 Root      4 :     4.933981181688385   Change is   -0.024072503525629
 Root      5 :     5.314453105612520   Change is   -0.013356024352189
 Root      6 :     6.144134676981532   Change is   -0.010566050989816
 Iteration     4 Dimension    60 NMult    48 NNew     12
 CISAX will form    12 AO SS matrices at one time.
 NMat=    12 NSing=    12 JSym2X= 0.
 Root      1 not converged, maximum delta is    0.001628033766405
 Root      2 not converged, maximum delta is    0.001338079593466
 Root      3 not converged, maximum delta is    0.002056603805218
 Root      4 not converged, maximum delta is    0.003165967751594
 Root      5 not converged, maximum delta is    0.002774227396525
 Root      6 not converged, maximum delta is    0.003429935808408
 Excitation Energies [eV] at current iteration:
 Root      1 :     3.152020074835519   Change is   -0.001078193636650
 Root      2 :     3.454569732426645   Change is   -0.000428641108261
 Root      3 :     4.219483399614126   Change is   -0.000524165162791
 Root      4 :     4.930968422167927   Change is   -0.003012759520458
 Root      5 :     5.312875357342564   Change is   -0.001577748269957
 Root      6 :     6.143363933586034   Change is   -0.000770743395499
 Iteration     5 Dimension    72 NMult    60 NNew     12
 CISAX will form    12 AO SS matrices at one time.
 NMat=    12 NSing=    12 JSym2X= 0.
 Root      1 has converged.
 Root      2 has converged.
 Root      3 has converged.
 Root      4 has converged.
 Root      5 has converged.
 Root      6 has converged.
 Excitation Energies [eV] at current iteration:
 Root      1 :     3.151970349573558   Change is   -0.000049725261962
 Root      2 :     3.454547762619987   Change is   -0.000021969806658
 Root      3 :     4.219453606111751   Change is   -0.000029793502375
 Root      4 :     4.930797046572885   Change is   -0.000171375595042
 Root      5 :     5.312750550955958   Change is   -0.000124806386605
 Root      6 :     6.143318304770960   Change is   -0.000045628815074
 Convergence achieved on expansion vectors.
 ***********************************************************************
 Excited states from <AA,BB:AA,BB> singles matrix:
 ***********************************************************************
 
 1PDM for each excited state written to RWF  633
 Ground to excited state transition densities written to RWF  633
 Ground to excited state transition electric dipole moments (Au):
       state          X           Y           Z        Dip. S.      Osc.
         1        -1.8108     -0.0684     -0.0387      3.2850      0.2537
         2        -0.1778     -0.0145     -0.0492      0.0343      0.0029
         3         0.0093     -0.0988      0.0406      0.0115      0.0012
         4         0.0278     -2.0754      0.0649      4.3121      0.5209
         5        -0.3555      1.1490     -0.0090      1.4467      0.1883
         6        -0.0457      0.0799      0.0137      0.0087      0.0013
 Ground to excited state transition velocity dipole moments (Au):
       state          X           Y           Z        Dip. S.      Osc.
         1         0.2043      0.0069      0.0045      0.0418      0.2405
         2         0.0223      0.0018      0.0051      0.0005      0.0028
         3        -0.0016      0.0146     -0.0026      0.0002      0.0010
         4        -0.0097      0.3572     -0.0095      0.1278      0.4701
         5         0.0648     -0.2233      0.0024      0.0541      0.1846
         6         0.0108     -0.0162     -0.0230      0.0009      0.0027
 Ground to excited state transition magnetic dipole moments (Au):
       state          X           Y           Z
         1         0.0772      0.0175     -1.3895
         2        -0.7132     -0.2665     -0.2208
         3        -0.0015     -0.9370     -0.0535
         4         0.0353      0.0695     -0.5163
         5        -0.1063     -0.0719      0.2112
         6         0.0461      0.0157     -0.0200
 Ground to excited state transition velocity quadrupole moments (Au):
       state          XX          YY          ZZ          XY          XZ          YZ
         1         0.4177     -0.1620     -0.0115     -0.5042      0.0340     -0.0066
         2         0.0466     -0.0042      0.0005     -0.0583      0.0439     -0.0284
         3        -0.0209      0.0069     -0.0112     -0.0243      0.0775      0.0050
         4        -1.5491      0.3636      0.0360     -0.3044     -0.0601     -0.0193
         5         0.5331     -0.4266     -0.0272     -0.1024      0.0499     -0.0329
         6        -0.1837     -0.1208      0.0935     -0.0221     -0.0263      0.1038
 <0|del|b> * <b|rxdel|0> + <0|del|b> * <b|delr+rdel|0>
 Rotatory Strengths (R) in cgs (10**-40 erg-esu-cm/Gauss)
       state          XX          YY          ZZ    R(velocity)    E-M Angle
         1       -26.5757     31.7288     53.3571     19.5034       88.07
         2        -5.5161    -48.3454    -43.6575    -32.5063      164.33
         3       -33.3451      0.1608    -28.6183    -20.6008      165.21
         4       105.5563      3.6170      5.4927     38.2220       80.94
         5        49.7304    -14.9498      0.2655     11.6820       80.31
         6         0.4525      2.4654     -0.7085      0.7365       63.60
 1/2[<0|r|b>*<b|rxdel|0> + (<0|rxdel|b>*<b|r|0>)*]
 Rotatory Strengths (R) in cgs (10**-40 erg-esu-cm/Gauss)
       state          XX          YY          ZZ     R(length)
         1        98.8440      0.8464    -38.0600     20.5435
         2       -89.6979     -2.7335     -7.6802    -33.3705
         3         0.0100    -65.4680      1.5347    -21.3078
         4        -0.6929    102.0137     23.6797     41.6668
         5       -26.7145     58.3923      1.3469     11.0082
         6         1.4905     -0.8844      0.1940      0.2667
  1/2[<0|del|b>*<b|r|0> + (<0|r|b>*<b|del|0>)*] (Au)
       state          X           Y           Z        Dip. S.   Osc.(frdel)
         1        -0.3699     -0.0005     -0.0002      0.3705      0.2470
         2        -0.0040     -0.0000     -0.0002      0.0042      0.0028
         3        -0.0000     -0.0014     -0.0001      0.0016      0.0010
         4        -0.0003     -0.7413     -0.0006      0.7422      0.4948
         5        -0.0230     -0.2566     -0.0000      0.2797      0.1864
         6        -0.0005     -0.0013     -0.0003      0.0021      0.0014

 Excitation energies and oscillator strengths:
 
 Excited State   1:      Singlet-A      3.1520 eV  393.35 nm  f=0.2537  <S**2>=0.000
      52 -> 53         0.69789
 This state for optimization and/or second-order correction.
 Total Energy, E(TD-HF/TD-DFT) =  -633.203264665    
 Copying the excited state density for this state as the 1-particle RhoCI density.
 
 Excited State   2:      Singlet-A      3.4545 eV  358.90 nm  f=0.0029  <S**2>=0.000
      51 -> 53         0.62949
      51 -> 54        -0.27354
 
 Excited State   3:      Singlet-A      4.2195 eV  293.84 nm  f=0.0012  <S**2>=0.000
      50 -> 53         0.52158
      50 -> 54         0.42216
      50 -> 58         0.11852
 
 Excited State   4:      Singlet-A      4.9308 eV  251.45 nm  f=0.5209  <S**2>=0.000
      49 -> 53        -0.19360
      52 -> 54         0.67243
 
 Excited State   5:      Singlet-A      5.3128 eV  233.37 nm  f=0.1883  <S**2>=0.000
      49 -> 53         0.65993
      50 -> 53        -0.11747
      52 -> 54         0.19311
 
 Excited State   6:      Singlet-A      6.1433 eV  201.82 nm  f=0.0013  <S**2>=0.000
      52 -> 55         0.66248
      52 -> 56         0.12477
      52 -> 61        -0.11148
      52 -> 62        -0.10032
 SavETr:  write IOETrn=   770 NScale= 10 NData=  16 NLR=1 NState=    6 LETran=     118.
 Leave Link  914 at Sat Jan 24 15:44:30 2026, MaxMem=  2147483648 cpu:            1854.3 elap:             116.3
 (Enter /data/home/wyx/g16/l601.exe)
 Copying SCF densities to generalized density rwf, IOpCl= 0 IROHF=0.

 **********************************************************************

            Population analysis using the SCF density.

 **********************************************************************

 Orbital symmetries:
       Occupied  (A) (A) (A) (A) (A) (A) (A) (A) (A) (A) (A) (A)
                 (A) (A) (A) (A) (A) (A) (A) (A) (A) (A) (A) (A)
                 (A) (A) (A) (A) (A) (A) (A) (A) (A) (A) (A) (A)
                 (A) (A) (A) (A) (A) (A) (A) (A) (A) (A) (A) (A)
                 (A) (A) (A) (A)
       Virtual   (A) (A) (A) (A) (A) (A) (A) (A) (A) (A) (A) (A)
                 (A) (A) (A) (A) (A) (A) (A) (A) (A) (A) (A) (A)
                 (A) (A) (A) (A) (A) (A) (A) (A) (A) (A) (A) (A)
                 (A) (A) (A) (A) (A) (A) (A) (A) (A) (A) (A) (A)
                 (A) (A) (A) (A) (A) (A) (A) (A) (A) (A) (A) (A)
                 (A) (A) (A) (A) (A) (A) (A) (A) (A) (A) (A) (A)
                 (A) (A) (A) (A) (A) (A) (A) (A) (A) (A) (A) (A)
                 (A) (A) (A) (A) (A) (A) (A) (A) (A) (A) (A) (A)
                 (A) (A) (A) (A) (A) (A) (A) (A) (A) (A) (A) (A)
                 (A) (A) (A) (A) (A) (A) (A) (A) (A) (A) (A) (A)
                 (A) (A) (A) (A) (A) (A) (A) (A) (A) (A) (A) (A)
                 (A) (A) (A) (A) (A) (A) (A) (A) (A) (A) (A) (A)
                 (A) (A) (A) (A) (A) (A) (A) (A) (A) (A) (A) (A)
                 (A) (A) (A) (A) (A) (A) (A) (A) (A) (A) (A) (A)
                 (A) (A) (A) (A) (A) (A) (A) (A) (A) (A) (A) (A)
                 (A) (A) (A) (A) (A) (A) (A) (A) (A) (A) (A) (A)
                 (A) (A) (A) (A) (A) (A) (A) (A) (A) (A) (A) (A)
                 (A) (A) (A) (A) (A) (A) (A) (A) (A) (A) (A) (A)
                 (A) (A) (A) (A) (A) (A) (A) (A) (A) (A) (A) (A)
                 (A) (A) (A) (A) (A) (A) (A) (A) (A) (A) (A) (A)
                 (A) (A) (A) (A) (A) (A) (A) (A) (A) (A) (A) (A)
                 (A) (A) (A) (A) (A) (A) (A) (A) (A) (A) (A) (A)
                 (A) (A) (A) (A) (A) (A) (A) (A) (A) (A) (A) (A)
                 (A) (A) (A) (A) (A) (A) (A) (A) (A) (A) (A) (A)
                 (A) (A) (A) (A) (A) (A) (A) (A) (A) (A) (A) (A)
                 (A) (A) (A) (A)
 The electronic state is 1-A.
 Alpha  occ. eigenvalues --  -19.17782 -19.16597 -14.44522 -10.33441 -10.33341
 Alpha  occ. eigenvalues --  -10.32654 -10.32428 -10.25732 -10.25391 -10.25189
 Alpha  occ. eigenvalues --  -10.25139 -10.24178 -10.24089 -10.23965  -1.11731
 Alpha  occ. eigenvalues --   -1.08746  -1.07718  -0.91554  -0.90635  -0.83946
 Alpha  occ. eigenvalues --   -0.82480  -0.81469  -0.78814  -0.74354  -0.71661
 Alpha  occ. eigenvalues --   -0.69273  -0.62135  -0.58477  -0.56963  -0.55150
 Alpha  occ. eigenvalues --   -0.54714  -0.54243  -0.52387  -0.51808  -0.50656
 Alpha  occ. eigenvalues --   -0.49621  -0.49295  -0.48989  -0.48462  -0.48195
 Alpha  occ. eigenvalues --   -0.46587  -0.45550  -0.44510  -0.43657  -0.42965
 Alpha  occ. eigenvalues --   -0.42437  -0.41708  -0.40709  -0.32973  -0.32261
 Alpha  occ. eigenvalues --   -0.30750  -0.26352
 Alpha virt. eigenvalues --   -0.03661   0.01794   0.06599   0.08448   0.08758
 Alpha virt. eigenvalues --    0.10201   0.10835   0.11606   0.12696   0.13265
 Alpha virt. eigenvalues --    0.14637   0.15278   0.15546   0.16654   0.17003
 Alpha virt. eigenvalues --    0.17506   0.17571   0.17878   0.18559   0.19255
 Alpha virt. eigenvalues --    0.19921   0.20223   0.22443   0.23136   0.24388
 Alpha virt. eigenvalues --    0.24435   0.24918   0.25526   0.25827   0.26237
 Alpha virt. eigenvalues --    0.27482   0.28086   0.28496   0.29307   0.29843
 Alpha virt. eigenvalues --    0.31159   0.31618   0.33556   0.33887   0.34839
 Alpha virt. eigenvalues --    0.35317   0.35981   0.37064   0.37263   0.37591
 Alpha virt. eigenvalues --    0.40021   0.40848   0.41230   0.42391   0.43216
 Alpha virt. eigenvalues --    0.44116   0.44948   0.45450   0.46340   0.46421
 Alpha virt. eigenvalues --    0.47188   0.47916   0.48143   0.48565   0.48909
 Alpha virt. eigenvalues --    0.49430   0.50028   0.50703   0.51596   0.51838
 Alpha virt. eigenvalues --    0.52370   0.52837   0.53041   0.53886   0.54084
 Alpha virt. eigenvalues --    0.54663   0.55711   0.55879   0.57568   0.57951
 Alpha virt. eigenvalues --    0.58870   0.59143   0.60230   0.62298   0.62656
 Alpha virt. eigenvalues --    0.63424   0.64839   0.66483   0.67450   0.67587
 Alpha virt. eigenvalues --    0.68229   0.68550   0.71077   0.71649   0.72097
 Alpha virt. eigenvalues --    0.73494   0.75278   0.76686   0.77327   0.78602
 Alpha virt. eigenvalues --    0.80090   0.81082   0.83655   0.87685   0.88831
 Alpha virt. eigenvalues --    0.91928   0.94612   0.99276   1.02122   1.20938
 Alpha virt. eigenvalues --    1.23214   1.24990   1.27229   1.29921   1.31035
 Alpha virt. eigenvalues --    1.32249   1.33287   1.34327   1.35483   1.36832
 Alpha virt. eigenvalues --    1.37523   1.37748   1.39403   1.39791   1.39961
 Alpha virt. eigenvalues --    1.40486   1.40813   1.41075   1.41298   1.41761
 Alpha virt. eigenvalues --    1.42986   1.43251   1.44540   1.45384   1.45670
 Alpha virt. eigenvalues --    1.48522   1.49689   1.49961   1.50968   1.51380
 Alpha virt. eigenvalues --    1.52120   1.52452   1.54431   1.56894   1.57561
 Alpha virt. eigenvalues --    1.59464   1.59918   1.60161   1.61108   1.61925
 Alpha virt. eigenvalues --    1.62721   1.62930   1.63420   1.63600   1.64505
 Alpha virt. eigenvalues --    1.65655   1.66229   1.66338   1.67527   1.68032
 Alpha virt. eigenvalues --    1.69056   1.69224   1.70130   1.71293   1.73013
 Alpha virt. eigenvalues --    1.73500   1.74140   1.75861   1.76103   1.80271
 Alpha virt. eigenvalues --    1.81512   1.83151   1.84493   1.84978   1.85798
 Alpha virt. eigenvalues --    1.86009   1.86487   1.89755   1.90055   1.90391
 Alpha virt. eigenvalues --    1.91623   1.93056   1.97042   1.98573   2.01476
 Alpha virt. eigenvalues --    2.02323   2.04889   2.06070   2.07548   2.10020
 Alpha virt. eigenvalues --    2.10658   2.13649   2.14856   2.19049   2.20157
 Alpha virt. eigenvalues --    2.20754   2.23174   2.24006   2.25056   2.25751
 Alpha virt. eigenvalues --    2.27599   2.29282   2.29964   2.31884   2.33062
 Alpha virt. eigenvalues --    2.34222   2.34793   2.36170   2.38151   2.38841
 Alpha virt. eigenvalues --    2.40015   2.41189   2.42943   2.43570   2.45793
 Alpha virt. eigenvalues --    2.47015   2.47160   2.49372   2.49707   2.51199
 Alpha virt. eigenvalues --    2.53154   2.54039   2.54947   2.56605   2.56884
 Alpha virt. eigenvalues --    2.58208   2.59555   2.61440   2.62375   2.63041
 Alpha virt. eigenvalues --    2.63853   2.65308   2.65535   2.66693   2.68251
 Alpha virt. eigenvalues --    2.68610   2.71451   2.73734   2.74480   2.75235
 Alpha virt. eigenvalues --    2.76136   2.76801   2.77410   2.78280   2.78784
 Alpha virt. eigenvalues --    2.80332   2.81094   2.83115   2.83920   2.85199
 Alpha virt. eigenvalues --    2.85599   2.87860   2.89425   2.90707   2.92844
 Alpha virt. eigenvalues --    2.98185   2.98791   2.98944   3.03865   3.08587
 Alpha virt. eigenvalues --    3.11280   3.12197   3.14206   3.19110   3.19820
 Alpha virt. eigenvalues --    3.21323   3.22301   3.25142   3.25686   3.25888
 Alpha virt. eigenvalues --    3.29004   3.30642   3.30930   3.35401   3.37725
 Alpha virt. eigenvalues --    3.39232   3.39748   3.40024   3.40418   3.41280
 Alpha virt. eigenvalues --    3.42211   3.43967   3.45254   3.46755   3.49338
 Alpha virt. eigenvalues --    3.51367   3.52262   3.55062   3.57980   3.59672
 Alpha virt. eigenvalues --    3.62149   3.92015   3.99996   4.29128   4.35439
 Alpha virt. eigenvalues --   21.64346  21.76534  22.04810  22.10371  22.11912
 Alpha virt. eigenvalues --   22.12820  22.16013  22.18938  22.20815  22.26510
 Alpha virt. eigenvalues --   22.31142  31.93046  43.64355  43.67248
          Condensed to atoms (all electrons):
               1          2          3          4          5          6
     1  O    7.952597   0.000000  -0.000231   0.000017   0.018031   0.016267
     2  O    0.000000   8.115072   0.000712   0.000016  -0.189267   0.001639
     3  N   -0.000231   0.000712   6.341514   0.370288  -0.090817   0.385050
     4  H    0.000017   0.000016   0.370288   0.391897   0.011412  -0.040536
     5  C    0.018031  -0.189267  -0.090817   0.011412   7.194086  -0.045649
     6  C    0.016267   0.001639   0.385050  -0.040536  -0.045649   5.573442
     7  C   -0.000000   0.001818   0.349826  -0.043103   0.304242  -0.149241
     8  C   -0.000247   0.609414   0.004534  -0.001317  -0.486192   0.049333
     9  C   -0.007785   0.023353   0.018008   0.000840  -0.654391  -0.092267
    10  H    0.005696  -0.000048   0.002197   0.000023  -0.037254  -0.006092
    11  H    0.010961  -0.000210  -0.001072  -0.000002  -0.117685   0.022398
    12  C   -0.247998  -0.003713  -0.104110   0.018019   0.207084  -0.147814
    13  C    0.733008  -0.000002  -0.000452   0.000513   0.065021   0.122960
    14  C   -0.000015  -0.085414  -0.049123   0.002343   0.035494  -0.005494
    15  H    0.000000   0.004334   0.001941  -0.000107  -0.005333   0.002671
    16  H    0.000000   0.002275  -0.001543  -0.000052  -0.013451   0.001419
    17  H    0.000000   0.039411   0.003733   0.000678   0.011869  -0.000223
    18  C   -0.000334  -0.087828  -0.000281   0.000012  -0.128470  -0.002398
    19  H    0.000000   0.000362   0.000009  -0.000001   0.002626   0.000043
    20  H    0.000011  -0.001643   0.000011  -0.000001  -0.010244   0.000099
    21  H    0.000789   0.007561   0.000071   0.000000   0.080413  -0.001473
    22  C   -0.117746   0.000000   0.000312   0.000103   0.000748  -0.010496
    23  H    0.004089  -0.000000   0.000033  -0.000051  -0.000388  -0.026827
    24  H    0.002105   0.000000   0.000079  -0.000015  -0.000077   0.009658
    25  H    0.009881  -0.000000   0.000023  -0.000002  -0.000085  -0.001424
    26  C    0.000866   0.000008  -0.027962  -0.010292   0.001673   0.198192
    27  H   -0.000129  -0.000000   0.000681   0.000888   0.000305  -0.038132
    28  H   -0.000031  -0.000000  -0.002831   0.000562   0.000443  -0.038336
    29  H    0.000020   0.000000   0.003619   0.001940  -0.000529  -0.052352
               7          8          9         10         11         12
     1  O   -0.000000  -0.000247  -0.007785   0.005696   0.010961  -0.247998
     2  O    0.001818   0.609414   0.023353  -0.000048  -0.000210  -0.003713
     3  N    0.349826   0.004534   0.018008   0.002197  -0.001072  -0.104110
     4  H   -0.043103  -0.001317   0.000840   0.000023  -0.000002   0.018019
     5  C    0.304242  -0.486192  -0.654391  -0.037254  -0.117685   0.207084
     6  C   -0.149241   0.049333  -0.092267  -0.006092   0.022398  -0.147814
     7  C    5.527980  -0.227459  -0.253272  -0.002728   0.014195   0.050818
     8  C   -0.227459   5.757676   0.192033  -0.003369   0.000115  -0.090421
     9  C   -0.253272   0.192033   6.484066   0.413180   0.534640  -0.140203
    10  H   -0.002728  -0.003369   0.413180   0.548407  -0.041141  -0.024873
    11  H    0.014195   0.000115   0.534640  -0.041141   0.516657  -0.093420
    12  C    0.050818  -0.090421  -0.140203  -0.024873  -0.093420   7.488978
    13  C    0.025907  -0.010548  -0.227439  -0.006369  -0.001733  -0.488259
    14  C    0.188880  -0.102340   0.022434  -0.000943   0.000167   0.004032
    15  H   -0.041420   0.007264  -0.001304   0.000122  -0.000009  -0.000487
    16  H   -0.025016   0.006848  -0.000225  -0.000029   0.000052  -0.000757
    17  H   -0.059309  -0.027972   0.002124   0.000031  -0.000040  -0.000291
    18  C    0.028331   0.281547  -0.023181  -0.007009  -0.008760   0.012064
    19  H   -0.000527  -0.031460  -0.001847   0.000461   0.000538  -0.000200
    20  H   -0.001288  -0.013052  -0.000914   0.000298   0.000088  -0.000756
    21  H    0.005141  -0.139079  -0.015506  -0.003154  -0.005194   0.005268
    22  C    0.001114  -0.000053   0.015408   0.001445   0.000175  -0.292569
    23  H   -0.000001  -0.000000   0.001944  -0.000149   0.000018   0.052346
    24  H   -0.000039   0.000002  -0.002248   0.000160  -0.000118  -0.001113
    25  H    0.000010   0.000000  -0.000094  -0.000067  -0.000061   0.027366
    26  C    0.004477   0.000853   0.019473  -0.000377   0.000041  -0.086116
    27  H   -0.000960  -0.000003  -0.000773  -0.000032   0.000010  -0.002541
    28  H   -0.001275  -0.000007  -0.000304  -0.000017   0.000056  -0.018180
    29  H    0.003445   0.000019  -0.000618   0.000046  -0.000008   0.023740
              13         14         15         16         17         18
     1  O    0.733008  -0.000015   0.000000   0.000000   0.000000  -0.000334
     2  O   -0.000002  -0.085414   0.004334   0.002275   0.039411  -0.087828
     3  N   -0.000452  -0.049123   0.001941  -0.001543   0.003733  -0.000281
     4  H    0.000513   0.002343  -0.000107  -0.000052   0.000678   0.000012
     5  C    0.065021   0.035494  -0.005333  -0.013451   0.011869  -0.128470
     6  C    0.122960  -0.005494   0.002671   0.001419  -0.000223  -0.002398
     7  C    0.025907   0.188880  -0.041420  -0.025016  -0.059309   0.028331
     8  C   -0.010548  -0.102340   0.007264   0.006848  -0.027972   0.281547
     9  C   -0.227439   0.022434  -0.001304  -0.000225   0.002124  -0.023181
    10  H   -0.006369  -0.000943   0.000122  -0.000029   0.000031  -0.007009
    11  H   -0.001733   0.000167  -0.000009   0.000052  -0.000040  -0.008760
    12  C   -0.488259   0.004032  -0.000487  -0.000757  -0.000291   0.012064
    13  C    5.525885  -0.000049  -0.000022  -0.000027   0.000004   0.000948
    14  C   -0.000049   5.316583   0.384784   0.393143   0.416436  -0.003902
    15  H   -0.000022   0.384784   0.543012  -0.029916  -0.018080   0.000140
    16  H   -0.000027   0.393143  -0.029916   0.516372  -0.015413   0.000092
    17  H    0.000004   0.416436  -0.018080  -0.015413   0.449422   0.001573
    18  C    0.000948  -0.003902   0.000140   0.000092   0.001573   5.172346
    19  H   -0.000020  -0.000014   0.000006  -0.000009   0.000034   0.411652
    20  H   -0.000031  -0.000109  -0.000007   0.000014  -0.000003   0.400059
    21  H    0.002085   0.000536  -0.000021  -0.000008  -0.000194   0.409962
    22  C    0.320459   0.000018   0.000001  -0.000002   0.000000   0.000016
    23  H   -0.076254   0.000002  -0.000000   0.000000   0.000000   0.000001
    24  H   -0.035899  -0.000001   0.000000  -0.000000  -0.000000  -0.000001
    25  H   -0.046964   0.000000   0.000000  -0.000000  -0.000000   0.000000
    26  C   -0.053295  -0.000124  -0.000216   0.000032   0.000010  -0.000022
    27  H   -0.007408   0.000028  -0.000006   0.000006  -0.000001   0.000000
    28  H    0.006199  -0.000058   0.000012  -0.000015   0.000001  -0.000000
    29  H   -0.000167   0.000380   0.000017   0.000015   0.000002   0.000001
              19         20         21         22         23         24
     1  O    0.000000   0.000011   0.000789  -0.117746   0.004089   0.002105
     2  O    0.000362  -0.001643   0.007561   0.000000  -0.000000   0.000000
     3  N    0.000009   0.000011   0.000071   0.000312   0.000033   0.000079
     4  H   -0.000001  -0.000001   0.000000   0.000103  -0.000051  -0.000015
     5  C    0.002626  -0.010244   0.080413   0.000748  -0.000388  -0.000077
     6  C    0.000043   0.000099  -0.001473  -0.010496  -0.026827   0.009658
     7  C   -0.000527  -0.001288   0.005141   0.001114  -0.000001  -0.000039
     8  C   -0.031460  -0.013052  -0.139079  -0.000053  -0.000000   0.000002
     9  C   -0.001847  -0.000914  -0.015506   0.015408   0.001944  -0.002248
    10  H    0.000461   0.000298  -0.003154   0.001445  -0.000149   0.000160
    11  H    0.000538   0.000088  -0.005194   0.000175   0.000018  -0.000118
    12  C   -0.000200  -0.000756   0.005268  -0.292569   0.052346  -0.001113
    13  C   -0.000020  -0.000031   0.002085   0.320459  -0.076254  -0.035899
    14  C   -0.000014  -0.000109   0.000536   0.000018   0.000002  -0.000001
    15  H    0.000006  -0.000007  -0.000021   0.000001  -0.000000   0.000000
    16  H   -0.000009   0.000014  -0.000008  -0.000002   0.000000  -0.000000
    17  H    0.000034  -0.000003  -0.000194   0.000000   0.000000  -0.000000
    18  C    0.411652   0.400059   0.409962   0.000016   0.000001  -0.000001
    19  H    0.500770  -0.018365  -0.025538  -0.000000   0.000000   0.000000
    20  H   -0.018365   0.497722  -0.019914  -0.000001   0.000000   0.000000
    21  H   -0.025538  -0.019914   0.546117   0.000052  -0.000001  -0.000001
    22  C   -0.000000  -0.000001   0.000052   5.429630   0.387609   0.405693
    23  H    0.000000   0.000000  -0.000001   0.387609   0.544206  -0.029148
    24  H    0.000000   0.000000  -0.000001   0.405693  -0.029148   0.496355
    25  H   -0.000000   0.000000  -0.000001   0.381534  -0.020728  -0.008222
    26  C    0.000000   0.000001  -0.000014  -0.038169   0.019825  -0.015678
    27  H   -0.000000   0.000000   0.000000   0.011523  -0.008777  -0.001115
    28  H    0.000000  -0.000000   0.000000  -0.013001  -0.002132   0.001517
    29  H    0.000000  -0.000000  -0.000000   0.001759   0.000729   0.000167
              25         26         27         28         29
     1  O    0.009881   0.000866  -0.000129  -0.000031   0.000020
     2  O   -0.000000   0.000008  -0.000000  -0.000000   0.000000
     3  N    0.000023  -0.027962   0.000681  -0.002831   0.003619
     4  H   -0.000002  -0.010292   0.000888   0.000562   0.001940
     5  C   -0.000085   0.001673   0.000305   0.000443  -0.000529
     6  C   -0.001424   0.198192  -0.038132  -0.038336  -0.052352
     7  C    0.000010   0.004477  -0.000960  -0.001275   0.003445
     8  C    0.000000   0.000853  -0.000003  -0.000007   0.000019
     9  C   -0.000094   0.019473  -0.000773  -0.000304  -0.000618
    10  H   -0.000067  -0.000377  -0.000032  -0.000017   0.000046
    11  H   -0.000061   0.000041   0.000010   0.000056  -0.000008
    12  C    0.027366  -0.086116  -0.002541  -0.018180   0.023740
    13  C   -0.046964  -0.053295  -0.007408   0.006199  -0.000167
    14  C    0.000000  -0.000124   0.000028  -0.000058   0.000380
    15  H    0.000000  -0.000216  -0.000006   0.000012   0.000017
    16  H   -0.000000   0.000032   0.000006  -0.000015   0.000015
    17  H   -0.000000   0.000010  -0.000001   0.000001   0.000002
    18  C    0.000000  -0.000022   0.000000  -0.000000   0.000001
    19  H   -0.000000   0.000000  -0.000000   0.000000   0.000000
    20  H    0.000000   0.000001   0.000000  -0.000000  -0.000000
    21  H   -0.000001  -0.000014   0.000000   0.000000  -0.000000
    22  C    0.381534  -0.038169   0.011523  -0.013001   0.001759
    23  H   -0.020728   0.019825  -0.008777  -0.002132   0.000729
    24  H   -0.008222  -0.015678  -0.001115   0.001517   0.000167
    25  H    0.499815   0.001880   0.000704   0.000107  -0.000046
    26  C    0.001880   5.245578   0.415132   0.437445   0.387491
    27  H    0.000704   0.415132   0.511491  -0.028353  -0.024152
    28  H    0.000107   0.437445  -0.028353   0.474203  -0.015471
    29  H   -0.000046   0.387491  -0.024152  -0.015471   0.516307
 Mulliken charges:
               1
     1  O   -0.379820
     2  O   -0.437849
     3  N   -0.204218
     4  H    0.295929
     5  C   -0.153614
     6  C    0.275584
     7  C    0.299452
     8  C    0.223881
     9  C   -0.305131
    10  H    0.161583
    11  H    0.169340
    12  C   -0.145895
    13  C    0.151949
    14  C   -0.517672
    15  H    0.152623
    16  H    0.166195
    17  H    0.196197
    18  C   -0.456558
    19  H    0.161479
    20  H    0.168023
    21  H    0.152100
    22  C   -0.485564
    23  H    0.153657
    24  H    0.177939
    25  H    0.156372
    26  C   -0.500712
    27  H    0.171615
    28  H    0.199466
    29  H    0.153649
 Sum of Mulliken charges =  -0.00000
 Mulliken charges with hydrogens summed into heavy atoms:
               1
     1  O   -0.379820
     2  O   -0.437849
     3  N    0.091711
     5  C   -0.153614
     6  C    0.275584
     7  C    0.299452
     8  C    0.223881
     9  C    0.025792
    12  C   -0.145895
    13  C    0.151949
    14  C   -0.002656
    18  C    0.025044
    22  C    0.002404
    26  C    0.024018
 Electronic spatial extent (au):  <R**2>=           3230.4528
 Charge=              0.0000 electrons
 Dipole moment (field-independent basis, Debye):
    X=             -4.6488    Y=              7.7910    Z=             -0.1608  Tot=              9.0740
 Quadrupole moment (field-independent basis, Debye-Ang):
   XX=           -100.2871   YY=            -78.4607   ZZ=            -84.3497
   XY=            -13.9135   XZ=             -2.5019   YZ=             -0.8361
 Traceless Quadrupole moment (field-independent basis, Debye-Ang):
   XX=            -12.5879   YY=              9.2385   ZZ=              3.3495
   XY=            -13.9135   XZ=             -2.5019   YZ=             -0.8361
 Octapole moment (field-independent basis, Debye-Ang**2):
  XXX=           -124.9534  YYY=             67.9077  ZZZ=              1.1353  XYY=             37.9664
  XXY=             28.6114  XXZ=             -5.7476  XZZ=             -1.0060  YZZ=             -0.7331
  YYZ=              1.7136  XYZ=              2.0144
 Hexadecapole moment (field-independent basis, Debye-Ang**3):
 XXXX=          -3182.6519 YYYY=          -1280.1292 ZZZZ=           -129.7454 XXXY=            -51.5804
 XXXZ=            -32.1835 YYYX=            -95.4346 YYYZ=            -11.5009 ZZZX=              1.9659
 ZZZY=              2.0092 XXYY=           -692.0184 XXZZ=           -485.9418 YYZZ=           -234.4277
 XXYZ=             -2.4707 YYXZ=             -3.5689 ZZXY=             -3.4913
 N-N= 8.984591103489D+02 E-N=-3.272845116028D+03  KE= 6.306033852275D+02
 Leave Link  601 at Sat Jan 24 15:44:31 2026, MaxMem=  2147483648 cpu:               0.7 elap:               0.1
 (Enter /data/home/wyx/g16/l9999.exe)
 Electronic transition elements 
                 1             2             3             4             5 
      1  -0.633203D+03 -0.633192D+03 -0.633164D+03 -0.633138D+03 -0.633124D+03
      2   0.168468D+01  0.159595D+00  0.326696D-01  0.692113D+00 -0.646889D-01
      3   0.573466D+00  0.504093D-01 -0.969457D-01 -0.195372D+01  0.120039D+01
      4   0.343559D+00  0.790187D-01 -0.321075D-01  0.126656D+00 -0.403386D-01
      5  -0.189735D+00 -0.202174D-01 -0.396632D-02 -0.114239D+00  0.166369D-01
      6  -0.654332D-01 -0.627878D-02  0.143240D-01  0.337965D+00 -0.231809D+00
      7  -0.388446D-01 -0.882574D-02  0.145851D-02 -0.226299D-01  0.786547D-02
      8  -0.337717D+00  0.706438D+00  0.309906D+00 -0.152991D+00  0.161964D+00
      9   0.314956D-01  0.799363D-02 -0.874591D+00  0.683343D-01 -0.363265D-01
     10   0.134979D+01  0.359667D+00  0.140736D+00  0.494495D+00 -0.183025D+00
     11   0.877991D-02 -0.896973D-02 -0.599963D-01 -0.143977D+01  0.325296D+00
     12   0.242401D+00  0.429889D-01  0.208033D-01  0.327130D+00 -0.237485D+00
     13  -0.692215D-02  0.891645D-02  0.140046D-01 -0.368792D-01 -0.846189D-02
     14   0.558884D+00  0.528157D-01  0.711803D-02 -0.392719D+00  0.376515D+00
     15   0.162092D-01  0.279079D-01  0.649436D-01 -0.332912D+00  0.911378D-01
     16   0.117423D+00  0.515588D-01  0.233098D-01 -0.872011D-01  0.127680D+00
                 6 
      1  -0.633093D+03
      2   0.175460D-01
      3   0.904048D-01
      4  -0.134430D-01
      5  -0.879486D-02
      6  -0.182528D-01
      7   0.223158D-01
      8  -0.515543D-01
      9  -0.945522D-03
     10   0.105158D-01
     11  -0.184696D+00
     12  -0.120240D+00
     13   0.940025D-01
     14   0.151411D-01
     15  -0.423979D-01
     16  -0.988953D-01
 1\1\GINC-CN015\SP\RCAM-B3LYP TD-FC\TZVP\C11H15N1O2\WYX\24-Jan-2026\0\\
 #p CAM-B3LYP TZVP em=gd3bj td(Eqsolv,nstates=6,root=1) scrf=(Solvent=W
 ater) Geom=Check Guess=Read\\Title Card Required\\0,1\O,0,2.764018,-1.
 55307,0.676186\O,0,-3.368916,-1.662261,-0.774467\N,0,-0.66119,1.524926
 ,-0.061796\H,0,-0.971768,2.47877,-0.146514\C,0,-1.237669,-0.772792,-0.
 17154\C,0,0.664999,1.315519,0.160273\C,0,-1.607426,0.535828,-0.286741\
 C,0,-2.147465,-1.829629,-0.400695\C,0,0.169337,-1.128956,0.247799\H,0,
 0.157696,-1.603062,1.235141\H,0,0.577797,-1.882381,-0.427447\C,0,1.128
 333,0.040277,0.27703\C,0,2.508753,-0.362918,0.478441\C,0,-2.949155,1.0
 69564,-0.63228\H,0,-3.30405,1.781903,0.118454\H,0,-2.941891,1.584218,-
 1.596993\H,0,-3.710101,0.29328,-0.70349\C,0,-1.823322,-3.283357,-0.218
 529\H,0,-2.560177,-3.80305,0.397662\H,0,-1.79431,-3.80041,-1.18172\H,0
 ,-0.854372,-3.428069,0.252306\C,0,3.671141,0.599729,0.436092\H,0,3.625
 629,1.282374,-0.408689\H,0,3.715037,1.196016,1.348245\H,0,4.581655,0.0
 09052,0.372107\C,0,1.445704,2.593553,0.240132\H,0,2.13999,2.59953,1.07
 3394\H,0,2.011057,2.767906,-0.675135\H,0,0.770667,3.437511,0.372773\\V
 ersion=ES64L-G16RevA.03\State=1-A\HF=-633.3190974\RMSD=2.373e-09\PG=C0
 1 [X(C11H15N1O2)]\\@


 WOE UNTO THEM THAT CALL EVIL GOOD, AND GOOD EVIL      
 Job cpu time:       0 days  0 hours 32 minutes 31.1 seconds.
 Elapsed time:       0 days  0 hours  2 minutes  2.9 seconds.
 File lengths (MBytes):  RWF=    734 Int=      0 D2E=      0 Chk=     67 Scr=      1
 Normal termination of Gaussian 16 at Sat Jan 24 15:44:35 2026.
