 Entering Gaussian System, Link 0=g16
 Input=DDL-S2-cLR-4.gjf
 Output=DDL-S2-cLR-4.log
 Initial command:
 /data/home/wyx/g16/l1.exe "/scr/tmp/wyx/13119/Gau-1517982.inp" -scrdir="/scr/tmp/wyx/13119/"
 Entering Link 1 = /data/home/wyx/g16/l1.exe PID=   1517983.
  
 Copyright (c) 1988,1990,1992,1993,1995,1998,2003,2009,2016,
            Gaussian, Inc.  All Rights Reserved.
  
 This is part of the Gaussian(R) 16 program.  It is based on
 the Gaussian(R) 09 system (copyright 2009, Gaussian, Inc.),
 the Gaussian(R) 03 system (copyright 2003, Gaussian, Inc.),
 the Gaussian(R) 98 system (copyright 1998, Gaussian, Inc.),
 the Gaussian(R) 94 system (copyright 1995, Gaussian, Inc.),
 the Gaussian 92(TM) system (copyright 1992, Gaussian, Inc.),
 the Gaussian 90(TM) system (copyright 1990, Gaussian, Inc.),
 the Gaussian 88(TM) system (copyright 1988, Gaussian, Inc.),
 the Gaussian 86(TM) system (copyright 1986, Carnegie Mellon
 University), and the Gaussian 82(TM) system (copyright 1983,
 Carnegie Mellon University). Gaussian is a federally registered
 trademark of Gaussian, Inc.
  
 This software contains proprietary and confidential information,
 including trade secrets, belonging to Gaussian, Inc.
  
 This software is provided under written license and may be
 used, copied, transmitted, or stored only in accord with that
 written license.
  
 The following legend is applicable only to US Government
 contracts under FAR:
  
                    RESTRICTED RIGHTS LEGEND
  
 Use, reproduction and disclosure by the US Government is
 subject to restrictions as set forth in subparagraphs (a)
 and (c) of the Commercial Computer Software - Restricted
 Rights clause in FAR 52.227-19.
  
 Gaussian, Inc.
 340 Quinnipiac St., Bldg. 40, Wallingford CT 06492
  
  
 ---------------------------------------------------------------
 Warning -- This program may not be used in any manner that
 competes with the business of Gaussian, Inc. or will provide
 assistance to any competitor of Gaussian, Inc.  The licensee
 of this program is prohibited from giving any competitor of
 Gaussian, Inc. access to this program.  By using this program,
 the user acknowledges that Gaussian, Inc. is engaged in the
 business of creating and licensing software in the field of
 computational chemistry and represents and warrants to the
 licensee that it is not a competitor of Gaussian, Inc. and that
 it will not use this program in any manner prohibited above.
 ---------------------------------------------------------------
  

 Cite this work as:
 Gaussian 16, Revision A.03,
 M. J. Frisch, G. W. Trucks, H. B. Schlegel, G. E. Scuseria, 
 M. A. Robb, J. R. Cheeseman, G. Scalmani, V. Barone, 
 G. A. Petersson, H. Nakatsuji, X. Li, M. Caricato, A. V. Marenich, 
 J. Bloino, B. G. Janesko, R. Gomperts, B. Mennucci, H. P. Hratchian, 
 J. V. Ortiz, A. F. Izmaylov, J. L. Sonnenberg, D. Williams-Young, 
 F. Ding, F. Lipparini, F. Egidi, J. Goings, B. Peng, A. Petrone, 
 T. Henderson, D. Ranasinghe, V. G. Zakrzewski, J. Gao, N. Rega, 
 G. Zheng, W. Liang, M. Hada, M. Ehara, K. Toyota, R. Fukuda, 
 J. Hasegawa, M. Ishida, T. Nakajima, Y. Honda, O. Kitao, H. Nakai, 
 T. Vreven, K. Throssell, J. A. Montgomery, Jr., J. E. Peralta, 
 F. Ogliaro, M. J. Bearpark, J. J. Heyd, E. N. Brothers, K. N. Kudin, 
 V. N. Staroverov, T. A. Keith, R. Kobayashi, J. Normand, 
 K. Raghavachari, A. P. Rendell, J. C. Burant, S. S. Iyengar, 
 J. Tomasi, M. Cossi, J. M. Millam, M. Klene, C. Adamo, R. Cammi, 
 J. W. Ochterski, R. L. Martin, K. Morokuma, O. Farkas, 
 J. B. Foresman, and D. J. Fox, Gaussian, Inc., Wallingford CT, 2016.
 
 ******************************************
 Gaussian 16:  ES64L-G16RevA.03 25-Dec-2016
                24-Jan-2026 
 ******************************************
 %nprocshared=16
 Will use up to   16 processors via shared memory.
 %mem=16GB
 %oldchk=DDL-LR-4.chk
 %chk=DDL-S2-cLR-4.chk
 Copying data from "DDL-LR-4.chk" to current chk file "DDL-S2-cLR-4.chk"
 IOpt=  2 FromEx=T IUOpen= 4 IOptOp= 5 NList=   0 IFRang= 0 IUIn= 4 IUOut= 2.
 ----------------------------------------------------------------------
 #p CAM-B3LYP TZVP em=gd3bj td(nstates=6,root=2) scrf=(Solvent=Water,Co
 rrectedLR,NonEquilibrium=Save) Geom=Check Guess=Read
 ----------------------------------------------------------------------
 1/29=2,30=1,38=1,172=1/1;
 2/12=2,40=1/2;
 3/5=19,7=101,11=9,14=-4,25=1,30=1,70=9002201,71=1,72=1,74=-40,116=-2,124=41/1,2,3,8;
 4/5=1/1;
 5/5=2,38=6,53=1/2;
 8/6=1,10=1,107=2,108=6/1;
 9/8=2,15=1,41=6,42=1,70=2,73=22/14;
 10/5=4,13=10,28=2,74=20/2;
 6/7=2,8=2,9=2,10=2,22=-1/1;
 99/5=1,9=1/99;
 Leave Link    1 at Sat Jan 24 18:31:03 2026, MaxMem=  2147483648 cpu:               0.8 elap:               0.1
 (Enter /data/home/wyx/g16/l101.exe)
 -------------------
 Title Card Required
 -------------------
 Structure from the checkpoint file:  "DDL-S2-cLR-4.chk"
 Charge =  0 Multiplicity = 1
 Z-Matrix found in chk file.
 O,0,2.7628,-1.553973,0.680952
 O,0,-3.359321,-1.662849,-0.804642
 N,0,-0.66469,1.524611,-0.045964
 H,0,-0.974729,2.478783,-0.128956
 C,0,-1.238131,-0.770933,-0.169935
 C,0,0.66333,1.314369,0.170546
 C,0,-1.607714,0.536478,-0.281604
 C,0,-2.148582,-1.82807,-0.412963
 C,0,0.164021,-1.126902,0.263888
 H,0,0.144313,-1.587195,1.257873
 H,0,0.574685,-1.889653,-0.399012
 C,0,1.12574,0.039615,0.283965
 C,0,2.507476,-0.365344,0.476809
 C,0,-2.947134,1.070026,-0.634893
 H,0,-3.286739,1.816967,0.088652
 H,0,-2.945867,1.543963,-1.620083
 H,0,-3.72109,0.304598,-0.666836
 C,0,-1.817865,-3.277815,-0.220569
 H,0,-2.582471,-3.81908,0.340487
 H,0,-1.716602,-3.786094,-1.183842
 H,0,-0.880149,-3.424034,0.31025
 C,0,3.670128,0.595361,0.41576
 H,0,3.612602,1.278802,-0.427562
 H,0,3.729548,1.19048,1.327841
 H,0,4.578217,0.002678,0.337452
 C,0,1.44357,2.592367,0.248339
 H,0,2.15101,2.593285,1.070314
 H,0,1.993586,2.77488,-0.674766
 H,0,0.77006,3.434681,0.398499
 Recover connectivity data from disk.
 ITRead=  0  0  0  0  0  0  0  0  0  0  0  0  0  0  0  0  0  0  0  0
 ITRead=  0  0  0  0  0  0  0  0  0
 MicOpt= -1 -1 -1 -1 -1 -1 -1 -1 -1 -1 -1 -1 -1 -1 -1 -1 -1 -1 -1 -1
 MicOpt= -1 -1 -1 -1 -1 -1 -1 -1 -1
 NAtoms=     29 NQM=       29 NQMF=       0 NMMI=      0 NMMIF=      0
                NMic=       0 NMicF=      0.
                    Isotopes and Nuclear Properties:
 (Nuclear quadrupole moments (NQMom) in fm**2, nuclear magnetic moments (NMagM)
  in nuclear magnetons)

  Atom         1           2           3           4           5           6           7           8           9          10
 IAtWgt=          16          16          14           1          12          12          12          12          12           1
 AtmWgt=  15.9949146  15.9949146  14.0030740   1.0078250  12.0000000  12.0000000  12.0000000  12.0000000  12.0000000   1.0078250
 NucSpn=           0           0           2           1           0           0           0           0           0           1
 AtZEff=   5.6000000   5.6000000   4.5500000   1.0000000   3.6000000   3.6000000   3.6000000   3.6000000   3.6000000   1.0000000
 NQMom=    0.0000000   0.0000000   2.0440000   0.0000000   0.0000000   0.0000000   0.0000000   0.0000000   0.0000000   0.0000000
 NMagM=    0.0000000   0.0000000   0.4037610   2.7928460   0.0000000   0.0000000   0.0000000   0.0000000   0.0000000   2.7928460
 AtZNuc=   8.0000000   8.0000000   7.0000000   1.0000000   6.0000000   6.0000000   6.0000000   6.0000000   6.0000000   1.0000000

  Atom        11          12          13          14          15          16          17          18          19          20
 IAtWgt=           1          12          12          12           1           1           1          12           1           1
 AtmWgt=   1.0078250  12.0000000  12.0000000  12.0000000   1.0078250   1.0078250   1.0078250  12.0000000   1.0078250   1.0078250
 NucSpn=           1           0           0           0           1           1           1           0           1           1
 AtZEff=   1.0000000   3.6000000   3.6000000   3.6000000   1.0000000   1.0000000   1.0000000   3.6000000   1.0000000   1.0000000
 NQMom=    0.0000000   0.0000000   0.0000000   0.0000000   0.0000000   0.0000000   0.0000000   0.0000000   0.0000000   0.0000000
 NMagM=    2.7928460   0.0000000   0.0000000   0.0000000   2.7928460   2.7928460   2.7928460   0.0000000   2.7928460   2.7928460
 AtZNuc=   1.0000000   6.0000000   6.0000000   6.0000000   1.0000000   1.0000000   1.0000000   6.0000000   1.0000000   1.0000000

  Atom        21          22          23          24          25          26          27          28          29
 IAtWgt=           1          12           1           1           1          12           1           1           1
 AtmWgt=   1.0078250  12.0000000   1.0078250   1.0078250   1.0078250  12.0000000   1.0078250   1.0078250   1.0078250
 NucSpn=           1           0           1           1           1           0           1           1           1
 AtZEff=   1.0000000   3.6000000   1.0000000   1.0000000   1.0000000   3.6000000   1.0000000   1.0000000   1.0000000
 NQMom=    0.0000000   0.0000000   0.0000000   0.0000000   0.0000000   0.0000000   0.0000000   0.0000000   0.0000000
 NMagM=    2.7928460   0.0000000   2.7928460   2.7928460   2.7928460   0.0000000   2.7928460   2.7928460   2.7928460
 AtZNuc=   1.0000000   6.0000000   1.0000000   1.0000000   1.0000000   6.0000000   1.0000000   1.0000000   1.0000000
 Leave Link  101 at Sat Jan 24 18:31:07 2026, MaxMem=  2147483648 cpu:               0.9 elap:               0.1
 (Enter /data/home/wyx/g16/l202.exe)
                          Input orientation:                          
 ---------------------------------------------------------------------
 Center     Atomic      Atomic             Coordinates (Angstroms)
 Number     Number       Type             X           Y           Z
 ---------------------------------------------------------------------
      1          8           0        2.762800   -1.553973    0.680952
      2          8           0       -3.359321   -1.662849   -0.804642
      3          7           0       -0.664690    1.524611   -0.045964
      4          1           0       -0.974729    2.478783   -0.128956
      5          6           0       -1.238131   -0.770933   -0.169935
      6          6           0        0.663330    1.314369    0.170546
      7          6           0       -1.607714    0.536478   -0.281604
      8          6           0       -2.148582   -1.828070   -0.412963
      9          6           0        0.164021   -1.126902    0.263888
     10          1           0        0.144313   -1.587195    1.257873
     11          1           0        0.574685   -1.889653   -0.399012
     12          6           0        1.125740    0.039615    0.283965
     13          6           0        2.507476   -0.365344    0.476809
     14          6           0       -2.947134    1.070026   -0.634893
     15          1           0       -3.286739    1.816967    0.088652
     16          1           0       -2.945867    1.543963   -1.620083
     17          1           0       -3.721090    0.304598   -0.666836
     18          6           0       -1.817865   -3.277815   -0.220569
     19          1           0       -2.582471   -3.819080    0.340487
     20          1           0       -1.716602   -3.786094   -1.183842
     21          1           0       -0.880149   -3.424034    0.310250
     22          6           0        3.670128    0.595361    0.415760
     23          1           0        3.612602    1.278802   -0.427562
     24          1           0        3.729548    1.190480    1.327841
     25          1           0        4.578217    0.002678    0.337452
     26          6           0        1.443570    2.592367    0.248339
     27          1           0        2.151010    2.593285    1.070314
     28          1           0        1.993586    2.774880   -0.674766
     29          1           0        0.770060    3.434681    0.398499
 ---------------------------------------------------------------------
                    Distance matrix (angstroms):
                    1          2          3          4          5
     1  O    0.000000
     2  O    6.300731   0.000000
     3  N    4.664094   4.242232   0.000000
     4  H    5.557715   4.826587   1.006706   0.000000
     5  C    4.164686   2.387009   2.369330   3.260631   0.000000
     6  C    3.591055   5.098680   1.361879   2.031945   2.842528
     7  C    4.939422   2.859849   1.386083   2.048541   1.363226
     8  C    5.039192   1.283199   3.684711   4.472983   1.416165
     9  C    2.666455   3.720609   2.795227   3.801584   1.510280
    10  H    2.681495   4.066343   3.469555   4.439339   2.148504
    11  H    2.463098   3.961361   3.649369   4.642935   2.142501
    12  C    2.318855   4.919270   2.349405   3.245307   2.539862
    13  C    1.232763   6.143691   3.729324   4.536713   3.822611
    14  C    6.420293   2.768992   2.400632   2.476076   2.554605
    15  H    6.950610   3.593377   2.641729   2.414693   3.310723
    16  H    6.890635   3.334596   2.771641   2.642486   3.221496
    17  H    6.878346   2.005172   3.348954   3.543853   2.751138
    18  C    4.976632   2.307670   4.942023   5.818736   2.573541
    19  H    5.815372   2.562059   5.690541   6.516770   3.370309
    20  H    5.340867   2.711178   5.532167   6.396237   3.216852
    21  H    4.111645   3.238989   4.966125   5.919890   2.719866
    22  C    2.348022   7.483452   4.457280   5.041695   5.128431
    23  H    3.158414   7.576491   4.301310   4.751076   5.272324
    24  H    2.980787   7.933539   4.616093   5.090403   5.546919
    25  H    2.415966   8.190413   5.472784   6.097855   5.889467
    26  C    4.372603   6.502568   2.381486   2.450188   4.321835
    27  H    4.210183   7.210678   3.211901   3.349866   4.933808
    28  H    4.600938   6.954417   3.004163   3.032569   4.824069
    29  H    5.379355   6.669644   2.429902   2.058212   4.695012
                    6          7          8          9         10
     6  C    0.000000
     7  C    2.442784   0.000000
     8  C    4.257024   2.429173   0.000000
     9  C    2.493557   2.490670   2.509561   0.000000
    10  H    3.141772   3.154295   2.847294   1.095566   0.000000
    11  H    3.255459   3.265388   2.723999   1.090812   1.738381
    12  C    1.360766   2.835227   3.833424   1.511975   2.134996
    13  C    2.513187   4.280568   4.960861   2.473275   2.772638
    14  C    3.707275   1.484430   3.014282   3.913258   4.494489
    15  H    3.982757   2.143797   3.851404   4.539253   4.972677
    16  H    4.035513   2.144109   3.669252   4.511571   5.256995
    17  H    4.576460   2.160678   2.661861   4.243763   4.714311
    18  C    5.234258   3.820565   1.499383   2.964624   2.982303
    19  H    6.075887   4.506444   2.172572   3.846675   3.641189
    20  H    5.789056   4.417071   2.148190   3.564262   3.776259
    21  H    4.985409   4.070049   2.163114   2.523738   2.306835
    22  C    3.101280   5.324040   6.357451   3.909225   4.231321
    23  H    3.009519   5.274851   6.545541   4.261247   4.804546
    24  H    3.279691   5.612878   6.833334   4.383519   4.535888
    25  H    4.132158   6.239705   7.011746   4.557026   4.799414
    26  C    1.499368   3.717237   5.734208   3.933249   4.491766
    27  H    2.158333   4.492899   6.343105   4.293977   4.640951
    28  H    2.148773   4.258448   6.197842   4.410474   5.116894
    29  H    2.135199   3.809978   6.072355   4.603634   5.133159
                   11         12         13         14         15
    11  H    0.000000
    12  C    2.119480   0.000000
    13  C    2.612712   1.452713   0.000000
    14  C    4.606360   4.300506   5.748821   0.000000
    15  H    5.374704   4.760998   6.203715   1.093970   0.000000
    16  H    5.067052   4.739878   6.146654   1.093260   1.763661
    17  H    4.831164   4.946312   6.368028   1.088994   1.745475
    18  C    2.771846   4.463710   5.260931   4.511168   5.311310
    19  H    3.773219   5.351967   6.152596   4.998770   5.685459
    20  H    3.076108   4.986924   5.683496   5.039589   5.956414
    21  H    2.230229   4.002642   4.567202   5.036099   5.771384
    22  C    4.052273   2.607707   1.509450   6.716944   7.070878
    23  H    4.389631   2.868159   2.177707   6.566332   6.939525
    24  H    4.735230   3.032158   2.153672   6.960238   7.152367
    25  H    4.489049   3.453089   2.107802   7.662610   8.075338
    26  C    4.611131   2.572708   3.151531   4.730317   4.796099
    27  H    4.973978   2.861949   3.038553   5.587407   5.579914
    28  H    4.883358   3.025557   3.383964   5.226742   5.420538
    29  H    5.387275   3.415567   4.179107   4.525155   4.378427
                   16         17         18         19         20
    16  H    0.000000
    17  H    1.745187   0.000000
    18  C    5.145928   4.081066   0.000000
    19  H    5.721724   4.394983   1.091959   0.000000
    20  H    5.487341   4.584651   1.093845   1.753396   0.000000
    21  H    5.716150   4.788355   1.087410   1.747820   1.750158
    22  C    6.986837   7.475738   6.747183   7.654277   7.125499
    23  H    6.671277   7.401984   7.091937   8.059605   7.390910
    24  H    7.305913   7.763732   7.289515   8.118629   7.793291
    25  H    7.925865   8.365300   7.209916   8.116729   7.502924
    26  C    4.884394   5.722337   6.731706   7.571271   7.261033
    27  H    5.858111   6.537380   7.203344   8.003556   7.793338
    28  H    5.177545   6.225743   7.167187   8.090201   7.554537
    29  H    4.632235   5.576987   7.220679   7.991238   7.799159
                   21         22         23         24         25
    21  H    0.000000
    22  C    6.072206   0.000000
    23  H    6.545674   1.087011   0.000000
    24  H    6.601404   1.090683   1.761510   0.000000
    25  H    6.444909   1.087212   1.773739   1.764081   0.000000
    26  C    6.449851   2.995601   2.624308   2.890728   4.066994
    27  H    6.780395   2.593812   2.471386   2.127431   3.624868
    28  H    6.903271   2.958098   2.218236   3.087770   3.923010
    29  H    7.054995   4.058624   3.661999   3.828666   5.126834
                   26         27         28         29
    26  C    0.000000
    27  H    1.084488   0.000000
    28  H    1.089932   1.761551   0.000000
    29  H    1.088879   1.751087   1.756204   0.000000
 Stoichiometry    C11H15NO2
 Framework group  C1[X(C11H15NO2)]
 Deg. of freedom    81
 Full point group                 C1      NOp   1
 RotChk:  IX=0 Diff= 4.37D-16
 Largest Abelian subgroup         C1      NOp   1
 Largest concise Abelian subgroup C1      NOp   1
                         Standard orientation:                         
 ---------------------------------------------------------------------
 Center     Atomic      Atomic             Coordinates (Angstroms)
 Number     Number       Type             X           Y           Z
 ---------------------------------------------------------------------
      1          8           0       -2.261950   -2.309797   -0.097575
      2          8           0        3.666054   -0.197287    0.211091
      3          7           0       -0.061038    1.802310   -0.115904
      4          1           0       -0.095912    2.808404   -0.119633
      5          6           0        1.292717   -0.140613   -0.037652
      6          6           0       -1.247349    1.134855   -0.072473
      7          6           0        1.193688    1.219007   -0.034371
      8          6           0        2.542842   -0.798889    0.059207
      9          6           0        0.052930   -0.989622   -0.189503
     10          1           0        0.066695   -1.505187   -1.156079
     11          1           0        0.052342   -1.782119    0.560042
     12          6           0       -1.245608   -0.225861   -0.060910
     13          6           0       -2.409227   -1.091654    0.021343
     14          6           0        2.299990    2.205562    0.045240
     15          1           0        2.230521    2.953567   -0.750016
     16          1           0        2.296972    2.739350    0.999325
     17          1           0        3.286880    1.754638   -0.047623
     18          6           0        2.714119   -2.285982   -0.026640
     19          1           0        3.514947   -2.584733   -0.706196
     20          1           0        2.959563   -2.707638    0.952370
     21          1           0        1.812665   -2.789918   -0.367064
     22          6           0       -3.807280   -0.581304    0.273200
     23          1           0       -3.853201    0.155525    1.071052
     24          1           0       -4.222712   -0.128185   -0.627738
     25          1           0       -4.423378   -1.437152    0.537733
     26          6           0       -2.427334    2.059269   -0.037846
     27          1           0       -3.216686    1.744471   -0.711599
     28          1           0       -2.844285    2.128287    0.966813
     29          1           0       -2.126902    3.062585   -0.335762
 ---------------------------------------------------------------------
 Rotational constants (GHZ):           1.0994203           0.4822890           0.3401133
 Leave Link  202 at Sat Jan 24 18:31:07 2026, MaxMem=  2147483648 cpu:               0.0 elap:               0.0
 (Enter /data/home/wyx/g16/l301.exe)
 Standard basis: TZVP (5D, 7F)
 Ernie: Thresh=  0.10000D-02 Tol=  0.10000D-05 Strict=F.
 There are   370 symmetry adapted cartesian basis functions of A   symmetry.
 There are   356 symmetry adapted basis functions of A   symmetry.
   356 basis functions,   610 primitive gaussians,   370 cartesian basis functions
    52 alpha electrons       52 beta electrons
       nuclear repulsion energy       898.7696791010 Hartrees.
 IExCor=20419 DFT=T Ex+Corr=CAM-B3LYP ExCW=0 ScaHFX=  1.000000
 ScaDFX=  1.000000  1.000000  1.000000  0.810000 ScalE2=  1.000000  1.000000
 IRadAn=      5 IRanWt=     -1 IRanGd=            0 ICorTp=0 IEmpDi=141
 HFx  wShort=  0.000000 wLong=  0.330000 cFull=  0.190000 cShort=  0.000000 cLong=  0.460000
 DFx  wShort=  0.000000 wLong=  0.330000 cFull=  0.190000 cShort=  0.000000 cLong=  0.460000
 NAtoms=   29 NActive=   29 NUniq=   29 SFac= 1.00D+00 NAtFMM=   60 NAOKFM=F Big=F
 Integral buffers will be    131072 words long.
 Raffenetti 1 integral format.
 Two-electron integral symmetry is turned on.
 R6Disp:  Grimme-D3(BJ) Dispersion energy=       -0.0260843601 Hartrees.
 Nuclear repulsion after empirical dispersion term =      898.7435947409 Hartrees.
 ------------------------------------------------------------------------------
 Polarizable Continuum Model (PCM)
 =================================
 Model                : PCM.
 Atomic radii         : UFF (Universal Force Field).
 Polarization charges : Total charges.
 Charge compensation  : None.
 Solution method      : On-the-fly selection.
 Cavity type          : Scaled VdW (van der Waals Surface) (Alpha=1.100).
 Cavity algorithm     : GePol (No added spheres)
                        Default sphere list used, NSphG=   29.
                        Lebedev-Laikov grids with approx.  5.0 points / Ang**2.
                        Smoothing algorithm: York/Karplus (Gamma=1.0000).
                        Polarization charges: spherical gaussians, with
                                              point-specific exponents (IZeta= 3).
                        Self-potential: point-specific (ISelfS= 7).
                        Self-field    : sphere-specific E.n sum rule (ISelfD= 2).
 1st derivatives      : Analytical E(r).r(x)/FMM algorithm (CHGder, D1EAlg=3).
                        Cavity 1st derivative terms included.
 Solvent              : Water, Eps=  78.355300 Eps(inf)=   1.777849
 ------------------------------------------------------------------------------
 GePol: Number of generator spheres                  =      29
 GePol: Total number of spheres                      =      29
 GePol: Number of exposed spheres                    =      29 (100.00%)
 GePol: Number of points                             =    2098
 GePol: Average weight of points                     =       0.13
 GePol: Minimum weight of points                     =   0.22D-08
 GePol: Maximum weight of points                     =    0.20577
 GePol: Number of points with low weight             =     122
 GePol: Fraction of low-weight points (<1% of avg)   =       5.82%
 GePol: Cavity surface area                          =    269.263 Ang**2
 GePol: Cavity volume                                =    286.653 Ang**3
 Leave Link  301 at Sat Jan 24 18:31:07 2026, MaxMem=  2147483648 cpu:               0.6 elap:               0.0
 (Enter /data/home/wyx/g16/l302.exe)
 NPDir=0 NMtPBC=     1 NCelOv=     1 NCel=       1 NClECP=     1 NCelD=      1
         NCelK=      1 NCelE2=     1 NClLst=     1 CellRange=     0.0.
 One-electron integrals computed using PRISM.
 One-electron integral symmetry used in STVInt
 NBasis=   356 RedAO= T EigKep=  3.91D-05  NBF=   356
 NBsUse=   356 1.00D-06 EigRej= -1.00D+00 NBFU=   356
 Precomputing XC quadrature grid using
 IXCGrd= 4 IRadAn=           5 IRanWt=          -1 IRanGd=           0 AccXCQ= 0.00D+00.
 Generated NRdTot=       0 NPtTot=           0 NUsed=           0 NTot=          32
 NSgBfM=   366   366   366   366   366 MxSgAt=    29 MxSgA2=    29.
 Leave Link  302 at Sat Jan 24 18:31:07 2026, MaxMem=  2147483648 cpu:               3.1 elap:               0.2
 (Enter /data/home/wyx/g16/l303.exe)
 DipDrv:  MaxL=1.
 Leave Link  303 at Sat Jan 24 18:31:07 2026, MaxMem=  2147483648 cpu:               0.5 elap:               0.0
 (Enter /data/home/wyx/g16/l308.exe)
 Leave Link  308 at Sat Jan 24 18:31:08 2026, MaxMem=  2147483648 cpu:               0.7 elap:               0.1
 (Enter /data/home/wyx/g16/l401.exe)
 Initial guess from the checkpoint file:  "DDL-S2-cLR-4.chk"
 B after Tr=    -0.000000    0.000000    0.000000
         Rot=    1.000000    0.000000   -0.000000   -0.000000 Ang=   0.00 deg.
 Guess basis will be translated and rotated to current coordinates.
 JPrj=2 DoOrth=T DoCkMO=T.
 Leave Link  401 at Sat Jan 24 18:31:08 2026, MaxMem=  2147483648 cpu:               2.2 elap:               0.2
 (Enter /data/home/wyx/g16/l502.exe)
 Integral symmetry usage will be decided dynamically.
 Closed shell SCF:
 Using DIIS extrapolation, IDIIS=  1040.
 NGot=  2147483648 LenX=  2147200095 LenY=  2147062754
 Requested convergence on RMS density matrix=1.00D-08 within 128 cycles.
 Requested convergence on MAX density matrix=1.00D-06.
 Requested convergence on             energy=1.00D-06.
 No special actions if energy rises.
 Fock matrices will be formed incrementally for  20 cycles.

 Cycle   1  Pass 1  IDiag  1:
 FoFJK:  IHMeth= 1 ICntrl=       0 DoSepK=T KAlg= 0 I1Cent=           0 FoldK=F
 IRaf=         1 NMat=       1 IRICut=       1 DoRegI=T DoRafI=F ISym2E= 0 IDoP0=0 IntGTp=1.
 FoFCou: FMM=F IPFlag=           0 FMFlag=      100000 FMFlg1=           0
         NFxFlg=           0 DoJE=T BraDBF=F KetDBF=F FulRan=T
         wScrn=  0.000000 ICntrl=       500 IOpCl=  0 I1Cent=           0 NGrid=           0
         NMat0=    1 NMatS0=      1 NMatT0=    0 NMatD0=    1 NMtDS0=    0 NMtDT0=    0
 Symmetry not used in FoFCou.
 Inv3:  Mode=1 IEnd=    13204812.
 Iteration    1 A*A^-1 deviation from unit magnitude is 3.33D-15 for    395.
 Iteration    1 A*A^-1 deviation from orthogonality  is 3.60D-15 for   1339    960.
 Iteration    1 A^-1*A deviation from unit magnitude is 3.33D-15 for   1845.
 Iteration    1 A^-1*A deviation from orthogonality  is 1.77D-15 for   1375    905.
 E= -633.320259872597    
 DIIS: error= 8.14D-09 at cycle   1 NSaved=   1.
 NSaved= 1 IEnMin= 1 EnMin= -633.320259872597     IErMin= 1 ErrMin= 8.14D-09
 ErrMax= 8.14D-09  0.00D+00 EMaxC= 1.00D-01 BMatC= 2.02D-14 BMatP= 2.02D-14
 IDIUse=1 WtCom= 1.00D+00 WtEn= 0.00D+00
 Coeff-Com:  0.100D+01
 Coeff:      0.100D+01
 Gap=     0.228 Goal=   None    Shift=    0.000
 RMSDP=2.27D-09 MaxDP=1.40D-07              OVMax= 9.72D-08

 Error on total polarization charges =  0.01559
 SCF Done:  E(RCAM-B3LYP) =  -633.320259873     A.U. after    1 cycles
            NFock=  1  Conv=0.23D-08     -V/T= 2.0043
 KE= 6.306209348424D+02 PE=-3.273432576910D+03 EE= 1.110747787454D+03
 Leave Link  502 at Sat Jan 24 18:31:14 2026, MaxMem=  2147483648 cpu:              85.8 elap:               5.6
 (Enter /data/home/wyx/g16/l801.exe)
 DoSCS=F DFT=T ScalE2(SS,OS)=  1.000000  1.000000
 ExpMin= 9.52D-02 ExpMax= 2.70D+04 ExpMxC= 9.22D+02 IAcc=3 IRadAn=         5 AccDes= 0.00D+00
 HarFok:  IExCor=  205 AccDes= 0.00D+00 IRadAn=         5 IDoV=-2 UseB2=F ITyADJ=14
 ICtDFT= 12500011 ScaDFX=  1.000000  1.000000  1.000000  1.000000
 Largest valence mixing into a core orbital is  5.63D-05
 Largest core mixing into a valence orbital is  1.03D-05
 Range of M.O.s used for correlation:    15   356
 NBasis=   356 NAE=    52 NBE=    52 NFC=    14 NFV=     0
 NROrb=    342 NOA=    38 NOB=    38 NVA=   304 NVB=   304

 **** Warning!!: The largest alpha MO coefficient is  0.46702282D+02

 Leave Link  801 at Sat Jan 24 18:31:14 2026, MaxMem=  2147483648 cpu:               1.0 elap:               0.1
 (Enter /data/home/wyx/g16/l914.exe)
 RHF ground state
 Two-electron integrals replicated using symmetry.
 MDV=  2147483648 DFT=T DoStab=F Mixed=T DoRPA=T DoScal=F NonHer=T
 NEqPCM:  Using equilibrium solvation (IEInf=0, Eps=  78.3553, EpsInf=   1.7778)
 Making orbital integer symmetry assigments:
 Orbital symmetries:
       Occupied  (A) (A) (A) (A) (A) (A) (A) (A) (A) (A) (A) (A)
                 (A) (A) (A) (A) (A) (A) (A) (A) (A) (A) (A) (A)
                 (A) (A) (A) (A) (A) (A) (A) (A) (A) (A) (A) (A)
                 (A) (A) (A) (A) (A) (A) (A) (A) (A) (A) (A) (A)
                 (A) (A) (A) (A)
       Virtual   (A) (A) (A) (A) (A) (A) (A) (A) (A) (A) (A) (A)
                 (A) (A) (A) (A) (A) (A) (A) (A) (A) (A) (A) (A)
                 (A) (A) (A) (A) (A) (A) (A) (A) (A) (A) (A) (A)
                 (A) (A) (A) (A) (A) (A) (A) (A) (A) (A) (A) (A)
                 (A) (A) (A) (A) (A) (A) (A) (A) (A) (A) (A) (A)
                 (A) (A) (A) (A) (A) (A) (A) (A) (A) (A) (A) (A)
                 (A) (A) (A) (A) (A) (A) (A) (A) (A) (A) (A) (A)
                 (A) (A) (A) (A) (A) (A) (A) (A) (A) (A) (A) (A)
                 (A) (A) (A) (A) (A) (A) (A) (A) (A) (A) (A) (A)
                 (A) (A) (A) (A) (A) (A) (A) (A) (A) (A) (A) (A)
                 (A) (A) (A) (A) (A) (A) (A) (A) (A) (A) (A) (A)
                 (A) (A) (A) (A) (A) (A) (A) (A) (A) (A) (A) (A)
                 (A) (A) (A) (A) (A) (A) (A) (A) (A) (A) (A) (A)
                 (A) (A) (A) (A) (A) (A) (A) (A) (A) (A) (A) (A)
                 (A) (A) (A) (A) (A) (A) (A) (A) (A) (A) (A) (A)
                 (A) (A) (A) (A) (A) (A) (A) (A) (A) (A) (A) (A)
                 (A) (A) (A) (A) (A) (A) (A) (A) (A) (A) (A) (A)
                 (A) (A) (A) (A) (A) (A) (A) (A) (A) (A) (A) (A)
                 (A) (A) (A) (A) (A) (A) (A) (A) (A) (A) (A) (A)
                 (A) (A) (A) (A) (A) (A) (A) (A) (A) (A) (A) (A)
                 (A) (A) (A) (A) (A) (A) (A) (A) (A) (A) (A) (A)
                 (A) (A) (A) (A) (A) (A) (A) (A) (A) (A) (A) (A)
                 (A) (A) (A) (A) (A) (A) (A) (A) (A) (A) (A) (A)
                 (A) (A) (A) (A) (A) (A) (A) (A) (A) (A) (A) (A)
                 (A) (A) (A) (A) (A) (A) (A) (A) (A) (A) (A) (A)
                 (A) (A) (A) (A)
 PCM Corrected Linear-Response:
 Compute the excitation energies in the ground state reaction field.
    24 initial guesses have been made.
 Convergence on wavefunction:    0.000001000000000
 Davidson Disk Diagonalization:  ConvIn= 1.00D-06 SkipCon=T Conv= 1.00D-06.
 Max sub-space:  2000 roots to seek:    24 dimension of matrix:        23104
 Iteration     1 Dimension    24 NMult     0 NNew     24
 CISAX will form    24 AO SS matrices at one time.
 NMat=    24 NSing=    24 JSym2X= 0.
 FoFJK:  IHMeth= 1 ICntrl=       0 DoSepK=T KAlg= 0 I1Cent=           0 FoldK=F
 IRaf=         1 NMat=      48 IRICut=       1 DoRegI=T DoRafI=F ISym2E= 0 IDoP0=3 IntGTp=3.
 FoFCou: FMM=F IPFlag=           0 FMFlag=      100000 FMFlg1=           0
         NFxFlg=           0 DoJE=F BraDBF=F KetDBF=F FulRan=T
         wScrn=  0.000000 ICntrl=       500 IOpCl=  0 I1Cent=           0 NGrid=           0
         NMat0=   24 NMatS0=     24 NMatT0=    0 NMatD0=   24 NMtDS0=    0 NMtDT0=    0
 Symmetry not used in FoFCou.
 New state      1 was old state      2
 New state      2 was old state      1
 New state      3 was old state      4
 New state      4 was old state      3
 New state      5 was old state      7
 New state      6 was old state      5
 Excitation Energies [eV] at current iteration:
 Root      1 :     3.705893683199569
 Root      2 :     3.831638482055708
 Root      3 :     4.483678203550727
 Root      4 :     5.459626804788825
 Root      5 :     6.349089845952474
 Root      6 :     6.481654279353052
 Root      7 :     6.585593328560122
 Root      8 :     6.693112239493368
 Root      9 :     6.963861531418570
 Root     10 :     7.191299543131588
 Root     11 :     7.223530736919487
 Root     12 :     7.289858736341990
 Root     13 :     7.566718721375171
 Root     14 :     7.644234850016708
 Root     15 :     7.744099200553473
 Root     16 :     7.764497324979270
 Root     17 :     7.961316266822886
 Root     18 :     8.244774195901332
 Root     19 :     8.288838779630206
 Root     20 :     8.420195046339384
 Root     21 :     8.511707388727100
 Root     22 :     8.721849208331632
 Root     23 :     8.791561705270876
 Root     24 :     9.147318931447776
 Iteration     2 Dimension    36 NMult    24 NNew     12
 CISAX will form    12 AO SS matrices at one time.
 NMat=    12 NSing=    12 JSym2X= 0.
 New state      1 was old state      2
 Root      1 not converged, maximum delta is    0.340313753441943
 New state      2 was old state      1
 Root      2 not converged, maximum delta is    0.344628508899531
 Root      3 not converged, maximum delta is    0.092232600439521
 Root      4 not converged, maximum delta is    0.229149505525048
 New state      5 was old state      6
 Root      5 not converged, maximum delta is    0.215379856805346
 New state      6 was old state      5
 Root      6 not converged, maximum delta is    0.127163328415666
 Excitation Energies [eV] at current iteration:
 Root      1 :     3.350018483938995   Change is   -0.481619998116713
 Root      2 :     3.521741529199835   Change is   -0.184152153999734
 Root      3 :     4.244062123858283   Change is   -0.239616079692443
 Root      4 :     5.163264824154862   Change is   -0.296361980633964
 Root      5 :     5.530250181238118   Change is   -0.951404098114934
 Root      6 :     6.207658229987271   Change is   -0.141431615965203
 Iteration     3 Dimension    48 NMult    36 NNew     12
 CISAX will form    12 AO SS matrices at one time.
 NMat=    12 NSing=    12 JSym2X= 0.
 Root      1 not converged, maximum delta is    0.009863712973952
 Root      2 not converged, maximum delta is    0.009975655434052
 Root      3 not converged, maximum delta is    0.017611758673743
 Root      4 not converged, maximum delta is    0.035633592809333
 Root      5 not converged, maximum delta is    0.035297893573205
 Root      6 not converged, maximum delta is    0.017183357176822
 Excitation Energies [eV] at current iteration:
 Root      1 :     3.330175721858582   Change is   -0.019842762080413
 Root      2 :     3.512641559963495   Change is   -0.009099969236340
 Root      3 :     4.231019410317452   Change is   -0.013042713540832
 Root      4 :     5.140604746246214   Change is   -0.022660077908648
 Root      5 :     5.492519081481752   Change is   -0.037731099756366
 Root      6 :     6.197704967203710   Change is   -0.009953262783562
 Iteration     4 Dimension    60 NMult    48 NNew     12
 CISAX will form    12 AO SS matrices at one time.
 NMat=    12 NSing=    12 JSym2X= 0.
 Root      1 not converged, maximum delta is    0.001978863335052
 Root      2 not converged, maximum delta is    0.001434794052682
 Root      3 not converged, maximum delta is    0.002190634641432
 Root      4 not converged, maximum delta is    0.004087772803811
 Root      5 not converged, maximum delta is    0.005168901606302
 Root      6 not converged, maximum delta is    0.003711646884442
 Excitation Energies [eV] at current iteration:
 Root      1 :     3.328686705347277   Change is   -0.001489016511305
 Root      2 :     3.512084271792776   Change is   -0.000557288170719
 Root      3 :     4.230437097977659   Change is   -0.000582312339793
 Root      4 :     5.138148875752814   Change is   -0.002455870493400
 Root      5 :     5.488152139393534   Change is   -0.004366942088218
 Root      6 :     6.196912209216629   Change is   -0.000792757987081
 Iteration     5 Dimension    72 NMult    60 NNew     12
 CISAX will form    12 AO SS matrices at one time.
 NMat=    12 NSing=    12 JSym2X= 0.
 Root      1 not converged, maximum delta is    0.000918933277147
 Root      2 not converged, maximum delta is    0.000242483367138
 Root      3 not converged, maximum delta is    0.000201359953341
 Root      4 not converged, maximum delta is    0.000569733075591
 Root      5 not converged, maximum delta is    0.001493330674038
 Root      6 not converged, maximum delta is    0.000922295369563
 Excitation Energies [eV] at current iteration:
 Root      1 :     3.328579458507324   Change is   -0.000107246839954
 Root      2 :     3.512051606016994   Change is   -0.000032665775782
 Root      3 :     4.230403116576145   Change is   -0.000033981401514
 Root      4 :     5.137983424386732   Change is   -0.000165451366081
 Root      5 :     5.487752474019083   Change is   -0.000399665374451
 Root      6 :     6.196853238968063   Change is   -0.000058970248566
 Iteration     6 Dimension    84 NMult    72 NNew     12
 CISAX will form    12 AO SS matrices at one time.
 NMat=    12 NSing=    12 JSym2X= 0.
 Root      1 not converged, maximum delta is    0.000159289586334
 Root      2 not converged, maximum delta is    0.000069141525002
 Root      3 not converged, maximum delta is    0.000061400095121
 Root      4 not converged, maximum delta is    0.000178947961727
 Root      5 not converged, maximum delta is    0.000416411561672
 Root      6 not converged, maximum delta is    0.000170317135350
 Excitation Energies [eV] at current iteration:
 Root      1 :     3.328572946328333   Change is   -0.000006512178990
 Root      2 :     3.512049724637965   Change is   -0.000001881379029
 Root      3 :     4.230400917895208   Change is   -0.000002198680937
 Root      4 :     5.137970513439666   Change is   -0.000012910947066
 Root      5 :     5.487718107500716   Change is   -0.000034366518367
 Root      6 :     6.196848149588783   Change is   -0.000005089379279
 Iteration     7 Dimension    96 NMult    84 NNew     12
 CISAX will form    12 AO SS matrices at one time.
 NMat=    12 NSing=    12 JSym2X= 0.
 Root      1 not converged, maximum delta is    0.000020285544722
 Root      2 not converged, maximum delta is    0.000017397910287
 Root      3 not converged, maximum delta is    0.000009160734268
 Root      4 not converged, maximum delta is    0.000053446557662
 Root      5 not converged, maximum delta is    0.000112741500585
 Root      6 not converged, maximum delta is    0.000055367330555
 Excitation Energies [eV] at current iteration:
 Root      1 :     3.328572526840389   Change is   -0.000000419487945
 Root      2 :     3.512049638534208   Change is   -0.000000086103757
 Root      3 :     4.230400804986908   Change is   -0.000000112908300
 Root      4 :     5.137969432528003   Change is   -0.000001080911664
 Root      5 :     5.487715310051091   Change is   -0.000002797449625
 Root      6 :     6.196847650448818   Change is   -0.000000499139965
 Iteration     8 Dimension   108 NMult    96 NNew     12
 CISAX will form    12 AO SS matrices at one time.
 NMat=    12 NSing=    12 JSym2X= 0.
 Root      1 not converged, maximum delta is    0.000005157163358
 Root      2 not converged, maximum delta is    0.000003636891755
 Root      3 not converged, maximum delta is    0.000002458614290
 Root      4 not converged, maximum delta is    0.000029220059125
 Root      5 not converged, maximum delta is    0.000038571947673
 Root      6 not converged, maximum delta is    0.000019102391932
 Excitation Energies [eV] at current iteration:
 Root      1 :     3.328572510617051   Change is   -0.000000016223337
 Root      2 :     3.512049634765964   Change is   -0.000000003768244
 Root      3 :     4.230400799941011   Change is   -0.000000005045897
 Root      4 :     5.137969342832317   Change is   -0.000000089695686
 Root      5 :     5.487715096280654   Change is   -0.000000213770437
 Root      6 :     6.196847604307552   Change is   -0.000000046141267
 Iteration     9 Dimension   120 NMult   108 NNew     12
 CISAX will form    12 AO SS matrices at one time.
 NMat=    12 NSing=    12 JSym2X= 0.
 Root      1 has converged.
 Root      2 has converged.
 Root      3 has converged.
 Root      4 not converged, maximum delta is    0.000005385567491
 Root      5 not converged, maximum delta is    0.000008572305404
 Root      6 not converged, maximum delta is    0.000007190309317
 Excitation Energies [eV] at current iteration:
 Root      1 :     3.328572509982547   Change is   -0.000000000634505
 Root      2 :     3.512049634642069   Change is   -0.000000000123895
 Root      3 :     4.230400799773404   Change is   -0.000000000167606
 Root      4 :     5.137969337768236   Change is   -0.000000005064081
 Root      5 :     5.487715084396153   Change is   -0.000000011884501
 Root      6 :     6.196847599884222   Change is   -0.000000004423329
 Iteration    10 Dimension   126 NMult   120 NNew      6
 CISAX will form     6 AO SS matrices at one time.
 NMat=     6 NSing=     6 JSym2X= 0.
 Root      1 has converged.
 Root      2 has converged.
 Root      3 has converged.
 Root      4 not converged, maximum delta is    0.000001065959931
 Root      5 not converged, maximum delta is    0.000002009148706
 Root      6 not converged, maximum delta is    0.000001508088432
 Excitation Energies [eV] at current iteration:
 Root      1 :     3.328572509978101   Change is   -0.000000000004446
 Root      2 :     3.512049634641624   Change is   -0.000000000000445
 Root      3 :     4.230400799772705   Change is   -0.000000000000699
 Root      4 :     5.137969337522013   Change is   -0.000000000246223
 Root      5 :     5.487715083744646   Change is   -0.000000000651507
 Root      6 :     6.196847599496456   Change is   -0.000000000387766
 Iteration    11 Dimension   132 NMult   126 NNew      6
 CISAX will form     6 AO SS matrices at one time.
 NMat=     6 NSing=     6 JSym2X= 0.
 Root      1 has converged.
 Root      2 has converged.
 Root      3 has converged.
 Root      4 has converged.
 Root      5 has converged.
 Root      6 has converged.
 Excitation Energies [eV] at current iteration:
 Root      1 :     3.328572509977558   Change is   -0.000000000000543
 Root      2 :     3.512049634641695   Change is    0.000000000000070
 Root      3 :     4.230400799772414   Change is   -0.000000000000292
 Root      4 :     5.137969337510093   Change is   -0.000000000011920
 Root      5 :     5.487715083711044   Change is   -0.000000000033601
 Root      6 :     6.196847599465865   Change is   -0.000000000030591
 Convergence achieved on expansion vectors.
 PCM Corrected Linear-Response:
 The state of interest is root number   2
 Excitation energy =    3.5120 eV, Total energy =  -633.191194423    
 Recompute the excitation energies using the linear response reaction field.
 Convergence on wavefunction:    0.000001000000000
 Davidson Disk Diagonalization:  ConvIn= 1.00D-06 SkipCon=T Conv= 1.00D-06.
 Max sub-space:  2000 roots to seek:     6 dimension of matrix:        23104
 Iteration     1 Dimension     6 NMult     0 NNew      6
 CISAX will form     6 AO SS matrices at one time.
 NMat=     6 NSing=     6 JSym2X= 0.
 Excitation Energies [eV] at current iteration:
 Root      1 :     3.398577574582149
 Root      2 :     3.537915211747871
 Root      3 :     4.255734871186354
 Root      4 :     5.198916388941852
 Root      5 :     5.645848321531078
 Root      6 :     6.155645267395635
 Iteration     2 Dimension    18 NMult     6 NNew     12
 CISAX will form    12 AO SS matrices at one time.
 NMat=    12 NSing=    12 JSym2X= 0.
 Root      1 not converged, maximum delta is    0.099391148843554
 Root      2 not converged, maximum delta is    0.112060535520588
 Root      3 not converged, maximum delta is    0.007324367409845
 Root      4 not converged, maximum delta is    0.323129512737963
 Root      5 not converged, maximum delta is    0.349390514256014
 Root      6 not converged, maximum delta is    0.010745344738323
 Excitation Energies [eV] at current iteration:
 Root      1 :     3.178634920561967   Change is   -0.219942654020182
 Root      2 :     3.504071202564037   Change is   -0.033844009183833
 Root      3 :     4.224844804334309   Change is   -0.030890066852045
 Root      4 :     4.952928800506755   Change is   -0.245987588435096
 Root      5 :     5.348426886272147   Change is   -0.297421435258931
 Root      6 :     6.142312671373333   Change is   -0.013332596022302
 Iteration     3 Dimension    30 NMult    18 NNew     12
 CISAX will form    12 AO SS matrices at one time.
 NMat=    12 NSing=    12 JSym2X= 0.
 Root      1 not converged, maximum delta is    0.002994438237734
 Root      2 not converged, maximum delta is    0.000940759943991
 Root      3 not converged, maximum delta is    0.001335017650677
 Root      4 not converged, maximum delta is    0.014484476993533
 Root      5 not converged, maximum delta is    0.011601595772845
 Root      6 not converged, maximum delta is    0.005580790474826
 Excitation Energies [eV] at current iteration:
 Root      1 :     3.175098612372503   Change is   -0.003536308189464
 Root      2 :     3.503781593591037   Change is   -0.000289608973000
 Root      3 :     4.224496190654018   Change is   -0.000348613680291
 Root      4 :     4.941207840885495   Change is   -0.011720959621260
 Root      5 :     5.341410166316076   Change is   -0.007016719956071
 Root      6 :     6.140423741751701   Change is   -0.001888929621632
 Iteration     4 Dimension    42 NMult    30 NNew     12
 CISAX will form    12 AO SS matrices at one time.
 NMat=    12 NSing=    12 JSym2X= 0.
 Root      1 not converged, maximum delta is    0.001885649378291
 Root      2 not converged, maximum delta is    0.000221312907544
 Root      3 not converged, maximum delta is    0.000270668166000
 Root      4 not converged, maximum delta is    0.004795610411371
 Root      5 not converged, maximum delta is    0.003691321449394
 Root      6 not converged, maximum delta is    0.005967333407859
 Excitation Energies [eV] at current iteration:
 Root      1 :     3.174633897589978   Change is   -0.000464714782525
 Root      2 :     3.503766168822117   Change is   -0.000015424768920
 Root      3 :     4.224476483132969   Change is   -0.000019707521049
 Root      4 :     4.938861382957024   Change is   -0.002346457928472
 Root      5 :     5.340127253640104   Change is   -0.001282912675972
 Root      6 :     6.139988406003806   Change is   -0.000435335747894
 Iteration     5 Dimension    54 NMult    42 NNew     12
 CISAX will form    12 AO SS matrices at one time.
 NMat=    12 NSing=    12 JSym2X= 0.
 Root      1 not converged, maximum delta is    0.000317836640503
 Root      2 not converged, maximum delta is    0.000071011944767
 Root      3 not converged, maximum delta is    0.000118056543946
 Root      4 not converged, maximum delta is    0.002110483711370
 Root      5 not converged, maximum delta is    0.001052339097106
 Root      6 not converged, maximum delta is    0.003889538395199
 Excitation Energies [eV] at current iteration:
 Root      1 :     3.174597469695494   Change is   -0.000036427894484
 Root      2 :     3.503765264270535   Change is   -0.000000904551582
 Root      3 :     4.224474834165690   Change is   -0.000001648967279
 Root      4 :     4.938556828992241   Change is   -0.000304553964783
 Root      5 :     5.339988060916856   Change is   -0.000139192723248
 Root      6 :     6.139859503661408   Change is   -0.000128902342398
 Iteration     6 Dimension    66 NMult    54 NNew     12
 CISAX will form    12 AO SS matrices at one time.
 NMat=    12 NSing=    12 JSym2X= 0.
 Root      1 not converged, maximum delta is    0.000070006768433
 Root      2 not converged, maximum delta is    0.000016027590374
 Root      3 not converged, maximum delta is    0.000022556866167
 Root      4 not converged, maximum delta is    0.000329484279292
 Root      5 not converged, maximum delta is    0.000235618620676
 Root      6 not converged, maximum delta is    0.001970172039087
 Excitation Energies [eV] at current iteration:
 Root      1 :     3.174595248545670   Change is   -0.000002221149825
 Root      2 :     3.503765204635215   Change is   -0.000000059635319
 Root      3 :     4.224474712024480   Change is   -0.000000122141210
 Root      4 :     4.938532661298144   Change is   -0.000024167694097
 Root      5 :     5.339976137885597   Change is   -0.000011923031259
 Root      6 :     6.139829923652425   Change is   -0.000029580008983
 Iteration     7 Dimension    78 NMult    66 NNew     12
 CISAX will form    12 AO SS matrices at one time.
 NMat=    12 NSing=    12 JSym2X= 0.
 Root      1 not converged, maximum delta is    0.000009852335663
 Root      2 not converged, maximum delta is    0.000003057642070
 Root      3 not converged, maximum delta is    0.000009538390241
 Root      4 not converged, maximum delta is    0.000115027059001
 Root      5 not converged, maximum delta is    0.000113308517102
 Root      6 not converged, maximum delta is    0.000919630929851
 Excitation Energies [eV] at current iteration:
 Root      1 :     3.174595162114407   Change is   -0.000000086431263
 Root      2 :     3.503765201639508   Change is   -0.000000002995707
 Root      3 :     4.224474702945910   Change is   -0.000000009078570
 Root      4 :     4.938530917628813   Change is   -0.000001743669331
 Root      5 :     5.339975205274783   Change is   -0.000000932610814
 Root      6 :     6.139824958710002   Change is   -0.000004964942423
 Iteration     8 Dimension    90 NMult    78 NNew     12
 CISAX will form    12 AO SS matrices at one time.
 NMat=    12 NSing=    12 JSym2X= 0.
 Root      1 not converged, maximum delta is    0.000002819242418
 Root      2 has converged.
 Root      3 not converged, maximum delta is    0.000002064084986
 Root      4 not converged, maximum delta is    0.000044196690689
 Root      5 not converged, maximum delta is    0.000051269908017
 Root      6 not converged, maximum delta is    0.000394218594196
 Excitation Energies [eV] at current iteration:
 Root      1 :     3.174595157435181   Change is   -0.000000004679227
 Root      2 :     3.503765201490051   Change is   -0.000000000149457
 Root      3 :     4.224474702324811   Change is   -0.000000000621099
 Root      4 :     4.938530784783413   Change is   -0.000000132845400
 Root      5 :     5.339975120391942   Change is   -0.000000084882841
 Root      6 :     6.139824050456010   Change is   -0.000000908253993
 Iteration     9 Dimension   100 NMult    90 NNew     10
 CISAX will form    10 AO SS matrices at one time.
 NMat=    10 NSing=    10 JSym2X= 0.
 Root      1 has converged.
 Root      2 has converged.
 Root      3 has converged.
 Root      4 not converged, maximum delta is    0.000020959419868
 Root      5 not converged, maximum delta is    0.000027511851465
 Root      6 not converged, maximum delta is    0.000099450542946
 Excitation Energies [eV] at current iteration:
 Root      1 :     3.174595157297235   Change is   -0.000000000137945
 Root      2 :     3.503765201486273   Change is   -0.000000000003778
 Root      3 :     4.224474702288285   Change is   -0.000000000036526
 Root      4 :     4.938530771667047   Change is   -0.000000013116366
 Root      5 :     5.339975106560786   Change is   -0.000000013831156
 Root      6 :     6.139823921762359   Change is   -0.000000128693651
 Iteration    10 Dimension   106 NMult   100 NNew      6
 CISAX will form     6 AO SS matrices at one time.
 NMat=     6 NSing=     6 JSym2X= 0.
 Root      1 has converged.
 Root      2 has converged.
 Root      3 has converged.
 Root      4 not converged, maximum delta is    0.000005935480533
 Root      5 not converged, maximum delta is    0.000009182217142
 Root      6 not converged, maximum delta is    0.000015471727456
 Excitation Energies [eV] at current iteration:
 Root      1 :     3.174595157295656   Change is   -0.000000000001580
 Root      2 :     3.503765201485781   Change is   -0.000000000000492
 Root      3 :     4.224474702287293   Change is   -0.000000000000992
 Root      4 :     4.938530770310586   Change is   -0.000000001356461
 Root      5 :     5.339975104583039   Change is   -0.000000001977746
 Root      6 :     6.139823908774765   Change is   -0.000000012987593
 Iteration    11 Dimension   112 NMult   106 NNew      6
 CISAX will form     6 AO SS matrices at one time.
 NMat=     6 NSing=     6 JSym2X= 0.
 Root      1 has converged.
 Root      2 has converged.
 Root      3 has converged.
 Root      4 has converged.
 Root      5 not converged, maximum delta is    0.000001575274270
 Root      6 not converged, maximum delta is    0.000004943637293
 Excitation Energies [eV] at current iteration:
 Root      1 :     3.174595157295423   Change is   -0.000000000000233
 Root      2 :     3.503765201485711   Change is   -0.000000000000070
 Root      3 :     4.224474702287137   Change is   -0.000000000000156
 Root      4 :     4.938530770220130   Change is   -0.000000000090455
 Root      5 :     5.339975104417146   Change is   -0.000000000165894
 Root      6 :     6.139823907435896   Change is   -0.000000001338870
 Iteration    12 Dimension   116 NMult   112 NNew      4
 CISAX will form     4 AO SS matrices at one time.
 NMat=     4 NSing=     4 JSym2X= 0.
 Root      1 has converged.
 Root      2 has converged.
 Root      3 has converged.
 Root      4 has converged.
 Root      5 has converged.
 Root      6 not converged, maximum delta is    0.000001418819324
 Excitation Energies [eV] at current iteration:
 Root      1 :     3.174595157295371   Change is   -0.000000000000052
 Root      2 :     3.503765201485617   Change is   -0.000000000000094
 Root      3 :     4.224474702287117   Change is   -0.000000000000020
 Root      4 :     4.938530770217135   Change is   -0.000000000002996
 Root      5 :     5.339975104405753   Change is   -0.000000000011392
 Root      6 :     6.139823907317387   Change is   -0.000000000118508
 Iteration    13 Dimension   118 NMult   116 NNew      2
 CISAX will form     2 AO SS matrices at one time.
 NMat=     2 NSing=     2 JSym2X= 0.
 Root      1 has converged.
 Root      2 has converged.
 Root      3 has converged.
 Root      4 has converged.
 Root      5 has converged.
 Root      6 has converged.
 Excitation Energies [eV] at current iteration:
 Root      1 :     3.174595157295397   Change is    0.000000000000026
 Root      2 :     3.503765201485593   Change is   -0.000000000000024
 Root      3 :     4.224474702287059   Change is   -0.000000000000058
 Root      4 :     4.938530770217118   Change is   -0.000000000000017
 Root      5 :     5.339975104405738   Change is   -0.000000000000015
 Root      6 :     6.139823907305833   Change is   -0.000000000011555
 Convergence achieved on expansion vectors.
 ***********************************************************************
 Excited states from <AA,BB:AA,BB> singles matrix:
 ***********************************************************************
 
 1PDM for each excited state written to RWF  633
 Ground to excited state transition densities written to RWF  633
 Ground to excited state transition electric dipole moments (Au):
       state          X           Y           Z        Dip. S.      Osc.
         1        -1.7990     -0.0769     -0.0421      3.2441      0.2523
         2         0.2049      0.0222      0.0503      0.0450      0.0039
         3         0.0104     -0.1068      0.0411      0.0132      0.0014
         4         0.0322     -2.0611      0.0734      4.2547      0.5148
         5        -0.3424      1.1932     -0.0096      1.5410      0.2016
         6        -0.0451      0.1004      0.0176      0.0124      0.0019
 Ground to excited state transition velocity dipole moments (Au):
       state          X           Y           Z        Dip. S.      Osc.
         1         0.2041      0.0078      0.0050      0.0417      0.2385
         2        -0.0261     -0.0027     -0.0052      0.0007      0.0037
         3        -0.0018      0.0158     -0.0027      0.0003      0.0011
         4        -0.0103      0.3553     -0.0107      0.1264      0.4644
         5         0.0631     -0.2325      0.0025      0.0581      0.1973
         6         0.0108     -0.0204     -0.0236      0.0011      0.0032
 Ground to excited state transition magnetic dipole moments (Au):
       state          X           Y           Z
         1         0.0842      0.0192     -1.3934
         2         0.7200      0.2656      0.2638
         3        -0.0029     -0.9402     -0.0594
         4         0.0427      0.0746     -0.4886
         5        -0.1242     -0.0791      0.2126
         6         0.0466      0.0145     -0.0203
 Ground to excited state transition velocity quadrupole moments (Au):
       state          XX          YY          ZZ          XY          XZ          YZ
         1         0.4039     -0.1595     -0.0105     -0.5083      0.0377     -0.0074
         2        -0.0528      0.0021     -0.0003      0.0690     -0.0439      0.0328
         3        -0.0229      0.0079     -0.0128     -0.0262      0.0770      0.0052
         4        -1.5364      0.3576      0.0335     -0.2970     -0.0644     -0.0204
         5         0.5475     -0.4212     -0.0288     -0.0837      0.0527     -0.0405
         6        -0.2013     -0.1324      0.1038     -0.0207     -0.0259      0.1040
 <0|del|b> * <b|rxdel|0> + <0|del|b> * <b|delr+rdel|0>
 Rotatory Strengths (R) in cgs (10**-40 erg-esu-cm/Gauss)
       state          XX          YY          ZZ    R(velocity)    E-M Angle
         1       -29.0497     34.2346     58.0069     21.0640       87.91
         2        -7.0549    -56.7973    -50.9734    -38.2752      164.15
         3       -36.0930      0.1953    -31.0449    -22.3142      165.22
         4       112.5916      3.5595      5.7915     40.6475       79.78
         5        55.8115    -17.3766      1.5420     13.3256       79.74
         6         0.2264      2.5423     -0.6077      0.7203       66.75
 1/2[<0|r|b>*<b|rxdel|0> + (<0|rxdel|b>*<b|r|0>)*]
 Rotatory Strengths (R) in cgs (10**-40 erg-esu-cm/Gauss)
       state          XX          YY          ZZ     R(length)
         1       107.1613      1.0453    -41.4977     22.2363
         2      -104.2984     -4.1612     -9.3802    -39.2799
         3         0.0213    -71.0162      1.7286    -23.0887
         4        -0.9714    108.6888     25.3465     44.3546
         5       -30.0861     66.7422      1.4395     12.6986
         6         1.4876     -1.0261      0.2519      0.2378
  1/2[<0|del|b>*<b|r|0> + (<0|r|b>*<b|del|0>)*] (Au)
       state          X           Y           Z        Dip. S.   Osc.(frdel)
         1        -0.3672     -0.0006     -0.0002      0.3680      0.2453
         2        -0.0054     -0.0001     -0.0003      0.0057      0.0038
         3        -0.0000     -0.0017     -0.0001      0.0018      0.0012
         4        -0.0003     -0.7322     -0.0008      0.7334      0.4889
         5        -0.0216     -0.2775     -0.0000      0.2991      0.1994
         6        -0.0005     -0.0020     -0.0004      0.0030      0.0020

 Excitation energies and oscillator strengths:
 
 Excited State   1:      Singlet-A      3.1746 eV  390.55 nm  f=0.2523  <S**2>=0.000
      52 -> 53         0.69740
 
 Excited State   2:      Singlet-A      3.5038 eV  353.86 nm  f=0.0039  <S**2>=0.000
      51 -> 53         0.62529
      51 -> 54        -0.27902
 This state for optimization and/or second-order correction.
 Total Energy, E(TD-HF/TD-DFT) =  -633.191498871    
 Copying the excited state density for this state as the 1-particle RhoCI density.
 
 Excited State   3:      Singlet-A      4.2245 eV  293.49 nm  f=0.0014  <S**2>=0.000
      50 -> 53         0.52170
      50 -> 54         0.41713
      50 -> 58         0.11838
      51 -> 54         0.10369
 
 Excited State   4:      Singlet-A      4.9385 eV  251.05 nm  f=0.5148  <S**2>=0.000
      49 -> 53        -0.18357
      52 -> 54         0.67520
 
 Excited State   5:      Singlet-A      5.3400 eV  232.18 nm  f=0.2016  <S**2>=0.000
      49 -> 53         0.66026
      50 -> 53        -0.13036
      52 -> 54         0.18301
 
 Excited State   6:      Singlet-A      6.1398 eV  201.93 nm  f=0.0019  <S**2>=0.000
      52 -> 55         0.66268
      52 -> 56         0.12519
      52 -> 61        -0.10377
      52 -> 62        -0.10356
 SavETr:  write IOETrn=   770 NScale= 10 NData=  16 NLR=1 NState=    6 LETran=     118.
 The selected state is a singlet.
 CISGrd: IGrad=1 NXY=2 DFT=T
 CISAX will form     1 AO SS matrices at one time.
 NMat=     1 NSing=     1 JSym2X= 0.
 Leave Link  914 at Sat Jan 24 18:40:03 2026, MaxMem=  2147483648 cpu:            8418.2 elap:             528.8
 (Enter /data/home/wyx/g16/l1002.exe)
 Minotr:  Closed shell wavefunction.
          Computing CIS/TDA/TD derivatives.
          Using Z-Vector for PSCF gradient.
          Skipping F1 and S1 gradient terms here.
 NEqPCM:  Using equilibrium solvation (IEInf=0, Eps=  78.3553, EpsInf=   1.7778)
          Frozen-core window.
          Direct CPHF calculation.
          Differentiating once with respect to electric field.
                with respect to dipole field.
          Electric field/nuclear overlap derivatives assumed to be zero.
          Requested convergence is 1.0D-10 RMS, and 1.0D-09 maximum.
          NewPWx=F KeepS1=T KeepF1=T KeepIn=T MapXYZ=F SortEE=F KeepMc=T.
 Two-electron integral symmetry used by symmetrizing perturbed Fock matrices.
          MDV=    2147483648 using IRadAn=       5.
          Solving linear equations separately, MaxMat=     384.
          There are     1 degrees of freedom in the 1st order CPHF.  IDoFFX=0 NUNeed=     1.
 FoFJK:  IHMeth= 1 ICntrl=       0 DoSepK=T KAlg= 0 I1Cent=           0 FoldK=F
 IRaf=         1 NMat=       1 IRICut=       1 DoRegI=T DoRafI=F ISym2E=-1 IDoP0=0 IntGTp=1.
 FoFCou: FMM=F IPFlag=           0 FMFlag=      100000 FMFlg1=           0
         NFxFlg=           0 DoJE=T BraDBF=F KetDBF=F FulRan=T
         wScrn=  0.000000 ICntrl=       500 IOpCl=  0 I1Cent=           0 NGrid=           0
         NMat0=    1 NMatS0=      1 NMatT0=    0 NMatD0=    1 NMtDS0=    0 NMtDT0=    0
 Petite list used in FoFCou.
 LinEq1:  Iter=  0 NonCon=     1 RMS=9.64D-03 Max=4.27D-01 NDo=     1
 AX will form     1 AO Fock derivatives at one time.
 LinEq1:  Iter=  1 NonCon=     1 RMS=2.40D-03 Max=8.68D-02 NDo=     1
 LinEq1:  Iter=  2 NonCon=     1 RMS=1.53D-03 Max=7.85D-02 NDo=     1
 LinEq1:  Iter=  3 NonCon=     1 RMS=6.63D-04 Max=3.74D-02 NDo=     1
 LinEq1:  Iter=  4 NonCon=     1 RMS=3.36D-04 Max=1.51D-02 NDo=     1
 LinEq1:  Iter=  5 NonCon=     1 RMS=1.75D-04 Max=8.00D-03 NDo=     1
 LinEq1:  Iter=  6 NonCon=     1 RMS=8.39D-05 Max=2.64D-03 NDo=     1
 LinEq1:  Iter=  7 NonCon=     1 RMS=4.96D-05 Max=2.14D-03 NDo=     1
 LinEq1:  Iter=  8 NonCon=     1 RMS=2.13D-05 Max=5.97D-04 NDo=     1
 LinEq1:  Iter=  9 NonCon=     1 RMS=1.55D-05 Max=6.83D-04 NDo=     1
 LinEq1:  Iter= 10 NonCon=     1 RMS=6.39D-06 Max=1.10D-04 NDo=     1
 LinEq1:  Iter= 11 NonCon=     1 RMS=3.96D-06 Max=1.49D-04 NDo=     1
 LinEq1:  Iter= 12 NonCon=     1 RMS=1.43D-06 Max=4.54D-05 NDo=     1
 LinEq1:  Iter= 13 NonCon=     1 RMS=6.91D-07 Max=2.66D-05 NDo=     1
 LinEq1:  Iter= 14 NonCon=     1 RMS=2.70D-07 Max=1.35D-05 NDo=     1
 LinEq1:  Iter= 15 NonCon=     1 RMS=1.42D-07 Max=6.12D-06 NDo=     1
 LinEq1:  Iter= 16 NonCon=     1 RMS=6.06D-08 Max=2.07D-06 NDo=     1
 LinEq1:  Iter= 17 NonCon=     1 RMS=1.84D-08 Max=3.43D-07 NDo=     1
 LinEq1:  Iter= 18 NonCon=     1 RMS=7.79D-09 Max=1.17D-07 NDo=     1
 LinEq1:  Iter= 19 NonCon=     1 RMS=2.11D-09 Max=3.94D-08 NDo=     1
 LinEq1:  Iter= 20 NonCon=     1 RMS=5.36D-10 Max=9.22D-09 NDo=     1
 LinEq1:  Iter= 21 NonCon=     1 RMS=2.36D-10 Max=5.92D-09 NDo=     1
 LinEq1:  Iter= 22 NonCon=     1 RMS=8.32D-11 Max=2.42D-09 NDo=     1
 LinEq1:  Iter= 23 NonCon=     0 RMS=2.41D-11 Max=9.63D-10 NDo=     1
 Linear equations converged to 1.000D-10 1.000D-09 after    23 iterations.
 PCM Corrected Linear-Response - Equilibrium solvation:
 Corrected transition energy               =    3.4045          eV
 Total energy after correction             = -633.195146602     a.u.
 NEqPCM:  Using non-equilibrium solvation (IEInf=1, Eps=  78.3553, EpsInf=   1.7778)
 Inv3:  Mode=1 IEnd=    13204812.
 Iteration    1 A*A^-1 deviation from unit magnitude is 3.11D-15 for   1655.
 Iteration    1 A*A^-1 deviation from orthogonality  is 2.22D-15 for   1998   1866.
 Iteration    1 A^-1*A deviation from unit magnitude is 3.11D-15 for    191.
 Iteration    1 A^-1*A deviation from orthogonality  is 2.14D-15 for   1352    944.
 NEqSol: Computing the dynamic-inertial partition of the PCM polarization charges.
 End of Minotr F.D. properties file   721 does not exist.
 End of Minotr F.D. properties file   722 does not exist.
 End of Minotr F.D. properties file   788 does not exist.
 Leave Link 1002 at Sat Jan 24 18:42:06 2026, MaxMem=  2147483648 cpu:            1908.3 elap:             122.6
 (Enter /data/home/wyx/g16/l601.exe)
 Copying SCF densities to generalized density rwf, IOpCl= 0 IROHF=0.

 **********************************************************************

            Population analysis using the CI density.

 **********************************************************************

 Orbital symmetries:
       Occupied  (A) (A) (A) (A) (A) (A) (A) (A) (A) (A) (A) (A)
                 (A) (A) (A) (A) (A) (A) (A) (A) (A) (A) (A) (A)
                 (A) (A) (A) (A) (A) (A) (A) (A) (A) (A) (A) (A)
                 (A) (A) (A) (A) (A) (A) (A) (A) (A) (A) (A) (A)
                 (A) (A) (A) (A)
       Virtual   (A) (A) (A) (A) (A) (A) (A) (A) (A) (A) (A) (A)
                 (A) (A) (A) (A) (A) (A) (A) (A) (A) (A) (A) (A)
                 (A) (A) (A) (A) (A) (A) (A) (A) (A) (A) (A) (A)
                 (A) (A) (A) (A) (A) (A) (A) (A) (A) (A) (A) (A)
                 (A) (A) (A) (A) (A) (A) (A) (A) (A) (A) (A) (A)
                 (A) (A) (A) (A) (A) (A) (A) (A) (A) (A) (A) (A)
                 (A) (A) (A) (A) (A) (A) (A) (A) (A) (A) (A) (A)
                 (A) (A) (A) (A) (A) (A) (A) (A) (A) (A) (A) (A)
                 (A) (A) (A) (A) (A) (A) (A) (A) (A) (A) (A) (A)
                 (A) (A) (A) (A) (A) (A) (A) (A) (A) (A) (A) (A)
                 (A) (A) (A) (A) (A) (A) (A) (A) (A) (A) (A) (A)
                 (A) (A) (A) (A) (A) (A) (A) (A) (A) (A) (A) (A)
                 (A) (A) (A) (A) (A) (A) (A) (A) (A) (A) (A) (A)
                 (A) (A) (A) (A) (A) (A) (A) (A) (A) (A) (A) (A)
                 (A) (A) (A) (A) (A) (A) (A) (A) (A) (A) (A) (A)
                 (A) (A) (A) (A) (A) (A) (A) (A) (A) (A) (A) (A)
                 (A) (A) (A) (A) (A) (A) (A) (A) (A) (A) (A) (A)
                 (A) (A) (A) (A) (A) (A) (A) (A) (A) (A) (A) (A)
                 (A) (A) (A) (A) (A) (A) (A) (A) (A) (A) (A) (A)
                 (A) (A) (A) (A) (A) (A) (A) (A) (A) (A) (A) (A)
                 (A) (A) (A) (A) (A) (A) (A) (A) (A) (A) (A) (A)
                 (A) (A) (A) (A) (A) (A) (A) (A) (A) (A) (A) (A)
                 (A) (A) (A) (A) (A) (A) (A) (A) (A) (A) (A) (A)
                 (A) (A) (A) (A) (A) (A) (A) (A) (A) (A) (A) (A)
                 (A) (A) (A) (A) (A) (A) (A) (A) (A) (A) (A) (A)
                 (A) (A) (A) (A)
 The electronic state is 1-A.
 Alpha  occ. eigenvalues --  -19.17798 -19.16665 -14.44478 -10.33426 -10.33349
 Alpha  occ. eigenvalues --  -10.32564 -10.32391 -10.25717 -10.25334 -10.25165
 Alpha  occ. eigenvalues --  -10.25119 -10.24216 -10.24085 -10.23924  -1.11761
 Alpha  occ. eigenvalues --   -1.08943  -1.07748  -0.91547  -0.90632  -0.83939
 Alpha  occ. eigenvalues --   -0.82484  -0.81471  -0.78800  -0.74338  -0.71633
 Alpha  occ. eigenvalues --   -0.69244  -0.62125  -0.58485  -0.56962  -0.55153
 Alpha  occ. eigenvalues --   -0.54712  -0.54250  -0.52415  -0.51815  -0.50659
 Alpha  occ. eigenvalues --   -0.49645  -0.49298  -0.49013  -0.48451  -0.48215
 Alpha  occ. eigenvalues --   -0.46601  -0.45458  -0.44529  -0.43637  -0.42961
 Alpha  occ. eigenvalues --   -0.42436  -0.41749  -0.40784  -0.32988  -0.32269
 Alpha  occ. eigenvalues --   -0.30818  -0.26349
 Alpha virt. eigenvalues --   -0.03555   0.01820   0.06596   0.08427   0.08768
 Alpha virt. eigenvalues --    0.10212   0.10784   0.11700   0.12701   0.13324
 Alpha virt. eigenvalues --    0.14522   0.15402   0.15555   0.16611   0.16945
 Alpha virt. eigenvalues --    0.17499   0.17604   0.17906   0.18510   0.19178
 Alpha virt. eigenvalues --    0.19917   0.20330   0.22482   0.23165   0.24298
 Alpha virt. eigenvalues --    0.24438   0.24884   0.25512   0.25818   0.26272
 Alpha virt. eigenvalues --    0.27493   0.28074   0.28522   0.29359   0.29938
 Alpha virt. eigenvalues --    0.31230   0.31712   0.33449   0.33857   0.34872
 Alpha virt. eigenvalues --    0.35209   0.35988   0.37108   0.37322   0.37650
 Alpha virt. eigenvalues --    0.39989   0.40914   0.41290   0.42371   0.43243
 Alpha virt. eigenvalues --    0.44130   0.44911   0.45472   0.46345   0.46388
 Alpha virt. eigenvalues --    0.47076   0.47953   0.48115   0.48633   0.48852
 Alpha virt. eigenvalues --    0.49457   0.50075   0.50717   0.51551   0.51811
 Alpha virt. eigenvalues --    0.52367   0.52809   0.53069   0.53872   0.54107
 Alpha virt. eigenvalues --    0.54716   0.55753   0.55830   0.57437   0.57958
 Alpha virt. eigenvalues --    0.58842   0.59237   0.60004   0.62130   0.62607
 Alpha virt. eigenvalues --    0.63546   0.64737   0.66371   0.67469   0.68012
 Alpha virt. eigenvalues --    0.68240   0.69047   0.70987   0.71599   0.72208
 Alpha virt. eigenvalues --    0.73481   0.75113   0.76502   0.77216   0.78606
 Alpha virt. eigenvalues --    0.79958   0.80871   0.83245   0.87465   0.88113
 Alpha virt. eigenvalues --    0.91371   0.93169   0.98645   1.01862   1.21493
 Alpha virt. eigenvalues --    1.23477   1.25524   1.27321   1.29890   1.30941
 Alpha virt. eigenvalues --    1.32419   1.33254   1.34299   1.35590   1.36702
 Alpha virt. eigenvalues --    1.37510   1.37687   1.39304   1.39716   1.39941
 Alpha virt. eigenvalues --    1.40514   1.40727   1.41121   1.41398   1.41823
 Alpha virt. eigenvalues --    1.42965   1.43397   1.44575   1.45485   1.45677
 Alpha virt. eigenvalues --    1.48463   1.49677   1.49921   1.50965   1.51425
 Alpha virt. eigenvalues --    1.52166   1.52367   1.54230   1.56680   1.57525
 Alpha virt. eigenvalues --    1.59299   1.59970   1.60233   1.61106   1.61947
 Alpha virt. eigenvalues --    1.62843   1.63190   1.63601   1.64080   1.64621
 Alpha virt. eigenvalues --    1.65865   1.66389   1.66487   1.67809   1.68245
 Alpha virt. eigenvalues --    1.69021   1.69333   1.70332   1.71397   1.73168
 Alpha virt. eigenvalues --    1.73617   1.74143   1.75809   1.76239   1.80300
 Alpha virt. eigenvalues --    1.81339   1.83138   1.84520   1.85047   1.85877
 Alpha virt. eigenvalues --    1.86087   1.86533   1.89468   1.89980   1.90309
 Alpha virt. eigenvalues --    1.91631   1.93168   1.96966   1.98571   2.01442
 Alpha virt. eigenvalues --    2.02213   2.04828   2.05895   2.07395   2.09972
 Alpha virt. eigenvalues --    2.10742   2.13730   2.14765   2.19032   2.20170
 Alpha virt. eigenvalues --    2.20814   2.23106   2.23877   2.24925   2.25561
 Alpha virt. eigenvalues --    2.27587   2.29247   2.29928   2.31852   2.32940
 Alpha virt. eigenvalues --    2.34198   2.34978   2.36239   2.38117   2.38959
 Alpha virt. eigenvalues --    2.40111   2.41100   2.42675   2.43594   2.45711
 Alpha virt. eigenvalues --    2.46714   2.47223   2.49437   2.49568   2.51289
 Alpha virt. eigenvalues --    2.53038   2.53938   2.54823   2.56512   2.56975
 Alpha virt. eigenvalues --    2.58264   2.59732   2.61333   2.62318   2.62981
 Alpha virt. eigenvalues --    2.63971   2.65452   2.66040   2.66825   2.68249
 Alpha virt. eigenvalues --    2.68609   2.71602   2.73582   2.74429   2.75127
 Alpha virt. eigenvalues --    2.76182   2.76773   2.77433   2.78292   2.78656
 Alpha virt. eigenvalues --    2.80345   2.81094   2.83185   2.84073   2.85326
 Alpha virt. eigenvalues --    2.85620   2.87728   2.89464   2.90358   2.92798
 Alpha virt. eigenvalues --    2.98183   2.98570   2.98976   3.03839   3.08706
 Alpha virt. eigenvalues --    3.11081   3.11816   3.13913   3.19585   3.19768
 Alpha virt. eigenvalues --    3.21237   3.22250   3.24990   3.25231   3.25906
 Alpha virt. eigenvalues --    3.28577   3.30461   3.31010   3.35352   3.37658
 Alpha virt. eigenvalues --    3.39300   3.39697   3.40032   3.40548   3.41294
 Alpha virt. eigenvalues --    3.42052   3.44026   3.45289   3.46799   3.49385
 Alpha virt. eigenvalues --    3.51274   3.52107   3.55001   3.58161   3.59588
 Alpha virt. eigenvalues --    3.61909   3.91844   3.99923   4.29579   4.35350
 Alpha virt. eigenvalues --   21.64228  21.76657  22.04974  22.10350  22.11855
 Alpha virt. eigenvalues --   22.12793  22.15968  22.18817  22.20868  22.26478
 Alpha virt. eigenvalues --   22.31143  31.93092  43.64203  43.66871
          Condensed to atoms (all electrons):
               1          2          3          4          5          6
     1  O    7.973983   0.000000  -0.000219   0.000018   0.018759   0.016333
     2  O    0.000000   8.041697   0.000773   0.000032  -0.068036   0.000332
     3  N   -0.000219   0.000773   6.361077   0.371733  -0.071918   0.430704
     4  H    0.000018   0.000032   0.371733   0.403153   0.012269  -0.042658
     5  C    0.018759  -0.068036  -0.071918   0.012269   6.016130  -0.070800
     6  C    0.016333   0.000332   0.430704  -0.042658  -0.070800   5.547848
     7  C   -0.000052   0.015021   0.283387  -0.045350   0.287096  -0.109718
     8  C   -0.000221   0.247530   0.012039  -0.001538   0.391048   0.024973
     9  C   -0.012321   0.014117   0.014102   0.000863  -0.528587  -0.116976
    10  H    0.006456  -0.000207   0.002851   0.000026  -0.021483  -0.008648
    11  H    0.012618  -0.000215  -0.000961   0.000003  -0.121289   0.022172
    12  C   -0.258584  -0.001415  -0.120185   0.018946   0.232331  -0.127366
    13  C    0.740324   0.000034  -0.001785   0.000545   0.070399   0.135058
    14  C   -0.000014  -0.013573  -0.049063   0.001631  -0.014544  -0.004945
    15  H    0.000000  -0.000868   0.002543   0.000006   0.007956  -0.000173
    16  H    0.000000  -0.001054   0.002488   0.000039  -0.020544   0.002765
    17  H    0.000000   0.017606   0.004389   0.000756   0.037441  -0.000612
    18  C   -0.000306  -0.055849  -0.000228   0.000015   0.010176  -0.002636
    19  H   -0.000001   0.006562  -0.000000  -0.000001  -0.007319   0.000135
    20  H    0.000003   0.003872  -0.000015  -0.000000  -0.007862  -0.000017
    21  H    0.000704   0.003363   0.000006  -0.000000   0.004789  -0.000603
    22  C   -0.119827   0.000000   0.000262   0.000113   0.001435  -0.010074
    23  H    0.004302  -0.000000   0.000043  -0.000052  -0.000422  -0.026988
    24  H    0.002302  -0.000000   0.000090  -0.000017  -0.000080   0.010296
    25  H    0.010564   0.000000   0.000027  -0.000003  -0.000115  -0.001564
    26  C    0.000868   0.000007  -0.029290  -0.010388  -0.002236   0.194020
    27  H   -0.000185   0.000000   0.000145   0.000901  -0.000018  -0.048903
    28  H   -0.000034   0.000000  -0.003758   0.000589   0.000726  -0.036875
    29  H    0.000022  -0.000000   0.003113   0.002019  -0.000410  -0.051318
               7          8          9         10         11         12
     1  O   -0.000052  -0.000221  -0.012321   0.006456   0.012618  -0.258584
     2  O    0.015021   0.247530   0.014117  -0.000207  -0.000215  -0.001415
     3  N    0.283387   0.012039   0.014102   0.002851  -0.000961  -0.120185
     4  H   -0.045350  -0.001538   0.000863   0.000026   0.000003   0.018946
     5  C    0.287096   0.391048  -0.528587  -0.021483  -0.121289   0.232331
     6  C   -0.109718   0.024973  -0.116976  -0.008648   0.022172  -0.127366
     7  C    5.525033  -0.115746  -0.073698  -0.007847   0.013807  -0.038899
     8  C   -0.115746   5.371549  -0.023819  -0.009522   0.001066  -0.035204
     9  C   -0.073698  -0.023819   6.491137   0.392582   0.542614  -0.178759
    10  H   -0.007847  -0.009522   0.392582   0.558121  -0.043623  -0.014071
    11  H    0.013807   0.001066   0.542614  -0.043623   0.521920  -0.102485
    12  C   -0.038899  -0.035204  -0.178759  -0.014071  -0.102485   7.582150
    13  C    0.018035  -0.004867  -0.237019  -0.003302  -0.000070  -0.489499
    14  C    0.200958  -0.076467   0.024204  -0.000844   0.000119   0.003465
    15  H   -0.058223   0.003707  -0.003796   0.000180  -0.000021   0.001596
    16  H   -0.039362   0.008078   0.001388  -0.000070   0.000085  -0.002248
    17  H   -0.066673  -0.051150   0.003278  -0.000045  -0.000026  -0.000476
    18  C    0.009932   0.216139  -0.024840  -0.007215  -0.006833   0.010686
    19  H    0.003300  -0.045472  -0.000071  -0.000400   0.000799  -0.001565
    20  H   -0.003505  -0.053354  -0.001354   0.000886  -0.000736   0.001519
    21  H    0.004593  -0.062057  -0.000543  -0.001309  -0.005330   0.000981
    22  C    0.000845  -0.000055   0.012530   0.001703   0.000299  -0.305070
    23  H   -0.000030   0.000004   0.002389  -0.000153  -0.000006   0.055302
    24  H   -0.000022  -0.000002  -0.002614   0.000171  -0.000129  -0.001618
    25  H    0.000013   0.000001   0.000135  -0.000082  -0.000066   0.028713
    26  C    0.004450   0.000757   0.025250  -0.000569   0.000041  -0.087854
    27  H   -0.000983   0.000012   0.001094  -0.000087   0.000025   0.000798
    28  H   -0.000456  -0.000038  -0.001827  -0.000001   0.000046  -0.017181
    29  H    0.003872  -0.000010  -0.001090   0.000059  -0.000010   0.022727
              13         14         15         16         17         18
     1  O    0.740324  -0.000014   0.000000   0.000000   0.000000  -0.000306
     2  O    0.000034  -0.013573  -0.000868  -0.001054   0.017606  -0.055849
     3  N   -0.001785  -0.049063   0.002543   0.002488   0.004389  -0.000228
     4  H    0.000545   0.001631   0.000006   0.000039   0.000756   0.000015
     5  C    0.070399  -0.014544   0.007956  -0.020544   0.037441   0.010176
     6  C    0.135058  -0.004945  -0.000173   0.002765  -0.000612  -0.002636
     7  C    0.018035   0.200958  -0.058223  -0.039362  -0.066673   0.009932
     8  C   -0.004867  -0.076467   0.003707   0.008078  -0.051150   0.216139
     9  C   -0.237019   0.024204  -0.003796   0.001388   0.003278  -0.024840
    10  H   -0.003302  -0.000844   0.000180  -0.000070  -0.000045  -0.007215
    11  H   -0.000070   0.000119  -0.000021   0.000085  -0.000026  -0.006833
    12  C   -0.489499   0.003465   0.001596  -0.002248  -0.000476   0.010686
    13  C    5.519802  -0.000075   0.000019  -0.000044   0.000016   0.000829
    14  C   -0.000075   5.200133   0.413532   0.388953   0.431180   0.000697
    15  H    0.000019   0.413532   0.561136  -0.046780  -0.030377   0.000089
    16  H   -0.000044   0.388953  -0.046780   0.557833  -0.011730  -0.000042
    17  H    0.000016   0.431180  -0.030377  -0.011730   0.490467  -0.001004
    18  C    0.000829   0.000697   0.000089  -0.000042  -0.001004   5.074384
    19  H   -0.000038  -0.000775  -0.000045   0.000055   0.000598   0.384246
    20  H   -0.000007   0.000337   0.000025  -0.000077  -0.000311   0.411243
    21  H    0.001205  -0.000082  -0.000008   0.000012   0.000044   0.421321
    22  C    0.322746   0.000014   0.000002  -0.000004  -0.000000   0.000009
    23  H   -0.078937   0.000002  -0.000000   0.000001   0.000000   0.000001
    24  H   -0.036026  -0.000001   0.000000  -0.000000  -0.000000  -0.000001
    25  H   -0.048398   0.000000  -0.000000   0.000000  -0.000000   0.000000
    26  C   -0.053541   0.000219  -0.000644   0.000429   0.000063  -0.000015
    27  H   -0.007825   0.000057  -0.000030   0.000020   0.000001   0.000000
    28  H    0.006838  -0.000085   0.000040  -0.000071  -0.000003  -0.000001
    29  H    0.000104   0.000193   0.000082  -0.000045  -0.000007   0.000000
              19         20         21         22         23         24
     1  O   -0.000001   0.000003   0.000704  -0.119827   0.004302   0.002302
     2  O    0.006562   0.003872   0.003363   0.000000  -0.000000  -0.000000
     3  N   -0.000000  -0.000015   0.000006   0.000262   0.000043   0.000090
     4  H   -0.000001  -0.000000  -0.000000   0.000113  -0.000052  -0.000017
     5  C   -0.007319  -0.007862   0.004789   0.001435  -0.000422  -0.000080
     6  C    0.000135  -0.000017  -0.000603  -0.010074  -0.026988   0.010296
     7  C    0.003300  -0.003505   0.004593   0.000845  -0.000030  -0.000022
     8  C   -0.045472  -0.053354  -0.062057  -0.000055   0.000004  -0.000002
     9  C   -0.000071  -0.001354  -0.000543   0.012530   0.002389  -0.002614
    10  H   -0.000400   0.000886  -0.001309   0.001703  -0.000153   0.000171
    11  H    0.000799  -0.000736  -0.005330   0.000299  -0.000006  -0.000129
    12  C   -0.001565   0.001519   0.000981  -0.305070   0.055302  -0.001618
    13  C   -0.000038  -0.000007   0.001205   0.322746  -0.078937  -0.036026
    14  C   -0.000775   0.000337  -0.000082   0.000014   0.000002  -0.000001
    15  H   -0.000045   0.000025  -0.000008   0.000002  -0.000000   0.000000
    16  H    0.000055  -0.000077   0.000012  -0.000004   0.000001  -0.000000
    17  H    0.000598  -0.000311   0.000044  -0.000000   0.000000  -0.000000
    18  C    0.384246   0.411243   0.421321   0.000009   0.000001  -0.000001
    19  H    0.578918  -0.056367  -0.019340  -0.000001   0.000000  -0.000000
    20  H   -0.056367   0.567610  -0.025474   0.000001  -0.000000   0.000000
    21  H   -0.019340  -0.025474   0.492810   0.000043  -0.000001  -0.000001
    22  C   -0.000001   0.000001   0.000043   5.447411   0.386849   0.405099
    23  H    0.000000  -0.000000  -0.000001   0.386849   0.547810  -0.029262
    24  H   -0.000000   0.000000  -0.000001   0.405099  -0.029262   0.501987
    25  H    0.000000  -0.000000  -0.000001   0.379911  -0.020733  -0.008759
    26  C    0.000002  -0.000002  -0.000007  -0.038883   0.018838  -0.015359
    27  H    0.000000  -0.000000   0.000000   0.009682  -0.008277  -0.001990
    28  H   -0.000000   0.000000  -0.000000  -0.012037  -0.002703   0.001684
    29  H   -0.000000   0.000000  -0.000000   0.001833   0.000711   0.000189
              25         26         27         28         29
     1  O    0.010564   0.000868  -0.000185  -0.000034   0.000022
     2  O    0.000000   0.000007   0.000000   0.000000  -0.000000
     3  N    0.000027  -0.029290   0.000145  -0.003758   0.003113
     4  H   -0.000003  -0.010388   0.000901   0.000589   0.002019
     5  C   -0.000115  -0.002236  -0.000018   0.000726  -0.000410
     6  C   -0.001564   0.194020  -0.048903  -0.036875  -0.051318
     7  C    0.000013   0.004450  -0.000983  -0.000456   0.003872
     8  C    0.000001   0.000757   0.000012  -0.000038  -0.000010
     9  C    0.000135   0.025250   0.001094  -0.001827  -0.001090
    10  H   -0.000082  -0.000569  -0.000087  -0.000001   0.000059
    11  H   -0.000066   0.000041   0.000025   0.000046  -0.000010
    12  C    0.028713  -0.087854   0.000798  -0.017181   0.022727
    13  C   -0.048398  -0.053541  -0.007825   0.006838   0.000104
    14  C    0.000000   0.000219   0.000057  -0.000085   0.000193
    15  H   -0.000000  -0.000644  -0.000030   0.000040   0.000082
    16  H    0.000000   0.000429   0.000020  -0.000071  -0.000045
    17  H   -0.000000   0.000063   0.000001  -0.000003  -0.000007
    18  C    0.000000  -0.000015   0.000000  -0.000001   0.000000
    19  H    0.000000   0.000002   0.000000  -0.000000  -0.000000
    20  H   -0.000000  -0.000002  -0.000000   0.000000   0.000000
    21  H   -0.000001  -0.000007   0.000000  -0.000000  -0.000000
    22  C    0.379911  -0.038883   0.009682  -0.012037   0.001833
    23  H   -0.020733   0.018838  -0.008277  -0.002703   0.000711
    24  H   -0.008759  -0.015359  -0.001990   0.001684   0.000189
    25  H    0.505348   0.001942   0.000775   0.000084  -0.000051
    26  C    0.001942   5.254397   0.422004   0.431176   0.387618
    27  H    0.000775   0.422004   0.525299  -0.032489  -0.025760
    28  H    0.000084   0.431176  -0.032489   0.489535  -0.015597
    29  H   -0.000051   0.387618  -0.025760  -0.015597   0.521172
 Mulliken charges:
               1
     1  O   -0.395491
     2  O   -0.209729
     3  N   -0.212349
     4  H    0.286350
     5  C   -0.154890
     6  C    0.276237
     7  C    0.190222
     8  C    0.202621
     9  C   -0.318371
    10  H    0.156442
    11  H    0.166187
    12  C   -0.176737
    13  C    0.145483
    14  C   -0.505227
    15  H    0.150049
    16  H    0.159925
    17  H    0.176576
    18  C   -0.440797
    19  H    0.156779
    20  H    0.163585
    21  H    0.184883
    22  C   -0.484838
    23  H    0.151311
    24  H    0.174062
    25  H    0.152257
    26  C   -0.503293
    27  H    0.165731
    28  H    0.192438
    29  H    0.150585
 Sum of Mulliken charges =  -0.00000
 Mulliken charges with hydrogens summed into heavy atoms:
               1
     1  O   -0.395491
     2  O   -0.209729
     3  N    0.074001
     5  C   -0.154890
     6  C    0.276237
     7  C    0.190222
     8  C    0.202621
     9  C    0.004257
    12  C   -0.176737
    13  C    0.145483
    14  C   -0.018677
    18  C    0.064450
    22  C   -0.007207
    26  C    0.005461
 Electronic spatial extent (au):  <R**2>=           3219.5847
 Charge=              0.0000 electrons
 Dipole moment (field-independent basis, Debye):
    X=             -0.5455    Y=              6.8971    Z=             -0.0005  Tot=              6.9187
 Quadrupole moment (field-independent basis, Debye-Ang):
   XX=            -87.7616   YY=            -79.3424   ZZ=            -85.9437
   XY=            -15.9015   XZ=             -1.8589   YZ=             -0.7307
 Traceless Quadrupole moment (field-independent basis, Debye-Ang):
   XX=             -3.4123   YY=              5.0068   ZZ=             -1.5945
   XY=            -15.9015   XZ=             -1.8589   YZ=             -0.7307
 Octapole moment (field-independent basis, Debye-Ang**2):
  XXX=            -50.2731  YYY=             60.6579  ZZZ=              1.3776  XYY=             44.1605
  XXY=             22.5825  XXZ=             -2.5912  XZZ=             -1.7703  YZZ=             -1.0812
  YYZ=              0.7788  XYZ=              2.3173
 Hexadecapole moment (field-independent basis, Debye-Ang**3):
 XXXX=          -2927.0660 YYYY=          -1281.6317 ZZZZ=           -134.8883 XXXY=            -81.6590
 XXXZ=            -18.9986 YYYX=           -108.0867 YYYZ=            -11.1717 ZZZX=              2.6560
 ZZZY=              2.3040 XXYY=           -691.2964 XXZZ=           -491.6449 YYZZ=           -238.8319
 XXYZ=             -3.0781 YYXZ=             -5.6884 ZZXY=             -3.0147
 N-N= 8.987435947409D+02 E-N=-3.273624541923D+03  KE= 6.306959428219D+02
 No NMR shielding tensors so no spin-rotation constants.
 Leave Link  601 at Sat Jan 24 18:42:06 2026, MaxMem=  2147483648 cpu:               1.8 elap:               0.1
 (Enter /data/home/wyx/g16/l9999.exe)
 Electronic transition elements 
                 1             2             3             4             5 
      1  -0.633204D+03 -0.633191D+03 -0.633165D+03 -0.633139D+03 -0.633124D+03
      2   0.167614D+01 -0.186844D+00  0.344076D-01  0.683701D+00 -0.911777D-01
      3   0.559763D+00 -0.524782D-01 -0.104790D+00 -0.194285D+01  0.123727D+01
      4   0.348372D+00 -0.855484D-01 -0.323032D-01  0.112043D+00 -0.431620D-01
      5  -0.189818D+00  0.240344D-01 -0.425432D-02 -0.113101D+00  0.212591D-01
      6  -0.643423D-01  0.675440D-02  0.154896D-01  0.336494D+00 -0.239883D+00
      7  -0.396234D-01  0.969663D-02  0.149681D-02 -0.203972D-01  0.837045D-02
      8  -0.346541D+00 -0.704000D+00  0.310604D+00 -0.156622D+00  0.181369D+00
      9   0.276405D-01 -0.110982D-01 -0.877499D+00  0.685881D-01 -0.364776D-01
     10   0.135214D+01 -0.403470D+00  0.145233D+00  0.465653D+00 -0.180680D+00
     11  -0.585929D-02  0.959572D-02 -0.628037D-01 -0.142336D+01  0.350002D+00
     12   0.244491D+00 -0.525116D-01  0.225283D-01  0.319347D+00 -0.243851D+00
     13  -0.479306D-02 -0.808748D-02  0.124386D-01 -0.412987D-01 -0.867175D-02
     14   0.556394D+00 -0.612395D-01  0.757077D-02 -0.390424D+00  0.363440D+00
     15   0.177815D-01 -0.262122D-01  0.642644D-01 -0.335752D+00  0.977166D-01
     16   0.119892D+00 -0.572242D-01  0.229843D-01 -0.865703D-01  0.133300D+00
                 6 
      1  -0.633095D+03
      2   0.108029D-01
      3   0.109294D+00
      4  -0.189658D-01
      5  -0.751400D-02
      6  -0.222318D-01
      7   0.232658D-01
      8  -0.517064D-01
      9  -0.224732D-02
     10   0.107893D-01
     11  -0.199821D+00
     12  -0.133038D+00
     13   0.102964D+00
     14   0.122363D-01
     15  -0.469651D-01
     16  -0.993110D-01
 1\1\GINC-CN015\SP\RCAM-B3LYP TD-FC\TZVP\C11H15N1O2\WYX\24-Jan-2026\0\\
 #p CAM-B3LYP TZVP em=gd3bj td(nstates=6,root=2) scrf=(Solvent=Water,Co
 rrectedLR,NonEquilibrium=Save) Geom=Check Guess=Read\\Title Card Requi
 red\\0,1\O,0,2.7628,-1.553973,0.680952\O,0,-3.359321,-1.662849,-0.8046
 42\N,0,-0.66469,1.524611,-0.045964\H,0,-0.974729,2.478783,-0.128956\C,
 0,-1.238131,-0.770933,-0.169935\C,0,0.66333,1.314369,0.170546\C,0,-1.6
 07714,0.536478,-0.281604\C,0,-2.148582,-1.82807,-0.412963\C,0,0.164021
 ,-1.126902,0.263888\H,0,0.144313,-1.587195,1.257873\H,0,0.574685,-1.88
 9653,-0.399012\C,0,1.12574,0.039615,0.283965\C,0,2.507476,-0.365344,0.
 476809\C,0,-2.947134,1.070026,-0.634893\H,0,-3.286739,1.816967,0.08865
 2\H,0,-2.945867,1.543963,-1.620083\H,0,-3.72109,0.304598,-0.666836\C,0
 ,-1.817865,-3.277815,-0.220569\H,0,-2.582471,-3.81908,0.340487\H,0,-1.
 716602,-3.786094,-1.183842\H,0,-0.880149,-3.424034,0.31025\C,0,3.67012
 8,0.595361,0.41576\H,0,3.612602,1.278802,-0.427562\H,0,3.729548,1.1904
 8,1.327841\H,0,4.578217,0.002678,0.337452\C,0,1.44357,2.592367,0.24833
 9\H,0,2.15101,2.593285,1.070314\H,0,1.993586,2.77488,-0.674766\H,0,0.7
 7006,3.434681,0.398499\\Version=ES64L-G16RevA.03\State=1-A\HF=-633.320
 2599\RMSD=2.271e-09\Dipole=-0.7232409,2.6154874,-0.2134269\Quadrupole=
 -8.6148977,10.7092945,-2.0943968,6.7517106,-3.1036193,0.9791014\PG=C01
  [X(C11H15N1O2)]\\@


 IN THE LONG RUN, DIGGING FOR TRUTH HAS ALWAYS PROVED NOT ONLY 
 MORE INTERESTING BUT MORE PROFITABLE THAN DIGGING FOR GOLD.

                             -- GEORGE R. HARRISON
 Job cpu time:       0 days  2 hours 53 minutes 44.6 seconds.
 Elapsed time:       0 days  0 hours 10 minutes 58.0 seconds.
 File lengths (MBytes):  RWF=    734 Int=      0 D2E=      0 Chk=     67 Scr=      1
 Normal termination of Gaussian 16 at Sat Jan 24 18:42:10 2026.
