 Entering Gaussian System, Link 0=g16
 Input=DDL-LR-5.gjf
 Output=DDL-LR-5.log
 Initial command:
 /data/home/wyx/g16/l1.exe "/scr/tmp/wyx/13119/Gau-1509883.inp" -scrdir="/scr/tmp/wyx/13119/"
 Entering Link 1 = /data/home/wyx/g16/l1.exe PID=   1509884.
  
 Copyright (c) 1988,1990,1992,1993,1995,1998,2003,2009,2016,
            Gaussian, Inc.  All Rights Reserved.
  
 This is part of the Gaussian(R) 16 program.  It is based on
 the Gaussian(R) 09 system (copyright 2009, Gaussian, Inc.),
 the Gaussian(R) 03 system (copyright 2003, Gaussian, Inc.),
 the Gaussian(R) 98 system (copyright 1998, Gaussian, Inc.),
 the Gaussian(R) 94 system (copyright 1995, Gaussian, Inc.),
 the Gaussian 92(TM) system (copyright 1992, Gaussian, Inc.),
 the Gaussian 90(TM) system (copyright 1990, Gaussian, Inc.),
 the Gaussian 88(TM) system (copyright 1988, Gaussian, Inc.),
 the Gaussian 86(TM) system (copyright 1986, Carnegie Mellon
 University), and the Gaussian 82(TM) system (copyright 1983,
 Carnegie Mellon University). Gaussian is a federally registered
 trademark of Gaussian, Inc.
  
 This software contains proprietary and confidential information,
 including trade secrets, belonging to Gaussian, Inc.
  
 This software is provided under written license and may be
 used, copied, transmitted, or stored only in accord with that
 written license.
  
 The following legend is applicable only to US Government
 contracts under FAR:
  
                    RESTRICTED RIGHTS LEGEND
  
 Use, reproduction and disclosure by the US Government is
 subject to restrictions as set forth in subparagraphs (a)
 and (c) of the Commercial Computer Software - Restricted
 Rights clause in FAR 52.227-19.
  
 Gaussian, Inc.
 340 Quinnipiac St., Bldg. 40, Wallingford CT 06492
  
  
 ---------------------------------------------------------------
 Warning -- This program may not be used in any manner that
 competes with the business of Gaussian, Inc. or will provide
 assistance to any competitor of Gaussian, Inc.  The licensee
 of this program is prohibited from giving any competitor of
 Gaussian, Inc. access to this program.  By using this program,
 the user acknowledges that Gaussian, Inc. is engaged in the
 business of creating and licensing software in the field of
 computational chemistry and represents and warrants to the
 licensee that it is not a competitor of Gaussian, Inc. and that
 it will not use this program in any manner prohibited above.
 ---------------------------------------------------------------
  

 Cite this work as:
 Gaussian 16, Revision A.03,
 M. J. Frisch, G. W. Trucks, H. B. Schlegel, G. E. Scuseria, 
 M. A. Robb, J. R. Cheeseman, G. Scalmani, V. Barone, 
 G. A. Petersson, H. Nakatsuji, X. Li, M. Caricato, A. V. Marenich, 
 J. Bloino, B. G. Janesko, R. Gomperts, B. Mennucci, H. P. Hratchian, 
 J. V. Ortiz, A. F. Izmaylov, J. L. Sonnenberg, D. Williams-Young, 
 F. Ding, F. Lipparini, F. Egidi, J. Goings, B. Peng, A. Petrone, 
 T. Henderson, D. Ranasinghe, V. G. Zakrzewski, J. Gao, N. Rega, 
 G. Zheng, W. Liang, M. Hada, M. Ehara, K. Toyota, R. Fukuda, 
 J. Hasegawa, M. Ishida, T. Nakajima, Y. Honda, O. Kitao, H. Nakai, 
 T. Vreven, K. Throssell, J. A. Montgomery, Jr., J. E. Peralta, 
 F. Ogliaro, M. J. Bearpark, J. J. Heyd, E. N. Brothers, K. N. Kudin, 
 V. N. Staroverov, T. A. Keith, R. Kobayashi, J. Normand, 
 K. Raghavachari, A. P. Rendell, J. C. Burant, S. S. Iyengar, 
 J. Tomasi, M. Cossi, J. M. Millam, M. Klene, C. Adamo, R. Cammi, 
 J. W. Ochterski, R. L. Martin, K. Morokuma, O. Farkas, 
 J. B. Foresman, and D. J. Fox, Gaussian, Inc., Wallingford CT, 2016.
 
 ******************************************
 Gaussian 16:  ES64L-G16RevA.03 25-Dec-2016
                24-Jan-2026 
 ******************************************
 %nprocshared=16
 Will use up to   16 processors via shared memory.
 %mem=16GB
 %chk=DDL-LR-5.chk
 --------------------------------------------------------------------
 #p CAM-B3LYP TZVP em=gd3bj td(nstates=6,root=1) scrf=(Solvent=Water)
 --------------------------------------------------------------------
 1/38=1,172=1/1;
 2/12=2,17=6,18=5,40=1/2;
 3/5=19,7=101,11=9,25=1,30=1,70=2201,72=1,74=-40,124=41/1,2,3,8;
 4//1;
 5/5=2,38=5,53=1/2;
 8/6=1,10=1,107=1,108=6/1;
 9/8=1,41=6,42=1,70=2/14;
 6/7=2,8=2,9=2,10=2/1;
 99/5=1,9=1/99;
 Leave Link    1 at Sat Jan 24 15:50:11 2026, MaxMem=  2147483648 cpu:               0.4 elap:               0.1
 (Enter /data/home/wyx/g16/l101.exe)
 -------------------
 Title Card Required
 -------------------
 Symbolic Z-matrix:
 Charge =  0 Multiplicity = 1
 O                     2.7616   -1.5548    0.68546 
 O                    -3.34948  -1.66269  -0.83418 
 N                    -0.66821   1.52418  -0.03034 
 H                    -0.97766   2.47869  -0.11157 
 C                    -1.23865  -0.76922  -0.16834 
 C                     0.66169   1.31317   0.18063 
 C                    -1.60811   0.5371   -0.27646 
 C                    -2.14966  -1.82683  -0.42513 
 C                     0.15869  -1.12501   0.27964 
 H                     0.13109  -1.57174   1.27986 
 H                     0.57128  -1.89702  -0.3708 
 C                     1.12314   0.03883   0.29072 
 C                     2.50624  -0.3677    0.47508 
 C                    -2.94547   1.07046  -0.63734 
 H                    -3.26913   1.85072   0.05759 
 H                    -2.95037   1.50301  -1.64117 
 H                    -3.73079   0.31651  -0.63002 
 C                    -1.81224  -3.2729   -0.22271 
 H                    -2.60196  -3.83454   0.28012 
 H                    -1.6381   -3.77028  -1.18148 
 H                    -0.91003  -3.41922   0.36724 
 C                     3.669     0.59101   0.39565 
 H                     3.59963   1.27526  -0.44606 
 H                     3.74375   1.18495   1.30742 
 H                     4.57452  -0.00357   0.30322 
 C                     1.44151   2.59116   0.25638 
 H                     2.16179   2.58709   1.06696 
 H                     1.97623   2.78172  -0.67417 
 H                     0.7697    3.43165   0.4238 
 
 ITRead=  0  0  0  0  0  0  0  0  0  0  0  0  0  0  0  0  0  0  0  0
 ITRead=  0  0  0  0  0  0  0  0  0
 MicOpt= -1 -1 -1 -1 -1 -1 -1 -1 -1 -1 -1 -1 -1 -1 -1 -1 -1 -1 -1 -1
 MicOpt= -1 -1 -1 -1 -1 -1 -1 -1 -1
 NAtoms=     29 NQM=       29 NQMF=       0 NMMI=      0 NMMIF=      0
                NMic=       0 NMicF=      0.
                    Isotopes and Nuclear Properties:
 (Nuclear quadrupole moments (NQMom) in fm**2, nuclear magnetic moments (NMagM)
  in nuclear magnetons)

  Atom         1           2           3           4           5           6           7           8           9          10
 IAtWgt=          16          16          14           1          12          12          12          12          12           1
 AtmWgt=  15.9949146  15.9949146  14.0030740   1.0078250  12.0000000  12.0000000  12.0000000  12.0000000  12.0000000   1.0078250
 NucSpn=           0           0           2           1           0           0           0           0           0           1
 AtZEff=  -0.0000000  -0.0000000  -0.0000000  -0.0000000  -0.0000000  -0.0000000  -0.0000000  -0.0000000  -0.0000000  -0.0000000
 NQMom=    0.0000000   0.0000000   2.0440000   0.0000000   0.0000000   0.0000000   0.0000000   0.0000000   0.0000000   0.0000000
 NMagM=    0.0000000   0.0000000   0.4037610   2.7928460   0.0000000   0.0000000   0.0000000   0.0000000   0.0000000   2.7928460
 AtZNuc=   8.0000000   8.0000000   7.0000000   1.0000000   6.0000000   6.0000000   6.0000000   6.0000000   6.0000000   1.0000000

  Atom        11          12          13          14          15          16          17          18          19          20
 IAtWgt=           1          12          12          12           1           1           1          12           1           1
 AtmWgt=   1.0078250  12.0000000  12.0000000  12.0000000   1.0078250   1.0078250   1.0078250  12.0000000   1.0078250   1.0078250
 NucSpn=           1           0           0           0           1           1           1           0           1           1
 AtZEff=  -0.0000000  -0.0000000  -0.0000000  -0.0000000  -0.0000000  -0.0000000  -0.0000000  -0.0000000  -0.0000000  -0.0000000
 NQMom=    0.0000000   0.0000000   0.0000000   0.0000000   0.0000000   0.0000000   0.0000000   0.0000000   0.0000000   0.0000000
 NMagM=    2.7928460   0.0000000   0.0000000   0.0000000   2.7928460   2.7928460   2.7928460   0.0000000   2.7928460   2.7928460
 AtZNuc=   1.0000000   6.0000000   6.0000000   6.0000000   1.0000000   1.0000000   1.0000000   6.0000000   1.0000000   1.0000000

  Atom        21          22          23          24          25          26          27          28          29
 IAtWgt=           1          12           1           1           1          12           1           1           1
 AtmWgt=   1.0078250  12.0000000   1.0078250   1.0078250   1.0078250  12.0000000   1.0078250   1.0078250   1.0078250
 NucSpn=           1           0           1           1           1           0           1           1           1
 AtZEff=  -0.0000000  -0.0000000  -0.0000000  -0.0000000  -0.0000000  -0.0000000  -0.0000000  -0.0000000  -0.0000000
 NQMom=    0.0000000   0.0000000   0.0000000   0.0000000   0.0000000   0.0000000   0.0000000   0.0000000   0.0000000
 NMagM=    2.7928460   0.0000000   2.7928460   2.7928460   2.7928460   0.0000000   2.7928460   2.7928460   2.7928460
 AtZNuc=   1.0000000   6.0000000   1.0000000   1.0000000   1.0000000   6.0000000   1.0000000   1.0000000   1.0000000
 Leave Link  101 at Sat Jan 24 15:50:11 2026, MaxMem=  2147483648 cpu:               0.8 elap:               0.1
 (Enter /data/home/wyx/g16/l202.exe)
                          Input orientation:                          
 ---------------------------------------------------------------------
 Center     Atomic      Atomic             Coordinates (Angstroms)
 Number     Number       Type             X           Y           Z
 ---------------------------------------------------------------------
      1          8           0        2.761600   -1.554800    0.685455
      2          8           0       -3.349484   -1.662685   -0.834176
      3          7           0       -0.668206    1.524175   -0.030338
      4          1           0       -0.977661    2.478693   -0.111566
      5          6           0       -1.238650   -0.769220   -0.168342
      6          6           0        0.661688    1.313171    0.180627
      7          6           0       -1.608110    0.537101   -0.276462
      8          6           0       -2.149661   -1.826832   -0.425126
      9          6           0        0.158690   -1.125012    0.279636
     10          1           0        0.131089   -1.571735    1.279858
     11          1           0        0.571278   -1.897018   -0.370795
     12          6           0        1.123144    0.038834    0.290723
     13          6           0        2.506236   -0.367699    0.475078
     14          6           0       -2.945472    1.070463   -0.637338
     15          1           0       -3.269131    1.850717    0.057593
     16          1           0       -2.950371    1.503009   -1.641167
     17          1           0       -3.730785    0.316505   -0.630020
     18          6           0       -1.812235   -3.272897   -0.222710
     19          1           0       -2.601960   -3.834539    0.280124
     20          1           0       -1.638100   -3.770276   -1.181483
     21          1           0       -0.910027   -3.419224    0.367242
     22          6           0        3.668998    0.591010    0.395646
     23          1           0        3.599632    1.275260   -0.446055
     24          1           0        3.743751    1.184948    1.307415
     25          1           0        4.574520   -0.003572    0.303218
     26          6           0        1.441514    2.591164    0.256382
     27          1           0        2.161785    2.587087    1.066957
     28          1           0        1.976228    2.781723   -0.674172
     29          1           0        0.769700    3.431651    0.423795
 ---------------------------------------------------------------------
                    Distance matrix (angstroms):
                    1          2          3          4          5
     1  O    0.000000
     2  O    6.298116   0.000000
     3  N    4.664334   4.241637   0.000000
     4  H    5.557552   4.826875   1.006710   0.000000
     5  C    4.165106   2.386888   2.367301   3.258877   0.000000
     6  C    3.590228   5.096572   1.362955   2.032556   2.840672
     7  C    4.939200   2.860505   1.385031   2.048032   1.361861
     8  C    5.042606   1.278218   3.685080   4.473192   1.419303
     9  C    2.669185   3.719806   2.792496   3.798819   1.509911
    10  H    2.696885   4.073303   3.455451   4.423952   2.148837
    11  H    2.455664   3.954998   3.654695   4.649006   2.142138
    12  C    2.319487   4.915787   2.349096   3.244708   2.538063
    13  C    1.232347   6.138452   3.729841   4.536919   3.820913
    14  C    6.419693   2.769850   2.400051   2.476253   2.552965
    15  H    6.954241   3.625700   2.622818   2.381975   3.322344
    16  H    6.884038   3.291222   2.793474   2.680154   3.203471
    17  H    6.883554   2.025898   3.346263   3.538862   2.757296
    18  C    4.969566   2.308638   4.935353   5.812887   2.569115
    19  H    5.842027   2.552921   5.705402   6.530595   3.384659
    20  H    5.267936   2.737042   5.504275   6.374207   3.192546
    21  H    4.130155   3.237250   4.965253   5.917707   2.723484
    22  C    2.347735   7.473332   4.456860   5.041037   5.123799
    23  H    3.160989   7.554626   4.295256   4.744654   5.259847
    24  H    2.976184   7.937847   4.622772   5.096961   5.551662
    25  H    2.416421   8.175339   5.470964   6.095933   5.882307
    26  C    4.372156   6.499093   2.381511   2.449580   4.319242
    27  H    4.202446   7.214496   3.216005   3.355114   4.934949
    28  H    4.612031   6.938413   2.998163   3.022220   4.816690
    29  H    5.375949   6.671014   2.431517   2.061070   4.693763
                    6          7          8          9         10
     6  C    0.000000
     7  C    2.441966   0.000000
     8  C    4.257962   2.429724   0.000000
     9  C    2.491495   2.488664   2.513509   0.000000
    10  H    3.132495   3.145494   2.858997   1.095795   0.000000
    11  H    3.258459   3.268572   2.722386   1.090542   1.739032
    12  C    1.359778   2.833676   3.834632   1.511566   2.134594
    13  C    2.512844   4.279173   4.961533   2.474408   2.781851
    14  C    3.706694   1.484333   3.012087   3.911109   4.485764
    15  H    3.969311   2.143868   3.874351   4.544692   4.976807
    16  H    4.049931   2.144076   3.634245   4.501360   5.242312
    17  H    4.576495   2.163196   2.671297   4.246582   4.703951
    18  C    5.226375   3.815841   1.498644   2.958092   2.988005
    19  H    6.095918   4.517606   2.175509   3.868168   3.686368
    20  H    5.743327   4.401529   2.147265   3.515785   3.744571
    21  H    4.990058   4.068683   2.168006   2.532437   2.308681
    22  C    3.100268   5.320010   6.354244   3.909022   4.239823
    23  H    3.004277   5.262530   6.532823   4.257701   4.807801
    24  H    3.284084   5.618789   6.841405   4.386902   4.544380
    25  H    4.130266   6.233239   7.004953   4.556066   4.812176
    26  C    1.499044   3.715280   5.734081   3.931430   4.482683
    27  H    2.158410   4.496590   6.348036   4.290914   4.633018
    28  H    2.148335   4.247821   6.190619   4.413136   5.116187
    29  H    2.135124   3.810874   6.074124   4.599706   5.116106
                   11         12         13         14         15
    11  H    0.000000
    12  C    2.118888   0.000000
    13  C    2.607370   1.453341   0.000000
    14  C    4.609178   4.298743   5.746903   0.000000
    15  H    5.383101   4.757032   6.200849   1.093838   0.000000
    16  H    5.057276   4.740204   6.144315   1.093066   1.763036
    17  H    4.845062   4.948282   6.371013   1.088679   1.743486
    18  C    2.756103   4.455067   5.251312   4.507873   5.334092
    19  H    3.774536   5.373968   6.176621   5.001878   5.728593
    20  H    3.007933   4.929622   5.612241   5.043617   5.982569
    21  H    2.248572   4.012207   4.581952   5.030855   5.782174
    22  C    4.046429   2.607159   1.509122   6.711791   7.059658
    23  H    4.386336   2.864364   2.177915   6.551100   6.911202
    24  H    4.730696   3.035592   2.152891   6.967128   7.154426
    25  H    4.479439   3.451659   2.107112   7.654311   8.063596
    26  C    4.614590   2.572339   3.152195   4.728310   4.772626
    27  H    4.970316   2.859180   3.033105   5.593643   5.572783
    28  H    4.894542   3.030217   3.394193   5.210844   5.377364
    29  H    5.391239   3.413772   4.177708   4.528103   4.352656
                   16         17         18         19         20
    16  H    0.000000
    17  H    1.743346   0.000000
    18  C    5.110445   4.090299   0.000000
    19  H    5.683500   4.397019   1.091764   0.000000
    20  H    5.453522   4.624416   1.094054   1.751985   0.000000
    21  H    5.694303   4.786113   1.087858   1.744338   1.746962
    22  C    6.985442   7.475569   6.734691   7.676180   7.047939
    23  H    6.662034   7.395138   7.072759   8.068279   7.309728
    24  H    7.321651   7.770234   7.285784   8.155895   7.727430
    25  H    7.916717   8.363700   7.194145   8.135030   7.415460
    26  C    4.906468   5.719481   6.723364   7.592095   7.212447
    27  H    5.885856   6.538934   7.196908   8.034280   7.740198
    28  H    5.180885   6.216852   7.156444   8.102185   7.499961
    29  H    4.671473   5.573960   7.213551   8.011632   7.761583
                   21         22         23         24         25
    21  H    0.000000
    22  C    6.086892   0.000000
    23  H    6.560233   1.086955   0.000000
    24  H    6.613620   1.090721   1.761699   0.000000
    25  H    6.461504   1.087217   1.774043   1.763850   0.000000
    26  C    6.454982   2.996948   2.623451   2.895239   4.068240
    27  H    6.782433   2.589724   2.465258   2.127541   3.621616
    28  H    6.918580   2.968030   2.226412   3.098470   3.932465
    29  H    7.054018   4.059059   3.662673   3.830592   5.127568
                   26         27         28         29
    26  C    0.000000
    27  H    1.084361   0.000000
    28  H    1.090029   1.761773   0.000000
    29  H    1.088935   1.750670   1.756032   0.000000
 Stoichiometry    C11H15NO2
 Framework group  C1[X(C11H15NO2)]
 Deg. of freedom    81
 Full point group                 C1      NOp   1
 Largest Abelian subgroup         C1      NOp   1
 Largest concise Abelian subgroup C1      NOp   1
                         Standard orientation:                         
 ---------------------------------------------------------------------
 Center     Atomic      Atomic             Coordinates (Angstroms)
 Number     Number       Type             X           Y           Z
 ---------------------------------------------------------------------
      1          8           0       -2.263855   -2.308155   -0.103700
      2          8           0        3.661896   -0.201878    0.235905
      3          7           0       -0.058754    1.801945   -0.128703
      4          1           0       -0.093588    2.808046   -0.132085
      5          6           0        1.292026   -0.140209   -0.041846
      6          6           0       -1.246192    1.134735   -0.079017
      7          6           0        1.194026    1.218119   -0.039250
      8          6           0        2.544631   -0.798929    0.065352
      9          6           0        0.053168   -0.987170   -0.208338
     10          1           0        0.066504   -1.486071   -1.183883
     11          1           0        0.052239   -1.791542    0.528050
     12          6           0       -1.244496   -0.224989   -0.066992
     13          6           0       -2.408128   -1.090954    0.023915
     14          6           0        2.300868    2.203231    0.048492
     15          1           0        2.209464    2.981194   -0.714986
     16          1           0        2.323050    2.700191    1.021801
     17          1           0        3.287025    1.762569   -0.087646
     18          6           0        2.705147   -2.285751   -0.032256
     19          1           0        3.544765   -2.589334   -0.660609
     20          1           0        2.879855   -2.724416    0.954661
     21          1           0        1.825515   -2.781521   -0.437095
     22          6           0       -3.801617   -0.579954    0.296891
     23          1           0       -3.835295    0.160012    1.092369
     24          1           0       -4.231566   -0.130971   -0.599341
     25          1           0       -4.412778   -1.435337    0.574099
     26          6           0       -2.424480    2.060570   -0.038990
     27          1           0       -3.223278    1.739847   -0.698456
     28          1           0       -2.827365    2.141467    0.970615
     29          1           0       -2.127307    3.060321   -0.351985
 ---------------------------------------------------------------------
 Rotational constants (GHZ):           1.0985666           0.4829219           0.3406318
 Leave Link  202 at Sat Jan 24 15:50:11 2026, MaxMem=  2147483648 cpu:               0.0 elap:               0.0
 (Enter /data/home/wyx/g16/l301.exe)
 Standard basis: TZVP (5D, 7F)
 Ernie: Thresh=  0.10000D-02 Tol=  0.10000D-05 Strict=F.
 There are   370 symmetry adapted cartesian basis functions of A   symmetry.
 There are   356 symmetry adapted basis functions of A   symmetry.
   356 basis functions,   610 primitive gaussians,   370 cartesian basis functions
    52 alpha electrons       52 beta electrons
       nuclear repulsion energy       899.0271621667 Hartrees.
 IExCor=20419 DFT=T Ex+Corr=CAM-B3LYP ExCW=0 ScaHFX=  1.000000
 ScaDFX=  1.000000  1.000000  1.000000  0.810000 ScalE2=  1.000000  1.000000
 IRadAn=      5 IRanWt=     -1 IRanGd=            0 ICorTp=0 IEmpDi=141
 HFx  wShort=  0.000000 wLong=  0.330000 cFull=  0.190000 cShort=  0.000000 cLong=  0.460000
 DFx  wShort=  0.000000 wLong=  0.330000 cFull=  0.190000 cShort=  0.000000 cLong=  0.460000
 NAtoms=   29 NActive=   29 NUniq=   29 SFac= 1.00D+00 NAtFMM=   60 NAOKFM=F Big=F
 Integral buffers will be    131072 words long.
 Raffenetti 1 integral format.
 Two-electron integral symmetry is turned on.
 R6Disp:  Grimme-D3(BJ) Dispersion energy=       -0.0260941908 Hartrees.
 Nuclear repulsion after empirical dispersion term =      899.0010679759 Hartrees.
 ------------------------------------------------------------------------------
 Polarizable Continuum Model (PCM)
 =================================
 Model                : PCM.
 Atomic radii         : UFF (Universal Force Field).
 Polarization charges : Total charges.
 Charge compensation  : None.
 Solution method      : On-the-fly selection.
 Cavity type          : Scaled VdW (van der Waals Surface) (Alpha=1.100).
 Cavity algorithm     : GePol (No added spheres)
                        Default sphere list used, NSphG=   29.
                        Lebedev-Laikov grids with approx.  5.0 points / Ang**2.
                        Smoothing algorithm: York/Karplus (Gamma=1.0000).
                        Polarization charges: spherical gaussians, with
                                              point-specific exponents (IZeta= 3).
                        Self-potential: point-specific (ISelfS= 7).
                        Self-field    : sphere-specific E.n sum rule (ISelfD= 2).
 Solvent              : Water, Eps=  78.355300 Eps(inf)=   1.777849
 ------------------------------------------------------------------------------
 GePol: Number of generator spheres                  =      29
 GePol: Total number of spheres                      =      29
 GePol: Number of exposed spheres                    =      29 (100.00%)
 GePol: Number of points                             =    2107
 GePol: Average weight of points                     =       0.13
 GePol: Minimum weight of points                     =   0.27D-10
 GePol: Maximum weight of points                     =    0.20577
 GePol: Number of points with low weight             =     138
 GePol: Fraction of low-weight points (<1% of avg)   =       6.55%
 GePol: Cavity surface area                          =    269.356 Ang**2
 GePol: Cavity volume                                =    286.704 Ang**3
 Leave Link  301 at Sat Jan 24 15:50:11 2026, MaxMem=  2147483648 cpu:               0.6 elap:               0.0
 (Enter /data/home/wyx/g16/l302.exe)
 NPDir=0 NMtPBC=     1 NCelOv=     1 NCel=       1 NClECP=     1 NCelD=      1
         NCelK=      1 NCelE2=     1 NClLst=     1 CellRange=     0.0.
 One-electron integrals computed using PRISM.
 One-electron integral symmetry used in STVInt
 NBasis=   356 RedAO= T EigKep=  3.97D-05  NBF=   356
 NBsUse=   356 1.00D-06 EigRej= -1.00D+00 NBFU=   356
 Precomputing XC quadrature grid using
 IXCGrd= 4 IRadAn=           5 IRanWt=          -1 IRanGd=           0 AccXCQ= 0.00D+00.
 Generated NRdTot=       0 NPtTot=           0 NUsed=           0 NTot=          32
 NSgBfM=   366   366   366   366   366 MxSgAt=    29 MxSgA2=    29.
 Leave Link  302 at Sat Jan 24 15:50:12 2026, MaxMem=  2147483648 cpu:               3.2 elap:               0.2
 (Enter /data/home/wyx/g16/l303.exe)
 DipDrv:  MaxL=1.
 Leave Link  303 at Sat Jan 24 15:50:12 2026, MaxMem=  2147483648 cpu:               0.6 elap:               0.0
 (Enter /data/home/wyx/g16/l308.exe)
 Leave Link  308 at Sat Jan 24 15:50:12 2026, MaxMem=  2147483648 cpu:               0.7 elap:               0.1
 (Enter /data/home/wyx/g16/l401.exe)
 ExpMin= 9.52D-02 ExpMax= 2.70D+04 ExpMxC= 9.22D+02 IAcc=3 IRadAn=         5 AccDes= 0.00D+00
 Harris functional with IExCor=20419 and IRadAn=       5 diagonalized for initial guess.
 HarFok:  IExCor=20419 AccDes= 0.00D+00 IRadAn=         5 IDoV= 1 UseB2=F ITyADJ=14
 ICtDFT=  3500011 ScaDFX=  1.000000  1.000000  1.000000  1.000000
 FoFCou: FMM=F IPFlag=           0 FMFlag=      100000 FMFlg1=           0
         NFxFlg=           0 DoJE=T BraDBF=F KetDBF=T FulRan=T
         wScrn=  0.000000 ICntrl=       500 IOpCl=  0 I1Cent=   200000004 NGrid=           0
         NMat0=    1 NMatS0=      1 NMatT0=    0 NMatD0=    1 NMtDS0=    0 NMtDT0=    0
 Petite list used in FoFCou.
 Harris En= -608.709765775400    
 JPrj=0 DoOrth=F DoCkMO=F.
 Leave Link  401 at Sat Jan 24 15:50:13 2026, MaxMem=  2147483648 cpu:              11.8 elap:               0.8
 (Enter /data/home/wyx/g16/l502.exe)
 Integral symmetry usage will be decided dynamically.
 Closed shell SCF:
 Using DIIS extrapolation, IDIIS=  1040.
 NGot=  2147483648 LenX=  2147200095 LenY=  2147062754
 Requested convergence on RMS density matrix=1.00D-08 within 128 cycles.
 Requested convergence on MAX density matrix=1.00D-06.
 Requested convergence on             energy=1.00D-06.
 No special actions if energy rises.
 Fock matrices will be formed incrementally for  20 cycles.

 Cycle   1  Pass 1  IDiag  1:
 FoFJK:  IHMeth= 1 ICntrl=       0 DoSepK=T KAlg= 0 I1Cent=           0 FoldK=F
 IRaf=         1 NMat=       1 IRICut=       1 DoRegI=T DoRafI=F ISym2E= 0 IDoP0=0 IntGTp=1.
 FoFCou: FMM=F IPFlag=           0 FMFlag=      100000 FMFlg1=           0
         NFxFlg=           0 DoJE=T BraDBF=F KetDBF=F FulRan=T
         wScrn=  0.000000 ICntrl=       500 IOpCl=  0 I1Cent=           0 NGrid=           0
         NMat0=    1 NMatS0=      1 NMatT0=    0 NMatD0=    1 NMtDS0=    0 NMtDT0=    0
 Symmetry not used in FoFCou.
 Inv3:  Mode=1 IEnd=    13318347.
 Iteration    1 A*A^-1 deviation from unit magnitude is 3.33D-15 for   1215.
 Iteration    1 A*A^-1 deviation from orthogonality  is 2.17D-15 for   1372    916.
 Iteration    1 A^-1*A deviation from unit magnitude is 3.11D-15 for   1215.
 Iteration    1 A^-1*A deviation from orthogonality  is 2.00D-15 for   1961    343.
 E= -633.122899172324    
 DIIS: error= 4.31D-02 at cycle   1 NSaved=   1.
 NSaved= 1 IEnMin= 1 EnMin= -633.122899172324     IErMin= 1 ErrMin= 4.31D-02
 ErrMax= 4.31D-02  0.00D+00 EMaxC= 1.00D-01 BMatC= 1.10D+00 BMatP= 1.10D+00
 IDIUse=3 WtCom= 5.69D-01 WtEn= 4.31D-01
 Coeff-Com:  0.100D+01
 Coeff-En:   0.100D+01
 Coeff:      0.100D+01
 Gap=     0.222 Goal=   None    Shift=    0.000
 GapD=    0.222 DampG=1.000 DampE=0.500 DampFc=0.5000 IDamp=-1.
 Damping current iteration by 5.00D-01
 RMSDP=4.07D-03 MaxDP=1.89D-01              OVMax= 1.44D-01

 Cycle   2  Pass 1  IDiag  1:
 RMSU=  1.74D-03    CP:  9.27D-01
 E= -633.219162499027     Delta-E=       -0.096263326703 Rises=F Damp=T
 DIIS: error= 1.98D-02 at cycle   2 NSaved=   2.
 NSaved= 2 IEnMin= 2 EnMin= -633.219162499027     IErMin= 2 ErrMin= 1.98D-02
 ErrMax= 1.98D-02  0.00D+00 EMaxC= 1.00D-01 BMatC= 2.23D-01 BMatP= 1.10D+00
 IDIUse=3 WtCom= 8.02D-01 WtEn= 1.98D-01
 Coeff-Com: -0.594D+00 0.159D+01
 Coeff-En:   0.000D+00 0.100D+01
 Coeff:     -0.476D+00 0.148D+01
 Gap=     0.235 Goal=   None    Shift=    0.000
 RMSDP=1.48D-03 MaxDP=4.53D-02 DE=-9.63D-02 OVMax= 1.33D-01

 Cycle   3  Pass 1  IDiag  1:
 RMSU=  1.41D-03    CP:  9.09D-01  1.21D+00
 E= -633.270249191597     Delta-E=       -0.051086692570 Rises=F Damp=F
 DIIS: error= 1.29D-02 at cycle   3 NSaved=   3.
 NSaved= 3 IEnMin= 3 EnMin= -633.270249191597     IErMin= 3 ErrMin= 1.29D-02
 ErrMax= 1.29D-02  0.00D+00 EMaxC= 1.00D-01 BMatC= 6.16D-02 BMatP= 2.23D-01
 IDIUse=3 WtCom= 8.71D-01 WtEn= 1.29D-01
 Coeff-Com: -0.360D+00 0.790D+00 0.570D+00
 Coeff-En:   0.000D+00 0.000D+00 0.100D+01
 Coeff:     -0.314D+00 0.688D+00 0.626D+00
 Gap=     0.233 Goal=   None    Shift=    0.000
 RMSDP=1.50D-03 MaxDP=8.34D-02 DE=-5.11D-02 OVMax= 7.49D-02

 Cycle   4  Pass 1  IDiag  1:
 RMSU=  5.15D-04    CP:  8.53D-01  1.74D+00  5.00D-01
 E= -633.315963333074     Delta-E=       -0.045714141477 Rises=F Damp=F
 DIIS: error= 3.85D-03 at cycle   4 NSaved=   4.
 NSaved= 4 IEnMin= 4 EnMin= -633.315963333074     IErMin= 4 ErrMin= 3.85D-03
 ErrMax= 3.85D-03  0.00D+00 EMaxC= 1.00D-01 BMatC= 7.13D-03 BMatP= 6.16D-02
 IDIUse=3 WtCom= 9.62D-01 WtEn= 3.85D-02
 Coeff-Com: -0.166D+00 0.361D+00 0.366D+00 0.440D+00
 Coeff-En:   0.000D+00 0.000D+00 0.282D-01 0.972D+00
 Coeff:     -0.160D+00 0.347D+00 0.353D+00 0.461D+00
 Gap=     0.228 Goal=   None    Shift=    0.000
 RMSDP=3.90D-04 MaxDP=2.31D-02 DE=-4.57D-02 OVMax= 1.54D-02

 Cycle   5  Pass 1  IDiag  1:
 RMSU=  9.87D-05    CP:  8.67D-01  1.65D+00  6.48D-01  6.36D-01
 E= -633.321378577931     Delta-E=       -0.005415244857 Rises=F Damp=F
 DIIS: error= 4.77D-04 at cycle   5 NSaved=   5.
 NSaved= 5 IEnMin= 5 EnMin= -633.321378577931     IErMin= 5 ErrMin= 4.77D-04
 ErrMax= 4.77D-04  0.00D+00 EMaxC= 1.00D-01 BMatC= 7.80D-05 BMatP= 7.13D-03
 IDIUse=3 WtCom= 9.95D-01 WtEn= 4.77D-03
 Coeff-Com: -0.360D-01 0.771D-01 0.910D-01 0.163D+00 0.705D+00
 Coeff-En:   0.000D+00 0.000D+00 0.000D+00 0.000D+00 0.100D+01
 Coeff:     -0.358D-01 0.767D-01 0.906D-01 0.162D+00 0.707D+00
 Gap=     0.228 Goal=   None    Shift=    0.000
 RMSDP=1.32D-04 MaxDP=7.81D-03 DE=-5.42D-03 OVMax= 2.24D-03

 Cycle   6  Pass 1  IDiag  1:
 RMSU=  5.22D-05    CP:  8.61D-01  1.68D+00  6.44D-01  7.70D-01  1.05D+00
 E= -633.321425311473     Delta-E=       -0.000046733542 Rises=F Damp=F
 DIIS: error= 4.37D-04 at cycle   6 NSaved=   6.
 NSaved= 6 IEnMin= 6 EnMin= -633.321425311473     IErMin= 6 ErrMin= 4.37D-04
 ErrMax= 4.37D-04  0.00D+00 EMaxC= 1.00D-01 BMatC= 2.59D-05 BMatP= 7.80D-05
 IDIUse=3 WtCom= 9.96D-01 WtEn= 4.37D-03
 Coeff-Com:  0.176D-01-0.385D-01-0.307D-01-0.113D-01 0.416D+00 0.647D+00
 Coeff-En:   0.000D+00 0.000D+00 0.000D+00 0.000D+00 0.153D+00 0.847D+00
 Coeff:      0.176D-01-0.383D-01-0.306D-01-0.112D-01 0.414D+00 0.648D+00
 Gap=     0.229 Goal=   None    Shift=    0.000
 RMSDP=2.96D-05 MaxDP=1.79D-03 DE=-4.67D-05 OVMax= 3.09D-03

 Cycle   7  Pass 1  IDiag  1:
 RMSU=  1.94D-05    CP:  8.61D-01  1.69D+00  6.49D-01  7.66D-01  1.20D+00
                    CP:  7.61D-01
 E= -633.321450184989     Delta-E=       -0.000024873516 Rises=F Damp=F
 DIIS: error= 3.39D-05 at cycle   7 NSaved=   7.
 NSaved= 7 IEnMin= 7 EnMin= -633.321450184989     IErMin= 7 ErrMin= 3.39D-05
 ErrMax= 3.39D-05  0.00D+00 EMaxC= 1.00D-01 BMatC= 9.07D-07 BMatP= 2.59D-05
 IDIUse=1 WtCom= 1.00D+00 WtEn= 0.00D+00
 Coeff-Com:  0.422D-02-0.910D-02-0.827D-02-0.111D-01 0.565D-03 0.149D+00
 Coeff-Com:  0.875D+00
 Coeff:      0.422D-02-0.910D-02-0.827D-02-0.111D-01 0.565D-03 0.149D+00
 Coeff:      0.875D+00
 Gap=     0.229 Goal=   None    Shift=    0.000
 RMSDP=1.69D-05 MaxDP=9.68D-04 DE=-2.49D-05 OVMax= 6.94D-04

 Cycle   8  Pass 1  IDiag  1:
 RMSU=  6.34D-06    CP:  8.61D-01  1.69D+00  6.49D-01  7.82D-01  1.25D+00
                    CP:  8.92D-01  1.04D+00
 E= -633.321451562528     Delta-E=       -0.000001377540 Rises=F Damp=F
 DIIS: error= 1.97D-05 at cycle   8 NSaved=   8.
 NSaved= 8 IEnMin= 8 EnMin= -633.321451562528     IErMin= 8 ErrMin= 1.97D-05
 ErrMax= 1.97D-05  0.00D+00 EMaxC= 1.00D-01 BMatC= 1.75D-07 BMatP= 9.07D-07
 IDIUse=1 WtCom= 1.00D+00 WtEn= 0.00D+00
 Coeff-Com: -0.308D-03 0.737D-03 0.115D-03-0.452D-02-0.644D-01-0.113D-01
 Coeff-Com:  0.370D+00 0.710D+00
 Coeff:     -0.308D-03 0.737D-03 0.115D-03-0.452D-02-0.644D-01-0.113D-01
 Coeff:      0.370D+00 0.710D+00
 Gap=     0.229 Goal=   None    Shift=    0.000
 RMSDP=6.16D-06 MaxDP=3.44D-04 DE=-1.38D-06 OVMax= 3.78D-04

 Cycle   9  Pass 1  IDiag  1:
 RMSU=  2.58D-06    CP:  8.61D-01  1.69D+00  6.49D-01  7.88D-01  1.27D+00
                    CP:  9.19D-01  1.15D+00  1.00D+00
 E= -633.321451803073     Delta-E=       -0.000000240545 Rises=F Damp=F
 DIIS: error= 9.58D-06 at cycle   9 NSaved=   9.
 NSaved= 9 IEnMin= 9 EnMin= -633.321451803073     IErMin= 9 ErrMin= 9.58D-06
 ErrMax= 9.58D-06  0.00D+00 EMaxC= 1.00D-01 BMatC= 3.45D-08 BMatP= 1.75D-07
 IDIUse=1 WtCom= 1.00D+00 WtEn= 0.00D+00
 Coeff-Com: -0.882D-03 0.193D-02 0.159D-02-0.180D-03-0.306D-01-0.236D-01
 Coeff-Com:  0.135D-01 0.340D+00 0.699D+00
 Coeff:     -0.882D-03 0.193D-02 0.159D-02-0.180D-03-0.306D-01-0.236D-01
 Coeff:      0.135D-01 0.340D+00 0.699D+00
 Gap=     0.229 Goal=   None    Shift=    0.000
 RMSDP=2.28D-06 MaxDP=1.30D-04 DE=-2.41D-07 OVMax= 1.52D-04

 Cycle  10  Pass 1  IDiag  1:
 RMSU=  9.14D-07    CP:  8.61D-01  1.69D+00  6.49D-01  7.89D-01  1.27D+00
                    CP:  9.38D-01  1.18D+00  1.19D+00  8.16D-01
 E= -633.321451842345     Delta-E=       -0.000000039272 Rises=F Damp=F
 DIIS: error= 2.85D-06 at cycle  10 NSaved=  10.
 NSaved=10 IEnMin=10 EnMin= -633.321451842345     IErMin=10 ErrMin= 2.85D-06
 ErrMax= 2.85D-06  0.00D+00 EMaxC= 1.00D-01 BMatC= 5.70D-09 BMatP= 3.45D-08
 IDIUse=1 WtCom= 1.00D+00 WtEn= 0.00D+00
 Coeff-Com: -0.469D-03 0.102D-02 0.939D-03 0.622D-03-0.766D-02-0.988D-02
 Coeff-Com: -0.513D-01 0.779D-01 0.358D+00 0.630D+00
 Coeff:     -0.469D-03 0.102D-02 0.939D-03 0.622D-03-0.766D-02-0.988D-02
 Coeff:     -0.513D-01 0.779D-01 0.358D+00 0.630D+00
 Gap=     0.229 Goal=   None    Shift=    0.000
 RMSDP=8.64D-07 MaxDP=3.70D-05 DE=-3.93D-08 OVMax= 4.43D-05

 Cycle  11  Pass 1  IDiag  1:
 RMSU=  2.76D-07    CP:  8.60D-01  1.69D+00  6.49D-01  7.90D-01  1.28D+00
                    CP:  9.43D-01  1.19D+00  1.21D+00  9.57D-01  1.05D+00
 E= -633.321451848820     Delta-E=       -0.000000006476 Rises=F Damp=F
 DIIS: error= 1.15D-06 at cycle  11 NSaved=  11.
 NSaved=11 IEnMin=11 EnMin= -633.321451848820     IErMin=11 ErrMin= 1.15D-06
 ErrMax= 1.15D-06  0.00D+00 EMaxC= 1.00D-01 BMatC= 3.57D-10 BMatP= 5.70D-09
 IDIUse=1 WtCom= 1.00D+00 WtEn= 0.00D+00
 Coeff-Com:  0.343D-04-0.778D-04-0.340D-04 0.123D-03 0.255D-02 0.212D-02
 Coeff-Com: -0.177D-01-0.287D-01-0.152D-01 0.176D+00 0.880D+00
 Coeff:      0.343D-04-0.778D-04-0.340D-04 0.123D-03 0.255D-02 0.212D-02
 Coeff:     -0.177D-01-0.287D-01-0.152D-01 0.176D+00 0.880D+00
 Gap=     0.229 Goal=   None    Shift=    0.000
 RMSDP=3.36D-07 MaxDP=2.41D-05 DE=-6.48D-09 OVMax= 2.37D-05

 Cycle  12  Pass 1  IDiag  1:
 RMSU=  1.33D-07    CP:  8.60D-01  1.69D+00  6.48D-01  7.90D-01  1.28D+00
                    CP:  9.45D-01  1.19D+00  1.25D+00  9.49D-01  1.16D+00
                    CP:  1.13D+00
 E= -633.321451849552     Delta-E=       -0.000000000732 Rises=F Damp=F
 DIIS: error= 5.45D-07 at cycle  12 NSaved=  12.
 NSaved=12 IEnMin=12 EnMin= -633.321451849552     IErMin=12 ErrMin= 5.45D-07
 ErrMax= 5.45D-07  0.00D+00 EMaxC= 1.00D-01 BMatC= 4.40D-11 BMatP= 3.57D-10
 IDIUse=1 WtCom= 1.00D+00 WtEn= 0.00D+00
 Coeff-Com:  0.371D-04-0.818D-04-0.611D-04 0.186D-04 0.140D-02 0.139D-02
 Coeff-Com: -0.306D-02-0.139D-01-0.342D-01 0.111D-01 0.311D+00 0.726D+00
 Coeff:      0.371D-04-0.818D-04-0.611D-04 0.186D-04 0.140D-02 0.139D-02
 Coeff:     -0.306D-02-0.139D-01-0.342D-01 0.111D-01 0.311D+00 0.726D+00
 Gap=     0.229 Goal=   None    Shift=    0.000
 RMSDP=7.79D-08 MaxDP=3.60D-06 DE=-7.32D-10 OVMax= 6.75D-06

 Cycle  13  Pass 1  IDiag  1:
 RMSU=  3.19D-08    CP:  8.60D-01  1.69D+00  6.48D-01  7.90D-01  1.28D+00
                    CP:  9.45D-01  1.19D+00  1.25D+00  9.49D-01  1.19D+00
                    CP:  1.22D+00  1.14D+00
 E= -633.321451849652     Delta-E=       -0.000000000099 Rises=F Damp=F
 DIIS: error= 2.99D-07 at cycle  13 NSaved=  13.
 NSaved=13 IEnMin=13 EnMin= -633.321451849652     IErMin=13 ErrMin= 2.99D-07
 ErrMax= 2.99D-07  0.00D+00 EMaxC= 1.00D-01 BMatC= 6.56D-12 BMatP= 4.40D-11
 IDIUse=1 WtCom= 1.00D+00 WtEn= 0.00D+00
 Coeff-Com:  0.406D-05-0.824D-05-0.128D-04-0.248D-04-0.197D-03-0.824D-04
 Coeff-Com:  0.304D-02 0.384D-02-0.759D-02-0.353D-01-0.109D+00 0.172D+00
 Coeff-Com:  0.974D+00
 Coeff:      0.406D-05-0.824D-05-0.128D-04-0.248D-04-0.197D-03-0.824D-04
 Coeff:      0.304D-02 0.384D-02-0.759D-02-0.353D-01-0.109D+00 0.172D+00
 Coeff:      0.974D+00
 Gap=     0.229 Goal=   None    Shift=    0.000
 RMSDP=5.96D-08 MaxDP=2.27D-06 DE=-9.95D-11 OVMax= 5.05D-06

 Cycle  14  Pass 1  IDiag  1:
 RMSU=  1.99D-08    CP:  8.60D-01  1.69D+00  6.48D-01  7.90D-01  1.28D+00
                    CP:  9.45D-01  1.19D+00  1.25D+00  9.41D-01  1.21D+00
                    CP:  1.28D+00  1.36D+00  1.34D+00
 E= -633.321451849674     Delta-E=       -0.000000000022 Rises=F Damp=F
 DIIS: error= 1.18D-07 at cycle  14 NSaved=  14.
 NSaved=14 IEnMin=14 EnMin= -633.321451849674     IErMin=14 ErrMin= 1.18D-07
 ErrMax= 1.18D-07  0.00D+00 EMaxC= 1.00D-01 BMatC= 6.35D-13 BMatP= 6.56D-12
 IDIUse=1 WtCom= 1.00D+00 WtEn= 0.00D+00
 Coeff-Com: -0.352D-05 0.785D-05 0.539D-05-0.386D-05-0.169D-03-0.149D-03
 Coeff-Com:  0.570D-03 0.203D-02 0.307D-02-0.179D-02-0.466D-01-0.815D-01
 Coeff-Com:  0.204D-01 0.110D+01
 Coeff:     -0.352D-05 0.785D-05 0.539D-05-0.386D-05-0.169D-03-0.149D-03
 Coeff:      0.570D-03 0.203D-02 0.307D-02-0.179D-02-0.466D-01-0.815D-01
 Coeff:      0.204D-01 0.110D+01
 Gap=     0.229 Goal=   None    Shift=    0.000
 RMSDP=2.35D-08 MaxDP=8.47D-07 DE=-2.23D-11 OVMax= 2.35D-06

 Cycle  15  Pass 1  IDiag  1:
 RMSU=  6.12D-09    CP:  8.60D-01  1.69D+00  6.48D-01  7.90D-01  1.28D+00
                    CP:  9.45D-01  1.19D+00  1.26D+00  9.37D-01  1.22D+00
                    CP:  1.29D+00  1.44D+00  1.60D+00  1.34D+00
 E= -633.321451849678     Delta-E=       -0.000000000004 Rises=F Damp=F
 DIIS: error= 2.77D-08 at cycle  15 NSaved=  15.
 NSaved=15 IEnMin=15 EnMin= -633.321451849678     IErMin=15 ErrMin= 2.77D-08
 ErrMax= 2.77D-08  0.00D+00 EMaxC= 1.00D-01 BMatC= 1.46D-13 BMatP= 6.35D-13
 IDIUse=1 WtCom= 1.00D+00 WtEn= 0.00D+00
 Coeff-Com: -0.180D-05 0.385D-05 0.357D-05 0.191D-05-0.325D-04-0.515D-04
 Coeff-Com: -0.233D-03 0.785D-04 0.189D-02 0.480D-02-0.180D-02-0.457D-01
 Coeff-Com: -0.131D+00 0.368D+00 0.803D+00
 Coeff:     -0.180D-05 0.385D-05 0.357D-05 0.191D-05-0.325D-04-0.515D-04
 Coeff:     -0.233D-03 0.785D-04 0.189D-02 0.480D-02-0.180D-02-0.457D-01
 Coeff:     -0.131D+00 0.368D+00 0.803D+00
 Gap=     0.229 Goal=   None    Shift=    0.000
 RMSDP=6.80D-09 MaxDP=2.60D-07 DE=-3.98D-12 OVMax= 6.31D-07

 Error on total polarization charges =  0.01559
 SCF Done:  E(RCAM-B3LYP) =  -633.321451850     A.U. after   15 cycles
            NFock= 15  Conv=0.68D-08     -V/T= 2.0043
 KE= 6.306357968076D+02 PE=-3.273964040548D+03 EE= 1.111005723914D+03
 Leave Link  502 at Sat Jan 24 15:51:13 2026, MaxMem=  2147483648 cpu:             941.7 elap:              59.4
 (Enter /data/home/wyx/g16/l801.exe)
 DoSCS=F DFT=T ScalE2(SS,OS)=  1.000000  1.000000
 ExpMin= 9.52D-02 ExpMax= 2.70D+04 ExpMxC= 9.22D+02 IAcc=3 IRadAn=         5 AccDes= 0.00D+00
 HarFok:  IExCor=  205 AccDes= 0.00D+00 IRadAn=         5 IDoV=-2 UseB2=F ITyADJ=14
 ICtDFT= 12500011 ScaDFX=  1.000000  1.000000  1.000000  1.000000
 Largest valence mixing into a core orbital is  5.63D-05
 Largest core mixing into a valence orbital is  1.07D-05
 Range of M.O.s used for correlation:    15   356
 NBasis=   356 NAE=    52 NBE=    52 NFC=    14 NFV=     0
 NROrb=    342 NOA=    38 NOB=    38 NVA=   304 NVB=   304

 **** Warning!!: The largest alpha MO coefficient is  0.46813658D+02

 Leave Link  801 at Sat Jan 24 15:51:13 2026, MaxMem=  2147483648 cpu:               1.0 elap:               0.1
 (Enter /data/home/wyx/g16/l914.exe)
 RHF ground state
 Two-electron integrals replicated using symmetry.
 MDV=  2147483648 DFT=T DoStab=F Mixed=T DoRPA=T DoScal=F NonHer=T
 NEqPCM:  Using non-equilibrium solvation (IEInf=1, Eps=  78.3553, EpsInf=   1.7778)
 Inv3:  Mode=1 IEnd=    13318347.
 Iteration    1 A*A^-1 deviation from unit magnitude is 3.11D-15 for    362.
 Iteration    1 A*A^-1 deviation from orthogonality  is 1.35D-15 for   1427    844.
 Iteration    1 A^-1*A deviation from unit magnitude is 3.11D-15 for    362.
 Iteration    1 A^-1*A deviation from orthogonality  is 1.72D-15 for   1785    237.
 Making orbital integer symmetry assigments:
 Orbital symmetries:
       Occupied  (A) (A) (A) (A) (A) (A) (A) (A) (A) (A) (A) (A)
                 (A) (A) (A) (A) (A) (A) (A) (A) (A) (A) (A) (A)
                 (A) (A) (A) (A) (A) (A) (A) (A) (A) (A) (A) (A)
                 (A) (A) (A) (A) (A) (A) (A) (A) (A) (A) (A) (A)
                 (A) (A) (A) (A)
       Virtual   (A) (A) (A) (A) (A) (A) (A) (A) (A) (A) (A) (A)
                 (A) (A) (A) (A) (A) (A) (A) (A) (A) (A) (A) (A)
                 (A) (A) (A) (A) (A) (A) (A) (A) (A) (A) (A) (A)
                 (A) (A) (A) (A) (A) (A) (A) (A) (A) (A) (A) (A)
                 (A) (A) (A) (A) (A) (A) (A) (A) (A) (A) (A) (A)
                 (A) (A) (A) (A) (A) (A) (A) (A) (A) (A) (A) (A)
                 (A) (A) (A) (A) (A) (A) (A) (A) (A) (A) (A) (A)
                 (A) (A) (A) (A) (A) (A) (A) (A) (A) (A) (A) (A)
                 (A) (A) (A) (A) (A) (A) (A) (A) (A) (A) (A) (A)
                 (A) (A) (A) (A) (A) (A) (A) (A) (A) (A) (A) (A)
                 (A) (A) (A) (A) (A) (A) (A) (A) (A) (A) (A) (A)
                 (A) (A) (A) (A) (A) (A) (A) (A) (A) (A) (A) (A)
                 (A) (A) (A) (A) (A) (A) (A) (A) (A) (A) (A) (A)
                 (A) (A) (A) (A) (A) (A) (A) (A) (A) (A) (A) (A)
                 (A) (A) (A) (A) (A) (A) (A) (A) (A) (A) (A) (A)
                 (A) (A) (A) (A) (A) (A) (A) (A) (A) (A) (A) (A)
                 (A) (A) (A) (A) (A) (A) (A) (A) (A) (A) (A) (A)
                 (A) (A) (A) (A) (A) (A) (A) (A) (A) (A) (A) (A)
                 (A) (A) (A) (A) (A) (A) (A) (A) (A) (A) (A) (A)
                 (A) (A) (A) (A) (A) (A) (A) (A) (A) (A) (A) (A)
                 (A) (A) (A) (A) (A) (A) (A) (A) (A) (A) (A) (A)
                 (A) (A) (A) (A) (A) (A) (A) (A) (A) (A) (A) (A)
                 (A) (A) (A) (A) (A) (A) (A) (A) (A) (A) (A) (A)
                 (A) (A) (A) (A) (A) (A) (A) (A) (A) (A) (A) (A)
                 (A) (A) (A) (A) (A) (A) (A) (A) (A) (A) (A) (A)
                 (A) (A) (A) (A)
    24 initial guesses have been made.
 Convergence on wavefunction:    0.001000000000000
 Davidson Disk Diagonalization:  ConvIn= 1.00D-03 SkipCon=T Conv= 1.00D-03.
 Max sub-space:  2000 roots to seek:    24 dimension of matrix:        23104
 Iteration     1 Dimension    24 NMult     0 NNew     24
 CISAX will form    24 AO SS matrices at one time.
 NMat=    24 NSing=    24 JSym2X= 0.
 FoFJK:  IHMeth= 1 ICntrl=       0 DoSepK=T KAlg= 0 I1Cent=           0 FoldK=F
 IRaf=         1 NMat=      48 IRICut=       1 DoRegI=T DoRafI=F ISym2E= 0 IDoP0=3 IntGTp=3.
 New state      3 was old state      4
 New state      4 was old state      3
 New state      5 was old state      7
 New state      6 was old state      5
 Excitation Energies [eV] at current iteration:
 Root      1 :     3.724692133751861
 Root      2 :     3.817954707087488
 Root      3 :     4.489271732870173
 Root      4 :     5.456481504425245
 Root      5 :     6.309198609985388
 Root      6 :     6.397569585454731
 Root      7 :     6.617297432619437
 Root      8 :     6.707029284791333
 Root      9 :     6.948431687983200
 Root     10 :     7.214838145317986
 Root     11 :     7.232231557505361
 Root     12 :     7.264325785156033
 Root     13 :     7.565046276945108
 Root     14 :     7.658619985318091
 Root     15 :     7.724003520348558
 Root     16 :     7.768725785844624
 Root     17 :     7.968373336554921
 Root     18 :     8.238670295659711
 Root     19 :     8.278810027002198
 Root     20 :     8.410013499787381
 Root     21 :     8.471511975005564
 Root     22 :     8.720060895149951
 Root     23 :     8.777444711838310
 Root     24 :     9.163531475256748
 Iteration     2 Dimension    36 NMult    24 NNew     12
 CISAX will form    12 AO SS matrices at one time.
 NMat=    12 NSing=    12 JSym2X= 0.
 Root      1 not converged, maximum delta is    0.347039555680851
 Root      2 not converged, maximum delta is    0.334780741039560
 Root      3 not converged, maximum delta is    0.092754933666254
 Root      4 not converged, maximum delta is    0.305595768679488
 New state      5 was old state      6
 Root      5 not converged, maximum delta is    0.468694468279375
 New state      6 was old state      5
 Root      6 not converged, maximum delta is    0.309491692038588
 Excitation Energies [eV] at current iteration:
 Root      1 :     3.319277003551377   Change is   -0.405415130200484
 Root      2 :     3.571031415464960   Change is   -0.246923291622528
 Root      3 :     4.247171274711016   Change is   -0.242100458159156
 Root      4 :     5.125750941308225   Change is   -0.330730563117020
 Root      5 :     5.485630520346519   Change is   -0.911939065108212
 Root      6 :     6.189195796230588   Change is   -0.120002813754799
 Iteration     3 Dimension    48 NMult    36 NNew     12
 CISAX will form    12 AO SS matrices at one time.
 NMat=    12 NSing=    12 JSym2X= 0.
 Root      1 not converged, maximum delta is    0.009020421912382
 Root      2 not converged, maximum delta is    0.010011742183498
 Root      3 not converged, maximum delta is    0.017284431352391
 Root      4 not converged, maximum delta is    0.030386975848063
 Root      5 not converged, maximum delta is    0.030152243334378
 Root      6 not converged, maximum delta is    0.018418052251924
 Excitation Energies [eV] at current iteration:
 Root      1 :     3.301847396010754   Change is   -0.017429607540623
 Root      2 :     3.561726513802643   Change is   -0.009304901662316
 Root      3 :     4.234217451895295   Change is   -0.012953822815722
 Root      4 :     5.101884393952558   Change is   -0.023866547355668
 Root      5 :     5.459358444379115   Change is   -0.026272075967404
 Root      6 :     6.178594226422411   Change is   -0.010601569808177
 Iteration     4 Dimension    60 NMult    48 NNew     12
 CISAX will form    12 AO SS matrices at one time.
 NMat=    12 NSing=    12 JSym2X= 0.
 Root      1 not converged, maximum delta is    0.001768012275321
 Root      2 not converged, maximum delta is    0.001508507690786
 Root      3 not converged, maximum delta is    0.002183927767630
 Root      4 not converged, maximum delta is    0.003607046893708
 Root      5 not converged, maximum delta is    0.003953663486950
 Root      6 not converged, maximum delta is    0.003704296271540
 Excitation Energies [eV] at current iteration:
 Root      1 :     3.300501095444685   Change is   -0.001346300566069
 Root      2 :     3.561120797494971   Change is   -0.000605716307673
 Root      3 :     4.233628428964319   Change is   -0.000589022930976
 Root      4 :     5.099249075731938   Change is   -0.002635318220619
 Root      5 :     5.456260783574058   Change is   -0.003097660805056
 Root      6 :     6.177758138398924   Change is   -0.000836088023487
 Iteration     5 Dimension    72 NMult    60 NNew     12
 CISAX will form    12 AO SS matrices at one time.
 NMat=    12 NSing=    12 JSym2X= 0.
 Root      1 has converged.
 Root      2 has converged.
 Root      3 has converged.
 Root      4 has converged.
 Root      5 not converged, maximum delta is    0.001200001939319
 Root      6 has converged.
 Excitation Energies [eV] at current iteration:
 Root      1 :     3.300417255104224   Change is   -0.000083840340461
 Root      2 :     3.561090125777173   Change is   -0.000030671717797
 Root      3 :     4.233595455780596   Change is   -0.000032973183723
 Root      4 :     5.099077397361799   Change is   -0.000171678370140
 Root      5 :     5.455987623292965   Change is   -0.000273160281094
 Root      6 :     6.177699023845856   Change is   -0.000059114553068
 Iteration     6 Dimension    74 NMult    72 NNew      2
 CISAX will form     2 AO SS matrices at one time.
 NMat=     2 NSing=     2 JSym2X= 0.
 Root      1 has converged.
 Root      2 has converged.
 Root      3 has converged.
 Root      4 has converged.
 Root      5 has converged.
 Root      6 has converged.
 Excitation Energies [eV] at current iteration:
 Root      1 :     3.300416687476800   Change is   -0.000000567627424
 Root      2 :     3.561090087112709   Change is   -0.000000038664465
 Root      3 :     4.233595309164062   Change is   -0.000000146616534
 Root      4 :     5.099068622545392   Change is   -0.000008774816407
 Root      5 :     5.455966277839861   Change is   -0.000021345453104
 Root      6 :     6.177698998750702   Change is   -0.000000025095154
 Convergence achieved on expansion vectors.
 ***********************************************************************
 Excited states from <AA,BB:AA,BB> singles matrix:
 ***********************************************************************
 
 1PDM for each excited state written to RWF  633
 Ground to excited state transition densities written to RWF  633
 Ground to excited state transition electric dipole moments (Au):
       state          X           Y           Z        Dip. S.      Osc.
         1        -1.5421     -0.0517     -0.0311      2.3817      0.1926
         2         0.2631      0.0202      0.0468      0.0718      0.0063
         3         0.0068     -0.0732      0.0379      0.0068      0.0007
         4        -0.0547     -1.3113      0.0680      1.7270      0.2157
         5        -0.2804      1.3980     -0.0318      2.0341      0.2719
         6        -0.0413      0.0878      0.0572      0.0127      0.0019
 Ground to excited state transition velocity dipole moments (Au):
       state          X           Y           Z        Dip. S.      Osc.
         1         0.1816      0.0052      0.0039      0.0330      0.1815
         2        -0.0341     -0.0024     -0.0047      0.0012      0.0060
         3        -0.0012      0.0108     -0.0022      0.0001      0.0005
         4         0.0052      0.2292     -0.0096      0.0527      0.1874
         5         0.0540     -0.2742      0.0062      0.0781      0.2598
         6         0.0102     -0.0174     -0.0325      0.0015      0.0043
 Ground to excited state transition magnetic dipole moments (Au):
       state          X           Y           Z
         1         0.1225      0.0388     -1.3920
         2         0.7178      0.2594      0.3608
         3        -0.0058     -0.9349     -0.0570
         4         0.0165      0.0433     -0.3625
         5        -0.1499     -0.0935      0.2980
         6         0.0222     -0.0098     -0.0052
 Ground to excited state transition velocity quadrupole moments (Au):
       state          XX          YY          ZZ          XY          XZ          YZ
         1         0.3155     -0.1237     -0.0082     -0.4722      0.0385     -0.0058
         2        -0.0604      0.0039      0.0004      0.0921     -0.0421      0.0323
         3        -0.0082      0.0046     -0.0130     -0.0214      0.0672      0.0061
         4        -1.1950      0.2209      0.0204     -0.2384     -0.0459     -0.0245
         5         0.9023     -0.4517     -0.0351     -0.0178      0.0645     -0.0403
         6        -0.1404     -0.1180      0.1063     -0.0182     -0.0093      0.0785
 <0|del|b> * <b|rxdel|0> + <0|del|b> * <b|delr+rdel|0>
 Rotatory Strengths (R) in cgs (10**-40 erg-esu-cm/Gauss)
       state          XX          YY          ZZ    R(velocity)    E-M Angle
         1       -21.3907     51.2048     69.0620     32.9587       86.17
         2        -7.6730    -72.4185    -64.4788    -48.1901      156.87
         3       -24.1658      0.1789    -21.2371    -15.0747      163.59
         4        49.4802      2.1749     -0.6875     16.9892       80.73
         5        79.4827    -14.6372      3.5624     22.8027       78.45
         6         1.1994      0.9344     -0.3736      0.5867       53.42
 1/2[<0|r|b>*<b|rxdel|0> + (<0|rxdel|b>*<b|r|0>)*]
 Rotatory Strengths (R) in cgs (10**-40 erg-esu-cm/Gauss)
       state          XX          YY          ZZ     R(length)
         1       133.5549      1.4193    -30.6286     34.7818
         2      -133.5792     -3.7101    -11.9380    -49.7424
         3         0.0279    -48.3655      1.5272    -15.6035
         4         0.6396     40.1789     17.4309     19.4165
         5       -29.7258     92.4112      6.7088     23.1314
         6         0.6482      0.6055      0.2115      0.4884
  1/2[<0|del|b>*<b|r|0> + (<0|r|b>*<b|del|0>)*] (Au)
       state          X           Y           Z        Dip. S.   Osc.(frdel)
         1        -0.2800     -0.0003     -0.0001      0.2804      0.1869
         2        -0.0090     -0.0000     -0.0002      0.0092      0.0062
         3        -0.0000     -0.0008     -0.0001      0.0009      0.0006
         4        -0.0003     -0.3006     -0.0007      0.3015      0.2010
         5        -0.0151     -0.3833     -0.0002      0.3987      0.2658
         6        -0.0004     -0.0015     -0.0019      0.0038      0.0025

 Excitation energies and oscillator strengths:
 
 Excited State   1:      Singlet-A      3.3004 eV  375.66 nm  f=0.1926  <S**2>=0.000
      52 -> 53         0.69441
 This state for optimization and/or second-order correction.
 Total Energy, E(TD-HF/TD-DFT) =  -633.200163768    
 Copying the excited state density for this state as the 1-particle RhoCI density.
 
 Excited State   2:      Singlet-A      3.5611 eV  348.16 nm  f=0.0063  <S**2>=0.000
      51 -> 53         0.61798
      51 -> 54        -0.28335
 
 Excited State   3:      Singlet-A      4.2336 eV  292.86 nm  f=0.0007  <S**2>=0.000
      50 -> 53         0.52182
      50 -> 54         0.41087
      50 -> 58         0.11785
      51 -> 54         0.10844
 
 Excited State   4:      Singlet-A      5.0991 eV  243.15 nm  f=0.2157  <S**2>=0.000
      52 -> 54         0.69927
 
 Excited State   5:      Singlet-A      5.4560 eV  227.25 nm  f=0.2719  <S**2>=0.000
      49 -> 53         0.67987
      50 -> 53        -0.14343
 
 Excited State   6:      Singlet-A      6.1777 eV  200.70 nm  f=0.0019  <S**2>=0.000
      52 -> 55         0.66750
      52 -> 56         0.11135
      52 -> 62        -0.10130
 SavETr:  write IOETrn=   770 NScale= 10 NData=  16 NLR=1 NState=    6 LETran=     118.
 Leave Link  914 at Sat Jan 24 15:53:29 2026, MaxMem=  2147483648 cpu:            2159.8 elap:             135.7
 (Enter /data/home/wyx/g16/l601.exe)
 Copying SCF densities to generalized density rwf, IOpCl= 0 IROHF=0.

 **********************************************************************

            Population analysis using the SCF density.

 **********************************************************************

 Orbital symmetries:
       Occupied  (A) (A) (A) (A) (A) (A) (A) (A) (A) (A) (A) (A)
                 (A) (A) (A) (A) (A) (A) (A) (A) (A) (A) (A) (A)
                 (A) (A) (A) (A) (A) (A) (A) (A) (A) (A) (A) (A)
                 (A) (A) (A) (A) (A) (A) (A) (A) (A) (A) (A) (A)
                 (A) (A) (A) (A)
       Virtual   (A) (A) (A) (A) (A) (A) (A) (A) (A) (A) (A) (A)
                 (A) (A) (A) (A) (A) (A) (A) (A) (A) (A) (A) (A)
                 (A) (A) (A) (A) (A) (A) (A) (A) (A) (A) (A) (A)
                 (A) (A) (A) (A) (A) (A) (A) (A) (A) (A) (A) (A)
                 (A) (A) (A) (A) (A) (A) (A) (A) (A) (A) (A) (A)
                 (A) (A) (A) (A) (A) (A) (A) (A) (A) (A) (A) (A)
                 (A) (A) (A) (A) (A) (A) (A) (A) (A) (A) (A) (A)
                 (A) (A) (A) (A) (A) (A) (A) (A) (A) (A) (A) (A)
                 (A) (A) (A) (A) (A) (A) (A) (A) (A) (A) (A) (A)
                 (A) (A) (A) (A) (A) (A) (A) (A) (A) (A) (A) (A)
                 (A) (A) (A) (A) (A) (A) (A) (A) (A) (A) (A) (A)
                 (A) (A) (A) (A) (A) (A) (A) (A) (A) (A) (A) (A)
                 (A) (A) (A) (A) (A) (A) (A) (A) (A) (A) (A) (A)
                 (A) (A) (A) (A) (A) (A) (A) (A) (A) (A) (A) (A)
                 (A) (A) (A) (A) (A) (A) (A) (A) (A) (A) (A) (A)
                 (A) (A) (A) (A) (A) (A) (A) (A) (A) (A) (A) (A)
                 (A) (A) (A) (A) (A) (A) (A) (A) (A) (A) (A) (A)
                 (A) (A) (A) (A) (A) (A) (A) (A) (A) (A) (A) (A)
                 (A) (A) (A) (A) (A) (A) (A) (A) (A) (A) (A) (A)
                 (A) (A) (A) (A) (A) (A) (A) (A) (A) (A) (A) (A)
                 (A) (A) (A) (A) (A) (A) (A) (A) (A) (A) (A) (A)
                 (A) (A) (A) (A) (A) (A) (A) (A) (A) (A) (A) (A)
                 (A) (A) (A) (A) (A) (A) (A) (A) (A) (A) (A) (A)
                 (A) (A) (A) (A) (A) (A) (A) (A) (A) (A) (A) (A)
                 (A) (A) (A) (A) (A) (A) (A) (A) (A) (A) (A) (A)
                 (A) (A) (A) (A)
 The electronic state is 1-A.
 Alpha  occ. eigenvalues --  -19.17815 -19.16735 -14.44435 -10.33411 -10.33358
 Alpha  occ. eigenvalues --  -10.32473 -10.32355 -10.25703 -10.25277 -10.25142
 Alpha  occ. eigenvalues --  -10.25101 -10.24261 -10.24084 -10.23893  -1.11791
 Alpha  occ. eigenvalues --   -1.09153  -1.07759  -0.91534  -0.90625  -0.83933
 Alpha  occ. eigenvalues --   -0.82488  -0.81473  -0.78785  -0.74321  -0.71602
 Alpha  occ. eigenvalues --   -0.69210  -0.62110  -0.58487  -0.56958  -0.55154
 Alpha  occ. eigenvalues --   -0.54706  -0.54247  -0.52439  -0.51823  -0.50662
 Alpha  occ. eigenvalues --   -0.49671  -0.49305  -0.49035  -0.48439  -0.48232
 Alpha  occ. eigenvalues --   -0.46616  -0.45382  -0.44551  -0.43619  -0.42962
 Alpha  occ. eigenvalues --   -0.42435  -0.41787  -0.40864  -0.33000  -0.32276
 Alpha  occ. eigenvalues --   -0.30887  -0.26346
 Alpha virt. eigenvalues --   -0.03444   0.01851   0.06591   0.08403   0.08777
 Alpha virt. eigenvalues --    0.10218   0.10742   0.11785   0.12703   0.13397
 Alpha virt. eigenvalues --    0.14416   0.15505   0.15575   0.16569   0.16886
 Alpha virt. eigenvalues --    0.17496   0.17627   0.17922   0.18436   0.19127
 Alpha virt. eigenvalues --    0.19914   0.20450   0.22522   0.23190   0.24199
 Alpha virt. eigenvalues --    0.24441   0.24846   0.25501   0.25809   0.26305
 Alpha virt. eigenvalues --    0.27493   0.28040   0.28571   0.29421   0.30018
 Alpha virt. eigenvalues --    0.31292   0.31801   0.33290   0.33818   0.34890
 Alpha virt. eigenvalues --    0.35142   0.35974   0.37090   0.37393   0.37732
 Alpha virt. eigenvalues --    0.39925   0.41004   0.41382   0.42336   0.43234
 Alpha virt. eigenvalues --    0.44143   0.44871   0.45471   0.46322   0.46366
 Alpha virt. eigenvalues --    0.46983   0.48004   0.48100   0.48717   0.48793
 Alpha virt. eigenvalues --    0.49480   0.50093   0.50724   0.51499   0.51805
 Alpha virt. eigenvalues --    0.52303   0.52815   0.53121   0.53847   0.54155
 Alpha virt. eigenvalues --    0.54755   0.55768   0.55804   0.57282   0.57967
 Alpha virt. eigenvalues --    0.58793   0.59356   0.59784   0.61963   0.62554
 Alpha virt. eigenvalues --    0.63651   0.64650   0.66292   0.67421   0.68020
 Alpha virt. eigenvalues --    0.68637   0.69609   0.70917   0.71530   0.72329
 Alpha virt. eigenvalues --    0.73447   0.74956   0.76284   0.77119   0.78623
 Alpha virt. eigenvalues --    0.79816   0.80694   0.82777   0.87212   0.87386
 Alpha virt. eigenvalues --    0.90854   0.91698   0.97984   1.01620   1.22102
 Alpha virt. eigenvalues --    1.23729   1.26025   1.27443   1.29860   1.30867
 Alpha virt. eigenvalues --    1.32561   1.33217   1.34255   1.35673   1.36536
 Alpha virt. eigenvalues --    1.37506   1.37648   1.39165   1.39624   1.39937
 Alpha virt. eigenvalues --    1.40377   1.40776   1.41131   1.41538   1.41906
 Alpha virt. eigenvalues --    1.42926   1.43550   1.44576   1.45338   1.45934
 Alpha virt. eigenvalues --    1.48375   1.49647   1.49886   1.50952   1.51493
 Alpha virt. eigenvalues --    1.52103   1.52389   1.54024   1.56451   1.57468
 Alpha virt. eigenvalues --    1.59054   1.60094   1.60327   1.61124   1.61940
 Alpha virt. eigenvalues --    1.62799   1.63240   1.64091   1.64453   1.64835
 Alpha virt. eigenvalues --    1.66067   1.66583   1.66669   1.68095   1.68584
 Alpha virt. eigenvalues --    1.68973   1.69443   1.70545   1.71535   1.73313
 Alpha virt. eigenvalues --    1.73691   1.74160   1.75785   1.76396   1.80310
 Alpha virt. eigenvalues --    1.81147   1.83119   1.84545   1.85130   1.85989
 Alpha virt. eigenvalues --    1.86166   1.86587   1.89101   1.89921   1.90260
 Alpha virt. eigenvalues --    1.91632   1.93277   1.96876   1.98560   2.01374
 Alpha virt. eigenvalues --    2.02047   2.04727   2.05736   2.07251   2.09911
 Alpha virt. eigenvalues --    2.10808   2.13815   2.14648   2.18960   2.20162
 Alpha virt. eigenvalues --    2.20870   2.23027   2.23723   2.24731   2.25416
 Alpha virt. eigenvalues --    2.27567   2.29178   2.29905   2.31791   2.32801
 Alpha virt. eigenvalues --    2.34178   2.35013   2.36264   2.38047   2.39058
 Alpha virt. eigenvalues --    2.40258   2.41043   2.42223   2.43711   2.45585
 Alpha virt. eigenvalues --    2.46302   2.47383   2.49373   2.49568   2.51350
 Alpha virt. eigenvalues --    2.52945   2.53859   2.54694   2.56349   2.57175
 Alpha virt. eigenvalues --    2.58319   2.59823   2.61204   2.62216   2.63021
 Alpha virt. eigenvalues --    2.64031   2.65577   2.66660   2.66920   2.68277
 Alpha virt. eigenvalues --    2.68620   2.71748   2.73381   2.74321   2.74991
 Alpha virt. eigenvalues --    2.76333   2.76748   2.77446   2.78327   2.78539
 Alpha virt. eigenvalues --    2.80313   2.81121   2.83246   2.84237   2.85424
 Alpha virt. eigenvalues --    2.85634   2.87578   2.89448   2.89905   2.92783
 Alpha virt. eigenvalues --    2.98154   2.98406   2.99026   3.03877   3.08881
 Alpha virt. eigenvalues --    3.10752   3.11474   3.13718   3.19445   3.20277
 Alpha virt. eigenvalues --    3.21154   3.22153   3.24442   3.25143   3.25942
 Alpha virt. eigenvalues --    3.28123   3.30268   3.31170   3.35309   3.37588
 Alpha virt. eigenvalues --    3.39304   3.39560   3.40159   3.40625   3.41279
 Alpha virt. eigenvalues --    3.41940   3.44099   3.45313   3.46813   3.49458
 Alpha virt. eigenvalues --    3.51108   3.51951   3.54884   3.58192   3.59494
 Alpha virt. eigenvalues --    3.61665   3.91637   3.99848   4.30023   4.35260
 Alpha virt. eigenvalues --   21.64093  21.76760  22.05161  22.10318  22.11771
 Alpha virt. eigenvalues --   22.12769  22.15917  22.18682  22.20911  22.26421
 Alpha virt. eigenvalues --   22.31110  31.93129  43.64019  43.66487
          Condensed to atoms (all electrons):
               1          2          3          4          5          6
     1  O    7.952429   0.000000  -0.000230   0.000017   0.017658   0.016266
     2  O    0.000000   8.098208   0.000642   0.000024  -0.187418   0.001547
     3  N   -0.000230   0.000642   6.350260   0.371481  -0.095187   0.377199
     4  H    0.000017   0.000024   0.371481   0.392991   0.011855  -0.041184
     5  C    0.017658  -0.187418  -0.095187   0.011855   7.158505  -0.046639
     6  C    0.016266   0.001547   0.377199  -0.041184  -0.046639   5.579974
     7  C   -0.000093  -0.004326   0.355830  -0.043435   0.329857  -0.143347
     8  C   -0.000269   0.623328   0.004544  -0.001175  -0.467687   0.047935
     9  C   -0.011311   0.022012   0.017892   0.000643  -0.638586  -0.093524
    10  H    0.005065  -0.000009   0.002557   0.000028  -0.033020  -0.007053
    11  H    0.012048  -0.000225  -0.001252  -0.000003  -0.119273   0.022675
    12  C   -0.242644  -0.003401  -0.102237   0.017606   0.196436  -0.154939
    13  C    0.730103  -0.000006  -0.000092   0.000491   0.066293   0.129834
    14  C   -0.000013  -0.073806  -0.049237   0.001524   0.013619  -0.005594
    15  H    0.000000   0.004657   0.003114  -0.000135  -0.000294   0.003544
    16  H    0.000000   0.001592  -0.002559   0.000218  -0.013942   0.000669
    17  H    0.000000   0.031573   0.003776   0.000692   0.009447  -0.000303
    18  C   -0.000308  -0.092204  -0.000290   0.000015  -0.139489  -0.002239
    19  H   -0.000001   0.001738   0.000008  -0.000001   0.007225   0.000039
    20  H    0.000013  -0.001472   0.000012  -0.000001  -0.012746   0.000126
    21  H    0.000651   0.007284   0.000085   0.000000   0.078279  -0.001521
    22  C   -0.116675   0.000000   0.000257   0.000105   0.001317  -0.010831
    23  H    0.004203  -0.000000   0.000020  -0.000051  -0.000411  -0.028465
    24  H    0.001978   0.000000   0.000059  -0.000016  -0.000075   0.010308
    25  H    0.009638   0.000000   0.000024  -0.000002  -0.000099  -0.001342
    26  C    0.000891   0.000007  -0.028351  -0.009663   0.001304   0.194979
    27  H   -0.000140  -0.000000   0.001094   0.000884   0.000235  -0.039007
    28  H   -0.000033  -0.000000  -0.002818   0.000543   0.000417  -0.037521
    29  H    0.000020   0.000000   0.003186   0.001771  -0.000506  -0.052108
               7          8          9         10         11         12
     1  O   -0.000093  -0.000269  -0.011311   0.005065   0.012048  -0.242644
     2  O   -0.004326   0.623328   0.022012  -0.000009  -0.000225  -0.003401
     3  N    0.355830   0.004544   0.017892   0.002557  -0.001252  -0.102237
     4  H   -0.043435  -0.001175   0.000643   0.000028  -0.000003   0.017606
     5  C    0.329857  -0.467687  -0.638586  -0.033020  -0.119273   0.196436
     6  C   -0.143347   0.047935  -0.093524  -0.007053   0.022675  -0.154939
     7  C    5.499719  -0.235999  -0.234535  -0.004167   0.015292   0.045178
     8  C   -0.235999   5.723957   0.180580  -0.001646  -0.002056  -0.083352
     9  C   -0.234535   0.180580   6.459065   0.403884   0.541076  -0.124477
    10  H   -0.004167  -0.001646   0.403884   0.549934  -0.039457  -0.021813
    11  H    0.015292  -0.002056   0.541076  -0.039457   0.510960  -0.098503
    12  C    0.045178  -0.083352  -0.124477  -0.021813  -0.098503   7.463417
    13  C    0.024177  -0.010303  -0.235827  -0.006111  -0.000968  -0.471997
    14  C    0.203237  -0.093174   0.020732  -0.001150   0.000285   0.003314
    15  H   -0.050491   0.006927  -0.001235   0.000130  -0.000008  -0.000588
    16  H   -0.020231   0.006288  -0.000276  -0.000032   0.000051  -0.000515
    17  H   -0.053900  -0.025132   0.001842   0.000060  -0.000052  -0.000273
    18  C    0.024156   0.292492  -0.016965  -0.008327  -0.006259   0.011035
    19  H   -0.000230  -0.035856  -0.001901   0.000418   0.000547  -0.000193
    20  H   -0.001199  -0.009441  -0.001203   0.000337  -0.000076  -0.001096
    21  H    0.004847  -0.131374  -0.015756  -0.001782  -0.006194   0.005470
    22  C    0.000913  -0.000046   0.012921   0.001480   0.000308  -0.286185
    23  H    0.000003  -0.000001   0.002305  -0.000147   0.000000   0.054765
    24  H   -0.000036   0.000003  -0.002246   0.000163  -0.000116  -0.003169
    25  H    0.000012   0.000000  -0.000093  -0.000060  -0.000076   0.027088
    26  C    0.004166   0.000818   0.019967  -0.000424   0.000047  -0.084032
    27  H   -0.000847  -0.000004  -0.000870  -0.000040   0.000009  -0.003311
    28  H   -0.001223  -0.000010  -0.000241  -0.000019   0.000055  -0.018650
    29  H    0.003420   0.000015  -0.000608   0.000052  -0.000008   0.023639
              13         14         15         16         17         18
     1  O    0.730103  -0.000013   0.000000   0.000000   0.000000  -0.000308
     2  O   -0.000006  -0.073806   0.004657   0.001592   0.031573  -0.092204
     3  N   -0.000092  -0.049237   0.003114  -0.002559   0.003776  -0.000290
     4  H    0.000491   0.001524  -0.000135   0.000218   0.000692   0.000015
     5  C    0.066293   0.013619  -0.000294  -0.013942   0.009447  -0.139489
     6  C    0.129834  -0.005594   0.003544   0.000669  -0.000303  -0.002239
     7  C    0.024177   0.203237  -0.050491  -0.020231  -0.053900   0.024156
     8  C   -0.010303  -0.093174   0.006927   0.006288  -0.025132   0.292492
     9  C   -0.235827   0.020732  -0.001235  -0.000276   0.001842  -0.016965
    10  H   -0.006111  -0.001150   0.000130  -0.000032   0.000060  -0.008327
    11  H   -0.000968   0.000285  -0.000008   0.000051  -0.000052  -0.006259
    12  C   -0.471997   0.003314  -0.000588  -0.000515  -0.000273   0.011035
    13  C    5.516208  -0.000043  -0.000021  -0.000026   0.000003   0.001005
    14  C   -0.000043   5.288094   0.384589   0.395109   0.418619  -0.002493
    15  H   -0.000021   0.384589   0.553437  -0.029592  -0.021175   0.000148
    16  H   -0.000026   0.395109  -0.029592   0.509605  -0.016756   0.000063
    17  H    0.000003   0.418619  -0.021175  -0.016756   0.459303   0.001227
    18  C    0.001005  -0.002493   0.000148   0.000063   0.001227   5.187128
    19  H   -0.000018  -0.000005   0.000003  -0.000010   0.000060   0.409813
    20  H   -0.000047  -0.000188  -0.000006   0.000016   0.000007   0.396918
    21  H    0.001883   0.000455  -0.000022  -0.000005  -0.000162   0.406779
    22  C    0.315662   0.000013   0.000002  -0.000002   0.000000   0.000018
    23  H   -0.078605   0.000001  -0.000000   0.000000   0.000000   0.000001
    24  H   -0.033562  -0.000001   0.000000  -0.000000  -0.000000  -0.000001
    25  H   -0.046717   0.000000   0.000000  -0.000000  -0.000000   0.000000
    26  C   -0.054250   0.000207  -0.000243   0.000001   0.000014  -0.000019
    27  H   -0.007222   0.000047  -0.000009   0.000005  -0.000001   0.000000
    28  H    0.006348  -0.000056   0.000013  -0.000016   0.000001  -0.000000
    29  H   -0.000206   0.000216   0.000037   0.000009   0.000002   0.000001
              19         20         21         22         23         24
     1  O   -0.000001   0.000013   0.000651  -0.116675   0.004203   0.001978
     2  O    0.001738  -0.001472   0.007284   0.000000  -0.000000   0.000000
     3  N    0.000008   0.000012   0.000085   0.000257   0.000020   0.000059
     4  H   -0.000001  -0.000001   0.000000   0.000105  -0.000051  -0.000016
     5  C    0.007225  -0.012746   0.078279   0.001317  -0.000411  -0.000075
     6  C    0.000039   0.000126  -0.001521  -0.010831  -0.028465   0.010308
     7  C   -0.000230  -0.001199   0.004847   0.000913   0.000003  -0.000036
     8  C   -0.035856  -0.009441  -0.131374  -0.000046  -0.000001   0.000003
     9  C   -0.001901  -0.001203  -0.015756   0.012921   0.002305  -0.002246
    10  H    0.000418   0.000337  -0.001782   0.001480  -0.000147   0.000163
    11  H    0.000547  -0.000076  -0.006194   0.000308   0.000000  -0.000116
    12  C   -0.000193  -0.001096   0.005470  -0.286185   0.054765  -0.003169
    13  C   -0.000018  -0.000047   0.001883   0.315662  -0.078605  -0.033562
    14  C   -0.000005  -0.000188   0.000455   0.000013   0.000001  -0.000001
    15  H    0.000003  -0.000006  -0.000022   0.000002  -0.000000   0.000000
    16  H   -0.000010   0.000016  -0.000005  -0.000002   0.000000  -0.000000
    17  H    0.000060   0.000007  -0.000162   0.000000   0.000000  -0.000000
    18  C    0.409813   0.396918   0.406779   0.000018   0.000001  -0.000001
    19  H    0.503338  -0.016796  -0.027341  -0.000000   0.000000   0.000000
    20  H   -0.016796   0.495289  -0.019485  -0.000001  -0.000000   0.000000
    21  H   -0.027341  -0.019485   0.544224   0.000046  -0.000001  -0.000001
    22  C   -0.000000  -0.000001   0.000046   5.429219   0.389331   0.404860
    23  H    0.000000  -0.000000  -0.000001   0.389331   0.542819  -0.028654
    24  H    0.000000   0.000000  -0.000001   0.404860  -0.028654   0.495203
    25  H   -0.000000  -0.000000  -0.000001   0.381979  -0.020981  -0.008111
    26  C    0.000000   0.000001  -0.000014  -0.036597   0.019315  -0.015696
    27  H   -0.000000   0.000000  -0.000000   0.011462  -0.009067  -0.001166
    28  H    0.000000  -0.000000   0.000000  -0.012840  -0.001997   0.001480
    29  H    0.000000  -0.000000  -0.000000   0.001774   0.000732   0.000177
              25         26         27         28         29
     1  O    0.009638   0.000891  -0.000140  -0.000033   0.000020
     2  O    0.000000   0.000007  -0.000000  -0.000000   0.000000
     3  N    0.000024  -0.028351   0.001094  -0.002818   0.003186
     4  H   -0.000002  -0.009663   0.000884   0.000543   0.001771
     5  C   -0.000099   0.001304   0.000235   0.000417  -0.000506
     6  C   -0.001342   0.194979  -0.039007  -0.037521  -0.052108
     7  C    0.000012   0.004166  -0.000847  -0.001223   0.003420
     8  C    0.000000   0.000818  -0.000004  -0.000010   0.000015
     9  C   -0.000093   0.019967  -0.000870  -0.000241  -0.000608
    10  H   -0.000060  -0.000424  -0.000040  -0.000019   0.000052
    11  H   -0.000076   0.000047   0.000009   0.000055  -0.000008
    12  C    0.027088  -0.084032  -0.003311  -0.018650   0.023639
    13  C   -0.046717  -0.054250  -0.007222   0.006348  -0.000206
    14  C    0.000000   0.000207   0.000047  -0.000056   0.000216
    15  H    0.000000  -0.000243  -0.000009   0.000013   0.000037
    16  H   -0.000000   0.000001   0.000005  -0.000016   0.000009
    17  H   -0.000000   0.000014  -0.000001   0.000001   0.000002
    18  C    0.000000  -0.000019   0.000000  -0.000000   0.000001
    19  H   -0.000000   0.000000  -0.000000   0.000000   0.000000
    20  H   -0.000000   0.000001   0.000000  -0.000000  -0.000000
    21  H   -0.000001  -0.000014  -0.000000   0.000000  -0.000000
    22  C    0.381979  -0.036597   0.011462  -0.012840   0.001774
    23  H   -0.020981   0.019315  -0.009067  -0.001997   0.000732
    24  H   -0.008111  -0.015696  -0.001166   0.001480   0.000177
    25  H    0.499631   0.001873   0.000739   0.000109  -0.000047
    26  C    0.001873   5.247662   0.416529   0.436163   0.388338
    27  H    0.000739   0.416529   0.511471  -0.027736  -0.024714
    28  H    0.000109   0.436163  -0.027736   0.474049  -0.015768
    29  H   -0.000047   0.388338  -0.024714  -0.015768   0.516287
 Mulliken charges:
               1
     1  O   -0.379264
     2  O   -0.429742
     3  N   -0.209788
     4  H    0.294778
     5  C   -0.137077
     6  C    0.280522
     7  C    0.283251
     8  C    0.210637
     9  C   -0.303265
    10  H    0.161149
    11  H    0.171172
    12  C   -0.146575
    13  C    0.154015
    14  C   -0.504300
    15  H    0.147219
    16  H    0.170335
    17  H    0.191128
    18  C   -0.462204
    19  H    0.159162
    20  H    0.171038
    21  H    0.153654
    22  C   -0.488490
    23  H    0.154885
    24  H    0.178618
    25  H    0.156435
    26  C   -0.502993
    27  H    0.171660
    28  H    0.199750
    29  H    0.154290
 Sum of Mulliken charges =  -0.00000
 Mulliken charges with hydrogens summed into heavy atoms:
               1
     1  O   -0.379264
     2  O   -0.429742
     3  N    0.084990
     5  C   -0.137077
     6  C    0.280522
     7  C    0.283251
     8  C    0.210637
     9  C    0.029057
    12  C   -0.146575
    13  C    0.154015
    14  C    0.004382
    18  C    0.021649
    22  C    0.001449
    26  C    0.022707
 Electronic spatial extent (au):  <R**2>=           3223.4298
 Charge=              0.0000 electrons
 Dipole moment (field-independent basis, Debye):
    X=             -4.5616    Y=              7.7527    Z=             -0.2150  Tot=              8.9977
 Quadrupole moment (field-independent basis, Debye-Ang):
   XX=            -99.9793   YY=            -78.3676   ZZ=            -84.4307
   XY=            -13.7131   XZ=             -3.0811   YZ=             -0.9506
 Traceless Quadrupole moment (field-independent basis, Debye-Ang):
   XX=            -12.3868   YY=              9.2249   ZZ=              3.1619
   XY=            -13.7131   XZ=             -3.0811   YZ=             -0.9506
 Octapole moment (field-independent basis, Debye-Ang**2):
  XXX=           -122.7010  YYY=             67.0214  ZZZ=              1.6165  XYY=             37.9778
  XXY=             29.3258  XXZ=             -7.3258  XZZ=             -1.3944  YZZ=             -0.7434
  YYZ=              1.9546  XYZ=              2.4731
 Hexadecapole moment (field-independent basis, Debye-Ang**3):
 XXXX=          -3161.5783 YYYY=          -1276.7118 ZZZZ=           -133.0723 XXXY=            -48.4460
 XXXZ=            -41.2983 YYYX=            -95.6484 YYYZ=            -13.7897 ZZZX=              2.8842
 ZZZY=              2.4336 XXYY=           -690.4160 XXZZ=           -486.6752 YYZZ=           -234.8828
 XXYZ=             -2.2037 YYXZ=             -3.6084 ZZXY=             -2.6537
 N-N= 8.990010679759D+02 E-N=-3.273964042682D+03  KE= 6.306357968076D+02
 Leave Link  601 at Sat Jan 24 15:53:29 2026, MaxMem=  2147483648 cpu:               0.7 elap:               0.1
 (Enter /data/home/wyx/g16/l9999.exe)
 Electronic transition elements 
                 1             2             3             4             5 
      1  -0.633200D+03 -0.633191D+03 -0.633166D+03 -0.633134D+03 -0.633121D+03
      2   0.143294D+01 -0.240545D+00  0.256792D-01  0.507583D+00 -0.221331D+00
      3   0.491541D+00 -0.742627D-01 -0.718764D-01 -0.121068D+01  0.140816D+01
      4   0.294643D+00 -0.920153D-01 -0.317908D-01  0.602889D-01 -0.472076D-01
      5  -0.168367D+00  0.313097D-01 -0.300154D-02 -0.842843D-01  0.443577D-01
      6  -0.587154D-01  0.979638D-02  0.105661D-01  0.213112D+00 -0.275823D+00
      7  -0.348811D-01  0.105420D-01  0.141141D-02 -0.120308D-01  0.945010D-02
      8  -0.389105D+00 -0.681284D+00  0.311360D+00 -0.984381D-01  0.226175D+00
      9   0.294774D-01 -0.173773D-01 -0.872025D+00  0.441549D-01 -0.428177D-01
     10   0.134237D+01 -0.498301D+00  0.140894D+00  0.349197D+00 -0.258933D+00
     11  -0.541290D-01  0.172027D-01 -0.444902D-01 -0.111877D+01  0.684868D+00
     12   0.240297D+00 -0.666062D-01  0.179840D-01  0.204151D+00 -0.271147D+00
     13  -0.261103D-02 -0.670486D-02  0.991858D-02 -0.391052D-01  0.174720D-02
     14   0.489896D+00 -0.815751D-01  0.101884D-01 -0.280336D+00  0.437326D+00
     15   0.123948D-01 -0.229958D-01  0.588555D-01 -0.263450D+00  0.173779D+00
     16   0.107001D+00 -0.597126D-01  0.192319D-01 -0.517360D-01  0.151879D+00
                 6 
      1  -0.633094D+03
      2   0.191155D-01
      3   0.951901D-01
      4  -0.570914D-01
      5  -0.959762D-02
      6  -0.190199D-01
      7   0.317379D-01
      8  -0.181440D-01
      9  -0.167588D-01
     10   0.227480D-02
     11  -0.147235D+00
     12  -0.112574D+00
     13   0.107704D+00
     14   0.202185D-01
     15  -0.309761D-01
     16  -0.685331D-01
 1\1\GINC-CN015\SP\RCAM-B3LYP TD-FC\TZVP\C11H15N1O2\WYX\24-Jan-2026\0\\
 #p CAM-B3LYP TZVP em=gd3bj td(nstates=6,root=1) scrf=(Solvent=Water)\\
 Title Card Required\\0,1\O,0,2.7616,-1.5548,0.685455\O,0,-3.349484,-1.
 662685,-0.834176\N,0,-0.668206,1.524175,-0.030338\H,0,-0.977661,2.4786
 93,-0.111566\C,0,-1.23865,-0.76922,-0.168342\C,0,0.661688,1.313171,0.1
 80627\C,0,-1.60811,0.537101,-0.276462\C,0,-2.149661,-1.826832,-0.42512
 6\C,0,0.15869,-1.125012,0.279636\H,0,0.131089,-1.571735,1.279858\H,0,0
 .571278,-1.897018,-0.370795\C,0,1.123144,0.038834,0.290723\C,0,2.50623
 6,-0.367699,0.475078\C,0,-2.945472,1.070463,-0.637338\H,0,-3.269131,1.
 850717,0.057593\H,0,-2.950371,1.503009,-1.641167\H,0,-3.730785,0.31650
 5,-0.63002\C,0,-1.812235,-3.272897,-0.22271\H,0,-2.60196,-3.834539,0.2
 80124\H,0,-1.6381,-3.770276,-1.181483\H,0,-0.910027,-3.419224,0.367242
 \C,0,3.668998,0.59101,0.395646\H,0,3.599632,1.27526,-0.446055\H,0,3.74
 3751,1.184948,1.307415\H,0,4.57452,-0.003572,0.303218\C,0,1.441514,2.5
 91164,0.256382\H,0,2.161785,2.587087,1.066957\H,0,1.976228,2.781723,-0
 .674172\H,0,0.7697,3.431651,0.423795\\Version=ES64L-G16RevA.03\State=1
 -A\HF=-633.3214518\RMSD=6.805e-09\PG=C01 [X(C11H15N1O2)]\\@


 REVOLUTIONS HAVE NEVER LIGHTENED THE BURDEN OF TYRANNY:
 THEY HAVE MERELY SHIFTED IT TO OTHER SHOULDERS.
                                   -- G. B. SHAW (1903)
 Job cpu time:       0 days  0 hours 52 minutes  1.9 seconds.
 Elapsed time:       0 days  0 hours  3 minutes 16.5 seconds.
 File lengths (MBytes):  RWF=    832 Int=      0 D2E=      0 Chk=     34 Scr=      1
 Normal termination of Gaussian 16 at Sat Jan 24 15:53:32 2026.
