 Entering Gaussian System, Link 0=g16
 Input=DDL-LR-Eq-12.gjf
 Output=DDL-LR-Eq-12.log
 Initial command:
 /data/home/wyx/g16/l1.exe "/scr/tmp/wyx/13119/Gau-1513293.inp" -scrdir="/scr/tmp/wyx/13119/"
 Entering Link 1 = /data/home/wyx/g16/l1.exe PID=   1513294.
  
 Copyright (c) 1988,1990,1992,1993,1995,1998,2003,2009,2016,
            Gaussian, Inc.  All Rights Reserved.
  
 This is part of the Gaussian(R) 16 program.  It is based on
 the Gaussian(R) 09 system (copyright 2009, Gaussian, Inc.),
 the Gaussian(R) 03 system (copyright 2003, Gaussian, Inc.),
 the Gaussian(R) 98 system (copyright 1998, Gaussian, Inc.),
 the Gaussian(R) 94 system (copyright 1995, Gaussian, Inc.),
 the Gaussian 92(TM) system (copyright 1992, Gaussian, Inc.),
 the Gaussian 90(TM) system (copyright 1990, Gaussian, Inc.),
 the Gaussian 88(TM) system (copyright 1988, Gaussian, Inc.),
 the Gaussian 86(TM) system (copyright 1986, Carnegie Mellon
 University), and the Gaussian 82(TM) system (copyright 1983,
 Carnegie Mellon University). Gaussian is a federally registered
 trademark of Gaussian, Inc.
  
 This software contains proprietary and confidential information,
 including trade secrets, belonging to Gaussian, Inc.
  
 This software is provided under written license and may be
 used, copied, transmitted, or stored only in accord with that
 written license.
  
 The following legend is applicable only to US Government
 contracts under FAR:
  
                    RESTRICTED RIGHTS LEGEND
  
 Use, reproduction and disclosure by the US Government is
 subject to restrictions as set forth in subparagraphs (a)
 and (c) of the Commercial Computer Software - Restricted
 Rights clause in FAR 52.227-19.
  
 Gaussian, Inc.
 340 Quinnipiac St., Bldg. 40, Wallingford CT 06492
  
  
 ---------------------------------------------------------------
 Warning -- This program may not be used in any manner that
 competes with the business of Gaussian, Inc. or will provide
 assistance to any competitor of Gaussian, Inc.  The licensee
 of this program is prohibited from giving any competitor of
 Gaussian, Inc. access to this program.  By using this program,
 the user acknowledges that Gaussian, Inc. is engaged in the
 business of creating and licensing software in the field of
 computational chemistry and represents and warrants to the
 licensee that it is not a competitor of Gaussian, Inc. and that
 it will not use this program in any manner prohibited above.
 ---------------------------------------------------------------
  

 Cite this work as:
 Gaussian 16, Revision A.03,
 M. J. Frisch, G. W. Trucks, H. B. Schlegel, G. E. Scuseria, 
 M. A. Robb, J. R. Cheeseman, G. Scalmani, V. Barone, 
 G. A. Petersson, H. Nakatsuji, X. Li, M. Caricato, A. V. Marenich, 
 J. Bloino, B. G. Janesko, R. Gomperts, B. Mennucci, H. P. Hratchian, 
 J. V. Ortiz, A. F. Izmaylov, J. L. Sonnenberg, D. Williams-Young, 
 F. Ding, F. Lipparini, F. Egidi, J. Goings, B. Peng, A. Petrone, 
 T. Henderson, D. Ranasinghe, V. G. Zakrzewski, J. Gao, N. Rega, 
 G. Zheng, W. Liang, M. Hada, M. Ehara, K. Toyota, R. Fukuda, 
 J. Hasegawa, M. Ishida, T. Nakajima, Y. Honda, O. Kitao, H. Nakai, 
 T. Vreven, K. Throssell, J. A. Montgomery, Jr., J. E. Peralta, 
 F. Ogliaro, M. J. Bearpark, J. J. Heyd, E. N. Brothers, K. N. Kudin, 
 V. N. Staroverov, T. A. Keith, R. Kobayashi, J. Normand, 
 K. Raghavachari, A. P. Rendell, J. C. Burant, S. S. Iyengar, 
 J. Tomasi, M. Cossi, J. M. Millam, M. Klene, C. Adamo, R. Cammi, 
 J. W. Ochterski, R. L. Martin, K. Morokuma, O. Farkas, 
 J. B. Foresman, and D. J. Fox, Gaussian, Inc., Wallingford CT, 2016.
 
 ******************************************
 Gaussian 16:  ES64L-G16RevA.03 25-Dec-2016
                24-Jan-2026 
 ******************************************
 %nprocshared=16
 Will use up to   16 processors via shared memory.
 %mem=16GB
 %oldchk=DDL-LR-12.chk
 %chk=DDL-LR-Eq-12.chk
 Copying data from "DDL-LR-12.chk" to current chk file "DDL-LR-Eq-12.chk"
 IOpt=  2 FromEx=T IUOpen= 4 IOptOp= 5 NList=   0 IFRang= 0 IUIn= 4 IUOut= 2.
 ----------------------------------------------------------------------
 #p CAM-B3LYP TZVP em=gd3bj td(Eqsolv,nstates=6,root=1) scrf=(Solvent=W
 ater) Geom=Check Guess=Read
 ----------------------------------------------------------------------
 1/29=2,38=1,172=1/1;
 2/12=2,40=1/2;
 3/5=19,7=101,11=9,14=-4,25=1,30=1,70=2201,72=1,74=-40,116=-2,124=41/1,2,3,8;
 4/5=1/1;
 5/5=2,38=6,53=1/2;
 8/6=1,10=1,107=1,108=6/1;
 9/8=1,41=6,42=1,70=2,73=2/14;
 6/7=2,8=2,9=2,10=2/1;
 99/5=1,9=1/99;
 Leave Link    1 at Sat Jan 24 16:33:51 2026, MaxMem=  2147483648 cpu:               0.8 elap:               0.1
 (Enter /data/home/wyx/g16/l101.exe)
 -------------------
 Title Card Required
 -------------------
 Structure from the checkpoint file:  "DDL-LR-Eq-12.chk"
 Charge =  0 Multiplicity = 1
 Z-Matrix found in chk file.
 O,0,2.752819,-1.558423,0.714536
 O,0,-3.271583,-1.647854,-1.027699
 N,0,-0.694759,1.518226,0.077759
 H,0,-1.001005,2.475031,0.010874
 C,0,-1.243798,-0.760528,-0.157247
 C,0,0.649528,1.303463,0.249896
 C,0,-1.613387,0.540424,-0.241145
 C,0,-2.153419,-1.826261,-0.510182
 C,0,0.118796,-1.114629,0.38823
 H,0,0.035008,-1.473102,1.421925
 H,0,0.542304,-1.947697,-0.169951
 C,0,1.103799,0.030494,0.337596
 C,0,2.497544,-0.38275,0.461657
 C,0,-2.939548,1.075219,-0.654313
 H,0,-3.13435,2.046966,-0.196701
 H,0,-2.994408,1.202292,-1.736857
 H,0,-3.764154,0.421081,-0.382928
 C,0,-1.764189,-3.25017,-0.240751
 H,0,-2.628135,-3.911567,-0.192663
 H,0,-1.115871,-3.6297,-1.035619
 H,0,-1.209467,-3.37622,0.689314
 C,0,3.657152,0.559698,0.256052
 H,0,3.506389,1.249979,-0.569631
 H,0,3.838048,1.14504,1.158854
 H,0,4.540033,-0.046037,0.066572
 C,0,1.428075,2.581959,0.311575
 H,0,2.232626,2.543483,1.036267
 H,0,1.853156,2.827622,-0.662359
 H,0,0.772795,3.403962,0.596939
 Recover connectivity data from disk.
 ITRead=  0  0  0  0  0  0  0  0  0  0  0  0  0  0  0  0  0  0  0  0
 ITRead=  0  0  0  0  0  0  0  0  0
 MicOpt= -1 -1 -1 -1 -1 -1 -1 -1 -1 -1 -1 -1 -1 -1 -1 -1 -1 -1 -1 -1
 MicOpt= -1 -1 -1 -1 -1 -1 -1 -1 -1
 NAtoms=     29 NQM=       29 NQMF=       0 NMMI=      0 NMMIF=      0
                NMic=       0 NMicF=      0.
                    Isotopes and Nuclear Properties:
 (Nuclear quadrupole moments (NQMom) in fm**2, nuclear magnetic moments (NMagM)
  in nuclear magnetons)

  Atom         1           2           3           4           5           6           7           8           9          10
 IAtWgt=          16          16          14           1          12          12          12          12          12           1
 AtmWgt=  15.9949146  15.9949146  14.0030740   1.0078250  12.0000000  12.0000000  12.0000000  12.0000000  12.0000000   1.0078250
 NucSpn=           0           0           2           1           0           0           0           0           0           1
 AtZEff=   5.6000000   5.6000000   4.5500000   1.0000000   3.6000000   3.6000000   3.6000000   3.6000000   3.6000000   1.0000000
 NQMom=    0.0000000   0.0000000   2.0440000   0.0000000   0.0000000   0.0000000   0.0000000   0.0000000   0.0000000   0.0000000
 NMagM=    0.0000000   0.0000000   0.4037610   2.7928460   0.0000000   0.0000000   0.0000000   0.0000000   0.0000000   2.7928460
 AtZNuc=   8.0000000   8.0000000   7.0000000   1.0000000   6.0000000   6.0000000   6.0000000   6.0000000   6.0000000   1.0000000

  Atom        11          12          13          14          15          16          17          18          19          20
 IAtWgt=           1          12          12          12           1           1           1          12           1           1
 AtmWgt=   1.0078250  12.0000000  12.0000000  12.0000000   1.0078250   1.0078250   1.0078250  12.0000000   1.0078250   1.0078250
 NucSpn=           1           0           0           0           1           1           1           0           1           1
 AtZEff=   1.0000000   3.6000000   3.6000000   3.6000000   1.0000000   1.0000000   1.0000000   3.6000000   1.0000000   1.0000000
 NQMom=    0.0000000   0.0000000   0.0000000   0.0000000   0.0000000   0.0000000   0.0000000   0.0000000   0.0000000   0.0000000
 NMagM=    2.7928460   0.0000000   0.0000000   0.0000000   2.7928460   2.7928460   2.7928460   0.0000000   2.7928460   2.7928460
 AtZNuc=   1.0000000   6.0000000   6.0000000   6.0000000   1.0000000   1.0000000   1.0000000   6.0000000   1.0000000   1.0000000

  Atom        21          22          23          24          25          26          27          28          29
 IAtWgt=           1          12           1           1           1          12           1           1           1
 AtmWgt=   1.0078250  12.0000000   1.0078250   1.0078250   1.0078250  12.0000000   1.0078250   1.0078250   1.0078250
 NucSpn=           1           0           1           1           1           0           1           1           1
 AtZEff=   1.0000000   3.6000000   1.0000000   1.0000000   1.0000000   3.6000000   1.0000000   1.0000000   1.0000000
 NQMom=    0.0000000   0.0000000   0.0000000   0.0000000   0.0000000   0.0000000   0.0000000   0.0000000   0.0000000
 NMagM=    2.7928460   0.0000000   2.7928460   2.7928460   2.7928460   0.0000000   2.7928460   2.7928460   2.7928460
 AtZNuc=   1.0000000   6.0000000   1.0000000   1.0000000   1.0000000   6.0000000   1.0000000   1.0000000   1.0000000
 Leave Link  101 at Sat Jan 24 16:33:55 2026, MaxMem=  2147483648 cpu:               0.9 elap:               0.1
 (Enter /data/home/wyx/g16/l202.exe)
                          Input orientation:                          
 ---------------------------------------------------------------------
 Center     Atomic      Atomic             Coordinates (Angstroms)
 Number     Number       Type             X           Y           Z
 ---------------------------------------------------------------------
      1          8           0        2.752819   -1.558423    0.714536
      2          8           0       -3.271583   -1.647854   -1.027699
      3          7           0       -0.694759    1.518226    0.077759
      4          1           0       -1.001005    2.475031    0.010874
      5          6           0       -1.243798   -0.760528   -0.157247
      6          6           0        0.649528    1.303463    0.249896
      7          6           0       -1.613387    0.540424   -0.241145
      8          6           0       -2.153419   -1.826261   -0.510182
      9          6           0        0.118796   -1.114629    0.388230
     10          1           0        0.035008   -1.473102    1.421925
     11          1           0        0.542304   -1.947697   -0.169951
     12          6           0        1.103799    0.030494    0.337596
     13          6           0        2.497544   -0.382750    0.461657
     14          6           0       -2.939548    1.075219   -0.654313
     15          1           0       -3.134350    2.046966   -0.196701
     16          1           0       -2.994408    1.202292   -1.736857
     17          1           0       -3.764154    0.421081   -0.382928
     18          6           0       -1.764189   -3.250170   -0.240751
     19          1           0       -2.628135   -3.911567   -0.192663
     20          1           0       -1.115871   -3.629700   -1.035619
     21          1           0       -1.209467   -3.376220    0.689314
     22          6           0        3.657152    0.559698    0.256052
     23          1           0        3.506389    1.249979   -0.569631
     24          1           0        3.838048    1.145040    1.158854
     25          1           0        4.540033   -0.046037    0.066572
     26          6           0        1.428075    2.581959    0.311575
     27          1           0        2.232626    2.543483    1.036267
     28          1           0        1.853156    2.827622   -0.662359
     29          1           0        0.772795    3.403962    0.596939
 ---------------------------------------------------------------------
                    Distance matrix (angstroms):
                    1          2          3          4          5
     1  O    0.000000
     2  O    6.271906   0.000000
     3  N    4.664445   4.229199   0.000000
     4  H    5.554735   4.819994   1.006845   0.000000
     5  C    4.167684   2.378434   2.355715   3.249008   0.000000
     6  C    3.581915   5.071256   1.372174   2.038127   2.830284
     7  C    4.937838   2.856019   1.379012   2.044806   1.355032
     8  C    5.063876   1.244967   3.695803   4.483377   1.444908
     9  C    2.691005   3.712661   2.773119   3.779155   1.509833
    10  H    2.809658   4.118828   3.359670   4.318813   2.153344
    11  H    2.412515   3.920634   3.688402   4.687752   2.144689
    12  C    2.320777   4.881071   2.348547   3.242331   2.526222
    13  C    1.229358   6.091100   3.735222   4.539820   3.810958
    14  C    6.419724   2.768536   2.402345   2.481914   2.548060
    15  H    6.963328   3.789602   2.511274   2.185747   3.384932
    16  H    6.830922   2.950095   2.946359   2.940762   3.067974
    17  H    6.898826   2.222352   3.291982   3.465369   2.792727
    18  C    4.917107   2.336438   4.897217   5.781323   2.544818
    19  H    5.942639   2.497140   5.770071   6.593756   3.441902
    20  H    4.724404   2.928288   5.283757   6.194843   3.003340
    21  H    4.359442   3.191818   4.959287   5.894139   2.749489
    22  C    2.348289   7.384353   4.459786   5.042523   5.092458
    23  H    3.178691   7.385673   4.259192   4.706840   5.174599
    24  H    2.946838   7.945321   4.674866   5.148123   5.584664
    25  H    2.429260   8.048888   5.463524   6.087856   5.832092
    26  C    4.365786   6.463107   2.385922   2.449956   4.304755
    27  H    4.147257   7.219666   3.246455   3.393005   4.942316
    28  H    4.684295   6.813685   2.958744   2.953608   4.766664
    29  H    5.344117   6.672128   2.445253   2.086325   4.688115
                    6          7          8          9         10
     6  C    0.000000
     7  C    2.438059   0.000000
     8  C    4.269590   2.442379   0.000000
     9  C    2.479512   2.477049   2.544902   0.000000
    10  H    3.075809   3.088251   2.940573   1.097292   0.000000
    11  H    3.279910   3.292844   2.719821   1.088544   1.736853
    12  C    1.354438   2.824548   3.843922   1.511324   2.139833
    13  C    2.510641   4.271526   4.965849   2.489876   2.859207
    14  C    3.708255   1.488428   3.009545   3.903306   4.433135
    15  H    3.882007   2.141255   4.007790   4.573925   5.005563
    16  H    4.151589   2.140664   3.374037   4.424495   5.129620
    17  H    4.545289   2.158737   2.767889   4.246221   4.612923
    18  C    5.177097   3.793593   1.500537   2.915782   3.026478
    19  H    6.175392   4.566431   2.162100   3.963071   3.955419
    20  H    5.394931   4.274184   2.145922   3.142822   3.466260
    21  H    5.054541   4.045863   2.175364   2.640024   2.388995
    22  C    3.098230   5.293974   6.327926   3.916734   4.314100
    23  H    2.972565   5.179139   6.442066   4.240832   4.840656
    24  H    3.319332   5.660716   6.892894   4.419593   4.624607
    25  H    4.121988   6.188958   6.950118   4.559900   4.916172
    26  C    1.498163   3.704572   5.738884   3.922353   4.429112
    27  H    2.159219   4.520602   6.381501   4.274344   4.594694
    28  H    2.145691   4.174400   6.142836   4.433180   5.113329
    29  H    2.132541   3.820484   6.094561   4.570442   5.001068
                   11         12         13         14         15
    11  H    0.000000
    12  C    2.118046   0.000000
    13  C    2.582818   1.459002   0.000000
    14  C    4.636369   4.292317   5.738731   0.000000
    15  H    5.429165   4.723721   6.168888   1.091627   0.000000
    16  H    4.988583   4.740439   6.124325   1.091356   1.762140
    17  H    4.919558   4.936464   6.369327   1.086978   1.753521
    18  C    2.649785   4.395748   5.184384   4.501277   5.471648
    19  H    3.729475   5.454205   6.257257   5.017782   5.979999
    20  H    2.515563   4.495517   5.083433   5.060381   6.082974
    21  H    2.418205   4.132869   4.770180   4.961232   5.822469
    22  C    4.021292   2.608892   1.508367   6.679145   6.967169
    23  H    4.378433   2.842999   2.178790   6.448862   6.698782
    24  H    4.710910   3.064767   2.148762   7.016285   7.159981
    25  H    4.433293   3.447755   2.107422   7.597435   7.959028
    26  C    4.640500   2.572121   3.155279   4.720099   4.621719
    27  H    4.948015   2.842095   2.993860   5.636066   5.529120
    28  H    4.976391   3.063555   3.461956   5.103038   5.069662
    29  H    5.411238   3.399575   4.163202   4.557430   4.211542
                   16         17         18         19         20
    16  H    0.000000
    17  H    1.742390   0.000000
    18  C    4.855532   4.183080   0.000000
    19  H    5.354460   4.483144   1.089110   0.000000
    20  H    5.231518   4.883465   1.093698   1.754128   0.000000
    21  H    5.480428   4.700598   1.090241   1.754166   1.745969
    22  C    6.973368   7.450053   6.644761   7.726473   6.480835
    23  H    6.604926   7.320022   6.938191   8.025961   6.737485
    24  H    7.420975   7.790679   7.256847   8.319098   7.221853
    25  H    7.847196   8.329452   7.078427   8.148138   6.785773
    26  C    5.065364   5.666654   6.671532   7.672873   6.846262
    27  H    6.067198   6.517674   7.153441   8.173429   7.322113
    28  H    5.224473   6.117491   7.085372   8.106741   7.116983
    29  H    4.948310   5.517393   7.170459   8.105971   7.463559
                   21         22         23         24         25
    21  H    0.000000
    22  C    6.274006   0.000000
    23  H    6.725025   1.086724   0.000000
    24  H    6.792619   1.091055   1.763142   0.000000
    25  H    6.673431   1.087335   1.775621   1.761967   0.000000
    26  C    6.526807   3.010217   2.621084   2.930970   4.080524
    27  H    6.856476   2.563867   2.423744   2.132616   3.601395
    28  H    7.049421   3.039960   2.287080   3.176113   4.001070
    29  H    7.064613   4.065164   3.670567   3.848929   5.135744
                   26         27         28         29
    26  C    0.000000
    27  H    1.083495   0.000000
    28  H    1.090684   1.763537   0.000000
    29  H    1.089272   1.750583   1.756468   0.000000
 Stoichiometry    C11H15NO2
 Framework group  C1[X(C11H15NO2)]
 Deg. of freedom    81
 Full point group                 C1      NOp   1
 RotChk:  IX=0 Diff= 5.27D-16
 Largest Abelian subgroup         C1      NOp   1
 Largest concise Abelian subgroup C1      NOp   1
                         Standard orientation:                         
 ---------------------------------------------------------------------
 Center     Atomic      Atomic             Coordinates (Angstroms)
 Number     Number       Type             X           Y           Z
 ---------------------------------------------------------------------
      1          8           0       -2.278144   -2.292261   -0.146466
      2          8           0        3.619342   -0.228754    0.399795
      3          7           0       -0.040209    1.799663   -0.216111
      4          1           0       -0.073996    2.805938   -0.218466
      5          6           0        1.289609   -0.139361   -0.070629
      6          6           0       -1.237031    1.134933   -0.123306
      7          6           0        1.199243    1.212654   -0.071700
      8          6           0        2.556982   -0.809435    0.109720
      9          6           0        0.057092   -0.969010   -0.339295
     10          1           0        0.072913   -1.354941   -1.366357
     11          1           0        0.051800   -1.851597    0.297839
     12          6           0       -1.235039   -0.219437   -0.109863
     13          6           0       -2.400825   -1.083567    0.041492
     14          6           0        2.312584    2.189939    0.072530
     15          1           0        2.077330    3.133723   -0.423026
     16          1           0        2.512708    2.408593    1.122863
     17          1           0        3.249017    1.831338   -0.347018
     18          6           0        2.638307   -2.297390   -0.066312
     19          1           0        3.653344   -2.632944   -0.274313
     20          1           0        2.312355   -2.811553    0.842295
     21          1           0        2.004033   -2.671064   -0.870482
     22          6           0       -3.756830   -0.571249    0.458569
     23          1           0       -3.707243    0.189339    1.233176
     24          1           0       -4.285465   -0.149498   -0.397627
     25          1           0       -4.329521   -1.421685    0.820620
     26          6           0       -2.404536    2.070519   -0.045182
     27          1           0       -3.262615    1.710801   -0.600398
     28          1           0       -2.707086    2.231738    0.990223
     29          1           0       -2.133029    3.040716   -0.459326
 ---------------------------------------------------------------------
 Rotational constants (GHZ):           1.0885941           0.4876486           0.3447089
 Leave Link  202 at Sat Jan 24 16:33:55 2026, MaxMem=  2147483648 cpu:               0.1 elap:               0.0
 (Enter /data/home/wyx/g16/l301.exe)
 Standard basis: TZVP (5D, 7F)
 Ernie: Thresh=  0.10000D-02 Tol=  0.10000D-05 Strict=F.
 There are   370 symmetry adapted cartesian basis functions of A   symmetry.
 There are   356 symmetry adapted basis functions of A   symmetry.
   356 basis functions,   610 primitive gaussians,   370 cartesian basis functions
    52 alpha electrons       52 beta electrons
       nuclear repulsion energy       900.3810609039 Hartrees.
 IExCor=20419 DFT=T Ex+Corr=CAM-B3LYP ExCW=0 ScaHFX=  1.000000
 ScaDFX=  1.000000  1.000000  1.000000  0.810000 ScalE2=  1.000000  1.000000
 IRadAn=      5 IRanWt=     -1 IRanGd=            0 ICorTp=0 IEmpDi=141
 HFx  wShort=  0.000000 wLong=  0.330000 cFull=  0.190000 cShort=  0.000000 cLong=  0.460000
 DFx  wShort=  0.000000 wLong=  0.330000 cFull=  0.190000 cShort=  0.000000 cLong=  0.460000
 NAtoms=   29 NActive=   29 NUniq=   29 SFac= 1.00D+00 NAtFMM=   60 NAOKFM=F Big=F
 Integral buffers will be    131072 words long.
 Raffenetti 1 integral format.
 Two-electron integral symmetry is turned on.
 R6Disp:  Grimme-D3(BJ) Dispersion energy=       -0.0261713255 Hartrees.
 Nuclear repulsion after empirical dispersion term =      900.3548895784 Hartrees.
 ------------------------------------------------------------------------------
 Polarizable Continuum Model (PCM)
 =================================
 Model                : PCM.
 Atomic radii         : UFF (Universal Force Field).
 Polarization charges : Total charges.
 Charge compensation  : None.
 Solution method      : On-the-fly selection.
 Cavity type          : Scaled VdW (van der Waals Surface) (Alpha=1.100).
 Cavity algorithm     : GePol (No added spheres)
                        Default sphere list used, NSphG=   29.
                        Lebedev-Laikov grids with approx.  5.0 points / Ang**2.
                        Smoothing algorithm: York/Karplus (Gamma=1.0000).
                        Polarization charges: spherical gaussians, with
                                              point-specific exponents (IZeta= 3).
                        Self-potential: point-specific (ISelfS= 7).
                        Self-field    : sphere-specific E.n sum rule (ISelfD= 2).
 Solvent              : Water, Eps=  78.355300 Eps(inf)=   1.777849
 ------------------------------------------------------------------------------
 GePol: Number of generator spheres                  =      29
 GePol: Total number of spheres                      =      29
 GePol: Number of exposed spheres                    =      29 (100.00%)
 GePol: Number of points                             =    2111
 GePol: Average weight of points                     =       0.13
 GePol: Minimum weight of points                     =   0.58D-10
 GePol: Maximum weight of points                     =    0.20577
 GePol: Number of points with low weight             =     131
 GePol: Fraction of low-weight points (<1% of avg)   =       6.21%
 GePol: Cavity surface area                          =    268.718 Ang**2
 GePol: Cavity volume                                =    286.125 Ang**3
 Leave Link  301 at Sat Jan 24 16:33:55 2026, MaxMem=  2147483648 cpu:               0.6 elap:               0.0
 (Enter /data/home/wyx/g16/l302.exe)
 NPDir=0 NMtPBC=     1 NCelOv=     1 NCel=       1 NClECP=     1 NCelD=      1
         NCelK=      1 NCelE2=     1 NClLst=     1 CellRange=     0.0.
 One-electron integrals computed using PRISM.
 One-electron integral symmetry used in STVInt
 NBasis=   356 RedAO= T EigKep=  4.42D-05  NBF=   356
 NBsUse=   356 1.00D-06 EigRej= -1.00D+00 NBFU=   356
 Precomputing XC quadrature grid using
 IXCGrd= 4 IRadAn=           5 IRanWt=          -1 IRanGd=           0 AccXCQ= 0.00D+00.
 Generated NRdTot=       0 NPtTot=           0 NUsed=           0 NTot=          32
 NSgBfM=   366   366   366   366   366 MxSgAt=    29 MxSgA2=    29.
 Leave Link  302 at Sat Jan 24 16:33:56 2026, MaxMem=  2147483648 cpu:               3.2 elap:               0.2
 (Enter /data/home/wyx/g16/l303.exe)
 DipDrv:  MaxL=1.
 Leave Link  303 at Sat Jan 24 16:33:56 2026, MaxMem=  2147483648 cpu:               0.6 elap:               0.0
 (Enter /data/home/wyx/g16/l308.exe)
 Leave Link  308 at Sat Jan 24 16:33:56 2026, MaxMem=  2147483648 cpu:               0.7 elap:               0.1
 (Enter /data/home/wyx/g16/l401.exe)
 Initial guess from the checkpoint file:  "DDL-LR-Eq-12.chk"
 B after Tr=    -0.000000    0.000000   -0.000000
         Rot=    1.000000   -0.000000    0.000000    0.000000 Ang=   0.00 deg.
 Guess basis will be translated and rotated to current coordinates.
 JPrj=2 DoOrth=T DoCkMO=T.
 Leave Link  401 at Sat Jan 24 16:33:56 2026, MaxMem=  2147483648 cpu:               2.2 elap:               0.2
 (Enter /data/home/wyx/g16/l502.exe)
 Integral symmetry usage will be decided dynamically.
 Closed shell SCF:
 Using DIIS extrapolation, IDIIS=  1040.
 NGot=  2147483648 LenX=  2147200095 LenY=  2147062754
 Requested convergence on RMS density matrix=1.00D-08 within 128 cycles.
 Requested convergence on MAX density matrix=1.00D-06.
 Requested convergence on             energy=1.00D-06.
 No special actions if energy rises.
 Fock matrices will be formed incrementally for  20 cycles.

 Cycle   1  Pass 1  IDiag  1:
 FoFJK:  IHMeth= 1 ICntrl=       0 DoSepK=T KAlg= 0 I1Cent=           0 FoldK=F
 IRaf=         1 NMat=       1 IRICut=       1 DoRegI=T DoRafI=F ISym2E= 0 IDoP0=0 IntGTp=1.
 FoFCou: FMM=F IPFlag=           0 FMFlag=      100000 FMFlg1=           0
         NFxFlg=           0 DoJE=T BraDBF=F KetDBF=F FulRan=T
         wScrn=  0.000000 ICntrl=       500 IOpCl=  0 I1Cent=           0 NGrid=           0
         NMat0=    1 NMatS0=      1 NMatT0=    0 NMatD0=    1 NMtDS0=    0 NMtDT0=    0
 Symmetry not used in FoFCou.
 Inv3:  Mode=1 IEnd=    13368963.
 Iteration    1 A*A^-1 deviation from unit magnitude is 2.89D-15 for   1400.
 Iteration    1 A*A^-1 deviation from orthogonality  is 1.97D-15 for   1708    502.
 Iteration    1 A^-1*A deviation from unit magnitude is 2.89D-15 for   1400.
 Iteration    1 A^-1*A deviation from orthogonality  is 4.01D-15 for   1514   1277.
 E= -633.330095783224    
 DIIS: error= 1.68D-08 at cycle   1 NSaved=   1.
 NSaved= 1 IEnMin= 1 EnMin= -633.330095783224     IErMin= 1 ErrMin= 1.68D-08
 ErrMax= 1.68D-08  0.00D+00 EMaxC= 1.00D-01 BMatC= 8.45D-14 BMatP= 8.45D-14
 IDIUse=1 WtCom= 1.00D+00 WtEn= 0.00D+00
 Coeff-Com:  0.100D+01
 Coeff:      0.100D+01
 Gap=     0.237 Goal=   None    Shift=    0.000
 RMSDP=3.72D-09 MaxDP=9.40D-08              OVMax= 3.88D-07

 Error on total polarization charges =  0.01549
 SCF Done:  E(RCAM-B3LYP) =  -633.330095783     A.U. after    1 cycles
            NFock=  1  Conv=0.37D-08     -V/T= 2.0042
 KE= 6.306942670455D+02 PE=-3.276757034742D+03 EE= 1.112377782334D+03
 Leave Link  502 at Sat Jan 24 16:34:02 2026, MaxMem=  2147483648 cpu:              86.1 elap:               5.7
 (Enter /data/home/wyx/g16/l801.exe)
 DoSCS=F DFT=T ScalE2(SS,OS)=  1.000000  1.000000
 ExpMin= 9.52D-02 ExpMax= 2.70D+04 ExpMxC= 9.22D+02 IAcc=3 IRadAn=         5 AccDes= 0.00D+00
 HarFok:  IExCor=  205 AccDes= 0.00D+00 IRadAn=         5 IDoV=-2 UseB2=F ITyADJ=14
 ICtDFT= 12500011 ScaDFX=  1.000000  1.000000  1.000000  1.000000
 Largest valence mixing into a core orbital is  5.64D-05
 Largest core mixing into a valence orbital is  1.19D-05
 Range of M.O.s used for correlation:    15   356
 NBasis=   356 NAE=    52 NBE=    52 NFC=    14 NFV=     0
 NROrb=    342 NOA=    38 NOB=    38 NVA=   304 NVB=   304

 **** Warning!!: The largest alpha MO coefficient is  0.52204299D+02

 Leave Link  801 at Sat Jan 24 16:34:02 2026, MaxMem=  2147483648 cpu:               1.0 elap:               0.1
 (Enter /data/home/wyx/g16/l914.exe)
 RHF ground state
 Two-electron integrals replicated using symmetry.
 MDV=  2147483648 DFT=T DoStab=F Mixed=T DoRPA=T DoScal=F NonHer=T
 NEqPCM:  Using equilibrium solvation (IEInf=0, Eps=  78.3553, EpsInf=   1.7778)
 Making orbital integer symmetry assigments:
 Orbital symmetries:
       Occupied  (A) (A) (A) (A) (A) (A) (A) (A) (A) (A) (A) (A)
                 (A) (A) (A) (A) (A) (A) (A) (A) (A) (A) (A) (A)
                 (A) (A) (A) (A) (A) (A) (A) (A) (A) (A) (A) (A)
                 (A) (A) (A) (A) (A) (A) (A) (A) (A) (A) (A) (A)
                 (A) (A) (A) (A)
       Virtual   (A) (A) (A) (A) (A) (A) (A) (A) (A) (A) (A) (A)
                 (A) (A) (A) (A) (A) (A) (A) (A) (A) (A) (A) (A)
                 (A) (A) (A) (A) (A) (A) (A) (A) (A) (A) (A) (A)
                 (A) (A) (A) (A) (A) (A) (A) (A) (A) (A) (A) (A)
                 (A) (A) (A) (A) (A) (A) (A) (A) (A) (A) (A) (A)
                 (A) (A) (A) (A) (A) (A) (A) (A) (A) (A) (A) (A)
                 (A) (A) (A) (A) (A) (A) (A) (A) (A) (A) (A) (A)
                 (A) (A) (A) (A) (A) (A) (A) (A) (A) (A) (A) (A)
                 (A) (A) (A) (A) (A) (A) (A) (A) (A) (A) (A) (A)
                 (A) (A) (A) (A) (A) (A) (A) (A) (A) (A) (A) (A)
                 (A) (A) (A) (A) (A) (A) (A) (A) (A) (A) (A) (A)
                 (A) (A) (A) (A) (A) (A) (A) (A) (A) (A) (A) (A)
                 (A) (A) (A) (A) (A) (A) (A) (A) (A) (A) (A) (A)
                 (A) (A) (A) (A) (A) (A) (A) (A) (A) (A) (A) (A)
                 (A) (A) (A) (A) (A) (A) (A) (A) (A) (A) (A) (A)
                 (A) (A) (A) (A) (A) (A) (A) (A) (A) (A) (A) (A)
                 (A) (A) (A) (A) (A) (A) (A) (A) (A) (A) (A) (A)
                 (A) (A) (A) (A) (A) (A) (A) (A) (A) (A) (A) (A)
                 (A) (A) (A) (A) (A) (A) (A) (A) (A) (A) (A) (A)
                 (A) (A) (A) (A) (A) (A) (A) (A) (A) (A) (A) (A)
                 (A) (A) (A) (A) (A) (A) (A) (A) (A) (A) (A) (A)
                 (A) (A) (A) (A) (A) (A) (A) (A) (A) (A) (A) (A)
                 (A) (A) (A) (A) (A) (A) (A) (A) (A) (A) (A) (A)
                 (A) (A) (A) (A) (A) (A) (A) (A) (A) (A) (A) (A)
                 (A) (A) (A) (A) (A) (A) (A) (A) (A) (A) (A) (A)
                 (A) (A) (A) (A)
    24 initial guesses have been made.
 Convergence on wavefunction:    0.001000000000000
 Davidson Disk Diagonalization:  ConvIn= 1.00D-03 SkipCon=T Conv= 1.00D-03.
 Max sub-space:  2000 roots to seek:    24 dimension of matrix:        23104
 Iteration     1 Dimension    24 NMult     0 NNew     24
 CISAX will form    24 AO SS matrices at one time.
 NMat=    24 NSing=    24 JSym2X= 0.
 FoFJK:  IHMeth= 1 ICntrl=       0 DoSepK=T KAlg= 0 I1Cent=           0 FoldK=F
 IRaf=         1 NMat=      48 IRICut=       1 DoRegI=T DoRafI=F ISym2E= 0 IDoP0=3 IntGTp=3.
 FoFCou: FMM=F IPFlag=           0 FMFlag=      100000 FMFlg1=           0
         NFxFlg=           0 DoJE=F BraDBF=F KetDBF=F FulRan=T
         wScrn=  0.000000 ICntrl=       500 IOpCl=  0 I1Cent=           0 NGrid=           0
         NMat0=   24 NMatS0=     24 NMatT0=    0 NMatD0=   24 NMtDS0=    0 NMtDT0=    0
 Symmetry not used in FoFCou.
 New state      2 was old state      3
 New state      3 was old state      4
 New state      4 was old state      2
 Excitation Energies [eV] at current iteration:
 Root      1 :     3.805477150596178
 Root      2 :     4.188791022812510
 Root      3 :     4.535046362488334
 Root      4 :     5.493380999463326
 Root      5 :     6.169130832741861
 Root      6 :     6.322600190081466
 Root      7 :     6.801699642447921
 Root      8 :     6.867222603290694
 Root      9 :     6.913741635736002
 Root     10 :     7.164044853488332
 Root     11 :     7.205888894534026
 Root     12 :     7.499502170171875
 Root     13 :     7.570079594244110
 Root     14 :     7.652979395232374
 Root     15 :     7.820277822884098
 Root     16 :     8.013922330133260
 Root     17 :     8.197866461864335
 Root     18 :     8.304236032412811
 Root     19 :     8.344519436264168
 Root     20 :     8.635442841447158
 Root     21 :     8.797313996141584
 Root     22 :     8.845801477813255
 Root     23 :     8.922080505005530
 Root     24 :     9.253146957550863
 Iteration     2 Dimension    36 NMult    24 NNew     12
 CISAX will form    12 AO SS matrices at one time.
 NMat=    12 NSing=    12 JSym2X= 0.
 Root      1 not converged, maximum delta is    0.052556008094726
 Root      2 not converged, maximum delta is    0.070208370479691
 Root      3 not converged, maximum delta is    0.092713753580028
 Root      4 not converged, maximum delta is    0.385142321516495
 Root      5 not converged, maximum delta is    0.350313125059976
 Root      6 not converged, maximum delta is    0.241355563411159
 Excitation Energies [eV] at current iteration:
 Root      1 :     3.387952906797119   Change is   -0.417524243799059
 Root      2 :     3.954641313072881   Change is   -0.234149709739630
 Root      3 :     4.272931908909653   Change is   -0.262114453578681
 Root      4 :     5.045693908162374   Change is   -0.447687091300952
 Root      5 :     5.535405581819698   Change is   -0.633725250922164
 Root      6 :     6.116042326927555   Change is   -0.206557863153910
 Iteration     3 Dimension    48 NMult    36 NNew     12
 CISAX will form    12 AO SS matrices at one time.
 NMat=    12 NSing=    12 JSym2X= 0.
 Root      1 not converged, maximum delta is    0.007501711724008
 Root      2 not converged, maximum delta is    0.010530573062586
 Root      3 not converged, maximum delta is    0.014785714294971
 Root      4 not converged, maximum delta is    0.011231246970262
 Root      5 not converged, maximum delta is    0.011218557520458
 Root      6 not converged, maximum delta is    0.020127275937784
 Excitation Energies [eV] at current iteration:
 Root      1 :     3.373520795057007   Change is   -0.014432111740112
 Root      2 :     3.942504234906709   Change is   -0.012137078166172
 Root      3 :     4.259678054588282   Change is   -0.013253854321371
 Root      4 :     5.024999017042596   Change is   -0.020694891119778
 Root      5 :     5.521096721917442   Change is   -0.014308859902255
 Root      6 :     6.104660135621869   Change is   -0.011382191305686
 Iteration     4 Dimension    60 NMult    48 NNew     12
 CISAX will form    12 AO SS matrices at one time.
 NMat=    12 NSing=    12 JSym2X= 0.
 Root      1 not converged, maximum delta is    0.001712019212766
 Root      2 not converged, maximum delta is    0.002016582216751
 Root      3 not converged, maximum delta is    0.002180142100039
 Root      4 not converged, maximum delta is    0.003209392707769
 Root      5 not converged, maximum delta is    0.002673055200191
 Root      6 not converged, maximum delta is    0.004034232861334
 Excitation Energies [eV] at current iteration:
 Root      1 :     3.372370797946620   Change is   -0.001149997110387
 Root      2 :     3.941565542274868   Change is   -0.000938692631841
 Root      3 :     4.258971713259376   Change is   -0.000706341328907
 Root      4 :     5.022953951910069   Change is   -0.002045065132527
 Root      5 :     5.519525913406594   Change is   -0.001570808510849
 Root      6 :     6.103907205624843   Change is   -0.000752929997026
 Iteration     5 Dimension    72 NMult    60 NNew     12
 CISAX will form    12 AO SS matrices at one time.
 NMat=    12 NSing=    12 JSym2X= 0.
 Root      1 has converged.
 Root      2 has converged.
 Root      3 has converged.
 Root      4 has converged.
 Root      5 has converged.
 Root      6 not converged, maximum delta is    0.001016568220227
 Excitation Energies [eV] at current iteration:
 Root      1 :     3.372316554814305   Change is   -0.000054243132314
 Root      2 :     3.941529409823741   Change is   -0.000036132451126
 Root      3 :     4.258932678855285   Change is   -0.000039034404091
 Root      4 :     5.022809903373075   Change is   -0.000144048536994
 Root      5 :     5.519397827694465   Change is   -0.000128085712129
 Root      6 :     6.103856942559515   Change is   -0.000050263065328
 Iteration     6 Dimension    74 NMult    72 NNew      2
 CISAX will form     2 AO SS matrices at one time.
 NMat=     2 NSing=     2 JSym2X= 0.
 Root      1 has converged.
 Root      2 has converged.
 Root      3 has converged.
 Root      4 has converged.
 Root      5 has converged.
 Root      6 has converged.
 Excitation Energies [eV] at current iteration:
 Root      1 :     3.372316502016437   Change is   -0.000000052797868
 Root      2 :     3.941529352670454   Change is   -0.000000057153288
 Root      3 :     4.258932604524540   Change is   -0.000000074330745
 Root      4 :     5.022809696013923   Change is   -0.000000207359151
 Root      5 :     5.519397731965134   Change is   -0.000000095729331
 Root      6 :     6.103852788020392   Change is   -0.000004154539123
 Convergence achieved on expansion vectors.
 ***********************************************************************
 Excited states from <AA,BB:AA,BB> singles matrix:
 ***********************************************************************
 
 1PDM for each excited state written to RWF  633
 Ground to excited state transition densities written to RWF  633
 Ground to excited state transition electric dipole moments (Au):
       state          X           Y           Z        Dip. S.      Osc.
         1        -1.7271     -0.1750     -0.0564      3.0167      0.2492
         2        -0.2247     -0.0427     -0.0511      0.0549      0.0053
         3         0.0149     -0.1564      0.0441      0.0266      0.0028
         4         0.1417     -1.9982      0.1337      4.0307      0.4960
         5        -0.1700      1.3974     -0.0135      1.9819      0.2680
         6        -0.0347      0.2364      0.0492      0.0595      0.0089
 Ground to excited state transition velocity dipole moments (Au):
       state          X           Y           Z        Dip. S.      Osc.
         1         0.2062      0.0183      0.0074      0.0429      0.2307
         2         0.0321      0.0053      0.0053      0.0011      0.0050
         3        -0.0022      0.0233     -0.0032      0.0006      0.0024
         4        -0.0287      0.3528     -0.0201      0.1257      0.4539
         5         0.0334     -0.2796      0.0037      0.0793      0.2606
         6         0.0088     -0.0487     -0.0306      0.0034      0.0101
 Ground to excited state transition magnetic dipole moments (Au):
       state          X           Y           Z
         1         0.0904      0.0078     -1.4257
         2        -0.7943     -0.2510     -0.4251
         3        -0.0466     -0.9727     -0.1127
         4         0.0896      0.1149     -0.2307
         5        -0.2172     -0.1080      0.2176
         6         0.0438      0.0186     -0.0255
 Ground to excited state transition velocity quadrupole moments (Au):
       state          XX          YY          ZZ          XY          XZ          YZ
         1         0.2643     -0.1300     -0.0017     -0.5503      0.0613     -0.0095
         2         0.0260      0.0098     -0.0048     -0.0935      0.0369     -0.0788
         3        -0.0251      0.0126     -0.0249     -0.0409      0.0720      0.0022
         4        -1.4319      0.3300      0.0115     -0.1898     -0.0915     -0.0396
         5         0.4925     -0.3014     -0.0460      0.1006      0.0619     -0.0685
         6        -0.3181     -0.2261      0.1831     -0.0221     -0.0366      0.1038
 <0|del|b> * <b|rxdel|0> + <0|del|b> * <b|delr+rdel|0>
 Rotatory Strengths (R) in cgs (10**-40 erg-esu-cm/Gauss)
       state          XX          YY          ZZ    R(velocity)    E-M Angle
         1       -44.3140     29.1880     62.3747     15.7496       88.40
         2       -10.4308    -72.6722    -58.8544    -47.3191      160.60
         3       -53.7971      0.7331    -47.0836    -33.3825      163.54
         4       155.6826     -1.1800      8.6810     54.3945       63.87
         5        84.8298    -15.9025     13.7632     27.5635       75.02
         6        -1.9424      2.2091      0.5455      0.2708       85.30
 1/2[<0|r|b>*<b|rxdel|0> + (<0|rxdel|b>*<b|r|0>)*]
 Rotatory Strengths (R) in cgs (10**-40 erg-esu-cm/Gauss)
       state          XX          YY          ZZ     R(length)
         1       110.4101      0.9617    -56.8381     18.1779
         2      -126.2011     -7.5765    -15.3568    -49.7115
         3         0.4920   -107.5673      3.5106    -34.5216
         4        -8.9805    162.3732     21.8107     58.4011
         5       -26.1066    106.6872      2.0718     27.5508
         6         1.0759     -3.1156      0.8852     -0.3848
  1/2[<0|del|b>*<b|r|0> + (<0|r|b>*<b|del|0>)*] (Au)
       state          X           Y           Z        Dip. S.   Osc.(frdel)
         1        -0.3561     -0.0032     -0.0004      0.3597      0.2398
         2        -0.0072     -0.0002     -0.0003      0.0077      0.0051
         3        -0.0000     -0.0036     -0.0001      0.0038      0.0025
         4        -0.0041     -0.7049     -0.0027      0.7117      0.4744
         5        -0.0057     -0.3907     -0.0000      0.3964      0.2643
         6        -0.0003     -0.0115     -0.0015      0.0133      0.0089

 Excitation energies and oscillator strengths:
 
 Excited State   1:      Singlet-A      3.3723 eV  367.65 nm  f=0.2492  <S**2>=0.000
      52 -> 53         0.69763
 This state for optimization and/or second-order correction.
 Total Energy, E(TD-HF/TD-DFT) =  -633.206165432    
 Copying the excited state density for this state as the 1-particle RhoCI density.
 
 Excited State   2:      Singlet-A      3.9415 eV  314.56 nm  f=0.0053  <S**2>=0.000
      50 -> 53         0.11953
      50 -> 54        -0.12417
      51 -> 53         0.57833
      51 -> 54        -0.32947
 
 Excited State   3:      Singlet-A      4.2589 eV  291.12 nm  f=0.0028  <S**2>=0.000
      49 -> 53         0.17709
      49 -> 54         0.13534
      50 -> 53         0.51983
      50 -> 54         0.33439
      50 -> 58         0.11469
      51 -> 53        -0.12260
      51 -> 54        -0.15878
 
 Excited State   4:      Singlet-A      5.0228 eV  246.84 nm  f=0.4960  <S**2>=0.000
      49 -> 53        -0.14263
      52 -> 54         0.68369
 
 Excited State   5:      Singlet-A      5.5194 eV  224.63 nm  f=0.2680  <S**2>=0.000
      49 -> 53         0.63487
      50 -> 53        -0.23663
      52 -> 54         0.14187
 
 Excited State   6:      Singlet-A      6.1039 eV  203.12 nm  f=0.0089  <S**2>=0.000
      52 -> 55         0.66450
      52 -> 56         0.13083
 SavETr:  write IOETrn=   770 NScale= 10 NData=  16 NLR=1 NState=    6 LETran=     118.
 Leave Link  914 at Sat Jan 24 16:36:20 2026, MaxMem=  2147483648 cpu:            2189.7 elap:             137.3
 (Enter /data/home/wyx/g16/l601.exe)
 Copying SCF densities to generalized density rwf, IOpCl= 0 IROHF=0.

 **********************************************************************

            Population analysis using the SCF density.

 **********************************************************************

 Orbital symmetries:
       Occupied  (A) (A) (A) (A) (A) (A) (A) (A) (A) (A) (A) (A)
                 (A) (A) (A) (A) (A) (A) (A) (A) (A) (A) (A) (A)
                 (A) (A) (A) (A) (A) (A) (A) (A) (A) (A) (A) (A)
                 (A) (A) (A) (A) (A) (A) (A) (A) (A) (A) (A) (A)
                 (A) (A) (A) (A)
       Virtual   (A) (A) (A) (A) (A) (A) (A) (A) (A) (A) (A) (A)
                 (A) (A) (A) (A) (A) (A) (A) (A) (A) (A) (A) (A)
                 (A) (A) (A) (A) (A) (A) (A) (A) (A) (A) (A) (A)
                 (A) (A) (A) (A) (A) (A) (A) (A) (A) (A) (A) (A)
                 (A) (A) (A) (A) (A) (A) (A) (A) (A) (A) (A) (A)
                 (A) (A) (A) (A) (A) (A) (A) (A) (A) (A) (A) (A)
                 (A) (A) (A) (A) (A) (A) (A) (A) (A) (A) (A) (A)
                 (A) (A) (A) (A) (A) (A) (A) (A) (A) (A) (A) (A)
                 (A) (A) (A) (A) (A) (A) (A) (A) (A) (A) (A) (A)
                 (A) (A) (A) (A) (A) (A) (A) (A) (A) (A) (A) (A)
                 (A) (A) (A) (A) (A) (A) (A) (A) (A) (A) (A) (A)
                 (A) (A) (A) (A) (A) (A) (A) (A) (A) (A) (A) (A)
                 (A) (A) (A) (A) (A) (A) (A) (A) (A) (A) (A) (A)
                 (A) (A) (A) (A) (A) (A) (A) (A) (A) (A) (A) (A)
                 (A) (A) (A) (A) (A) (A) (A) (A) (A) (A) (A) (A)
                 (A) (A) (A) (A) (A) (A) (A) (A) (A) (A) (A) (A)
                 (A) (A) (A) (A) (A) (A) (A) (A) (A) (A) (A) (A)
                 (A) (A) (A) (A) (A) (A) (A) (A) (A) (A) (A) (A)
                 (A) (A) (A) (A) (A) (A) (A) (A) (A) (A) (A) (A)
                 (A) (A) (A) (A) (A) (A) (A) (A) (A) (A) (A) (A)
                 (A) (A) (A) (A) (A) (A) (A) (A) (A) (A) (A) (A)
                 (A) (A) (A) (A) (A) (A) (A) (A) (A) (A) (A) (A)
                 (A) (A) (A) (A) (A) (A) (A) (A) (A) (A) (A) (A)
                 (A) (A) (A) (A) (A) (A) (A) (A) (A) (A) (A) (A)
                 (A) (A) (A) (A) (A) (A) (A) (A) (A) (A) (A) (A)
                 (A) (A) (A) (A)
 The electronic state is 1-A.
 Alpha  occ. eigenvalues --  -19.17935 -19.17280 -14.44150 -10.33464 -10.33297
 Alpha  occ. eigenvalues --  -10.32095 -10.31829 -10.25626 -10.25042 -10.24997
 Alpha  occ. eigenvalues --  -10.24835 -10.24615 -10.24131 -10.23830  -1.12015
 Alpha  occ. eigenvalues --   -1.10771  -1.07582  -0.91337  -0.90445  -0.83881
 Alpha  occ. eigenvalues --   -0.82501  -0.81482  -0.78621  -0.74140  -0.71278
 Alpha  occ. eigenvalues --   -0.68874  -0.61844  -0.58360  -0.56870  -0.55141
 Alpha  occ. eigenvalues --   -0.54590  -0.54106  -0.52544  -0.51885  -0.50672
 Alpha  occ. eigenvalues --   -0.49942  -0.49472  -0.49054  -0.48386  -0.48242
 Alpha  occ. eigenvalues --   -0.46735  -0.45299  -0.44804  -0.43463  -0.43027
 Alpha  occ. eigenvalues --   -0.42428  -0.42000  -0.41632  -0.32951  -0.32337
 Alpha  occ. eigenvalues --   -0.31345  -0.26305
 Alpha virt. eigenvalues --   -0.02645   0.02188   0.06550   0.08267   0.08819
 Alpha virt. eigenvalues --    0.10164   0.10676   0.12062   0.12691   0.13824
 Alpha virt. eigenvalues --    0.14105   0.15307   0.15661   0.16410   0.16971
 Alpha virt. eigenvalues --    0.17396   0.17609   0.17946   0.18179   0.19153
 Alpha virt. eigenvalues --    0.19894   0.21615   0.22728   0.23453   0.23529
 Alpha virt. eigenvalues --    0.24354   0.24680   0.25462   0.25808   0.26529
 Alpha virt. eigenvalues --    0.27200   0.27470   0.29055   0.29390   0.30107
 Alpha virt. eigenvalues --    0.31499   0.32142   0.32420   0.33663   0.34471
 Alpha virt. eigenvalues --    0.35440   0.35774   0.36861   0.38137   0.38807
 Alpha virt. eigenvalues --    0.39332   0.41099   0.41932   0.42276   0.42711
 Alpha virt. eigenvalues --    0.44067   0.44350   0.45315   0.46119   0.46352
 Alpha virt. eigenvalues --    0.47031   0.48143   0.48378   0.48495   0.48888
 Alpha virt. eigenvalues --    0.49510   0.49643   0.50807   0.51382   0.51482
 Alpha virt. eigenvalues --    0.52552   0.53072   0.53796   0.53949   0.54438
 Alpha virt. eigenvalues --    0.54626   0.55595   0.55895   0.56707   0.58134
 Alpha virt. eigenvalues --    0.58654   0.59046   0.60193   0.61203   0.62061
 Alpha virt. eigenvalues --    0.63341   0.65235   0.65838   0.66569   0.67825
 Alpha virt. eigenvalues --    0.69466   0.70886   0.71654   0.72518   0.72942
 Alpha virt. eigenvalues --    0.73677   0.74644   0.74929   0.76407   0.77225
 Alpha virt. eigenvalues --    0.78673   0.79561   0.82473   0.83417   0.85564
 Alpha virt. eigenvalues --    0.87647   0.90319   0.94652   0.99991   1.25040
 Alpha virt. eigenvalues --    1.25545   1.27221   1.28424   1.29722   1.31380
 Alpha virt. eigenvalues --    1.32641   1.32805   1.33924   1.35541   1.35822
 Alpha virt. eigenvalues --    1.37029   1.37479   1.38164   1.39236   1.39620
 Alpha virt. eigenvalues --    1.40125   1.40736   1.41317   1.41655   1.41967
 Alpha virt. eigenvalues --    1.43270   1.43859   1.44142   1.45269   1.47196
 Alpha virt. eigenvalues --    1.47720   1.49213   1.49644   1.50704   1.51342
 Alpha virt. eigenvalues --    1.52217   1.52745   1.53313   1.54821   1.57316
 Alpha virt. eigenvalues --    1.58163   1.60245   1.60790   1.61488   1.62213
 Alpha virt. eigenvalues --    1.62814   1.63315   1.64433   1.65730   1.66264
 Alpha virt. eigenvalues --    1.66893   1.67611   1.68088   1.68477   1.69173
 Alpha virt. eigenvalues --    1.69470   1.70768   1.71237   1.72288   1.73270
 Alpha virt. eigenvalues --    1.73442   1.74729   1.76094   1.77115   1.78525
 Alpha virt. eigenvalues --    1.80328   1.83159   1.84615   1.85803   1.86391
 Alpha virt. eigenvalues --    1.87072   1.87581   1.87749   1.89585   1.90297
 Alpha virt. eigenvalues --    1.91406   1.94021   1.95805   1.98212   1.99981
 Alpha virt. eigenvalues --    2.00940   2.03902   2.04752   2.06696   2.09464
 Alpha virt. eigenvalues --    2.11116   2.13347   2.14549   2.17542   2.19607
 Alpha virt. eigenvalues --    2.21277   2.21599   2.22325   2.23246   2.25424
 Alpha virt. eigenvalues --    2.27056   2.28233   2.29393   2.31051   2.31923
 Alpha virt. eigenvalues --    2.34157   2.34389   2.35863   2.37189   2.38163
 Alpha virt. eigenvalues --    2.39219   2.40805   2.41459   2.44445   2.44712
 Alpha virt. eigenvalues --    2.45374   2.48023   2.49098   2.50610   2.51820
 Alpha virt. eigenvalues --    2.52559   2.53221   2.54184   2.56635   2.58328
 Alpha virt. eigenvalues --    2.59023   2.60354   2.60591   2.61326   2.62818
 Alpha virt. eigenvalues --    2.64137   2.66039   2.66622   2.67346   2.69296
 Alpha virt. eigenvalues --    2.71018   2.71274   2.73190   2.73480   2.74835
 Alpha virt. eigenvalues --    2.75820   2.77056   2.77858   2.78188   2.79140
 Alpha virt. eigenvalues --    2.80455   2.81233   2.82787   2.83757   2.84740
 Alpha virt. eigenvalues --    2.85896   2.86082   2.87924   2.90054   2.92503
 Alpha virt. eigenvalues --    2.97484   2.99032   3.00238   3.04825   3.10160
 Alpha virt. eigenvalues --    3.10712   3.12471   3.14503   3.17984   3.18354
 Alpha virt. eigenvalues --    3.21423   3.22211   3.24587   3.25225   3.26374
 Alpha virt. eigenvalues --    3.26558   3.29470   3.32796   3.34944   3.36812
 Alpha virt. eigenvalues --    3.37508   3.39245   3.39843   3.40752   3.42047
 Alpha virt. eigenvalues --    3.42441   3.44681   3.45598   3.46839   3.47527
 Alpha virt. eigenvalues --    3.49835   3.50569   3.54263   3.57101   3.58961
 Alpha virt. eigenvalues --    3.60212   3.90177   3.99486   4.33510   4.34662
 Alpha virt. eigenvalues --   21.63221  21.77674  22.07163  22.10484  22.11250
 Alpha virt. eigenvalues --   22.13263  22.15592  22.17849  22.21103  22.25637
 Alpha virt. eigenvalues --   22.30771  31.93300  43.62609  43.64898
          Condensed to atoms (all electrons):
               1          2          3          4          5          6
     1  O    7.954226   0.000000  -0.000235   0.000017   0.016431   0.016781
     2  O    0.000000   8.024552   0.000403   0.000035  -0.195894   0.001195
     3  N   -0.000235   0.000403   6.383513   0.374939  -0.109362   0.344452
     4  H    0.000017   0.000035   0.374939   0.399017   0.014695  -0.043968
     5  C    0.016431  -0.195894  -0.109362   0.014695   7.028160  -0.050408
     6  C    0.016781   0.001195   0.344452  -0.043968  -0.050408   5.605233
     7  C   -0.000352  -0.023651   0.371682  -0.042601   0.385541  -0.108062
     8  C   -0.000217   0.689365   0.004293  -0.000700  -0.350354   0.034816
     9  C   -0.025267   0.018272   0.016928  -0.000149  -0.515515  -0.117705
    10  H    0.003728   0.000074   0.003458   0.000019  -0.028599  -0.011718
    11  H    0.016047  -0.000112  -0.001408   0.000011  -0.112144   0.023621
    12  C   -0.225689  -0.002434  -0.094954   0.015504   0.150953  -0.167672
    13  C    0.717868  -0.000024   0.000270   0.000394   0.071147   0.164275
    14  C   -0.000008  -0.033695  -0.040486  -0.004183  -0.049290   0.000236
    15  H   -0.000000   0.004614   0.004167   0.000327   0.012813   0.005910
    16  H   -0.000000   0.000711  -0.003963   0.000766  -0.009456  -0.001225
    17  H    0.000000   0.008897   0.003186   0.000734  -0.003043  -0.000579
    18  C   -0.000186  -0.106256  -0.000444   0.000019  -0.232899  -0.000441
    19  H   -0.000004   0.007583   0.000004  -0.000001   0.021373   0.000027
    20  H    0.000016   0.000325   0.000016  -0.000001  -0.005854   0.000225
    21  H    0.000178   0.004950   0.000118   0.000001   0.057382  -0.001330
    22  C   -0.111193   0.000000   0.000086   0.000107   0.003224  -0.010052
    23  H    0.004501  -0.000000  -0.000042  -0.000050  -0.000488  -0.032537
    24  H    0.001511   0.000000  -0.000006  -0.000017  -0.000095   0.011251
    25  H    0.008602   0.000000   0.000028  -0.000002  -0.000128  -0.001293
    26  C    0.000911   0.000004  -0.029922  -0.007063  -0.000084   0.183702
    27  H   -0.000186  -0.000000   0.002450   0.000889   0.000044  -0.042628
    28  H   -0.000040  -0.000000  -0.002588   0.000468   0.000392  -0.035567
    29  H    0.000023  -0.000000   0.001186   0.001142  -0.000462  -0.050049
               7          8          9         10         11         12
     1  O   -0.000352  -0.000217  -0.025267   0.003728   0.016047  -0.225689
     2  O   -0.023651   0.689365   0.018272   0.000074  -0.000112  -0.002434
     3  N    0.371682   0.004293   0.016928   0.003458  -0.001408  -0.094954
     4  H   -0.042601  -0.000700  -0.000149   0.000019   0.000011   0.015504
     5  C    0.385541  -0.350354  -0.515515  -0.028599  -0.112144   0.150953
     6  C   -0.108062   0.034816  -0.117705  -0.011718   0.023621  -0.167672
     7  C    5.421872  -0.214227  -0.174268  -0.006313   0.017447   0.011535
     8  C   -0.214227   5.501468   0.111208  -0.002098  -0.007323  -0.044688
     9  C   -0.174268   0.111208   6.302884   0.394685   0.533784  -0.019693
    10  H   -0.006313  -0.002098   0.394685   0.548041  -0.034977  -0.020251
    11  H    0.017447  -0.007323   0.533784  -0.034977   0.500366  -0.105722
    12  C    0.011535  -0.044688  -0.019693  -0.020251  -0.105722   7.318022
    13  C    0.015398  -0.007398  -0.257846  -0.001041   0.000138  -0.409117
    14  C    0.233507  -0.059267   0.013710  -0.001413   0.000453  -0.000924
    15  H   -0.067534   0.005990  -0.000656   0.000114  -0.000004  -0.000904
    16  H   -0.018338   0.002945  -0.000111  -0.000053   0.000053   0.000402
    17  H   -0.037016  -0.013882   0.000528   0.000146  -0.000063  -0.000215
    18  C    0.006202   0.329485   0.002229  -0.010225   0.004416   0.001722
    19  H    0.000472  -0.049504  -0.001033   0.000112   0.000491  -0.000245
    20  H   -0.000114  -0.013510  -0.004889   0.000685  -0.001401  -0.002809
    21  H    0.002335  -0.089883  -0.012525   0.001667  -0.005975   0.006630
    22  C    0.000173  -0.000030   0.005266   0.001499   0.000934  -0.262363
    23  H    0.000002  -0.000008   0.003185  -0.000129  -0.000064   0.061082
    24  H    0.000009   0.000003  -0.002050   0.000148  -0.000114  -0.009066
    25  H    0.000011   0.000003   0.000069  -0.000040  -0.000126   0.025763
    26  C    0.002528   0.000518   0.020153  -0.000600   0.000025  -0.077235
    27  H   -0.000694  -0.000000  -0.000960  -0.000063   0.000004  -0.005917
    28  H   -0.000988  -0.000013  -0.000162  -0.000022   0.000049  -0.019862
    29  H    0.003652  -0.000001  -0.000545   0.000078  -0.000007   0.023755
              13         14         15         16         17         18
     1  O    0.717868  -0.000008  -0.000000  -0.000000   0.000000  -0.000186
     2  O   -0.000024  -0.033695   0.004614   0.000711   0.008897  -0.106256
     3  N    0.000270  -0.040486   0.004167  -0.003963   0.003186  -0.000444
     4  H    0.000394  -0.004183   0.000327   0.000766   0.000734   0.000019
     5  C    0.071147  -0.049290   0.012813  -0.009456  -0.003043  -0.232899
     6  C    0.164275   0.000236   0.005910  -0.001225  -0.000579  -0.000441
     7  C    0.015398   0.233507  -0.067534  -0.018338  -0.037016   0.006202
     8  C   -0.007398  -0.059267   0.005990   0.002945  -0.013882   0.329485
     9  C   -0.257846   0.013710  -0.000656  -0.000111   0.000528   0.002229
    10  H   -0.001041  -0.001413   0.000114  -0.000053   0.000146  -0.010225
    11  H    0.000138   0.000453  -0.000004   0.000053  -0.000063   0.004416
    12  C   -0.409117  -0.000924  -0.000904   0.000402  -0.000215   0.001722
    13  C    5.458387  -0.000049  -0.000013  -0.000026   0.000001   0.000593
    14  C   -0.000049   5.172043   0.383601   0.402062   0.423848   0.000966
    15  H   -0.000013   0.383601   0.571192  -0.026516  -0.028375   0.000226
    16  H   -0.000026   0.402062  -0.026516   0.505384  -0.023823  -0.000023
    17  H    0.000001   0.423848  -0.028375  -0.023823   0.497186   0.000126
    18  C    0.000593   0.000966   0.000226  -0.000023   0.000126   5.294714
    19  H   -0.000012   0.000029  -0.000004  -0.000015   0.000077   0.396663
    20  H   -0.000098  -0.000326  -0.000005   0.000009   0.000030   0.391109
    21  H    0.000841   0.000246  -0.000020   0.000000  -0.000082   0.391259
    22  C    0.296921  -0.000013   0.000003  -0.000001   0.000000   0.000020
    23  H   -0.085545  -0.000000  -0.000000   0.000000   0.000000   0.000003
    24  H   -0.025873  -0.000001   0.000000   0.000000   0.000000  -0.000001
    25  H   -0.044622   0.000001  -0.000000  -0.000000  -0.000000  -0.000001
    26  C   -0.055658   0.001257  -0.000194  -0.000129   0.000041   0.000007
    27  H   -0.006356   0.000096  -0.000015   0.000003  -0.000001   0.000000
    28  H    0.006471  -0.000078   0.000010  -0.000017   0.000003  -0.000001
    29  H   -0.000298  -0.000227   0.000115   0.000002  -0.000001   0.000000
              19         20         21         22         23         24
     1  O   -0.000004   0.000016   0.000178  -0.111193   0.004501   0.001511
     2  O    0.007583   0.000325   0.004950   0.000000  -0.000000   0.000000
     3  N    0.000004   0.000016   0.000118   0.000086  -0.000042  -0.000006
     4  H   -0.000001  -0.000001   0.000001   0.000107  -0.000050  -0.000017
     5  C    0.021373  -0.005854   0.057382   0.003224  -0.000488  -0.000095
     6  C    0.000027   0.000225  -0.001330  -0.010052  -0.032537   0.011251
     7  C    0.000472  -0.000114   0.002335   0.000173   0.000002   0.000009
     8  C   -0.049504  -0.013510  -0.089883  -0.000030  -0.000008   0.000003
     9  C   -0.001033  -0.004889  -0.012525   0.005266   0.003185  -0.002050
    10  H    0.000112   0.000685   0.001667   0.001499  -0.000129   0.000148
    11  H    0.000491  -0.001401  -0.005975   0.000934  -0.000064  -0.000114
    12  C   -0.000245  -0.002809   0.006630  -0.262363   0.061082  -0.009066
    13  C   -0.000012  -0.000098   0.000841   0.296921  -0.085545  -0.025873
    14  C    0.000029  -0.000326   0.000246  -0.000013  -0.000000  -0.000001
    15  H   -0.000004  -0.000005  -0.000020   0.000003  -0.000000   0.000000
    16  H   -0.000015   0.000009   0.000000  -0.000001   0.000000   0.000000
    17  H    0.000077   0.000030  -0.000082   0.000000   0.000000   0.000000
    18  C    0.396663   0.391109   0.391259   0.000020   0.000003  -0.000001
    19  H    0.506452  -0.010423  -0.026121  -0.000000   0.000000   0.000000
    20  H   -0.010423   0.493963  -0.022852  -0.000006  -0.000000   0.000000
    21  H   -0.026121  -0.022852   0.538943   0.000021  -0.000000  -0.000000
    22  C   -0.000000  -0.000006   0.000021   5.420351   0.396027   0.402409
    23  H    0.000000  -0.000000  -0.000000   0.396027   0.537246  -0.027028
    24  H    0.000000   0.000000  -0.000000   0.402409  -0.027028   0.491756
    25  H   -0.000000  -0.000000  -0.000000   0.383132  -0.021539  -0.008035
    26  C    0.000000   0.000003  -0.000014  -0.031016   0.016996  -0.015703
    27  H   -0.000000   0.000000  -0.000000   0.010506  -0.010053  -0.001082
    28  H    0.000000  -0.000000  -0.000000  -0.011952  -0.001503   0.001296
    29  H    0.000000  -0.000000   0.000000   0.001873   0.000730   0.000205
              25         26         27         28         29
     1  O    0.008602   0.000911  -0.000186  -0.000040   0.000023
     2  O    0.000000   0.000004  -0.000000  -0.000000  -0.000000
     3  N    0.000028  -0.029922   0.002450  -0.002588   0.001186
     4  H   -0.000002  -0.007063   0.000889   0.000468   0.001142
     5  C   -0.000128  -0.000084   0.000044   0.000392  -0.000462
     6  C   -0.001293   0.183702  -0.042628  -0.035567  -0.050049
     7  C    0.000011   0.002528  -0.000694  -0.000988   0.003652
     8  C    0.000003   0.000518  -0.000000  -0.000013  -0.000001
     9  C    0.000069   0.020153  -0.000960  -0.000162  -0.000545
    10  H   -0.000040  -0.000600  -0.000063  -0.000022   0.000078
    11  H   -0.000126   0.000025   0.000004   0.000049  -0.000007
    12  C    0.025763  -0.077235  -0.005917  -0.019862   0.023755
    13  C   -0.044622  -0.055658  -0.006356   0.006471  -0.000298
    14  C    0.000001   0.001257   0.000096  -0.000078  -0.000227
    15  H   -0.000000  -0.000194  -0.000015   0.000010   0.000115
    16  H   -0.000000  -0.000129   0.000003  -0.000017   0.000002
    17  H   -0.000000   0.000041  -0.000001   0.000003  -0.000001
    18  C   -0.000001   0.000007   0.000000  -0.000001   0.000000
    19  H   -0.000000   0.000000  -0.000000   0.000000   0.000000
    20  H   -0.000000   0.000003   0.000000  -0.000000  -0.000000
    21  H   -0.000000  -0.000014  -0.000000  -0.000000   0.000000
    22  C    0.383132  -0.031016   0.010506  -0.011952   0.001873
    23  H   -0.021539   0.016996  -0.010053  -0.001503   0.000730
    24  H   -0.008035  -0.015703  -0.001082   0.001296   0.000205
    25  H    0.498210   0.001919   0.000846   0.000105  -0.000046
    26  C    0.001919   5.252669   0.422268   0.432247   0.389308
    27  H    0.000846   0.422268   0.510642  -0.025735  -0.026102
    28  H    0.000105   0.432247  -0.025735   0.474990  -0.017128
    29  H   -0.000046   0.389308  -0.026102  -0.017128   0.516633
 Mulliken charges:
               1
     1  O   -0.377464
     2  O   -0.398915
     3  N   -0.227770
     4  H    0.289652
     5  C   -0.098078
     6  C    0.283508
     7  C    0.221790
     8  C    0.173008
     9  C   -0.289528
    10  H    0.163086
    11  H    0.171601
    12  C   -0.145607
    13  C    0.161271
    14  C   -0.442093
    15  H    0.135158
    16  H    0.171355
    17  H    0.172277
    18  C   -0.469283
    19  H    0.154080
    20  H    0.175906
    21  H    0.154232
    22  C   -0.495925
    23  H    0.159214
    24  H    0.180482
    25  H    0.157145
    26  C   -0.506939
    27  H    0.172046
    28  H    0.199626
    29  H    0.156164
 Sum of Mulliken charges =  -0.00000
 Mulliken charges with hydrogens summed into heavy atoms:
               1
     1  O   -0.377464
     2  O   -0.398915
     3  N    0.061882
     5  C   -0.098078
     6  C    0.283508
     7  C    0.221790
     8  C    0.173008
     9  C    0.045160
    12  C   -0.145607
    13  C    0.161271
    14  C    0.036697
    18  C    0.014935
    22  C    0.000915
    26  C    0.020897
 Electronic spatial extent (au):  <R**2>=           3197.4172
 Charge=              0.0000 electrons
 Dipole moment (field-independent basis, Debye):
    X=             -4.2403    Y=              7.5528    Z=             -0.3879  Tot=              8.6704
 Quadrupole moment (field-independent basis, Debye-Ang):
   XX=            -98.6474   YY=            -78.3508   ZZ=            -84.8035
   XY=            -13.1585   XZ=             -4.9785   YZ=             -1.2858
 Traceless Quadrupole moment (field-independent basis, Debye-Ang):
   XX=            -11.3801   YY=              8.9165   ZZ=              2.4637
   XY=            -13.1585   XZ=             -4.9785   YZ=             -1.2858
 Octapole moment (field-independent basis, Debye-Ang**2):
  XXX=           -114.0001  YYY=             65.0927  ZZZ=              2.2579  XYY=             36.3690
  XXY=             30.6142  XXZ=            -10.9307  XZZ=             -2.7684  YZZ=             -0.9304
  YYZ=              2.4832  XYZ=              4.1138
 Hexadecapole moment (field-independent basis, Debye-Ang**3):
 XXXX=          -3072.7954 YYYY=          -1269.0574 ZZZZ=           -148.8847 XXXY=            -42.6561
 XXXZ=            -62.9345 YYYX=            -92.6903 YYYZ=            -20.5249 ZZZX=              3.2996
 ZZZY=              4.9329 XXYY=           -689.1606 XXZZ=           -488.9815 YYZZ=           -238.8252
 XXYZ=             -3.4437 YYXZ=             -5.0457 ZZXY=              0.4260
 N-N= 9.003548895784D+02 E-N=-3.276757035463D+03  KE= 6.306942670455D+02
 Leave Link  601 at Sat Jan 24 16:36:21 2026, MaxMem=  2147483648 cpu:               0.7 elap:               0.1
 (Enter /data/home/wyx/g16/l9999.exe)
 Electronic transition elements 
                 1             2             3             4             5 
      1  -0.633206D+03 -0.633185D+03 -0.633174D+03 -0.633146D+03 -0.633127D+03
      2   0.164053D+01  0.211644D+00  0.470991D-01  0.564194D+00 -0.313763D+00
      3   0.428445D+00  0.374314D-01 -0.152411D+00 -0.192674D+01  0.137104D+01
      4   0.376487D+00  0.933915D-01 -0.342091D-01 -0.707950D-02 -0.609287D-01
      5  -0.194844D+00 -0.303745D-01 -0.636221D-02 -0.955003D-01  0.634948D-01
      6  -0.535886D-01 -0.603361D-02  0.226325D-01  0.341401D+00 -0.274111D+00
      7  -0.453715D-01 -0.112976D-01  0.175505D-02 -0.154550D-02  0.113556D-01
      8  -0.361409D+00  0.734416D+00  0.346909D+00 -0.165675D+00  0.278472D+00
      9  -0.105775D-01  0.405933D-01 -0.896684D+00  0.793325D-01 -0.289248D-01
     10   0.138204D+01  0.577526D+00  0.191554D+00  0.201771D+00 -0.166635D+00
     11  -0.150300D+00 -0.376689D-01 -0.720715D-01 -0.125995D+01  0.432315D+00
     12   0.271533D+00  0.735000D-01  0.349420D-01  0.245169D+00 -0.271185D+00
     13   0.114432D-01 -0.484497D-02 -0.226198D-03 -0.755280D-01 -0.159773D-01
     14   0.532691D+00  0.586937D-01  0.151768D-01 -0.416100D+00  0.158844D+00
     15   0.201124D-01  0.763482D-03  0.590029D-01 -0.346036D+00  0.127545D+00
     16   0.132863D+00  0.991392D-01  0.254745D-01 -0.782061D-01  0.120627D+00
                 6 
      1  -0.633106D+03
      2  -0.376484D-01
      3   0.233494D+00
      4  -0.597259D-01
      5   0.227171D-02
      6  -0.484686D-01
      7   0.321044D-01
      8  -0.515874D-01
      9   0.270565D-02
     10   0.157605D-01
     11  -0.303107D+00
     12  -0.224613D+00
     13   0.166728D+00
     14   0.806557D-02
     15  -0.947839D-01
     16  -0.106771D+00
 1\1\GINC-CN015\SP\RCAM-B3LYP TD-FC\TZVP\C11H15N1O2\WYX\24-Jan-2026\0\\
 #p CAM-B3LYP TZVP em=gd3bj td(Eqsolv,nstates=6,root=1) scrf=(Solvent=W
 ater) Geom=Check Guess=Read\\Title Card Required\\0,1\O,0,2.752819,-1.
 558423,0.714536\O,0,-3.271583,-1.647854,-1.027699\N,0,-0.694759,1.5182
 26,0.077759\H,0,-1.001005,2.475031,0.010874\C,0,-1.243798,-0.760528,-0
 .157247\C,0,0.649528,1.303463,0.249896\C,0,-1.613387,0.540424,-0.24114
 5\C,0,-2.153419,-1.826261,-0.510182\C,0,0.118796,-1.114629,0.38823\H,0
 ,0.035008,-1.473102,1.421925\H,0,0.542304,-1.947697,-0.169951\C,0,1.10
 3799,0.030494,0.337596\C,0,2.497544,-0.38275,0.461657\C,0,-2.939548,1.
 075219,-0.654313\H,0,-3.13435,2.046966,-0.196701\H,0,-2.994408,1.20229
 2,-1.736857\H,0,-3.764154,0.421081,-0.382928\C,0,-1.764189,-3.25017,-0
 .240751\H,0,-2.628135,-3.911567,-0.192663\H,0,-1.115871,-3.6297,-1.035
 619\H,0,-1.209467,-3.37622,0.689314\C,0,3.657152,0.559698,0.256052\H,0
 ,3.506389,1.249979,-0.569631\H,0,3.838048,1.14504,1.158854\H,0,4.54003
 3,-0.046037,0.066572\C,0,1.428075,2.581959,0.311575\H,0,2.232626,2.543
 483,1.036267\H,0,1.853156,2.827622,-0.662359\H,0,0.772795,3.403962,0.5
 96939\\Version=ES64L-G16RevA.03\State=1-A\HF=-633.3300958\RMSD=3.720e-
 09\PG=C01 [X(C11H15N1O2)]\\@


 FLOATING POINT NUMBERS ARE LIKE SANDPILES:
 EVERY TIME THAT YOU MOVE ONE, YOU LOSE A LITTLE SAND 
 AND YOU PICK UP A LITTLE DIRT.
 Job cpu time:       0 days  0 hours 38 minutes  7.1 seconds.
 Elapsed time:       0 days  0 hours  2 minutes 23.9 seconds.
 File lengths (MBytes):  RWF=    735 Int=      0 D2E=      0 Chk=     67 Scr=      1
 Normal termination of Gaussian 16 at Sat Jan 24 16:36:24 2026.
