 Entering Gaussian System, Link 0=g16
 Input=DDL-S2-cLR-gs-12.gjf
 Output=DDL-S2-cLR-gs-12.log
 Initial command:
 /data/home/wyx/g16/l1.exe "/scr/tmp/wyx/13119/Gau-1530948.inp" -scrdir="/scr/tmp/wyx/13119/"
 Entering Link 1 = /data/home/wyx/g16/l1.exe PID=   1530949.
  
 Copyright (c) 1988,1990,1992,1993,1995,1998,2003,2009,2016,
            Gaussian, Inc.  All Rights Reserved.
  
 This is part of the Gaussian(R) 16 program.  It is based on
 the Gaussian(R) 09 system (copyright 2009, Gaussian, Inc.),
 the Gaussian(R) 03 system (copyright 2003, Gaussian, Inc.),
 the Gaussian(R) 98 system (copyright 1998, Gaussian, Inc.),
 the Gaussian(R) 94 system (copyright 1995, Gaussian, Inc.),
 the Gaussian 92(TM) system (copyright 1992, Gaussian, Inc.),
 the Gaussian 90(TM) system (copyright 1990, Gaussian, Inc.),
 the Gaussian 88(TM) system (copyright 1988, Gaussian, Inc.),
 the Gaussian 86(TM) system (copyright 1986, Carnegie Mellon
 University), and the Gaussian 82(TM) system (copyright 1983,
 Carnegie Mellon University). Gaussian is a federally registered
 trademark of Gaussian, Inc.
  
 This software contains proprietary and confidential information,
 including trade secrets, belonging to Gaussian, Inc.
  
 This software is provided under written license and may be
 used, copied, transmitted, or stored only in accord with that
 written license.
  
 The following legend is applicable only to US Government
 contracts under FAR:
  
                    RESTRICTED RIGHTS LEGEND
  
 Use, reproduction and disclosure by the US Government is
 subject to restrictions as set forth in subparagraphs (a)
 and (c) of the Commercial Computer Software - Restricted
 Rights clause in FAR 52.227-19.
  
 Gaussian, Inc.
 340 Quinnipiac St., Bldg. 40, Wallingford CT 06492
  
  
 ---------------------------------------------------------------
 Warning -- This program may not be used in any manner that
 competes with the business of Gaussian, Inc. or will provide
 assistance to any competitor of Gaussian, Inc.  The licensee
 of this program is prohibited from giving any competitor of
 Gaussian, Inc. access to this program.  By using this program,
 the user acknowledges that Gaussian, Inc. is engaged in the
 business of creating and licensing software in the field of
 computational chemistry and represents and warrants to the
 licensee that it is not a competitor of Gaussian, Inc. and that
 it will not use this program in any manner prohibited above.
 ---------------------------------------------------------------
  

 Cite this work as:
 Gaussian 16, Revision A.03,
 M. J. Frisch, G. W. Trucks, H. B. Schlegel, G. E. Scuseria, 
 M. A. Robb, J. R. Cheeseman, G. Scalmani, V. Barone, 
 G. A. Petersson, H. Nakatsuji, X. Li, M. Caricato, A. V. Marenich, 
 J. Bloino, B. G. Janesko, R. Gomperts, B. Mennucci, H. P. Hratchian, 
 J. V. Ortiz, A. F. Izmaylov, J. L. Sonnenberg, D. Williams-Young, 
 F. Ding, F. Lipparini, F. Egidi, J. Goings, B. Peng, A. Petrone, 
 T. Henderson, D. Ranasinghe, V. G. Zakrzewski, J. Gao, N. Rega, 
 G. Zheng, W. Liang, M. Hada, M. Ehara, K. Toyota, R. Fukuda, 
 J. Hasegawa, M. Ishida, T. Nakajima, Y. Honda, O. Kitao, H. Nakai, 
 T. Vreven, K. Throssell, J. A. Montgomery, Jr., J. E. Peralta, 
 F. Ogliaro, M. J. Bearpark, J. J. Heyd, E. N. Brothers, K. N. Kudin, 
 V. N. Staroverov, T. A. Keith, R. Kobayashi, J. Normand, 
 K. Raghavachari, A. P. Rendell, J. C. Burant, S. S. Iyengar, 
 J. Tomasi, M. Cossi, J. M. Millam, M. Klene, C. Adamo, R. Cammi, 
 J. W. Ochterski, R. L. Martin, K. Morokuma, O. Farkas, 
 J. B. Foresman, and D. J. Fox, Gaussian, Inc., Wallingford CT, 2016.
 
 ******************************************
 Gaussian 16:  ES64L-G16RevA.03 25-Dec-2016
                24-Jan-2026 
 ******************************************
 %nprocshared=16
 Will use up to   16 processors via shared memory.
 %mem=16GB
 %oldchk=DDL-S2-cLR-12.chk
 %chk=DDL-S2-cLR-gs-12.chk
 Copying data from "DDL-S2-cLR-12.chk" to current chk file "DDL-S2-cLR-gs-12.chk"
 IOpt=  2 FromEx=T IUOpen= 4 IOptOp= 5 NList=   0 IFRang= 0 IUIn= 4 IUOut= 2.
 ----------------------------------------------------------------------
 #p CAM-B3LYP TZVP em=gd3bj scrf=(Solvent=Water,NonEquilibrium=Read) Ge
 om=Check Guess=Read
 ----------------------------------------------------------------------
 1/29=2,38=1,172=1/1;
 2/12=2,40=1/2;
 3/5=19,7=101,11=2,14=-4,25=1,30=1,70=6002201,72=1,74=-40,116=-2,124=41/1,2,3;
 4/5=1/1;
 5/5=2,38=6,53=1/2;
 6/7=2,8=2,9=2,10=2,28=1/1;
 99/5=1,9=1/99;
 Leave Link    1 at Sat Jan 24 23:39:27 2026, MaxMem=  2147483648 cpu:               0.8 elap:               0.2
 (Enter /data/home/wyx/g16/l101.exe)
 -------------------
 Title Card Required
 -------------------
 Structure from the checkpoint file:  "DDL-S2-cLR-gs-12.chk"
 Charge =  0 Multiplicity = 1
 Z-Matrix found in chk file.
 O,0,2.752819,-1.558423,0.714536
 O,0,-3.271583,-1.647854,-1.027699
 N,0,-0.694759,1.518226,0.077759
 H,0,-1.001005,2.475031,0.010874
 C,0,-1.243798,-0.760528,-0.157247
 C,0,0.649528,1.303463,0.249896
 C,0,-1.613387,0.540424,-0.241145
 C,0,-2.153419,-1.826261,-0.510182
 C,0,0.118796,-1.114629,0.38823
 H,0,0.035008,-1.473102,1.421925
 H,0,0.542304,-1.947697,-0.169951
 C,0,1.103799,0.030494,0.337596
 C,0,2.497544,-0.38275,0.461657
 C,0,-2.939548,1.075219,-0.654313
 H,0,-3.13435,2.046966,-0.196701
 H,0,-2.994408,1.202292,-1.736857
 H,0,-3.764154,0.421081,-0.382928
 C,0,-1.764189,-3.25017,-0.240751
 H,0,-2.628135,-3.911567,-0.192663
 H,0,-1.115871,-3.6297,-1.035619
 H,0,-1.209467,-3.37622,0.689314
 C,0,3.657152,0.559698,0.256052
 H,0,3.506389,1.249979,-0.569631
 H,0,3.838048,1.14504,1.158854
 H,0,4.540033,-0.046037,0.066572
 C,0,1.428075,2.581959,0.311575
 H,0,2.232626,2.543483,1.036267
 H,0,1.853156,2.827622,-0.662359
 H,0,0.772795,3.403962,0.596939
 Recover connectivity data from disk.
 ITRead=  0  0  0  0  0  0  0  0  0  0  0  0  0  0  0  0  0  0  0  0
 ITRead=  0  0  0  0  0  0  0  0  0
 MicOpt= -1 -1 -1 -1 -1 -1 -1 -1 -1 -1 -1 -1 -1 -1 -1 -1 -1 -1 -1 -1
 MicOpt= -1 -1 -1 -1 -1 -1 -1 -1 -1
 NAtoms=     29 NQM=       29 NQMF=       0 NMMI=      0 NMMIF=      0
                NMic=       0 NMicF=      0.
                    Isotopes and Nuclear Properties:
 (Nuclear quadrupole moments (NQMom) in fm**2, nuclear magnetic moments (NMagM)
  in nuclear magnetons)

  Atom         1           2           3           4           5           6           7           8           9          10
 IAtWgt=          16          16          14           1          12          12          12          12          12           1
 AtmWgt=  15.9949146  15.9949146  14.0030740   1.0078250  12.0000000  12.0000000  12.0000000  12.0000000  12.0000000   1.0078250
 NucSpn=           0           0           2           1           0           0           0           0           0           1
 AtZEff=   5.6000000   5.6000000   4.5500000   1.0000000   3.6000000   3.6000000   3.6000000   3.6000000   3.6000000   1.0000000
 NQMom=    0.0000000   0.0000000   2.0440000   0.0000000   0.0000000   0.0000000   0.0000000   0.0000000   0.0000000   0.0000000
 NMagM=    0.0000000   0.0000000   0.4037610   2.7928460   0.0000000   0.0000000   0.0000000   0.0000000   0.0000000   2.7928460
 AtZNuc=   8.0000000   8.0000000   7.0000000   1.0000000   6.0000000   6.0000000   6.0000000   6.0000000   6.0000000   1.0000000

  Atom        11          12          13          14          15          16          17          18          19          20
 IAtWgt=           1          12          12          12           1           1           1          12           1           1
 AtmWgt=   1.0078250  12.0000000  12.0000000  12.0000000   1.0078250   1.0078250   1.0078250  12.0000000   1.0078250   1.0078250
 NucSpn=           1           0           0           0           1           1           1           0           1           1
 AtZEff=   1.0000000   3.6000000   3.6000000   3.6000000   1.0000000   1.0000000   1.0000000   3.6000000   1.0000000   1.0000000
 NQMom=    0.0000000   0.0000000   0.0000000   0.0000000   0.0000000   0.0000000   0.0000000   0.0000000   0.0000000   0.0000000
 NMagM=    2.7928460   0.0000000   0.0000000   0.0000000   2.7928460   2.7928460   2.7928460   0.0000000   2.7928460   2.7928460
 AtZNuc=   1.0000000   6.0000000   6.0000000   6.0000000   1.0000000   1.0000000   1.0000000   6.0000000   1.0000000   1.0000000

  Atom        21          22          23          24          25          26          27          28          29
 IAtWgt=           1          12           1           1           1          12           1           1           1
 AtmWgt=   1.0078250  12.0000000   1.0078250   1.0078250   1.0078250  12.0000000   1.0078250   1.0078250   1.0078250
 NucSpn=           1           0           1           1           1           0           1           1           1
 AtZEff=   1.0000000   3.6000000   1.0000000   1.0000000   1.0000000   3.6000000   1.0000000   1.0000000   1.0000000
 NQMom=    0.0000000   0.0000000   0.0000000   0.0000000   0.0000000   0.0000000   0.0000000   0.0000000   0.0000000
 NMagM=    2.7928460   0.0000000   2.7928460   2.7928460   2.7928460   0.0000000   2.7928460   2.7928460   2.7928460
 AtZNuc=   1.0000000   6.0000000   1.0000000   1.0000000   1.0000000   6.0000000   1.0000000   1.0000000   1.0000000
 Leave Link  101 at Sat Jan 24 23:39:30 2026, MaxMem=  2147483648 cpu:               0.9 elap:               0.1
 (Enter /data/home/wyx/g16/l202.exe)
                          Input orientation:                          
 ---------------------------------------------------------------------
 Center     Atomic      Atomic             Coordinates (Angstroms)
 Number     Number       Type             X           Y           Z
 ---------------------------------------------------------------------
      1          8           0        2.752819   -1.558423    0.714536
      2          8           0       -3.271583   -1.647854   -1.027699
      3          7           0       -0.694759    1.518226    0.077759
      4          1           0       -1.001005    2.475031    0.010874
      5          6           0       -1.243798   -0.760528   -0.157247
      6          6           0        0.649528    1.303463    0.249896
      7          6           0       -1.613387    0.540424   -0.241145
      8          6           0       -2.153419   -1.826261   -0.510182
      9          6           0        0.118796   -1.114629    0.388230
     10          1           0        0.035008   -1.473102    1.421925
     11          1           0        0.542304   -1.947697   -0.169951
     12          6           0        1.103799    0.030494    0.337596
     13          6           0        2.497544   -0.382750    0.461657
     14          6           0       -2.939548    1.075219   -0.654313
     15          1           0       -3.134350    2.046966   -0.196701
     16          1           0       -2.994408    1.202292   -1.736857
     17          1           0       -3.764154    0.421081   -0.382928
     18          6           0       -1.764189   -3.250170   -0.240751
     19          1           0       -2.628135   -3.911567   -0.192663
     20          1           0       -1.115871   -3.629700   -1.035619
     21          1           0       -1.209467   -3.376220    0.689314
     22          6           0        3.657152    0.559698    0.256052
     23          1           0        3.506389    1.249979   -0.569631
     24          1           0        3.838048    1.145040    1.158854
     25          1           0        4.540033   -0.046037    0.066572
     26          6           0        1.428075    2.581959    0.311575
     27          1           0        2.232626    2.543483    1.036267
     28          1           0        1.853156    2.827622   -0.662359
     29          1           0        0.772795    3.403962    0.596939
 ---------------------------------------------------------------------
                    Distance matrix (angstroms):
                    1          2          3          4          5
     1  O    0.000000
     2  O    6.271906   0.000000
     3  N    4.664445   4.229199   0.000000
     4  H    5.554735   4.819994   1.006845   0.000000
     5  C    4.167684   2.378434   2.355715   3.249008   0.000000
     6  C    3.581915   5.071256   1.372174   2.038127   2.830284
     7  C    4.937838   2.856019   1.379012   2.044806   1.355032
     8  C    5.063876   1.244967   3.695803   4.483377   1.444908
     9  C    2.691005   3.712661   2.773119   3.779155   1.509833
    10  H    2.809658   4.118828   3.359670   4.318813   2.153344
    11  H    2.412515   3.920634   3.688402   4.687752   2.144689
    12  C    2.320777   4.881071   2.348547   3.242331   2.526222
    13  C    1.229358   6.091100   3.735222   4.539820   3.810958
    14  C    6.419724   2.768536   2.402345   2.481914   2.548060
    15  H    6.963328   3.789602   2.511274   2.185747   3.384932
    16  H    6.830922   2.950095   2.946359   2.940762   3.067974
    17  H    6.898826   2.222352   3.291982   3.465369   2.792727
    18  C    4.917107   2.336438   4.897217   5.781323   2.544818
    19  H    5.942639   2.497140   5.770071   6.593756   3.441902
    20  H    4.724404   2.928288   5.283757   6.194843   3.003340
    21  H    4.359442   3.191818   4.959287   5.894139   2.749489
    22  C    2.348289   7.384353   4.459786   5.042523   5.092458
    23  H    3.178691   7.385673   4.259192   4.706840   5.174599
    24  H    2.946838   7.945321   4.674866   5.148123   5.584664
    25  H    2.429260   8.048888   5.463524   6.087856   5.832092
    26  C    4.365786   6.463107   2.385922   2.449956   4.304755
    27  H    4.147257   7.219666   3.246455   3.393005   4.942316
    28  H    4.684295   6.813685   2.958744   2.953608   4.766664
    29  H    5.344117   6.672128   2.445253   2.086325   4.688115
                    6          7          8          9         10
     6  C    0.000000
     7  C    2.438059   0.000000
     8  C    4.269590   2.442379   0.000000
     9  C    2.479512   2.477049   2.544902   0.000000
    10  H    3.075809   3.088251   2.940573   1.097292   0.000000
    11  H    3.279910   3.292844   2.719821   1.088544   1.736853
    12  C    1.354438   2.824548   3.843922   1.511324   2.139833
    13  C    2.510641   4.271526   4.965849   2.489876   2.859207
    14  C    3.708255   1.488428   3.009545   3.903306   4.433135
    15  H    3.882007   2.141255   4.007790   4.573925   5.005563
    16  H    4.151589   2.140664   3.374037   4.424495   5.129620
    17  H    4.545289   2.158737   2.767889   4.246221   4.612923
    18  C    5.177097   3.793593   1.500537   2.915782   3.026478
    19  H    6.175392   4.566431   2.162100   3.963071   3.955419
    20  H    5.394931   4.274184   2.145922   3.142822   3.466260
    21  H    5.054541   4.045863   2.175364   2.640024   2.388995
    22  C    3.098230   5.293974   6.327926   3.916734   4.314100
    23  H    2.972565   5.179139   6.442066   4.240832   4.840656
    24  H    3.319332   5.660716   6.892894   4.419593   4.624607
    25  H    4.121988   6.188958   6.950118   4.559900   4.916172
    26  C    1.498163   3.704572   5.738884   3.922353   4.429112
    27  H    2.159219   4.520602   6.381501   4.274344   4.594694
    28  H    2.145691   4.174400   6.142836   4.433180   5.113329
    29  H    2.132541   3.820484   6.094561   4.570442   5.001068
                   11         12         13         14         15
    11  H    0.000000
    12  C    2.118046   0.000000
    13  C    2.582818   1.459002   0.000000
    14  C    4.636369   4.292317   5.738731   0.000000
    15  H    5.429165   4.723721   6.168888   1.091627   0.000000
    16  H    4.988583   4.740439   6.124325   1.091356   1.762140
    17  H    4.919558   4.936464   6.369327   1.086978   1.753521
    18  C    2.649785   4.395748   5.184384   4.501277   5.471648
    19  H    3.729475   5.454205   6.257257   5.017782   5.979999
    20  H    2.515563   4.495517   5.083433   5.060381   6.082974
    21  H    2.418205   4.132869   4.770180   4.961232   5.822469
    22  C    4.021292   2.608892   1.508367   6.679145   6.967169
    23  H    4.378433   2.842999   2.178790   6.448862   6.698782
    24  H    4.710910   3.064767   2.148762   7.016285   7.159981
    25  H    4.433293   3.447755   2.107422   7.597435   7.959028
    26  C    4.640500   2.572121   3.155279   4.720099   4.621719
    27  H    4.948015   2.842095   2.993860   5.636066   5.529120
    28  H    4.976391   3.063555   3.461956   5.103038   5.069662
    29  H    5.411238   3.399575   4.163202   4.557430   4.211542
                   16         17         18         19         20
    16  H    0.000000
    17  H    1.742390   0.000000
    18  C    4.855532   4.183080   0.000000
    19  H    5.354460   4.483144   1.089110   0.000000
    20  H    5.231518   4.883465   1.093698   1.754128   0.000000
    21  H    5.480428   4.700598   1.090241   1.754166   1.745969
    22  C    6.973368   7.450053   6.644761   7.726473   6.480835
    23  H    6.604926   7.320022   6.938191   8.025961   6.737485
    24  H    7.420975   7.790679   7.256847   8.319098   7.221853
    25  H    7.847196   8.329452   7.078427   8.148138   6.785773
    26  C    5.065364   5.666654   6.671532   7.672873   6.846262
    27  H    6.067198   6.517674   7.153441   8.173429   7.322113
    28  H    5.224473   6.117491   7.085372   8.106741   7.116983
    29  H    4.948310   5.517393   7.170459   8.105971   7.463559
                   21         22         23         24         25
    21  H    0.000000
    22  C    6.274006   0.000000
    23  H    6.725025   1.086724   0.000000
    24  H    6.792619   1.091055   1.763142   0.000000
    25  H    6.673431   1.087335   1.775621   1.761967   0.000000
    26  C    6.526807   3.010217   2.621084   2.930970   4.080524
    27  H    6.856476   2.563867   2.423744   2.132616   3.601395
    28  H    7.049421   3.039960   2.287080   3.176113   4.001070
    29  H    7.064613   4.065164   3.670567   3.848929   5.135744
                   26         27         28         29
    26  C    0.000000
    27  H    1.083495   0.000000
    28  H    1.090684   1.763537   0.000000
    29  H    1.089272   1.750583   1.756468   0.000000
 Stoichiometry    C11H15NO2
 Framework group  C1[X(C11H15NO2)]
 Deg. of freedom    81
 Full point group                 C1      NOp   1
 RotChk:  IX=0 Diff= 4.67D-16
 Largest Abelian subgroup         C1      NOp   1
 Largest concise Abelian subgroup C1      NOp   1
                         Standard orientation:                         
 ---------------------------------------------------------------------
 Center     Atomic      Atomic             Coordinates (Angstroms)
 Number     Number       Type             X           Y           Z
 ---------------------------------------------------------------------
      1          8           0       -2.278144   -2.292261   -0.146466
      2          8           0        3.619342   -0.228754    0.399795
      3          7           0       -0.040209    1.799663   -0.216111
      4          1           0       -0.073996    2.805938   -0.218466
      5          6           0        1.289609   -0.139361   -0.070629
      6          6           0       -1.237031    1.134933   -0.123306
      7          6           0        1.199243    1.212654   -0.071700
      8          6           0        2.556982   -0.809435    0.109720
      9          6           0        0.057092   -0.969010   -0.339295
     10          1           0        0.072913   -1.354941   -1.366357
     11          1           0        0.051800   -1.851597    0.297839
     12          6           0       -1.235039   -0.219437   -0.109863
     13          6           0       -2.400825   -1.083567    0.041492
     14          6           0        2.312584    2.189939    0.072530
     15          1           0        2.077330    3.133723   -0.423026
     16          1           0        2.512708    2.408593    1.122863
     17          1           0        3.249017    1.831338   -0.347018
     18          6           0        2.638307   -2.297390   -0.066312
     19          1           0        3.653344   -2.632944   -0.274313
     20          1           0        2.312355   -2.811553    0.842295
     21          1           0        2.004033   -2.671064   -0.870482
     22          6           0       -3.756830   -0.571249    0.458569
     23          1           0       -3.707243    0.189339    1.233176
     24          1           0       -4.285465   -0.149498   -0.397627
     25          1           0       -4.329521   -1.421685    0.820620
     26          6           0       -2.404536    2.070519   -0.045182
     27          1           0       -3.262615    1.710801   -0.600398
     28          1           0       -2.707086    2.231738    0.990223
     29          1           0       -2.133029    3.040716   -0.459326
 ---------------------------------------------------------------------
 Rotational constants (GHZ):           1.0885941           0.4876486           0.3447089
 Leave Link  202 at Sat Jan 24 23:39:30 2026, MaxMem=  2147483648 cpu:               0.0 elap:               0.0
 (Enter /data/home/wyx/g16/l301.exe)
 Standard basis: TZVP (5D, 7F)
 Ernie: Thresh=  0.10000D-02 Tol=  0.10000D-05 Strict=F.
 There are   370 symmetry adapted cartesian basis functions of A   symmetry.
 There are   356 symmetry adapted basis functions of A   symmetry.
   356 basis functions,   610 primitive gaussians,   370 cartesian basis functions
    52 alpha electrons       52 beta electrons
       nuclear repulsion energy       900.3810609039 Hartrees.
 IExCor=20419 DFT=T Ex+Corr=CAM-B3LYP ExCW=0 ScaHFX=  1.000000
 ScaDFX=  1.000000  1.000000  1.000000  0.810000 ScalE2=  1.000000  1.000000
 IRadAn=      5 IRanWt=     -1 IRanGd=            0 ICorTp=0 IEmpDi=141
 HFx  wShort=  0.000000 wLong=  0.330000 cFull=  0.190000 cShort=  0.000000 cLong=  0.460000
 DFx  wShort=  0.000000 wLong=  0.330000 cFull=  0.190000 cShort=  0.000000 cLong=  0.460000
 NAtoms=   29 NActive=   29 NUniq=   29 SFac= 1.00D+00 NAtFMM=   60 NAOKFM=F Big=F
 Integral buffers will be    131072 words long.
 Raffenetti 2 integral format.
 Two-electron integral symmetry is turned on.
 R6Disp:  Grimme-D3(BJ) Dispersion energy=       -0.0261713255 Hartrees.
 Nuclear repulsion after empirical dispersion term =      900.3548895784 Hartrees.
 ------------------------------------------------------------------------------
 Polarizable Continuum Model (PCM)
 =================================
 Model                : PCM.
 Atomic radii         : UFF (Universal Force Field).
 Polarization charges : Total charges.
 Charge compensation  : None.
 Solution method      : On-the-fly selection.
 Cavity type          : Scaled VdW (van der Waals Surface) (Alpha=1.100).
 Cavity algorithm     : GePol (No added spheres)
                        Default sphere list used, NSphG=   29.
                        Lebedev-Laikov grids with approx.  5.0 points / Ang**2.
                        Smoothing algorithm: York/Karplus (Gamma=1.0000).
                        Polarization charges: spherical gaussians, with
                                              point-specific exponents (IZeta= 3).
                        Self-potential: point-specific (ISelfS= 7).
                        Self-field    : sphere-specific E.n sum rule (ISelfD= 2).
 Solvent              : Water, Eps=  78.355300 Eps(inf)=   1.777849
 ------------------------------------------------------------------------------
 GePol: Number of generator spheres                  =      29
 GePol: Total number of spheres                      =      29
 GePol: Number of exposed spheres                    =      29 (100.00%)
 GePol: Number of points                             =    2111
 GePol: Average weight of points                     =       0.13
 GePol: Minimum weight of points                     =   0.58D-10
 GePol: Maximum weight of points                     =    0.20577
 GePol: Number of points with low weight             =     131
 GePol: Fraction of low-weight points (<1% of avg)   =       6.21%
 GePol: Cavity surface area                          =    268.718 Ang**2
 GePol: Cavity volume                                =    286.125 Ang**3
 Leave Link  301 at Sat Jan 24 23:39:30 2026, MaxMem=  2147483648 cpu:               0.6 elap:               0.0
 (Enter /data/home/wyx/g16/l302.exe)
 NPDir=0 NMtPBC=     1 NCelOv=     1 NCel=       1 NClECP=     1 NCelD=      1
         NCelK=      1 NCelE2=     1 NClLst=     1 CellRange=     0.0.
 One-electron integrals computed using PRISM.
 One-electron integral symmetry used in STVInt
 NBasis=   356 RedAO= T EigKep=  4.42D-05  NBF=   356
 NBsUse=   356 1.00D-06 EigRej= -1.00D+00 NBFU=   356
 Precomputing XC quadrature grid using
 IXCGrd= 4 IRadAn=           5 IRanWt=          -1 IRanGd=           0 AccXCQ= 0.00D+00.
 Generated NRdTot=       0 NPtTot=           0 NUsed=           0 NTot=          32
 NSgBfM=   366   366   366   366   366 MxSgAt=    29 MxSgA2=    29.
 Leave Link  302 at Sat Jan 24 23:39:30 2026, MaxMem=  2147483648 cpu:               3.1 elap:               0.2
 (Enter /data/home/wyx/g16/l303.exe)
 DipDrv:  MaxL=1.
 Leave Link  303 at Sat Jan 24 23:39:31 2026, MaxMem=  2147483648 cpu:               0.6 elap:               0.0
 (Enter /data/home/wyx/g16/l401.exe)
 Initial guess from the checkpoint file:  "DDL-S2-cLR-gs-12.chk"
 B after Tr=    -0.000000   -0.000000    0.000000
         Rot=    1.000000    0.000000   -0.000000    0.000000 Ang=   0.00 deg.
 Guess basis will be translated and rotated to current coordinates.
 JPrj=2 DoOrth=T DoCkMO=T.
 Leave Link  401 at Sat Jan 24 23:39:31 2026, MaxMem=  2147483648 cpu:               2.2 elap:               0.2
 (Enter /data/home/wyx/g16/l502.exe)
 Integral symmetry usage will be decided dynamically.
 Closed shell SCF:
 Using DIIS extrapolation, IDIIS=  1040.
 NGot=  2147483648 LenX=  2147200095 LenY=  2147062754
 Requested convergence on RMS density matrix=1.00D-08 within 128 cycles.
 Requested convergence on MAX density matrix=1.00D-06.
 Requested convergence on             energy=1.00D-06.
 No special actions if energy rises.
 Fock matrices will be formed incrementally for  20 cycles.

 Cycle   1  Pass 1  IDiag  1:
 FoFJK:  IHMeth= 1 ICntrl=       0 DoSepK=T KAlg= 0 I1Cent=           0 FoldK=F
 IRaf=         1 NMat=       1 IRICut=       1 DoRegI=T DoRafI=F ISym2E= 0 IDoP0=0 IntGTp=1.
 FoFCou: FMM=F IPFlag=           0 FMFlag=      100000 FMFlg1=           0
         NFxFlg=           0 DoJE=T BraDBF=F KetDBF=F FulRan=T
         wScrn=  0.000000 ICntrl=       500 IOpCl=  0 I1Cent=           0 NGrid=           0
         NMat0=    1 NMatS0=      1 NMatT0=    0 NMatD0=    1 NMtDS0=    0 NMtDT0=    0
 Symmetry not used in FoFCou.
 Inv3:  Mode=1 IEnd=    13368963.
 Iteration    1 A*A^-1 deviation from unit magnitude is 2.66D-15 for    888.
 Iteration    1 A*A^-1 deviation from orthogonality  is 1.72D-15 for   1917    335.
 Iteration    1 A^-1*A deviation from unit magnitude is 2.66D-15 for   1784.
 Iteration    1 A^-1*A deviation from orthogonality  is 3.41D-15 for   1514   1277.
 NEqPCM:  Using non-equilibrium solvation (IEInf=1, Eps=  78.3553, EpsInf=   1.7778)
 Inv3:  Mode=1 IEnd=    13368963.
 Iteration    1 A*A^-1 deviation from unit magnitude is 3.77D-15 for    874.
 Iteration    1 A*A^-1 deviation from orthogonality  is 1.55D-15 for   2026    801.
 Iteration    1 A^-1*A deviation from unit magnitude is 3.55D-15 for    874.
 Iteration    1 A^-1*A deviation from orthogonality  is 2.22D-15 for   1954    338.
 E= -633.327649448236    
 DIIS: error= 7.90D-04 at cycle   1 NSaved=   1.
 NSaved= 1 IEnMin= 1 EnMin= -633.327649448236     IErMin= 1 ErrMin= 7.90D-04
 ErrMax= 7.90D-04  0.00D+00 EMaxC= 1.00D-01 BMatC= 1.29D-04 BMatP= 1.29D-04
 IDIUse=3 WtCom= 9.92D-01 WtEn= 7.90D-03
 Coeff-Com:  0.100D+01
 Coeff-En:   0.100D+01
 Coeff:      0.100D+01
 Gap=     0.238 Goal=   None    Shift=    0.000
 RMSDP=4.31D-04 MaxDP=2.41D-02              OVMax= 1.25D-02

 Cycle   2  Pass 1  IDiag  1:
 RMSU=  4.28D-04    CP:  1.00D+00
 E= -633.327872084068     Delta-E=       -0.000222635832 Rises=F Damp=F
 DIIS: error= 5.00D-04 at cycle   2 NSaved=   2.
 NSaved= 2 IEnMin= 2 EnMin= -633.327872084068     IErMin= 2 ErrMin= 5.00D-04
 ErrMax= 5.00D-04  0.00D+00 EMaxC= 1.00D-01 BMatC= 1.35D-04 BMatP= 1.29D-04
 IDIUse=3 WtCom= 9.95D-01 WtEn= 5.00D-03
 Coeff-Com:  0.508D+00 0.492D+00
 Coeff-En:   0.000D+00 0.100D+01
 Coeff:      0.505D+00 0.495D+00
 Gap=     0.237 Goal=   None    Shift=    0.000
 RMSDP=1.32D-04 MaxDP=7.49D-03 DE=-2.23D-04 OVMax= 3.11D-03

 Cycle   3  Pass 1  IDiag  1:
 RMSU=  1.22D-04    CP:  1.00D+00  9.63D-01
 E= -633.327975419032     Delta-E=       -0.000103334964 Rises=F Damp=F
 DIIS: error= 1.96D-04 at cycle   3 NSaved=   3.
 NSaved= 3 IEnMin= 3 EnMin= -633.327975419032     IErMin= 3 ErrMin= 1.96D-04
 ErrMax= 1.96D-04  0.00D+00 EMaxC= 1.00D-01 BMatC= 1.63D-05 BMatP= 1.29D-04
 IDIUse=3 WtCom= 9.98D-01 WtEn= 1.96D-03
 Coeff-Com:  0.719D-01 0.237D+00 0.691D+00
 Coeff-En:   0.000D+00 0.000D+00 0.100D+01
 Coeff:      0.717D-01 0.236D+00 0.692D+00
 Gap=     0.237 Goal=   None    Shift=    0.000
 RMSDP=3.44D-05 MaxDP=1.67D-03 DE=-1.03D-04 OVMax= 1.69D-03

 Cycle   4  Pass 1  IDiag  1:
 RMSU=  2.54D-05    CP:  1.00D+00  9.79D-01  1.18D+00
 E= -633.327988942920     Delta-E=       -0.000013523888 Rises=F Damp=F
 DIIS: error= 6.82D-05 at cycle   4 NSaved=   4.
 NSaved= 4 IEnMin= 4 EnMin= -633.327988942920     IErMin= 4 ErrMin= 6.82D-05
 ErrMax= 6.82D-05  0.00D+00 EMaxC= 1.00D-01 BMatC= 1.22D-06 BMatP= 1.63D-05
 IDIUse=1 WtCom= 1.00D+00 WtEn= 0.00D+00
 Coeff-Com: -0.114D-01 0.186D-01 0.204D+00 0.788D+00
 Coeff:     -0.114D-01 0.186D-01 0.204D+00 0.788D+00
 Gap=     0.237 Goal=   None    Shift=    0.000
 RMSDP=2.31D-05 MaxDP=1.35D-03 DE=-1.35D-05 OVMax= 1.06D-03

 Cycle   5  Pass 1  IDiag  1:
 RMSU=  1.19D-05    CP:  1.00D+00  9.89D-01  1.33D+00  1.09D+00
 E= -633.327990646081     Delta-E=       -0.000001703162 Rises=F Damp=F
 DIIS: error= 2.36D-05 at cycle   5 NSaved=   5.
 NSaved= 5 IEnMin= 5 EnMin= -633.327990646081     IErMin= 5 ErrMin= 2.36D-05
 ErrMax= 2.36D-05  0.00D+00 EMaxC= 1.00D-01 BMatC= 3.46D-07 BMatP= 1.22D-06
 IDIUse=1 WtCom= 1.00D+00 WtEn= 0.00D+00
 Coeff-Com: -0.133D-01-0.286D-01-0.375D-02 0.364D+00 0.681D+00
 Coeff:     -0.133D-01-0.286D-01-0.375D-02 0.364D+00 0.681D+00
 Gap=     0.237 Goal=   None    Shift=    0.000
 RMSDP=8.90D-06 MaxDP=4.11D-04 DE=-1.70D-06 OVMax= 3.91D-04

 Cycle   6  Pass 1  IDiag  1:
 RMSU=  3.75D-06    CP:  9.99D-01  9.87D-01  1.39D+00  1.25D+00  1.09D+00
 E= -633.327991161656     Delta-E=       -0.000000515575 Rises=F Damp=F
 DIIS: error= 1.80D-05 at cycle   6 NSaved=   6.
 NSaved= 6 IEnMin= 6 EnMin= -633.327991161656     IErMin= 6 ErrMin= 1.80D-05
 ErrMax= 1.80D-05  0.00D+00 EMaxC= 1.00D-01 BMatC= 3.67D-08 BMatP= 3.46D-07
 IDIUse=1 WtCom= 1.00D+00 WtEn= 0.00D+00
 Coeff-Com: -0.126D-02-0.150D-01-0.245D-01 0.568D-02 0.187D+00 0.848D+00
 Coeff:     -0.126D-02-0.150D-01-0.245D-01 0.568D-02 0.187D+00 0.848D+00
 Gap=     0.237 Goal=   None    Shift=    0.000
 RMSDP=4.15D-06 MaxDP=1.59D-04 DE=-5.16D-07 OVMax= 3.14D-04

 Cycle   7  Pass 1  IDiag  1:
 RMSU=  1.77D-06    CP:  9.99D-01  9.85D-01  1.41D+00  1.32D+00  1.19D+00
                    CP:  1.21D+00
 E= -633.327991261087     Delta-E=       -0.000000099431 Rises=F Damp=F
 DIIS: error= 7.11D-06 at cycle   7 NSaved=   7.
 NSaved= 7 IEnMin= 7 EnMin= -633.327991261087     IErMin= 7 ErrMin= 7.11D-06
 ErrMax= 7.11D-06  0.00D+00 EMaxC= 1.00D-01 BMatC= 1.67D-08 BMatP= 3.67D-08
 IDIUse=1 WtCom= 1.00D+00 WtEn= 0.00D+00
 Coeff-Com:  0.216D-02-0.334D-02-0.776D-02-0.696D-01-0.819D-01 0.428D+00
 Coeff-Com:  0.733D+00
 Coeff:      0.216D-02-0.334D-02-0.776D-02-0.696D-01-0.819D-01 0.428D+00
 Coeff:      0.733D+00
 Gap=     0.237 Goal=   None    Shift=    0.000
 RMSDP=1.77D-06 MaxDP=7.96D-05 DE=-9.94D-08 OVMax= 1.60D-04

 Cycle   8  Pass 1  IDiag  1:
 RMSU=  6.39D-07    CP:  9.99D-01  9.84D-01  1.42D+00  1.35D+00  1.25D+00
                    CP:  1.41D+00  1.11D+00
 E= -633.327991291942     Delta-E=       -0.000000030855 Rises=F Damp=F
 DIIS: error= 2.31D-06 at cycle   8 NSaved=   8.
 NSaved= 8 IEnMin= 8 EnMin= -633.327991291942     IErMin= 8 ErrMin= 2.31D-06
 ErrMax= 2.31D-06  0.00D+00 EMaxC= 1.00D-01 BMatC= 1.69D-09 BMatP= 1.67D-08
 IDIUse=1 WtCom= 1.00D+00 WtEn= 0.00D+00
 Coeff-Com:  0.947D-03 0.371D-03 0.213D-02-0.229D-01-0.721D-01 0.807D-02
 Coeff-Com:  0.244D+00 0.839D+00
 Coeff:      0.947D-03 0.371D-03 0.213D-02-0.229D-01-0.721D-01 0.807D-02
 Coeff:      0.244D+00 0.839D+00
 Gap=     0.237 Goal=   None    Shift=    0.000
 RMSDP=7.45D-07 MaxDP=2.29D-05 DE=-3.09D-08 OVMax= 6.19D-05

 Cycle   9  Pass 1  IDiag  1:
 RMSU=  1.99D-07    CP:  9.99D-01  9.83D-01  1.42D+00  1.36D+00  1.25D+00
                    CP:  1.52D+00  1.31D+00  1.18D+00
 E= -633.327991295656     Delta-E=       -0.000000003715 Rises=F Damp=F
 DIIS: error= 8.23D-07 at cycle   9 NSaved=   9.
 NSaved= 9 IEnMin= 9 EnMin= -633.327991295656     IErMin= 9 ErrMin= 8.23D-07
 ErrMax= 8.23D-07  0.00D+00 EMaxC= 1.00D-01 BMatC= 1.77D-10 BMatP= 1.69D-09
 IDIUse=1 WtCom= 1.00D+00 WtEn= 0.00D+00
 Coeff-Com:  0.725D-04 0.472D-03 0.181D-02 0.260D-02-0.165D-01-0.546D-01
 Coeff-Com: -0.449D-03 0.315D+00 0.752D+00
 Coeff:      0.725D-04 0.472D-03 0.181D-02 0.260D-02-0.165D-01-0.546D-01
 Coeff:     -0.449D-03 0.315D+00 0.752D+00
 Gap=     0.237 Goal=   None    Shift=    0.000
 RMSDP=1.86D-07 MaxDP=6.43D-06 DE=-3.71D-09 OVMax= 1.86D-05

 Cycle  10  Pass 1  IDiag  1:
 RMSU=  7.74D-08    CP:  9.99D-01  9.83D-01  1.42D+00  1.36D+00  1.25D+00
                    CP:  1.54D+00  1.36D+00  1.26D+00  1.04D+00
 E= -633.327991296009     Delta-E=       -0.000000000352 Rises=F Damp=F
 DIIS: error= 2.07D-07 at cycle  10 NSaved=  10.
 NSaved=10 IEnMin=10 EnMin= -633.327991296009     IErMin=10 ErrMin= 2.07D-07
 ErrMax= 2.07D-07  0.00D+00 EMaxC= 1.00D-01 BMatC= 3.49D-11 BMatP= 1.77D-10
 IDIUse=1 WtCom= 1.00D+00 WtEn= 0.00D+00
 Coeff-Com: -0.713D-04 0.242D-03 0.237D-03 0.347D-02 0.112D-02-0.232D-01
 Coeff-Com: -0.246D-01 0.103D-01 0.292D+00 0.741D+00
 Coeff:     -0.713D-04 0.242D-03 0.237D-03 0.347D-02 0.112D-02-0.232D-01
 Coeff:     -0.246D-01 0.103D-01 0.292D+00 0.741D+00
 Gap=     0.237 Goal=   None    Shift=    0.000
 RMSDP=9.44D-08 MaxDP=5.74D-06 DE=-3.52D-10 OVMax= 4.85D-06

 Cycle  11  Pass 1  IDiag  1:
 RMSU=  3.80D-08    CP:  9.99D-01  9.83D-01  1.42D+00  1.36D+00  1.25D+00
                    CP:  1.55D+00  1.39D+00  1.29D+00  1.17D+00  1.11D+00
 E= -633.327991296061     Delta-E=       -0.000000000052 Rises=F Damp=F
 DIIS: error= 1.39D-07 at cycle  11 NSaved=  11.
 NSaved=11 IEnMin=11 EnMin= -633.327991296061     IErMin=11 ErrMin= 1.39D-07
 ErrMax= 1.39D-07  0.00D+00 EMaxC= 1.00D-01 BMatC= 6.59D-12 BMatP= 3.49D-11
 IDIUse=1 WtCom= 1.00D+00 WtEn= 0.00D+00
 Coeff-Com: -0.411D-04 0.822D-04-0.231D-03 0.129D-02 0.335D-02-0.125D-02
 Coeff-Com: -0.910D-02-0.490D-01 0.301D-01 0.331D+00 0.694D+00
 Coeff:     -0.411D-04 0.822D-04-0.231D-03 0.129D-02 0.335D-02-0.125D-02
 Coeff:     -0.910D-02-0.490D-01 0.301D-01 0.331D+00 0.694D+00
 Gap=     0.237 Goal=   None    Shift=    0.000
 RMSDP=2.96D-08 MaxDP=1.34D-06 DE=-5.20D-11 OVMax= 1.53D-06

 Cycle  12  Pass 1  IDiag  1:
 RMSU=  1.20D-08    CP:  9.99D-01  9.84D-01  1.42D+00  1.36D+00  1.25D+00
                    CP:  1.55D+00  1.39D+00  1.30D+00  1.20D+00  1.21D+00
                    CP:  8.73D-01
 E= -633.327991296059     Delta-E=        0.000000000001 Rises=F Damp=F
 DIIS: error= 5.92D-08 at cycle  12 NSaved=  12.
 NSaved=12 IEnMin=11 EnMin= -633.327991296061     IErMin=12 ErrMin= 5.92D-08
 ErrMax= 5.92D-08  0.00D+00 EMaxC= 1.00D-01 BMatC= 1.18D-12 BMatP= 6.59D-12
 IDIUse=1 WtCom= 1.00D+00 WtEn= 0.00D+00
 Coeff-Com: -0.128D-04 0.197D-04-0.140D-03 0.139D-03 0.134D-02 0.229D-02
 Coeff-Com: -0.145D-03-0.247D-01-0.253D-01 0.247D-01 0.339D+00 0.683D+00
 Coeff:     -0.128D-04 0.197D-04-0.140D-03 0.139D-03 0.134D-02 0.229D-02
 Coeff:     -0.145D-03-0.247D-01-0.253D-01 0.247D-01 0.339D+00 0.683D+00
 Gap=     0.237 Goal=   None    Shift=    0.000
 RMSDP=1.42D-08 MaxDP=1.03D-06 DE= 1.48D-12 OVMax= 5.70D-07

 Cycle  13  Pass 1  IDiag  1:
 RMSU=  5.33D-09    CP:  9.99D-01  9.84D-01  1.42D+00  1.36D+00  1.25D+00
                    CP:  1.55D+00  1.39D+00  1.30D+00  1.22D+00  1.24D+00
                    CP:  1.07D+00  9.56D-01
 E= -633.327991296072     Delta-E=       -0.000000000012 Rises=F Damp=F
 DIIS: error= 1.88D-08 at cycle  13 NSaved=  13.
 NSaved=13 IEnMin=13 EnMin= -633.327991296072     IErMin=13 ErrMin= 1.88D-08
 ErrMax= 1.88D-08  0.00D+00 EMaxC= 1.00D-01 BMatC= 1.66D-13 BMatP= 1.18D-12
 IDIUse=1 WtCom= 1.00D+00 WtEn= 0.00D+00
 Coeff-Com:  0.224D-06-0.578D-07-0.327D-04-0.175D-03 0.112D-03 0.120D-02
 Coeff-Com:  0.152D-02-0.476D-02-0.182D-01-0.526D-01 0.517D-01 0.330D+00
 Coeff-Com:  0.692D+00
 Coeff:      0.224D-06-0.578D-07-0.327D-04-0.175D-03 0.112D-03 0.120D-02
 Coeff:      0.152D-02-0.476D-02-0.182D-01-0.526D-01 0.517D-01 0.330D+00
 Coeff:      0.692D+00
 Gap=     0.237 Goal=   None    Shift=    0.000
 RMSDP=4.38D-09 MaxDP=1.66D-07 DE=-1.24D-11 OVMax= 2.66D-07

 Error on total polarization charges =  0.00817
 SCF Done:  E(RCAM-B3LYP) =  -633.327991296     A.U. after   13 cycles
            NFock= 13  Conv=0.44D-08     -V/T= 2.0042
 KE= 6.307010317699D+02 PE=-3.276876094124D+03 EE= 1.112492181480D+03
 Leave Link  502 at Sat Jan 24 23:40:23 2026, MaxMem=  2147483648 cpu:             824.6 elap:              52.3
 (Enter /data/home/wyx/g16/l601.exe)
 Copying SCF densities to generalized density rwf, IOpCl= 0 IROHF=0.

 **********************************************************************

            Population analysis using the SCF density.

 **********************************************************************

 Orbital symmetries:
       Occupied  (A) (A) (A) (A) (A) (A) (A) (A) (A) (A) (A) (A)
                 (A) (A) (A) (A) (A) (A) (A) (A) (A) (A) (A) (A)
                 (A) (A) (A) (A) (A) (A) (A) (A) (A) (A) (A) (A)
                 (A) (A) (A) (A) (A) (A) (A) (A) (A) (A) (A) (A)
                 (A) (A) (A) (A)
       Virtual   (A) (A) (A) (A) (A) (A) (A) (A) (A) (A) (A) (A)
                 (A) (A) (A) (A) (A) (A) (A) (A) (A) (A) (A) (A)
                 (A) (A) (A) (A) (A) (A) (A) (A) (A) (A) (A) (A)
                 (A) (A) (A) (A) (A) (A) (A) (A) (A) (A) (A) (A)
                 (A) (A) (A) (A) (A) (A) (A) (A) (A) (A) (A) (A)
                 (A) (A) (A) (A) (A) (A) (A) (A) (A) (A) (A) (A)
                 (A) (A) (A) (A) (A) (A) (A) (A) (A) (A) (A) (A)
                 (A) (A) (A) (A) (A) (A) (A) (A) (A) (A) (A) (A)
                 (A) (A) (A) (A) (A) (A) (A) (A) (A) (A) (A) (A)
                 (A) (A) (A) (A) (A) (A) (A) (A) (A) (A) (A) (A)
                 (A) (A) (A) (A) (A) (A) (A) (A) (A) (A) (A) (A)
                 (A) (A) (A) (A) (A) (A) (A) (A) (A) (A) (A) (A)
                 (A) (A) (A) (A) (A) (A) (A) (A) (A) (A) (A) (A)
                 (A) (A) (A) (A) (A) (A) (A) (A) (A) (A) (A) (A)
                 (A) (A) (A) (A) (A) (A) (A) (A) (A) (A) (A) (A)
                 (A) (A) (A) (A) (A) (A) (A) (A) (A) (A) (A) (A)
                 (A) (A) (A) (A) (A) (A) (A) (A) (A) (A) (A) (A)
                 (A) (A) (A) (A) (A) (A) (A) (A) (A) (A) (A) (A)
                 (A) (A) (A) (A) (A) (A) (A) (A) (A) (A) (A) (A)
                 (A) (A) (A) (A) (A) (A) (A) (A) (A) (A) (A) (A)
                 (A) (A) (A) (A) (A) (A) (A) (A) (A) (A) (A) (A)
                 (A) (A) (A) (A) (A) (A) (A) (A) (A) (A) (A) (A)
                 (A) (A) (A) (A) (A) (A) (A) (A) (A) (A) (A) (A)
                 (A) (A) (A) (A) (A) (A) (A) (A) (A) (A) (A) (A)
                 (A) (A) (A) (A) (A) (A) (A) (A) (A) (A) (A) (A)
                 (A) (A) (A) (A)
 The electronic state is 1-A.
 Alpha  occ. eigenvalues --  -19.18363 -19.16824 -14.44442 -10.33891 -10.32902
 Alpha  occ. eigenvalues --  -10.32517 -10.31844 -10.26126 -10.25416 -10.25254
 Alpha  occ. eigenvalues --  -10.24937 -10.24599 -10.24566 -10.23347  -1.12450
 Alpha  occ. eigenvalues --   -1.10272  -1.07877  -0.91605  -0.90664  -0.84015
 Alpha  occ. eigenvalues --   -0.82607  -0.81739  -0.78624  -0.74420  -0.71472
 Alpha  occ. eigenvalues --   -0.69043  -0.61954  -0.58563  -0.57106  -0.55416
 Alpha  occ. eigenvalues --   -0.54832  -0.54111  -0.52622  -0.52040  -0.50914
 Alpha  occ. eigenvalues --   -0.50194  -0.49384  -0.49180  -0.48484  -0.48396
 Alpha  occ. eigenvalues --   -0.46834  -0.45047  -0.44846  -0.43744  -0.43320
 Alpha  occ. eigenvalues --   -0.42772  -0.42138  -0.41229  -0.33218  -0.32682
 Alpha  occ. eigenvalues --   -0.30854  -0.26545
 Alpha virt. eigenvalues --   -0.02802   0.02047   0.06187   0.08106   0.08534
 Alpha virt. eigenvalues --    0.09829   0.10732   0.11980   0.12504   0.13547
 Alpha virt. eigenvalues --    0.13927   0.15148   0.15476   0.16379   0.16970
 Alpha virt. eigenvalues --    0.17326   0.17581   0.17930   0.17945   0.19331
 Alpha virt. eigenvalues --    0.19698   0.21613   0.22452   0.23174   0.23248
 Alpha virt. eigenvalues --    0.24155   0.24447   0.25178   0.25984   0.26312
 Alpha virt. eigenvalues --    0.27062   0.27353   0.28727   0.29313   0.30182
 Alpha virt. eigenvalues --    0.31147   0.31880   0.32308   0.33443   0.34264
 Alpha virt. eigenvalues --    0.35357   0.35558   0.36780   0.37939   0.38762
 Alpha virt. eigenvalues --    0.39133   0.40832   0.41578   0.42017   0.42520
 Alpha virt. eigenvalues --    0.43971   0.44318   0.45067   0.45818   0.46570
 Alpha virt. eigenvalues --    0.46815   0.47912   0.48291   0.48445   0.48667
 Alpha virt. eigenvalues --    0.49350   0.49733   0.50853   0.51224   0.51439
 Alpha virt. eigenvalues --    0.52623   0.52943   0.53580   0.53994   0.54317
 Alpha virt. eigenvalues --    0.54381   0.55429   0.55628   0.56517   0.57912
 Alpha virt. eigenvalues --    0.58426   0.58876   0.60182   0.60911   0.61836
 Alpha virt. eigenvalues --    0.63373   0.65386   0.65714   0.66370   0.67615
 Alpha virt. eigenvalues --    0.69207   0.70608   0.71406   0.72322   0.72826
 Alpha virt. eigenvalues --    0.73414   0.74432   0.74775   0.76237   0.77012
 Alpha virt. eigenvalues --    0.78402   0.79498   0.82309   0.83433   0.85250
 Alpha virt. eigenvalues --    0.87706   0.90213   0.95060   0.99848   1.24610
 Alpha virt. eigenvalues --    1.25511   1.27031   1.28387   1.29569   1.31176
 Alpha virt. eigenvalues --    1.32223   1.32840   1.33662   1.35478   1.35617
 Alpha virt. eigenvalues --    1.37019   1.37472   1.38027   1.38940   1.39582
 Alpha virt. eigenvalues --    1.39876   1.40510   1.41186   1.41427   1.41855
 Alpha virt. eigenvalues --    1.43120   1.43799   1.43994   1.45105   1.47162
 Alpha virt. eigenvalues --    1.47579   1.48910   1.49449   1.50391   1.51098
 Alpha virt. eigenvalues --    1.51975   1.52554   1.53046   1.54720   1.57133
 Alpha virt. eigenvalues --    1.58182   1.60231   1.60433   1.61271   1.62171
 Alpha virt. eigenvalues --    1.62449   1.63242   1.64275   1.65930   1.66152
 Alpha virt. eigenvalues --    1.66576   1.67281   1.67837   1.68465   1.68963
 Alpha virt. eigenvalues --    1.69263   1.70541   1.71098   1.72072   1.73074
 Alpha virt. eigenvalues --    1.73216   1.74509   1.76090   1.77029   1.78503
 Alpha virt. eigenvalues --    1.80199   1.82825   1.84195   1.85523   1.86279
 Alpha virt. eigenvalues --    1.87139   1.87838   1.88048   1.89113   1.90093
 Alpha virt. eigenvalues --    1.91000   1.93857   1.95501   1.97963   1.99951
 Alpha virt. eigenvalues --    2.00882   2.03628   2.04496   2.06466   2.09218
 Alpha virt. eigenvalues --    2.10896   2.13283   2.14369   2.17484   2.19316
 Alpha virt. eigenvalues --    2.20894   2.21550   2.22044   2.23098   2.25589
 Alpha virt. eigenvalues --    2.26963   2.27888   2.29104   2.30860   2.31566
 Alpha virt. eigenvalues --    2.34003   2.34388   2.35670   2.36883   2.38319
 Alpha virt. eigenvalues --    2.38927   2.40718   2.41328   2.44221   2.44463
 Alpha virt. eigenvalues --    2.45243   2.47679   2.49411   2.50390   2.51753
 Alpha virt. eigenvalues --    2.52157   2.52897   2.54330   2.56317   2.58022
 Alpha virt. eigenvalues --    2.58815   2.60139   2.60809   2.61005   2.62810
 Alpha virt. eigenvalues --    2.63889   2.66156   2.66457   2.67024   2.69147
 Alpha virt. eigenvalues --    2.70814   2.71236   2.72919   2.73663   2.74922
 Alpha virt. eigenvalues --    2.75602   2.76741   2.77746   2.78067   2.79312
 Alpha virt. eigenvalues --    2.80482   2.81029   2.82779   2.83789   2.84657
 Alpha virt. eigenvalues --    2.85726   2.86123   2.87731   2.89943   2.92586
 Alpha virt. eigenvalues --    2.97249   2.99000   3.00131   3.04698   3.09943
 Alpha virt. eigenvalues --    3.10667   3.12402   3.14591   3.17515   3.18322
 Alpha virt. eigenvalues --    3.21226   3.22082   3.24510   3.25253   3.26056
 Alpha virt. eigenvalues --    3.26563   3.29278   3.32803   3.34949   3.36610
 Alpha virt. eigenvalues --    3.37409   3.38837   3.40115   3.40572   3.41859
 Alpha virt. eigenvalues --    3.42548   3.44296   3.45414   3.46865   3.47640
 Alpha virt. eigenvalues --    3.49691   3.50449   3.53970   3.57167   3.58749
 Alpha virt. eigenvalues --    3.59844   3.89907   3.99170   4.33777   4.34458
 Alpha virt. eigenvalues --   21.63008  21.77480  22.07317  22.10240  22.11160
 Alpha virt. eigenvalues --   22.13306  22.15281  22.17758  22.20791  22.25316
 Alpha virt. eigenvalues --   22.30670  31.93001  43.62500  43.65059
          Condensed to atoms (all electrons):
               1          2          3          4          5          6
     1  O    7.953981   0.000000  -0.000237   0.000017   0.016055   0.016692
     2  O    0.000000   7.992578   0.000529   0.000042  -0.186088   0.001082
     3  N   -0.000237   0.000529   6.400393   0.375533  -0.115482   0.344882
     4  H    0.000017   0.000042   0.375533   0.399835   0.014024  -0.045068
     5  C    0.016055  -0.186088  -0.115482   0.014024   7.011067  -0.054068
     6  C    0.016692   0.001082   0.344882  -0.045068  -0.054068   5.631253
     7  C   -0.000310  -0.023821   0.364622  -0.042353   0.378255  -0.106787
     8  C   -0.000239   0.681368   0.004790  -0.000640  -0.294624   0.032066
     9  C   -0.025047   0.018518   0.018745  -0.000083  -0.538541  -0.113253
    10  H    0.003748   0.000073   0.003346   0.000018  -0.024406  -0.011377
    11  H    0.015670  -0.000133  -0.001387   0.000011  -0.113819   0.024124
    12  C   -0.227922  -0.002374  -0.098684   0.015616   0.161447  -0.188242
    13  C    0.720479  -0.000016   0.000254   0.000397   0.072330   0.167622
    14  C   -0.000007  -0.028030  -0.040522  -0.003763  -0.051080   0.000963
    15  H   -0.000000   0.004597   0.003665   0.000286   0.014188   0.006067
    16  H   -0.000000   0.000302  -0.003863   0.000797  -0.010351  -0.001375
    17  H    0.000000   0.008500   0.003342   0.000728  -0.007141  -0.000528
    18  C   -0.000176  -0.105896  -0.000395   0.000022  -0.237012  -0.000633
    19  H   -0.000004   0.007262   0.000003  -0.000001   0.016603   0.000037
    20  H    0.000015   0.000364   0.000015  -0.000001  -0.005004   0.000239
    21  H    0.000174   0.004872   0.000116   0.000001   0.058719  -0.001345
    22  C   -0.111415   0.000000   0.000044   0.000108   0.003145  -0.009480
    23  H    0.004518  -0.000000  -0.000039  -0.000050  -0.000483  -0.032896
    24  H    0.001531  -0.000000  -0.000009  -0.000018  -0.000087   0.011122
    25  H    0.008608   0.000000   0.000029  -0.000002  -0.000127  -0.001275
    26  C    0.000912   0.000004  -0.030184  -0.007066  -0.000000   0.180109
    27  H   -0.000194  -0.000000   0.002576   0.000904   0.000011  -0.041907
    28  H   -0.000040  -0.000000  -0.002743   0.000459   0.000456  -0.035491
    29  H    0.000023  -0.000000   0.000856   0.001130  -0.000478  -0.050472
               7          8          9         10         11         12
     1  O   -0.000310  -0.000239  -0.025047   0.003748   0.015670  -0.227922
     2  O   -0.023821   0.681368   0.018518   0.000073  -0.000133  -0.002374
     3  N    0.364622   0.004790   0.018745   0.003346  -0.001387  -0.098684
     4  H   -0.042353  -0.000640  -0.000083   0.000018   0.000011   0.015616
     5  C    0.378255  -0.294624  -0.538541  -0.024406  -0.113819   0.161447
     6  C   -0.106787   0.032066  -0.113253  -0.011377   0.024124  -0.188242
     7  C    5.453239  -0.202878  -0.185574  -0.005758   0.017606   0.014569
     8  C   -0.202878   5.434398   0.120120  -0.002786  -0.006523  -0.047023
     9  C   -0.185574   0.120120   6.353816   0.391891   0.536269  -0.052175
    10  H   -0.005758  -0.002786   0.391891   0.549178  -0.033730  -0.023826
    11  H    0.017606  -0.006523   0.536269  -0.033730   0.497779  -0.105344
    12  C    0.014569  -0.047023  -0.052175  -0.023826  -0.105344   7.385932
    13  C    0.014488  -0.006721  -0.264125  -0.001059  -0.000490  -0.417858
    14  C    0.226899  -0.049471   0.014970  -0.001419   0.000445  -0.001894
    15  H   -0.072379   0.005770  -0.000707   0.000115  -0.000005  -0.000885
    16  H   -0.014244   0.001963   0.000060  -0.000055   0.000053   0.000418
    17  H   -0.031246  -0.012218   0.000256   0.000144  -0.000058  -0.000218
    18  C    0.006838   0.320511   0.004185  -0.009501   0.002516   0.001939
    19  H    0.000266  -0.042155  -0.001011   0.000135   0.000452  -0.000263
    20  H   -0.000117  -0.012818  -0.004938   0.000692  -0.001200  -0.003119
    21  H    0.002305  -0.093187  -0.012707   0.001097  -0.005515   0.007468
    22  C    0.000244  -0.000031   0.005071   0.001463   0.000961  -0.266697
    23  H   -0.000007  -0.000007   0.003206  -0.000130  -0.000059   0.061639
    24  H    0.000007   0.000003  -0.002004   0.000153  -0.000114  -0.009040
    25  H    0.000010   0.000003   0.000057  -0.000040  -0.000127   0.025991
    26  C    0.001769   0.000534   0.020782  -0.000557   0.000008  -0.075665
    27  H   -0.000643  -0.000001  -0.001011  -0.000077   0.000007  -0.006718
    28  H   -0.001023  -0.000010  -0.000199  -0.000018   0.000045  -0.020095
    29  H    0.003629  -0.000003  -0.000504   0.000080  -0.000007   0.024283
              13         14         15         16         17         18
     1  O    0.720479  -0.000007  -0.000000  -0.000000   0.000000  -0.000176
     2  O   -0.000016  -0.028030   0.004597   0.000302   0.008500  -0.105896
     3  N    0.000254  -0.040522   0.003665  -0.003863   0.003342  -0.000395
     4  H    0.000397  -0.003763   0.000286   0.000797   0.000728   0.000022
     5  C    0.072330  -0.051080   0.014188  -0.010351  -0.007141  -0.237012
     6  C    0.167622   0.000963   0.006067  -0.001375  -0.000528  -0.000633
     7  C    0.014488   0.226899  -0.072379  -0.014244  -0.031246   0.006838
     8  C   -0.006721  -0.049471   0.005770   0.001963  -0.012218   0.320511
     9  C   -0.264125   0.014970  -0.000707   0.000060   0.000256   0.004185
    10  H   -0.001059  -0.001419   0.000115  -0.000055   0.000144  -0.009501
    11  H   -0.000490   0.000445  -0.000005   0.000053  -0.000058   0.002516
    12  C   -0.417858  -0.001894  -0.000885   0.000418  -0.000218   0.001939
    13  C    5.472150  -0.000092  -0.000010  -0.000026   0.000001   0.000742
    14  C   -0.000092   5.155316   0.385695   0.399684   0.423209   0.001371
    15  H   -0.000010   0.385695   0.579680  -0.028591  -0.029472   0.000243
    16  H   -0.000026   0.399684  -0.028591   0.505847  -0.020406  -0.000065
    17  H    0.000001   0.423209  -0.029472  -0.020406   0.485004   0.000134
    18  C    0.000742   0.001371   0.000243  -0.000065   0.000134   5.301099
    19  H   -0.000016  -0.000042  -0.000004  -0.000012   0.000081   0.397078
    20  H   -0.000105  -0.000336  -0.000005   0.000010   0.000031   0.388590
    21  H    0.000830   0.000233  -0.000020   0.000001  -0.000080   0.392380
    22  C    0.296437  -0.000011   0.000003  -0.000001  -0.000000   0.000025
    23  H   -0.086130  -0.000000  -0.000000   0.000000   0.000000   0.000003
    24  H   -0.025614  -0.000001   0.000000   0.000000   0.000000  -0.000001
    25  H   -0.044760   0.000001   0.000000  -0.000000  -0.000000  -0.000001
    26  C   -0.055938   0.001337  -0.000194  -0.000126   0.000039   0.000006
    27  H   -0.006135   0.000100  -0.000015   0.000003  -0.000001  -0.000000
    28  H    0.006515  -0.000088   0.000012  -0.000017   0.000003  -0.000001
    29  H   -0.000345  -0.000244   0.000114   0.000002  -0.000001   0.000000
              19         20         21         22         23         24
     1  O   -0.000004   0.000015   0.000174  -0.111415   0.004518   0.001531
     2  O    0.007262   0.000364   0.004872   0.000000  -0.000000  -0.000000
     3  N    0.000003   0.000015   0.000116   0.000044  -0.000039  -0.000009
     4  H   -0.000001  -0.000001   0.000001   0.000108  -0.000050  -0.000018
     5  C    0.016603  -0.005004   0.058719   0.003145  -0.000483  -0.000087
     6  C    0.000037   0.000239  -0.001345  -0.009480  -0.032896   0.011122
     7  C    0.000266  -0.000117   0.002305   0.000244  -0.000007   0.000007
     8  C   -0.042155  -0.012818  -0.093187  -0.000031  -0.000007   0.000003
     9  C   -0.001011  -0.004938  -0.012707   0.005071   0.003206  -0.002004
    10  H    0.000135   0.000692   0.001097   0.001463  -0.000130   0.000153
    11  H    0.000452  -0.001200  -0.005515   0.000961  -0.000059  -0.000114
    12  C   -0.000263  -0.003119   0.007468  -0.266697   0.061639  -0.009040
    13  C   -0.000016  -0.000105   0.000830   0.296437  -0.086130  -0.025614
    14  C   -0.000042  -0.000336   0.000233  -0.000011  -0.000000  -0.000001
    15  H   -0.000004  -0.000005  -0.000020   0.000003  -0.000000   0.000000
    16  H   -0.000012   0.000010   0.000001  -0.000001   0.000000   0.000000
    17  H    0.000081   0.000031  -0.000080  -0.000000   0.000000   0.000000
    18  C    0.397078   0.388590   0.392380   0.000025   0.000003  -0.000001
    19  H    0.491426  -0.008144  -0.026791  -0.000000   0.000000   0.000000
    20  H   -0.008144   0.499437  -0.024424  -0.000007  -0.000000   0.000000
    21  H   -0.026791  -0.024424   0.545620   0.000021  -0.000000  -0.000000
    22  C   -0.000000  -0.000007   0.000021   5.425452   0.395972   0.401983
    23  H    0.000000  -0.000000  -0.000000   0.395972   0.538140  -0.027095
    24  H    0.000000   0.000000  -0.000000   0.401983  -0.027095   0.491870
    25  H   -0.000000  -0.000000  -0.000000   0.383433  -0.021525  -0.007862
    26  C    0.000000   0.000004  -0.000015  -0.031973   0.017238  -0.015696
    27  H   -0.000000   0.000000  -0.000000   0.010328  -0.010082  -0.001046
    28  H    0.000000  -0.000000  -0.000000  -0.011977  -0.001506   0.001311
    29  H    0.000000  -0.000000   0.000000   0.001897   0.000726   0.000213
              25         26         27         28         29
     1  O    0.008608   0.000912  -0.000194  -0.000040   0.000023
     2  O    0.000000   0.000004  -0.000000  -0.000000  -0.000000
     3  N    0.000029  -0.030184   0.002576  -0.002743   0.000856
     4  H   -0.000002  -0.007066   0.000904   0.000459   0.001130
     5  C   -0.000127  -0.000000   0.000011   0.000456  -0.000478
     6  C   -0.001275   0.180109  -0.041907  -0.035491  -0.050472
     7  C    0.000010   0.001769  -0.000643  -0.001023   0.003629
     8  C    0.000003   0.000534  -0.000001  -0.000010  -0.000003
     9  C    0.000057   0.020782  -0.001011  -0.000199  -0.000504
    10  H   -0.000040  -0.000557  -0.000077  -0.000018   0.000080
    11  H   -0.000127   0.000008   0.000007   0.000045  -0.000007
    12  C    0.025991  -0.075665  -0.006718  -0.020095   0.024283
    13  C   -0.044760  -0.055938  -0.006135   0.006515  -0.000345
    14  C    0.000001   0.001337   0.000100  -0.000088  -0.000244
    15  H    0.000000  -0.000194  -0.000015   0.000012   0.000114
    16  H   -0.000000  -0.000126   0.000003  -0.000017   0.000002
    17  H   -0.000000   0.000039  -0.000001   0.000003  -0.000001
    18  C   -0.000001   0.000006  -0.000000  -0.000001   0.000000
    19  H   -0.000000   0.000000  -0.000000   0.000000   0.000000
    20  H   -0.000000   0.000004   0.000000  -0.000000  -0.000000
    21  H   -0.000000  -0.000015  -0.000000  -0.000000   0.000000
    22  C    0.383433  -0.031973   0.010328  -0.011977   0.001897
    23  H   -0.021525   0.017238  -0.010082  -0.001506   0.000726
    24  H   -0.007862  -0.015696  -0.001046   0.001311   0.000213
    25  H    0.496543   0.001896   0.000850   0.000102  -0.000046
    26  C    0.001896   5.255146   0.422031   0.432469   0.389918
    27  H    0.000850   0.422031   0.511702  -0.025735  -0.026489
    28  H    0.000102   0.432469  -0.025735   0.474917  -0.016934
    29  H   -0.000046   0.389918  -0.026489  -0.016934   0.515937
 Mulliken charges:
               1
     1  O   -0.376832
     2  O   -0.373734
     3  N   -0.230195
     4  H    0.289118
     5  C   -0.107507
     6  C    0.277942
     7  C    0.202394
     8  C    0.169809
     9  C   -0.286066
    10  H    0.162606
    11  H    0.172569
    12  C   -0.151260
    13  C    0.157196
    14  C   -0.433222
    15  H    0.131853
    16  H    0.169990
    17  H    0.179897
    18  C   -0.463999
    19  H    0.165100
    20  H    0.170820
    21  H    0.150250
    22  C   -0.494994
    23  H    0.158569
    24  H    0.180394
    25  H    0.158242
    26  C   -0.506786
    27  H    0.171544
    28  H    0.199588
    29  H    0.156714
 Sum of Mulliken charges =  -0.00000
 Mulliken charges with hydrogens summed into heavy atoms:
               1
     1  O   -0.376832
     2  O   -0.373734
     3  N    0.058923
     5  C   -0.107507
     6  C    0.277942
     7  C    0.202394
     8  C    0.169809
     9  C    0.049109
    12  C   -0.151260
    13  C    0.157196
    14  C    0.048519
    18  C    0.022171
    22  C    0.002211
    26  C    0.021059
 Electronic spatial extent (au):  <R**2>=           3195.9983
 Charge=             -0.0000 electrons
 Dipole moment (field-independent basis, Debye):
    X=             -3.6150    Y=              7.3730    Z=             -0.3017  Tot=              8.2171
 Quadrupole moment (field-independent basis, Debye-Ang):
   XX=            -96.4562   YY=            -78.5558   ZZ=            -84.8812
   XY=            -13.4781   XZ=             -4.7485   YZ=             -1.2555
 Traceless Quadrupole moment (field-independent basis, Debye-Ang):
   XX=             -9.8251   YY=              8.0752   ZZ=              1.7499
   XY=            -13.4781   XZ=             -4.7485   YZ=             -1.2555
 Octapole moment (field-independent basis, Debye-Ang**2):
  XXX=           -102.9507  YYY=             63.7718  ZZZ=              2.4461  XYY=             37.4907
  XXY=             29.1166  XXZ=             -9.9562  XZZ=             -2.3046  YZZ=             -1.0599
  YYZ=              2.6265  XYZ=              4.1335
 Hexadecapole moment (field-independent basis, Debye-Ang**3):
 XXXX=          -3028.8398 YYYY=          -1271.3436 ZZZZ=           -149.1725 XXXY=            -48.2904
 XXXZ=            -59.6572 YYYX=            -95.1446 YYYZ=            -20.1923 ZZZX=              3.7622
 ZZZY=              4.9870 XXYY=           -684.6328 XXZZ=           -487.6068 YYZZ=           -239.2531
 XXYZ=             -3.5290 YYXZ=             -4.8522 ZZXY=              0.2815
 N-N= 9.003548895784D+02 E-N=-3.276876092037D+03  KE= 6.307010317699D+02
 No NMR shielding tensors so no spin-rotation constants.
 Leave Link  601 at Sat Jan 24 23:40:24 2026, MaxMem=  2147483648 cpu:               1.8 elap:               0.1
 (Enter /data/home/wyx/g16/l9999.exe)
 1\1\GINC-CN015\SP\RCAM-B3LYP\TZVP\C11H15N1O2\WYX\24-Jan-2026\0\\#p CAM
 -B3LYP TZVP em=gd3bj scrf=(Solvent=Water,NonEquilibrium=Read) Geom=Che
 ck Guess=Read\\Title Card Required\\0,1\O,0,2.752819,-1.558423,0.71453
 6\O,0,-3.271583,-1.647854,-1.027699\N,0,-0.694759,1.518226,0.077759\H,
 0,-1.001005,2.475031,0.010874\C,0,-1.243798,-0.760528,-0.157247\C,0,0.
 649528,1.303463,0.249896\C,0,-1.613387,0.540424,-0.241145\C,0,-2.15341
 9,-1.826261,-0.510182\C,0,0.118796,-1.114629,0.38823\H,0,0.035008,-1.4
 73102,1.421925\H,0,0.542304,-1.947697,-0.169951\C,0,1.103799,0.030494,
 0.337596\C,0,2.497544,-0.38275,0.461657\C,0,-2.939548,1.075219,-0.6543
 13\H,0,-3.13435,2.046966,-0.196701\H,0,-2.994408,1.202292,-1.736857\H,
 0,-3.764154,0.421081,-0.382928\C,0,-1.764189,-3.25017,-0.240751\H,0,-2
 .628135,-3.911567,-0.192663\H,0,-1.115871,-3.6297,-1.035619\H,0,-1.209
 467,-3.37622,0.689314\C,0,3.657152,0.559698,0.256052\H,0,3.506389,1.24
 9979,-0.569631\H,0,3.838048,1.14504,1.158854\H,0,4.540033,-0.046037,0.
 066572\C,0,1.428075,2.581959,0.311575\H,0,2.232626,2.543483,1.036267\H
 ,0,1.853156,2.827622,-0.662359\H,0,0.772795,3.403962,0.596939\\Version
 =ES64L-G16RevA.03\State=1-A\HF=-633.3279913\RMSD=4.375e-09\Dipole=0.31
 7406,3.2135649,0.1533268\Quadrupole=-10.3015671,10.8880612,-0.586494,3
 .3603202,-5.9534037,0.2312268\PG=C01 [X(C11H15N1O2)]\\@



 WE LOSE BECAUSE WE WIN

 GAMBLERS,

 RECOLLECTING WHICH,

 TOSS THEIR DICE AGAIN....


                          EMILY DICKINSON  BOLTS OF MELODY NO. 533
 Job cpu time:       0 days  0 hours 13 minutes 54.9 seconds.
 Elapsed time:       0 days  0 hours  0 minutes 53.2 seconds.
 File lengths (MBytes):  RWF=    342 Int=      0 D2E=      0 Chk=     67 Scr=      1
 Normal termination of Gaussian 16 at Sat Jan 24 23:40:24 2026.
