 Entering Gaussian System, Link 0=g16
 Input=DDL-LR-2.gjf
 Output=DDL-LR-2.log
 Initial command:
 /data/home/wyx/g16/l1.exe "/scr/tmp/wyx/13119/Gau-1508529.inp" -scrdir="/scr/tmp/wyx/13119/"
 Entering Link 1 = /data/home/wyx/g16/l1.exe PID=   1508530.
  
 Copyright (c) 1988,1990,1992,1993,1995,1998,2003,2009,2016,
            Gaussian, Inc.  All Rights Reserved.
  
 This is part of the Gaussian(R) 16 program.  It is based on
 the Gaussian(R) 09 system (copyright 2009, Gaussian, Inc.),
 the Gaussian(R) 03 system (copyright 2003, Gaussian, Inc.),
 the Gaussian(R) 98 system (copyright 1998, Gaussian, Inc.),
 the Gaussian(R) 94 system (copyright 1995, Gaussian, Inc.),
 the Gaussian 92(TM) system (copyright 1992, Gaussian, Inc.),
 the Gaussian 90(TM) system (copyright 1990, Gaussian, Inc.),
 the Gaussian 88(TM) system (copyright 1988, Gaussian, Inc.),
 the Gaussian 86(TM) system (copyright 1986, Carnegie Mellon
 University), and the Gaussian 82(TM) system (copyright 1983,
 Carnegie Mellon University). Gaussian is a federally registered
 trademark of Gaussian, Inc.
  
 This software contains proprietary and confidential information,
 including trade secrets, belonging to Gaussian, Inc.
  
 This software is provided under written license and may be
 used, copied, transmitted, or stored only in accord with that
 written license.
  
 The following legend is applicable only to US Government
 contracts under FAR:
  
                    RESTRICTED RIGHTS LEGEND
  
 Use, reproduction and disclosure by the US Government is
 subject to restrictions as set forth in subparagraphs (a)
 and (c) of the Commercial Computer Software - Restricted
 Rights clause in FAR 52.227-19.
  
 Gaussian, Inc.
 340 Quinnipiac St., Bldg. 40, Wallingford CT 06492
  
  
 ---------------------------------------------------------------
 Warning -- This program may not be used in any manner that
 competes with the business of Gaussian, Inc. or will provide
 assistance to any competitor of Gaussian, Inc.  The licensee
 of this program is prohibited from giving any competitor of
 Gaussian, Inc. access to this program.  By using this program,
 the user acknowledges that Gaussian, Inc. is engaged in the
 business of creating and licensing software in the field of
 computational chemistry and represents and warrants to the
 licensee that it is not a competitor of Gaussian, Inc. and that
 it will not use this program in any manner prohibited above.
 ---------------------------------------------------------------
  

 Cite this work as:
 Gaussian 16, Revision A.03,
 M. J. Frisch, G. W. Trucks, H. B. Schlegel, G. E. Scuseria, 
 M. A. Robb, J. R. Cheeseman, G. Scalmani, V. Barone, 
 G. A. Petersson, H. Nakatsuji, X. Li, M. Caricato, A. V. Marenich, 
 J. Bloino, B. G. Janesko, R. Gomperts, B. Mennucci, H. P. Hratchian, 
 J. V. Ortiz, A. F. Izmaylov, J. L. Sonnenberg, D. Williams-Young, 
 F. Ding, F. Lipparini, F. Egidi, J. Goings, B. Peng, A. Petrone, 
 T. Henderson, D. Ranasinghe, V. G. Zakrzewski, J. Gao, N. Rega, 
 G. Zheng, W. Liang, M. Hada, M. Ehara, K. Toyota, R. Fukuda, 
 J. Hasegawa, M. Ishida, T. Nakajima, Y. Honda, O. Kitao, H. Nakai, 
 T. Vreven, K. Throssell, J. A. Montgomery, Jr., J. E. Peralta, 
 F. Ogliaro, M. J. Bearpark, J. J. Heyd, E. N. Brothers, K. N. Kudin, 
 V. N. Staroverov, T. A. Keith, R. Kobayashi, J. Normand, 
 K. Raghavachari, A. P. Rendell, J. C. Burant, S. S. Iyengar, 
 J. Tomasi, M. Cossi, J. M. Millam, M. Klene, C. Adamo, R. Cammi, 
 J. W. Ochterski, R. L. Martin, K. Morokuma, O. Farkas, 
 J. B. Foresman, and D. J. Fox, Gaussian, Inc., Wallingford CT, 2016.
 
 ******************************************
 Gaussian 16:  ES64L-G16RevA.03 25-Dec-2016
                24-Jan-2026 
 ******************************************
 %nprocshared=16
 Will use up to   16 processors via shared memory.
 %mem=16GB
 %chk=DDL-LR-2.chk
 --------------------------------------------------------------------
 #p CAM-B3LYP TZVP em=gd3bj td(nstates=6,root=1) scrf=(Solvent=Water)
 --------------------------------------------------------------------
 1/38=1,172=1/1;
 2/12=2,17=6,18=5,40=1/2;
 3/5=19,7=101,11=9,25=1,30=1,70=2201,72=1,74=-40,124=41/1,2,3,8;
 4//1;
 5/5=2,38=5,53=1/2;
 8/6=1,10=1,107=1,108=6/1;
 9/8=1,41=6,42=1,70=2/14;
 6/7=2,8=2,9=2,10=2/1;
 99/5=1,9=1/99;
 Leave Link    1 at Sat Jan 24 15:33:21 2026, MaxMem=  2147483648 cpu:               0.4 elap:               0.1
 (Enter /data/home/wyx/g16/l101.exe)
 -------------------
 Title Card Required
 -------------------
 Symbolic Z-matrix:
 Charge =  0 Multiplicity = 1
 O                     2.76528  -1.55208   0.6711 
 O                    -3.37827  -1.66089  -0.74365 
 N                    -0.65769   1.52512  -0.07789 
 H                    -0.96875   2.47866  -0.16432 
 C                    -1.23727  -0.77481  -0.17316 
 C                     0.66671   1.31662   0.14976 
 C                    -1.60726   0.53516  -0.29187 
 C                    -2.14633  -1.83153  -0.38829 
 C                     0.17467  -1.13118   0.23127 
 H                     0.17133  -1.61931   1.21156 
 H                     0.58059  -1.87521  -0.45623 
 C                     1.13095   0.04082   0.26986 
 C                     2.51009  -0.36041   0.47996 
 C                    -2.9516    1.06906  -0.62946 
 H                    -3.32106   1.74559   0.14703 
 H                    -2.93844   1.6237   -1.57186 
 H                    -3.69786   0.28252  -0.73973 
 C                    -1.82866  -3.28966  -0.21656 
 H                    -2.53567  -3.7866    0.45144 
 H                    -1.87075  -3.81309  -1.17546 
 H                    -0.83271  -3.43126   0.19403 
 C                     3.67205   0.60413   0.45671 
 H                     3.63876   1.28599  -0.38936 
 H                     3.70017   1.20157   1.36869 
 H                     4.58485   0.01558   0.4073 
 C                     1.44793   2.59473   0.23172 
 H                     2.12869   2.60584   1.07618 
 H                     2.02869   2.76078  -0.67528 
 H                     0.77154   3.44014   0.34652 
 
 ITRead=  0  0  0  0  0  0  0  0  0  0  0  0  0  0  0  0  0  0  0  0
 ITRead=  0  0  0  0  0  0  0  0  0
 MicOpt= -1 -1 -1 -1 -1 -1 -1 -1 -1 -1 -1 -1 -1 -1 -1 -1 -1 -1 -1 -1
 MicOpt= -1 -1 -1 -1 -1 -1 -1 -1 -1
 NAtoms=     29 NQM=       29 NQMF=       0 NMMI=      0 NMMIF=      0
                NMic=       0 NMicF=      0.
                    Isotopes and Nuclear Properties:
 (Nuclear quadrupole moments (NQMom) in fm**2, nuclear magnetic moments (NMagM)
  in nuclear magnetons)

  Atom         1           2           3           4           5           6           7           8           9          10
 IAtWgt=          16          16          14           1          12          12          12          12          12           1
 AtmWgt=  15.9949146  15.9949146  14.0030740   1.0078250  12.0000000  12.0000000  12.0000000  12.0000000  12.0000000   1.0078250
 NucSpn=           0           0           2           1           0           0           0           0           0           1
 AtZEff=  -0.0000000  -0.0000000  -0.0000000  -0.0000000  -0.0000000  -0.0000000  -0.0000000  -0.0000000  -0.0000000  -0.0000000
 NQMom=    0.0000000   0.0000000   2.0440000   0.0000000   0.0000000   0.0000000   0.0000000   0.0000000   0.0000000   0.0000000
 NMagM=    0.0000000   0.0000000   0.4037610   2.7928460   0.0000000   0.0000000   0.0000000   0.0000000   0.0000000   2.7928460
 AtZNuc=   8.0000000   8.0000000   7.0000000   1.0000000   6.0000000   6.0000000   6.0000000   6.0000000   6.0000000   1.0000000

  Atom        11          12          13          14          15          16          17          18          19          20
 IAtWgt=           1          12          12          12           1           1           1          12           1           1
 AtmWgt=   1.0078250  12.0000000  12.0000000  12.0000000   1.0078250   1.0078250   1.0078250  12.0000000   1.0078250   1.0078250
 NucSpn=           1           0           0           0           1           1           1           0           1           1
 AtZEff=  -0.0000000  -0.0000000  -0.0000000  -0.0000000  -0.0000000  -0.0000000  -0.0000000  -0.0000000  -0.0000000  -0.0000000
 NQMom=    0.0000000   0.0000000   0.0000000   0.0000000   0.0000000   0.0000000   0.0000000   0.0000000   0.0000000   0.0000000
 NMagM=    2.7928460   0.0000000   0.0000000   0.0000000   2.7928460   2.7928460   2.7928460   0.0000000   2.7928460   2.7928460
 AtZNuc=   1.0000000   6.0000000   6.0000000   6.0000000   1.0000000   1.0000000   1.0000000   6.0000000   1.0000000   1.0000000

  Atom        21          22          23          24          25          26          27          28          29
 IAtWgt=           1          12           1           1           1          12           1           1           1
 AtmWgt=   1.0078250  12.0000000   1.0078250   1.0078250   1.0078250  12.0000000   1.0078250   1.0078250   1.0078250
 NucSpn=           1           0           1           1           1           0           1           1           1
 AtZEff=  -0.0000000  -0.0000000  -0.0000000  -0.0000000  -0.0000000  -0.0000000  -0.0000000  -0.0000000  -0.0000000
 NQMom=    0.0000000   0.0000000   0.0000000   0.0000000   0.0000000   0.0000000   0.0000000   0.0000000   0.0000000
 NMagM=    2.7928460   0.0000000   2.7928460   2.7928460   2.7928460   0.0000000   2.7928460   2.7928460   2.7928460
 AtZNuc=   1.0000000   6.0000000   1.0000000   1.0000000   1.0000000   6.0000000   1.0000000   1.0000000   1.0000000
 Leave Link  101 at Sat Jan 24 15:33:21 2026, MaxMem=  2147483648 cpu:               0.8 elap:               0.1
 (Enter /data/home/wyx/g16/l202.exe)
                          Input orientation:                          
 ---------------------------------------------------------------------
 Center     Atomic      Atomic             Coordinates (Angstroms)
 Number     Number       Type             X           Y           Z
 ---------------------------------------------------------------------
      1          8           0        2.765276   -1.552081    0.671101
      2          8           0       -3.378269   -1.660889   -0.743654
      3          7           0       -0.657692    1.525118   -0.077892
      4          1           0       -0.968745    2.478655   -0.164321
      5          6           0       -1.237265   -0.774805   -0.173162
      6          6           0        0.666710    1.316623    0.149759
      7          6           0       -1.607258    0.535158   -0.291865
      8          6           0       -2.146328   -1.831526   -0.388286
      9          6           0        0.174666   -1.131178    0.231272
     10          1           0        0.171332   -1.619313    1.211558
     11          1           0        0.580586   -1.875205   -0.456233
     12          6           0        1.130946    0.040823    0.269862
     13          6           0        2.510085   -0.360407    0.479962
     14          6           0       -2.951600    1.069062   -0.629463
     15          1           0       -3.321056    1.745587    0.147031
     16          1           0       -2.938439    1.623698   -1.571860
     17          1           0       -3.697858    0.282521   -0.739733
     18          6           0       -1.828655   -3.289658   -0.216557
     19          1           0       -2.535667   -3.786598    0.451436
     20          1           0       -1.870746   -3.813092   -1.175462
     21          1           0       -0.832708   -3.431256    0.194033
     22          6           0        3.672046    0.604128    0.456707
     23          1           0        3.638762    1.285992   -0.389364
     24          1           0        3.700171    1.201570    1.368688
     25          1           0        4.584846    0.015579    0.407301
     26          6           0        1.447932    2.594731    0.231724
     27          1           0        2.128693    2.605840    1.076185
     28          1           0        2.028694    2.760781   -0.675283
     29          1           0        0.771541    3.440143    0.346516
 ---------------------------------------------------------------------
                    Distance matrix (angstroms):
                    1          2          3          4          5
     1  O    0.000000
     2  O    6.305277   0.000000
     3  N    4.663352   4.242101   0.000000
     4  H    5.557668   4.824651   1.006706   0.000000
     5  C    4.163805   2.386316   2.373737   3.264534   0.000000
     6  C    3.592386   5.101531   1.359903   2.030684   2.846659
     7  C    4.939932   2.857134   1.388337   2.049670   1.366378
     8  C    5.032320   1.293477   3.685029   4.473759   1.410437
     9  C    2.661178   3.722153   2.800770   3.807201   1.511330
    10  H    2.650502   4.052684   3.498201   4.470588   2.148206
    11  H    2.479549   3.975057   3.638498   4.630522   2.143733
    12  C    2.317190   4.925044   2.350168   3.246574   2.543608
    13  C    1.233590   6.153146   3.728434   4.536257   3.826347
    14  C    6.422190   2.765451   2.402963   2.476898   2.558711
    15  H    6.942096   3.521459   2.681922   2.483485   3.285892
    16  H    6.902812   3.415829   2.728271   2.567452   3.256250
    17  H    6.865007   1.969516   3.350327   3.549952   2.737418
    18  C    4.991123   2.309117   4.957061   5.832290   2.583817
    19  H    5.756849   2.580089   5.658737   6.487511   3.338692
    20  H    5.478564   2.662905   5.583247   6.436000   3.261455
    21  H    4.087099   3.239342   4.966912   5.922328   2.712053
    22  C    2.348922   7.501874   4.458772   5.043458   5.138047
    23  H    3.153129   7.618947   4.314361   4.764684   5.298044
    24  H    2.990527   7.922119   4.603069   5.077385   5.537295
    25  H    2.416192   8.218664   5.477073   6.102120   5.904119
    26  C    4.373156   6.507986   2.381929   2.451663   4.327585
    27  H    4.225830   7.200238   3.203716   3.339035   4.931460
    28  H    4.577781   6.985062   3.016688   3.053738   4.839316
    29  H    5.385409   6.665577   2.426963   2.052805   4.697995
                    6          7          8          9         10
     6  C    0.000000
     7  C    2.444719   0.000000
     8  C    4.255998   2.429215   0.000000
     9  C    2.498096   2.495115   2.502269   0.000000
    10  H    3.161097   3.172603   2.824196   1.095102   0.000000
    11  H    3.249986   3.259375   2.728110   1.091334   1.736231
    12  C    1.362940   2.838603   3.831367   1.513125   2.136282
    13  C    2.513861   4.283721   4.959862   2.471865   2.754967
    14  C    3.709534   1.485356   3.019940   3.918604   4.513250
    15  H    4.010772   2.143565   3.802931   4.528018   4.965133
    16  H    4.006915   2.143677   3.737226   4.531230   5.285377
    17  H    4.572747   2.152910   2.645743   4.235308   4.732350
    18  C    5.251558   3.831958   1.502184   2.978738   2.971450
    19  H    6.032337   4.482412   2.163105   3.800741   3.550036
    20  H    5.874425   4.444935   2.149929   3.654487   3.831529
    21  H    4.979214   4.070438   2.150309   2.511284   2.307941
    22  C    3.103854   5.332557   6.363953   3.910726   4.215268
    23  H    3.020709   5.300376   6.571620   4.269410   4.798627
    24  H    3.271225   5.600923   6.816757   4.377741   4.520484
    25  H    4.136524   6.253075   7.025202   4.560233   4.774810
    26  C    1.500195   3.721582   5.735405   3.937462   4.510870
    27  H    2.158180   4.485155   6.333301   4.300861   4.658488
    28  H    2.149718   4.280252   6.213088   4.405293   5.118123
    29  H    2.135191   3.808563   6.069958   4.611563   5.167847
                   11         12         13         14         15
    11  H    0.000000
    12  C    2.121620   0.000000
    13  C    2.625650   1.451603   0.000000
    14  C    4.601636   4.305025   5.753626   0.000000
    15  H    5.356946   4.768818   6.208724   1.094133   0.000000
    16  H    5.086303   4.738916   6.150858   1.093575   1.765174
    17  H    4.800129   4.939134   6.359211   1.089820   1.751825
    18  C    2.804026   4.481958   5.281128   4.519949   5.264328
    19  H    3.766739   5.303411   6.099116   4.991871   5.595942
    20  H    3.206513   5.094289   5.818345   5.030088   5.895023
    21  H    2.200350   3.989614   4.548201   5.041896   5.744022
    22  C    4.066654   2.609485   1.510305   6.728196   7.092412
    23  H    4.398872   2.876485   2.177216   6.598301   6.995571
    24  H    4.746440   3.025834   2.155437   6.946670   7.147449
    25  H    4.511635   3.456726   2.109805   7.680021   8.097157
    26  C    4.604987   2.573787   3.150021   4.735524   4.844736
    27  H    4.982440   2.867921   3.049518   5.574971   5.594920
    28  H    4.861827   3.016193   3.362758   5.259975   5.506963
    29  H    5.379014   3.419126   4.181450   4.520657   4.434035
                   16         17         18         19         20
    16  H    0.000000
    17  H    1.751545   0.000000
    18  C    5.216276   4.065476   0.000000
    19  H    5.790272   4.396283   1.092259   0.000000
    20  H    5.554798   4.505801   1.093277   1.757731   0.000000
    21  H    5.753698   4.782587   1.086529   1.758577   1.760352
    22  C    6.989501   7.473311   6.772929   7.603565   7.273125
    23  H    6.691182   7.413212   7.131555   8.035029   7.548065
    24  H    7.272974   7.747317   7.297400   8.037963   7.915469
    25  H    7.943736   8.366010   7.242015   8.072187   7.670628
    26  C    4.841082   5.724439   6.750038   7.525868   7.352142
    27  H    5.801084   6.530242   7.217249   7.937873   7.891015
    28  H    5.173898   6.240138   7.190089   8.060463   7.659740
    29  H    4.554513   5.579072   7.236594   7.948234   7.868133
                   21         22         23         24         25
    21  H    0.000000
    22  C    6.053605   0.000000
    23  H    6.525858   1.087144   0.000000
    24  H    6.587100   1.090613   1.761149   0.000000
    25  H    6.424644   1.087214   1.773048   1.764508   0.000000
    26  C    6.443234   2.993293   2.626458   2.882042   4.064859
    27  H    6.781933   2.602411   2.483977   2.127692   3.631741
    28  H    6.876384   2.938224   2.202061   3.066397   3.904105
    29  H    7.057832   4.058085   3.660989   3.825300   5.125683
                   26         27         28         29
    26  C    0.000000
    27  H    1.084746   0.000000
    28  H    1.089733   1.761149   0.000000
    29  H    1.088762   1.752239   1.756713   0.000000
 Stoichiometry    C11H15NO2
 Framework group  C1[X(C11H15NO2)]
 Deg. of freedom    81
 Full point group                 C1      NOp   1
 Largest Abelian subgroup         C1      NOp   1
 Largest concise Abelian subgroup C1      NOp   1
                         Standard orientation:                         
 ---------------------------------------------------------------------
 Center     Atomic      Atomic             Coordinates (Angstroms)
 Number     Number       Type             X           Y           Z
 ---------------------------------------------------------------------
      1          8           0       -2.258298   -2.312594   -0.085059
      2          8           0        3.672753   -0.186784    0.160064
      3          7           0       -0.065413    1.802997   -0.089550
      4          1           0       -0.100512    2.809081   -0.093943
      5          6           0        1.294374   -0.141728   -0.029121
      6          6           0       -1.249653    1.135186   -0.058881
      7          6           0        1.193321    1.220900   -0.024480
      8          6           0        2.539489   -0.799949    0.046826
      9          6           0        0.052646   -0.994612   -0.150847
     10          1           0        0.067302   -1.544058   -1.098023
     11          1           0        0.053129   -1.762815    0.624313
     12          6           0       -1.247707   -0.227712   -0.048410
     13          6           0       -2.411627   -1.092750    0.016012
     14          6           0        2.299299    2.210412    0.038448
     15          1           0        2.274434    2.894528   -0.815071
     16          1           0        2.245965    2.815080    0.948084
     17          1           0        3.282067    1.739409    0.033025
     18          6           0        2.732272   -2.288436   -0.014811
     19          1           0        3.449557   -2.576563   -0.786508
     20          1           0        3.112293   -2.671733    0.935937
     21          1           0        1.797215   -2.799378   -0.227298
     22          6           0       -3.818321   -0.584006    0.224368
     23          1           0       -3.889428    0.146240    1.026595
     24          1           0       -4.203865   -0.122231   -0.685333
     25          1           0       -4.444077   -1.440574    0.462604
     26          6           0       -2.433160    2.056781   -0.035197
     27          1           0       -3.202535    1.754385   -0.737545
     28          1           0       -2.878453    2.101324    0.958407
     29          1           0       -2.126429    3.066834   -0.301867
 ---------------------------------------------------------------------
 Rotational constants (GHZ):           1.1006672           0.4810009           0.3390931
 Leave Link  202 at Sat Jan 24 15:33:21 2026, MaxMem=  2147483648 cpu:               0.0 elap:               0.0
 (Enter /data/home/wyx/g16/l301.exe)
 Standard basis: TZVP (5D, 7F)
 Ernie: Thresh=  0.10000D-02 Tol=  0.10000D-05 Strict=F.
 There are   370 symmetry adapted cartesian basis functions of A   symmetry.
 There are   356 symmetry adapted basis functions of A   symmetry.
   356 basis functions,   610 primitive gaussians,   370 cartesian basis functions
    52 alpha electrons       52 beta electrons
       nuclear repulsion energy       898.1665131619 Hartrees.
 IExCor=20419 DFT=T Ex+Corr=CAM-B3LYP ExCW=0 ScaHFX=  1.000000
 ScaDFX=  1.000000  1.000000  1.000000  0.810000 ScalE2=  1.000000  1.000000
 IRadAn=      5 IRanWt=     -1 IRanGd=            0 ICorTp=0 IEmpDi=141
 HFx  wShort=  0.000000 wLong=  0.330000 cFull=  0.190000 cShort=  0.000000 cLong=  0.460000
 DFx  wShort=  0.000000 wLong=  0.330000 cFull=  0.190000 cShort=  0.000000 cLong=  0.460000
 NAtoms=   29 NActive=   29 NUniq=   29 SFac= 1.00D+00 NAtFMM=   60 NAOKFM=F Big=F
 Integral buffers will be    131072 words long.
 Raffenetti 1 integral format.
 Two-electron integral symmetry is turned on.
 R6Disp:  Grimme-D3(BJ) Dispersion energy=       -0.0260648157 Hartrees.
 Nuclear repulsion after empirical dispersion term =      898.1404483462 Hartrees.
 ------------------------------------------------------------------------------
 Polarizable Continuum Model (PCM)
 =================================
 Model                : PCM.
 Atomic radii         : UFF (Universal Force Field).
 Polarization charges : Total charges.
 Charge compensation  : None.
 Solution method      : On-the-fly selection.
 Cavity type          : Scaled VdW (van der Waals Surface) (Alpha=1.100).
 Cavity algorithm     : GePol (No added spheres)
                        Default sphere list used, NSphG=   29.
                        Lebedev-Laikov grids with approx.  5.0 points / Ang**2.
                        Smoothing algorithm: York/Karplus (Gamma=1.0000).
                        Polarization charges: spherical gaussians, with
                                              point-specific exponents (IZeta= 3).
                        Self-potential: point-specific (ISelfS= 7).
                        Self-field    : sphere-specific E.n sum rule (ISelfD= 2).
 Solvent              : Water, Eps=  78.355300 Eps(inf)=   1.777849
 ------------------------------------------------------------------------------
 GePol: Number of generator spheres                  =      29
 GePol: Total number of spheres                      =      29
 GePol: Number of exposed spheres                    =      29 (100.00%)
 GePol: Number of points                             =    2110
 GePol: Average weight of points                     =       0.13
 GePol: Minimum weight of points                     =   0.12D-11
 GePol: Maximum weight of points                     =    0.20577
 GePol: Number of points with low weight             =     128
 GePol: Fraction of low-weight points (<1% of avg)   =       6.07%
 GePol: Cavity surface area                          =    269.495 Ang**2
 GePol: Cavity volume                                =    286.931 Ang**3
 Leave Link  301 at Sat Jan 24 15:33:21 2026, MaxMem=  2147483648 cpu:               0.6 elap:               0.0
 (Enter /data/home/wyx/g16/l302.exe)
 NPDir=0 NMtPBC=     1 NCelOv=     1 NCel=       1 NClECP=     1 NCelD=      1
         NCelK=      1 NCelE2=     1 NClLst=     1 CellRange=     0.0.
 One-electron integrals computed using PRISM.
 One-electron integral symmetry used in STVInt
 NBasis=   356 RedAO= T EigKep=  3.83D-05  NBF=   356
 NBsUse=   356 1.00D-06 EigRej= -1.00D+00 NBFU=   356
 Precomputing XC quadrature grid using
 IXCGrd= 4 IRadAn=           5 IRanWt=          -1 IRanGd=           0 AccXCQ= 0.00D+00.
 Generated NRdTot=       0 NPtTot=           0 NUsed=           0 NTot=          32
 NSgBfM=   366   366   366   366   366 MxSgAt=    29 MxSgA2=    29.
 Leave Link  302 at Sat Jan 24 15:33:22 2026, MaxMem=  2147483648 cpu:               3.1 elap:               0.2
 (Enter /data/home/wyx/g16/l303.exe)
 DipDrv:  MaxL=1.
 Leave Link  303 at Sat Jan 24 15:33:22 2026, MaxMem=  2147483648 cpu:               0.6 elap:               0.0
 (Enter /data/home/wyx/g16/l308.exe)
 Leave Link  308 at Sat Jan 24 15:33:22 2026, MaxMem=  2147483648 cpu:               0.7 elap:               0.1
 (Enter /data/home/wyx/g16/l401.exe)
 ExpMin= 9.52D-02 ExpMax= 2.70D+04 ExpMxC= 9.22D+02 IAcc=3 IRadAn=         5 AccDes= 0.00D+00
 Harris functional with IExCor=20419 and IRadAn=       5 diagonalized for initial guess.
 HarFok:  IExCor=20419 AccDes= 0.00D+00 IRadAn=         5 IDoV= 1 UseB2=F ITyADJ=14
 ICtDFT=  3500011 ScaDFX=  1.000000  1.000000  1.000000  1.000000
 FoFCou: FMM=F IPFlag=           0 FMFlag=      100000 FMFlg1=           0
         NFxFlg=           0 DoJE=T BraDBF=F KetDBF=T FulRan=T
         wScrn=  0.000000 ICntrl=       500 IOpCl=  0 I1Cent=   200000004 NGrid=           0
         NMat0=    1 NMatS0=      1 NMatT0=    0 NMatD0=    1 NMtDS0=    0 NMtDT0=    0
 Petite list used in FoFCou.
 Harris En= -608.709636751548    
 JPrj=0 DoOrth=F DoCkMO=F.
 Leave Link  401 at Sat Jan 24 15:33:23 2026, MaxMem=  2147483648 cpu:              11.7 elap:               0.7
 (Enter /data/home/wyx/g16/l502.exe)
 Integral symmetry usage will be decided dynamically.
 Closed shell SCF:
 Using DIIS extrapolation, IDIIS=  1040.
 NGot=  2147483648 LenX=  2147200095 LenY=  2147062754
 Requested convergence on RMS density matrix=1.00D-08 within 128 cycles.
 Requested convergence on MAX density matrix=1.00D-06.
 Requested convergence on             energy=1.00D-06.
 No special actions if energy rises.
 Fock matrices will be formed incrementally for  20 cycles.

 Cycle   1  Pass 1  IDiag  1:
 FoFJK:  IHMeth= 1 ICntrl=       0 DoSepK=T KAlg= 0 I1Cent=           0 FoldK=F
 IRaf=         1 NMat=       1 IRICut=       1 DoRegI=T DoRafI=F ISym2E= 0 IDoP0=0 IntGTp=1.
 FoFCou: FMM=F IPFlag=           0 FMFlag=      100000 FMFlg1=           0
         NFxFlg=           0 DoJE=T BraDBF=F KetDBF=F FulRan=T
         wScrn=  0.000000 ICntrl=       500 IOpCl=  0 I1Cent=           0 NGrid=           0
         NMat0=    1 NMatS0=      1 NMatT0=    0 NMatD0=    1 NMtDS0=    0 NMtDT0=    0
 Symmetry not used in FoFCou.
 Inv3:  Mode=1 IEnd=    13356300.
 Iteration    1 A*A^-1 deviation from unit magnitude is 3.33D-15 for   1757.
 Iteration    1 A*A^-1 deviation from orthogonality  is 2.19D-15 for   1393      2.
 Iteration    1 A^-1*A deviation from unit magnitude is 3.33D-15 for   1757.
 Iteration    1 A^-1*A deviation from orthogonality  is 5.53D-15 for   1394   1393.
 E= -633.118295802506    
 DIIS: error= 4.33D-02 at cycle   1 NSaved=   1.
 NSaved= 1 IEnMin= 1 EnMin= -633.118295802506     IErMin= 1 ErrMin= 4.33D-02
 ErrMax= 4.33D-02  0.00D+00 EMaxC= 1.00D-01 BMatC= 1.10D+00 BMatP= 1.10D+00
 IDIUse=3 WtCom= 5.67D-01 WtEn= 4.33D-01
 Coeff-Com:  0.100D+01
 Coeff-En:   0.100D+01
 Coeff:      0.100D+01
 Gap=     0.218 Goal=   None    Shift=    0.000
 GapD=    0.218 DampG=1.000 DampE=0.500 DampFc=0.5000 IDamp=-1.
 Damping current iteration by 5.00D-01
 RMSDP=4.09D-03 MaxDP=2.38D-01              OVMax= 1.46D-01

 Cycle   2  Pass 1  IDiag  1:
 RMSU=  1.74D-03    CP:  9.25D-01
 E= -633.215026672384     Delta-E=       -0.096730869879 Rises=F Damp=T
 DIIS: error= 1.98D-02 at cycle   2 NSaved=   2.
 NSaved= 2 IEnMin= 2 EnMin= -633.215026672384     IErMin= 2 ErrMin= 1.98D-02
 ErrMax= 1.98D-02  0.00D+00 EMaxC= 1.00D-01 BMatC= 2.23D-01 BMatP= 1.10D+00
 IDIUse=3 WtCom= 8.02D-01 WtEn= 1.98D-01
 Coeff-Com: -0.592D+00 0.159D+01
 Coeff-En:   0.000D+00 0.100D+01
 Coeff:     -0.474D+00 0.147D+01
 Gap=     0.232 Goal=   None    Shift=    0.000
 RMSDP=1.51D-03 MaxDP=4.56D-02 DE=-9.67D-02 OVMax= 1.35D-01

 Cycle   3  Pass 1  IDiag  1:
 RMSU=  1.44D-03    CP:  9.08D-01  1.20D+00
 E= -633.266583934969     Delta-E=       -0.051557262585 Rises=F Damp=F
 DIIS: error= 1.42D-02 at cycle   3 NSaved=   3.
 NSaved= 3 IEnMin= 3 EnMin= -633.266583934969     IErMin= 3 ErrMin= 1.42D-02
 ErrMax= 1.42D-02  0.00D+00 EMaxC= 1.00D-01 BMatC= 6.15D-02 BMatP= 2.23D-01
 IDIUse=3 WtCom= 8.58D-01 WtEn= 1.42D-01
 Coeff-Com: -0.359D+00 0.788D+00 0.571D+00
 Coeff-En:   0.000D+00 0.000D+00 0.100D+01
 Coeff:     -0.308D+00 0.676D+00 0.632D+00
 Gap=     0.230 Goal=   None    Shift=    0.000
 RMSDP=1.54D-03 MaxDP=1.01D-01 DE=-5.16D-02 OVMax= 7.65D-02

 Cycle   4  Pass 1  IDiag  1:
 RMSU=  5.19D-04    CP:  8.50D-01  1.74D+00  4.95D-01
 E= -633.311955904547     Delta-E=       -0.045371969578 Rises=F Damp=F
 DIIS: error= 4.30D-03 at cycle   4 NSaved=   4.
 NSaved= 4 IEnMin= 4 EnMin= -633.311955904547     IErMin= 4 ErrMin= 4.30D-03
 ErrMax= 4.30D-03  0.00D+00 EMaxC= 1.00D-01 BMatC= 7.73D-03 BMatP= 6.15D-02
 IDIUse=3 WtCom= 9.57D-01 WtEn= 4.30D-02
 Coeff-Com: -0.165D+00 0.358D+00 0.371D+00 0.436D+00
 Coeff-En:   0.000D+00 0.000D+00 0.448D-01 0.955D+00
 Coeff:     -0.158D+00 0.342D+00 0.357D+00 0.458D+00
 Gap=     0.225 Goal=   None    Shift=    0.000
 RMSDP=4.19D-04 MaxDP=2.81D-02 DE=-4.54D-02 OVMax= 1.66D-02

 Cycle   5  Pass 1  IDiag  1:
 RMSU=  9.84D-05    CP:  8.65D-01  1.64D+00  6.50D-01  6.24D-01
 E= -633.317856745574     Delta-E=       -0.005900841027 Rises=F Damp=F
 DIIS: error= 4.80D-04 at cycle   5 NSaved=   5.
 NSaved= 5 IEnMin= 5 EnMin= -633.317856745574     IErMin= 5 ErrMin= 4.80D-04
 ErrMax= 4.80D-04  0.00D+00 EMaxC= 1.00D-01 BMatC= 8.64D-05 BMatP= 7.73D-03
 IDIUse=3 WtCom= 9.95D-01 WtEn= 4.80D-03
 Coeff-Com: -0.367D-01 0.788D-01 0.957D-01 0.168D+00 0.695D+00
 Coeff-En:   0.000D+00 0.000D+00 0.000D+00 0.000D+00 0.100D+01
 Coeff:     -0.366D-01 0.784D-01 0.952D-01 0.167D+00 0.696D+00
 Gap=     0.225 Goal=   None    Shift=    0.000
 RMSDP=1.44D-04 MaxDP=9.38D-03 DE=-5.90D-03 OVMax= 2.43D-03

 Cycle   6  Pass 1  IDiag  1:
 RMSU=  5.63D-05    CP:  8.59D-01  1.68D+00  6.43D-01  7.66D-01  1.02D+00
 E= -633.317908396614     Delta-E=       -0.000051651040 Rises=F Damp=F
 DIIS: error= 4.61D-04 at cycle   6 NSaved=   6.
 NSaved= 6 IEnMin= 6 EnMin= -633.317908396614     IErMin= 6 ErrMin= 4.61D-04
 ErrMax= 4.61D-04  0.00D+00 EMaxC= 1.00D-01 BMatC= 2.75D-05 BMatP= 8.64D-05
 IDIUse=3 WtCom= 9.95D-01 WtEn= 4.61D-03
 Coeff-Com:  0.177D-01-0.386D-01-0.311D-01-0.943D-02 0.414D+00 0.648D+00
 Coeff-En:   0.000D+00 0.000D+00 0.000D+00 0.000D+00 0.153D+00 0.847D+00
 Coeff:      0.176D-01-0.385D-01-0.309D-01-0.938D-02 0.413D+00 0.649D+00
 Gap=     0.226 Goal=   None    Shift=    0.000
 RMSDP=3.06D-05 MaxDP=2.09D-03 DE=-5.17D-05 OVMax= 3.18D-03

 Cycle   7  Pass 1  IDiag  1:
 RMSU=  1.92D-05    CP:  8.59D-01  1.68D+00  6.50D-01  7.58D-01  1.17D+00
                    CP:  7.56D-01
 E= -633.317934704740     Delta-E=       -0.000026308126 Rises=F Damp=F
 DIIS: error= 3.44D-05 at cycle   7 NSaved=   7.
 NSaved= 7 IEnMin= 7 EnMin= -633.317934704740     IErMin= 7 ErrMin= 3.44D-05
 ErrMax= 3.44D-05  0.00D+00 EMaxC= 1.00D-01 BMatC= 9.94D-07 BMatP= 2.75D-05
 IDIUse=1 WtCom= 1.00D+00 WtEn= 0.00D+00
 Coeff-Com:  0.452D-02-0.976D-02-0.899D-02-0.113D-01 0.890D-02 0.159D+00
 Coeff-Com:  0.857D+00
 Coeff:      0.452D-02-0.976D-02-0.899D-02-0.113D-01 0.890D-02 0.159D+00
 Coeff:      0.857D+00
 Gap=     0.226 Goal=   None    Shift=    0.000
 RMSDP=1.73D-05 MaxDP=1.08D-03 DE=-2.63D-05 OVMax= 7.10D-04

 Cycle   8  Pass 1  IDiag  1:
 RMSU=  6.77D-06    CP:  8.59D-01  1.68D+00  6.50D-01  7.75D-01  1.21D+00
                    CP:  8.86D-01  9.82D-01
 E= -633.317936155943     Delta-E=       -0.000001451203 Rises=F Damp=F
 DIIS: error= 2.02D-05 at cycle   8 NSaved=   8.
 NSaved= 8 IEnMin= 8 EnMin= -633.317936155943     IErMin= 8 ErrMin= 2.02D-05
 ErrMax= 2.02D-05  0.00D+00 EMaxC= 1.00D-01 BMatC= 2.14D-07 BMatP= 9.94D-07
 IDIUse=1 WtCom= 1.00D+00 WtEn= 0.00D+00
 Coeff-Com: -0.242D-03 0.594D-03-0.898D-04-0.510D-02-0.649D-01-0.888D-02
 Coeff-Com:  0.385D+00 0.694D+00
 Coeff:     -0.242D-03 0.594D-03-0.898D-04-0.510D-02-0.649D-01-0.888D-02
 Coeff:      0.385D+00 0.694D+00
 Gap=     0.226 Goal=   None    Shift=    0.000
 RMSDP=6.72D-06 MaxDP=3.33D-04 DE=-1.45D-06 OVMax= 3.96D-04

 Cycle   9  Pass 1  IDiag  1:
 RMSU=  2.86D-06    CP:  8.58D-01  1.68D+00  6.50D-01  7.80D-01  1.23D+00
                    CP:  9.13D-01  1.10D+00  9.52D-01
 E= -633.317936437316     Delta-E=       -0.000000281373 Rises=F Damp=F
 DIIS: error= 1.04D-05 at cycle   9 NSaved=   9.
 NSaved= 9 IEnMin= 9 EnMin= -633.317936437316     IErMin= 9 ErrMin= 1.04D-05
 ErrMax= 1.04D-05  0.00D+00 EMaxC= 1.00D-01 BMatC= 3.98D-08 BMatP= 2.14D-07
 IDIUse=1 WtCom= 1.00D+00 WtEn= 0.00D+00
 Coeff-Com: -0.901D-03 0.198D-02 0.162D-02-0.419D-03-0.323D-01-0.244D-01
 Coeff-Com:  0.186D-01 0.333D+00 0.703D+00
 Coeff:     -0.901D-03 0.198D-02 0.162D-02-0.419D-03-0.323D-01-0.244D-01
 Coeff:      0.186D-01 0.333D+00 0.703D+00
 Gap=     0.226 Goal=   None    Shift=    0.000
 RMSDP=2.52D-06 MaxDP=1.49D-04 DE=-2.81D-07 OVMax= 1.74D-04

 Cycle  10  Pass 1  IDiag  1:
 RMSU=  9.49D-07    CP:  8.58D-01  1.68D+00  6.49D-01  7.82D-01  1.23D+00
                    CP:  9.34D-01  1.12D+00  1.14D+00  8.21D-01
 E= -633.317936484099     Delta-E=       -0.000000046783 Rises=F Damp=F
 DIIS: error= 3.20D-06 at cycle  10 NSaved=  10.
 NSaved=10 IEnMin=10 EnMin= -633.317936484099     IErMin=10 ErrMin= 3.20D-06
 ErrMax= 3.20D-06  0.00D+00 EMaxC= 1.00D-01 BMatC= 6.42D-09 BMatP= 3.98D-08
 IDIUse=1 WtCom= 1.00D+00 WtEn= 0.00D+00
 Coeff-Com: -0.487D-03 0.106D-02 0.991D-03 0.623D-03-0.789D-02-0.102D-01
 Coeff-Com: -0.527D-01 0.696D-01 0.352D+00 0.647D+00
 Coeff:     -0.487D-03 0.106D-02 0.991D-03 0.623D-03-0.789D-02-0.102D-01
 Coeff:     -0.527D-01 0.696D-01 0.352D+00 0.647D+00
 Gap=     0.226 Goal=   None    Shift=    0.000
 RMSDP=9.55D-07 MaxDP=4.94D-05 DE=-4.68D-08 OVMax= 5.31D-05

 Cycle  11  Pass 1  IDiag  1:
 RMSU=  3.01D-07    CP:  8.58D-01  1.69D+00  6.49D-01  7.83D-01  1.23D+00
                    CP:  9.40D-01  1.12D+00  1.16D+00  9.37D-01  1.09D+00
 E= -633.317936491976     Delta-E=       -0.000000007878 Rises=F Damp=F
 DIIS: error= 1.69D-06 at cycle  11 NSaved=  11.
 NSaved=11 IEnMin=11 EnMin= -633.317936491976     IErMin=11 ErrMin= 1.69D-06
 ErrMax= 1.69D-06  0.00D+00 EMaxC= 1.00D-01 BMatC= 4.01D-10 BMatP= 6.42D-09
 IDIUse=1 WtCom= 1.00D+00 WtEn= 0.00D+00
 Coeff-Com:  0.434D-04-0.977D-04-0.478D-04 0.138D-03 0.278D-02 0.242D-02
 Coeff-Com: -0.179D-01-0.296D-01-0.231D-01 0.163D+00 0.903D+00
 Coeff:      0.434D-04-0.977D-04-0.478D-04 0.138D-03 0.278D-02 0.242D-02
 Coeff:     -0.179D-01-0.296D-01-0.231D-01 0.163D+00 0.903D+00
 Gap=     0.226 Goal=   None    Shift=    0.000
 RMSDP=4.02D-07 MaxDP=3.02D-05 DE=-7.88D-09 OVMax= 2.96D-05

 Cycle  12  Pass 1  IDiag  1:
 RMSU=  1.42D-07    CP:  8.58D-01  1.69D+00  6.49D-01  7.83D-01  1.23D+00
                    CP:  9.42D-01  1.12D+00  1.20D+00  9.27D-01  1.19D+00
                    CP:  1.16D+00
 E= -633.317936492897     Delta-E=       -0.000000000920 Rises=F Damp=F
 DIIS: error= 7.64D-07 at cycle  12 NSaved=  12.
 NSaved=12 IEnMin=12 EnMin= -633.317936492897     IErMin=12 ErrMin= 7.64D-07
 ErrMax= 7.64D-07  0.00D+00 EMaxC= 1.00D-01 BMatC= 5.60D-11 BMatP= 4.01D-10
 IDIUse=1 WtCom= 1.00D+00 WtEn= 0.00D+00
 Coeff-Com:  0.436D-04-0.958D-04-0.736D-04 0.220D-04 0.152D-02 0.157D-02
 Coeff-Com: -0.269D-02-0.134D-01-0.388D-01-0.477D-03 0.310D+00 0.742D+00
 Coeff:      0.436D-04-0.958D-04-0.736D-04 0.220D-04 0.152D-02 0.157D-02
 Coeff:     -0.269D-02-0.134D-01-0.388D-01-0.477D-03 0.310D+00 0.742D+00
 Gap=     0.226 Goal=   None    Shift=    0.000
 RMSDP=1.03D-07 MaxDP=5.59D-06 DE=-9.20D-10 OVMax= 9.41D-06

 Cycle  13  Pass 1  IDiag  1:
 RMSU=  3.62D-08    CP:  8.58D-01  1.69D+00  6.49D-01  7.83D-01  1.23D+00
                    CP:  9.42D-01  1.12D+00  1.20D+00  9.23D-01  1.24D+00
                    CP:  1.25D+00  1.15D+00
 E= -633.317936493024     Delta-E=       -0.000000000127 Rises=F Damp=F
 DIIS: error= 4.08D-07 at cycle  13 NSaved=  13.
 NSaved=13 IEnMin=13 EnMin= -633.317936493024     IErMin=13 ErrMin= 4.08D-07
 ErrMax= 4.08D-07  0.00D+00 EMaxC= 1.00D-01 BMatC= 9.21D-12 BMatP= 5.60D-11
 IDIUse=1 WtCom= 1.00D+00 WtEn= 0.00D+00
 Coeff-Com:  0.368D-05-0.731D-05-0.137D-04-0.299D-04-0.261D-03-0.132D-03
 Coeff-Com:  0.346D-02 0.497D-02-0.704D-02-0.379D-01-0.130D+00 0.176D+00
 Coeff-Com:  0.991D+00
 Coeff:      0.368D-05-0.731D-05-0.137D-04-0.299D-04-0.261D-03-0.132D-03
 Coeff:      0.346D-02 0.497D-02-0.704D-02-0.379D-01-0.130D+00 0.176D+00
 Coeff:      0.991D+00
 Gap=     0.226 Goal=   None    Shift=    0.000
 RMSDP=8.01D-08 MaxDP=3.59D-06 DE=-1.27D-10 OVMax= 7.11D-06

 Cycle  14  Pass 1  IDiag  1:
 RMSU=  2.15D-08    CP:  8.58D-01  1.69D+00  6.49D-01  7.83D-01  1.23D+00
                    CP:  9.42D-01  1.12D+00  1.21D+00  9.11D-01  1.26D+00
                    CP:  1.33D+00  1.39D+00  1.33D+00
 E= -633.317936493070     Delta-E=       -0.000000000046 Rises=F Damp=F
 DIIS: error= 1.46D-07 at cycle  14 NSaved=  14.
 NSaved=14 IEnMin=14 EnMin= -633.317936493070     IErMin=14 ErrMin= 1.46D-07
 ErrMax= 1.46D-07  0.00D+00 EMaxC= 1.00D-01 BMatC= 8.61D-13 BMatP= 9.21D-12
 IDIUse=1 WtCom= 1.00D+00 WtEn= 0.00D+00
 Coeff-Com: -0.403D-05 0.898D-05 0.606D-05-0.525D-05-0.192D-03-0.173D-03
 Coeff-Com:  0.631D-03 0.217D-02 0.332D-02-0.125D-02-0.516D-01-0.792D-01
 Coeff-Com:  0.458D-01 0.108D+01
 Coeff:     -0.403D-05 0.898D-05 0.606D-05-0.525D-05-0.192D-03-0.173D-03
 Coeff:      0.631D-03 0.217D-02 0.332D-02-0.125D-02-0.516D-01-0.792D-01
 Coeff:      0.458D-01 0.108D+01
 Gap=     0.226 Goal=   None    Shift=    0.000
 RMSDP=2.90D-08 MaxDP=1.25D-06 DE=-4.63D-11 OVMax= 2.96D-06

 Cycle  15  Pass 1  IDiag  1:
 RMSU=  6.48D-09    CP:  8.58D-01  1.69D+00  6.49D-01  7.83D-01  1.23D+00
                    CP:  9.43D-01  1.12D+00  1.21D+00  9.07D-01  1.26D+00
                    CP:  1.34D+00  1.47D+00  1.57D+00  1.31D+00
 E= -633.317936493072     Delta-E=       -0.000000000002 Rises=F Damp=F
 DIIS: error= 3.34D-08 at cycle  15 NSaved=  15.
 NSaved=15 IEnMin=15 EnMin= -633.317936493072     IErMin=15 ErrMin= 3.34D-08
 ErrMax= 3.34D-08  0.00D+00 EMaxC= 1.00D-01 BMatC= 1.78D-13 BMatP= 8.61D-13
 IDIUse=1 WtCom= 1.00D+00 WtEn= 0.00D+00
 Coeff-Com: -0.191D-05 0.409D-05 0.383D-05 0.184D-05-0.352D-04-0.547D-04
 Coeff-Com: -0.233D-03 0.671D-04 0.181D-02 0.509D-02-0.195D-02-0.430D-01
 Coeff-Com: -0.110D+00 0.375D+00 0.773D+00
 Coeff:     -0.191D-05 0.409D-05 0.383D-05 0.184D-05-0.352D-04-0.547D-04
 Coeff:     -0.233D-03 0.671D-04 0.181D-02 0.509D-02-0.195D-02-0.430D-01
 Coeff:     -0.110D+00 0.375D+00 0.773D+00
 Gap=     0.226 Goal=   None    Shift=    0.000
 RMSDP=6.39D-09 MaxDP=3.19D-07 DE=-1.82D-12 OVMax= 6.89D-07

 Error on total polarization charges =  0.01560
 SCF Done:  E(RCAM-B3LYP) =  -633.317936493     A.U. after   15 cycles
            NFock= 15  Conv=0.64D-08     -V/T= 2.0043
 KE= 6.305826042292D+02 PE=-3.272186675565D+03 EE= 1.110145686497D+03
 Leave Link  502 at Sat Jan 24 15:34:22 2026, MaxMem=  2147483648 cpu:             935.0 elap:              58.9
 (Enter /data/home/wyx/g16/l801.exe)
 DoSCS=F DFT=T ScalE2(SS,OS)=  1.000000  1.000000
 ExpMin= 9.52D-02 ExpMax= 2.70D+04 ExpMxC= 9.22D+02 IAcc=3 IRadAn=         5 AccDes= 0.00D+00
 HarFok:  IExCor=  205 AccDes= 0.00D+00 IRadAn=         5 IDoV=-2 UseB2=F ITyADJ=14
 ICtDFT= 12500011 ScaDFX=  1.000000  1.000000  1.000000  1.000000
 Largest valence mixing into a core orbital is  5.63D-05
 Largest core mixing into a valence orbital is  1.10D-05
 Range of M.O.s used for correlation:    15   356
 NBasis=   356 NAE=    52 NBE=    52 NFC=    14 NFV=     0
 NROrb=    342 NOA=    38 NOB=    38 NVA=   304 NVB=   304

 **** Warning!!: The largest alpha MO coefficient is  0.45280807D+02

 Leave Link  801 at Sat Jan 24 15:34:22 2026, MaxMem=  2147483648 cpu:               1.0 elap:               0.1
 (Enter /data/home/wyx/g16/l914.exe)
 RHF ground state
 Two-electron integrals replicated using symmetry.
 MDV=  2147483648 DFT=T DoStab=F Mixed=T DoRPA=T DoScal=F NonHer=T
 NEqPCM:  Using non-equilibrium solvation (IEInf=1, Eps=  78.3553, EpsInf=   1.7778)
 Inv3:  Mode=1 IEnd=    13356300.
 Iteration    1 A*A^-1 deviation from unit magnitude is 3.33D-15 for   1274.
 Iteration    1 A*A^-1 deviation from orthogonality  is 2.53D-15 for   1910     50.
 Iteration    1 A^-1*A deviation from unit magnitude is 2.89D-15 for    677.
 Iteration    1 A^-1*A deviation from orthogonality  is 2.38D-15 for   1314    382.
 Making orbital integer symmetry assigments:
 Orbital symmetries:
       Occupied  (A) (A) (A) (A) (A) (A) (A) (A) (A) (A) (A) (A)
                 (A) (A) (A) (A) (A) (A) (A) (A) (A) (A) (A) (A)
                 (A) (A) (A) (A) (A) (A) (A) (A) (A) (A) (A) (A)
                 (A) (A) (A) (A) (A) (A) (A) (A) (A) (A) (A) (A)
                 (A) (A) (A) (A)
       Virtual   (A) (A) (A) (A) (A) (A) (A) (A) (A) (A) (A) (A)
                 (A) (A) (A) (A) (A) (A) (A) (A) (A) (A) (A) (A)
                 (A) (A) (A) (A) (A) (A) (A) (A) (A) (A) (A) (A)
                 (A) (A) (A) (A) (A) (A) (A) (A) (A) (A) (A) (A)
                 (A) (A) (A) (A) (A) (A) (A) (A) (A) (A) (A) (A)
                 (A) (A) (A) (A) (A) (A) (A) (A) (A) (A) (A) (A)
                 (A) (A) (A) (A) (A) (A) (A) (A) (A) (A) (A) (A)
                 (A) (A) (A) (A) (A) (A) (A) (A) (A) (A) (A) (A)
                 (A) (A) (A) (A) (A) (A) (A) (A) (A) (A) (A) (A)
                 (A) (A) (A) (A) (A) (A) (A) (A) (A) (A) (A) (A)
                 (A) (A) (A) (A) (A) (A) (A) (A) (A) (A) (A) (A)
                 (A) (A) (A) (A) (A) (A) (A) (A) (A) (A) (A) (A)
                 (A) (A) (A) (A) (A) (A) (A) (A) (A) (A) (A) (A)
                 (A) (A) (A) (A) (A) (A) (A) (A) (A) (A) (A) (A)
                 (A) (A) (A) (A) (A) (A) (A) (A) (A) (A) (A) (A)
                 (A) (A) (A) (A) (A) (A) (A) (A) (A) (A) (A) (A)
                 (A) (A) (A) (A) (A) (A) (A) (A) (A) (A) (A) (A)
                 (A) (A) (A) (A) (A) (A) (A) (A) (A) (A) (A) (A)
                 (A) (A) (A) (A) (A) (A) (A) (A) (A) (A) (A) (A)
                 (A) (A) (A) (A) (A) (A) (A) (A) (A) (A) (A) (A)
                 (A) (A) (A) (A) (A) (A) (A) (A) (A) (A) (A) (A)
                 (A) (A) (A) (A) (A) (A) (A) (A) (A) (A) (A) (A)
                 (A) (A) (A) (A) (A) (A) (A) (A) (A) (A) (A) (A)
                 (A) (A) (A) (A) (A) (A) (A) (A) (A) (A) (A) (A)
                 (A) (A) (A) (A) (A) (A) (A) (A) (A) (A) (A) (A)
                 (A) (A) (A) (A)
    24 initial guesses have been made.
 Convergence on wavefunction:    0.001000000000000
 Davidson Disk Diagonalization:  ConvIn= 1.00D-03 SkipCon=T Conv= 1.00D-03.
 Max sub-space:  2000 roots to seek:    24 dimension of matrix:        23104
 Iteration     1 Dimension    24 NMult     0 NNew     24
 CISAX will form    24 AO SS matrices at one time.
 NMat=    24 NSing=    24 JSym2X= 0.
 FoFJK:  IHMeth= 1 ICntrl=       0 DoSepK=T KAlg= 0 I1Cent=           0 FoldK=F
 IRaf=         1 NMat=      48 IRICut=       1 DoRegI=T DoRafI=F ISym2E= 0 IDoP0=3 IntGTp=3.
 New state      1 was old state      2
 New state      2 was old state      1
 New state      3 was old state      4
 New state      4 was old state      3
 New state      6 was old state      7
 Excitation Energies [eV] at current iteration:
 Root      1 :     3.612130035796434
 Root      2 :     3.708627053104020
 Root      3 :     4.465575081298403
 Root      4 :     5.426381927850537
 Root      5 :     6.296537891094305
 Root      6 :     6.352585278762412
 Root      7 :     6.528018003765533
 Root      8 :     6.661322371311075
 Root      9 :     6.960458344882567
 Root     10 :     7.092467093560115
 Root     11 :     7.215099650689298
 Root     12 :     7.246021930302708
 Root     13 :     7.538446409546935
 Root     14 :     7.605407206207664
 Root     15 :     7.716989224004409
 Root     16 :     7.736185550376628
 Root     17 :     7.882162530200762
 Root     18 :     8.236639168744983
 Root     19 :     8.268461803629009
 Root     20 :     8.377996979190236
 Root     21 :     8.418630729058300
 Root     22 :     8.646707331867708
 Root     23 :     8.706257358652140
 Root     24 :     9.110446963664037
 Iteration     2 Dimension    36 NMult    24 NNew     12
 CISAX will form    12 AO SS matrices at one time.
 NMat=    12 NSing=    12 JSym2X= 0.
 New state      1 was old state      2
 Root      1 not converged, maximum delta is    0.235904860107173
 New state      2 was old state      1
 Root      2 not converged, maximum delta is    0.237755061869083
 Root      3 not converged, maximum delta is    0.092749668217498
 Root      4 not converged, maximum delta is    0.313453572082751
 Root      5 not converged, maximum delta is    0.277693727436007
 Root      6 not converged, maximum delta is    0.172278347313704
 Excitation Energies [eV] at current iteration:
 Root      1 :     3.254762331092935   Change is   -0.453864722011084
 Root      2 :     3.420828888750918   Change is   -0.191301147045516
 Root      3 :     4.231529049812573   Change is   -0.234046031485831
 Root      4 :     5.109329183594704   Change is   -0.317052744255833
 Root      5 :     5.400036370772490   Change is   -0.896501520321815
 Root      6 :     6.196250131925579   Change is   -0.156335146836832
 Iteration     3 Dimension    48 NMult    36 NNew     12
 CISAX will form    12 AO SS matrices at one time.
 NMat=    12 NSing=    12 JSym2X= 0.
 Root      1 not converged, maximum delta is    0.008577999039640
 Root      2 not converged, maximum delta is    0.010158626841525
 Root      3 not converged, maximum delta is    0.017863436387444
 Root      4 not converged, maximum delta is    0.038162501321826
 Root      5 not converged, maximum delta is    0.037822715046744
 Root      6 not converged, maximum delta is    0.015439245919052
 Excitation Energies [eV] at current iteration:
 Root      1 :     3.237339553818408   Change is   -0.017422777274528
 Root      2 :     3.413002233969976   Change is   -0.007826654780942
 Root      3 :     4.218897261003987   Change is   -0.012631788808585
 Root      4 :     5.084952539711969   Change is   -0.024376643882735
 Root      5 :     5.372889669994174   Change is   -0.027146700778316
 Root      6 :     6.187281266013209   Change is   -0.008968865912370
 Iteration     4 Dimension    60 NMult    48 NNew     12
 CISAX will form    12 AO SS matrices at one time.
 NMat=    12 NSing=    12 JSym2X= 0.
 Root      1 not converged, maximum delta is    0.002025605327302
 Root      2 not converged, maximum delta is    0.001233898471349
 Root      3 not converged, maximum delta is    0.002033679402209
 Root      4 not converged, maximum delta is    0.004577164660883
 Root      5 not converged, maximum delta is    0.004477667027759
 Root      6 not converged, maximum delta is    0.003460991183813
 Excitation Energies [eV] at current iteration:
 Root      1 :     3.235999970728896   Change is   -0.001339583089511
 Root      2 :     3.412654979513432   Change is   -0.000347254456544
 Root      3 :     4.218384930896530   Change is   -0.000512330107458
 Root      4 :     5.082156585120852   Change is   -0.002795954591117
 Root      5 :     5.369703206635755   Change is   -0.003186463358419
 Root      6 :     6.186590274385396   Change is   -0.000690991627813
 Iteration     5 Dimension    72 NMult    60 NNew     12
 CISAX will form    12 AO SS matrices at one time.
 NMat=    12 NSing=    12 JSym2X= 0.
 Root      1 has converged.
 Root      2 has converged.
 Root      3 has converged.
 Root      4 has converged.
 Root      5 not converged, maximum delta is    0.001171633625091
 Root      6 has converged.
 Excitation Energies [eV] at current iteration:
 Root      1 :     3.235918307178854   Change is   -0.000081663550042
 Root      2 :     3.412631032914697   Change is   -0.000023946598735
 Root      3 :     4.218354707405898   Change is   -0.000030223490632
 Root      4 :     5.081978728445448   Change is   -0.000177856675404
 Root      5 :     5.369424161492366   Change is   -0.000279045143389
 Root      6 :     6.186540894615950   Change is   -0.000049379769446
 Iteration     6 Dimension    74 NMult    72 NNew      2
 CISAX will form     2 AO SS matrices at one time.
 NMat=     2 NSing=     2 JSym2X= 0.
 Root      1 has converged.
 Root      2 has converged.
 Root      3 has converged.
 Root      4 has converged.
 Root      5 has converged.
 Root      6 has converged.
 Excitation Energies [eV] at current iteration:
 Root      1 :     3.235917519014499   Change is   -0.000000788164355
 Root      2 :     3.412631002200330   Change is   -0.000000030714367
 Root      3 :     4.218354596710994   Change is   -0.000000110694904
 Root      4 :     5.081968616667303   Change is   -0.000010111778145
 Root      5 :     5.369399055733107   Change is   -0.000025105759258
 Root      6 :     6.186540829381963   Change is   -0.000000065233987
 Convergence achieved on expansion vectors.
 ***********************************************************************
 Excited states from <AA,BB:AA,BB> singles matrix:
 ***********************************************************************
 
 1PDM for each excited state written to RWF  633
 Ground to excited state transition densities written to RWF  633
 Ground to excited state transition electric dipole moments (Au):
       state          X           Y           Z        Dip. S.      Osc.
         1        -1.5750     -0.0351     -0.0252      2.4826      0.1968
         2        -0.1913     -0.0048     -0.0438      0.0385      0.0032
         3         0.0046     -0.0573      0.0367      0.0047      0.0005
         4        -0.0888     -1.3050      0.0464      1.7131      0.2133
         5        -0.3091      1.3657     -0.0266      1.9615      0.2580
         6        -0.0393      0.0373      0.0501      0.0054      0.0008
 Ground to excited state transition velocity dipole moments (Au):
       state          X           Y           Z        Dip. S.      Osc.
         1         0.1828      0.0035      0.0031      0.0335      0.1875
         2         0.0236      0.0007      0.0044      0.0006      0.0031
         3        -0.0009      0.0084     -0.0020      0.0001      0.0003
         4         0.0104      0.2267     -0.0065      0.0516      0.1841
         5         0.0579     -0.2638      0.0051      0.0730      0.2465
         6         0.0091     -0.0071     -0.0309      0.0011      0.0032
 Ground to excited state transition magnetic dipole moments (Au):
       state          X           Y           Z
         1         0.0991      0.0317     -1.3886
         2        -0.6999     -0.2629     -0.2313
         3        -0.0004     -0.9249     -0.0401
         4         0.0038      0.0323     -0.4320
         5        -0.0929     -0.0718      0.3449
         6         0.0240     -0.0135     -0.0103
 Ground to excited state transition velocity quadrupole moments (Au):
       state          XX          YY          ZZ          XY          XZ          YZ
         1         0.3534     -0.1306     -0.0113     -0.4624      0.0274     -0.0043
         2         0.0457     -0.0092      0.0003     -0.0620      0.0411     -0.0205
         3        -0.0051      0.0023     -0.0089     -0.0167      0.0682      0.0058
         4        -1.2032      0.2148      0.0266     -0.2746     -0.0341     -0.0190
         5         0.9310     -0.4808     -0.0336     -0.0387      0.0559     -0.0186
         6        -0.1124     -0.0863      0.0783     -0.0198     -0.0081      0.0799
 <0|del|b> * <b|rxdel|0> + <0|del|b> * <b|delr+rdel|0>
 Rotatory Strengths (R) in cgs (10**-40 erg-esu-cm/Gauss)
       state          XX          YY          ZZ    R(velocity)    E-M Angle
         1       -17.2318     42.9060     56.8335     27.5026       86.88
         2        -4.2016    -49.9580    -45.5403    -33.2333      160.42
         3       -18.8057      0.0950    -16.4299    -11.7135      163.08
         4        37.2406      1.6415     -0.3225     12.8532       84.06
         5        63.1693     -8.0529     -0.2172     18.2997       81.05
         6         1.5023      1.0202     -0.5563      0.6554       49.36
 1/2[<0|r|b>*<b|rxdel|0> + (<0|rxdel|b>*<b|r|0>)*]
 Rotatory Strengths (R) in cgs (10**-40 erg-esu-cm/Gauss)
       state          XX          YY          ZZ     R(length)
         1       110.4073      0.7868    -24.7042     28.8300
         2       -94.6927     -0.8871     -7.1585    -34.2461
         3         0.0014    -37.5010      1.0390    -12.1535
         4         0.2411     29.8426     14.1880     14.7572
         5       -20.3054     69.3256      6.4806     18.5003
         6         0.6677      0.3552      0.3630      0.4620
  1/2[<0|del|b>*<b|r|0> + (<0|r|b>*<b|del|0>)*] (Au)
       state          X           Y           Z        Dip. S.   Osc.(frdel)
         1        -0.2880     -0.0001     -0.0001      0.2882      0.1921
         2        -0.0045     -0.0000     -0.0002      0.0047      0.0031
         3        -0.0000     -0.0005     -0.0001      0.0006      0.0004
         4        -0.0009     -0.2959     -0.0003      0.2971      0.1981
         5        -0.0179     -0.3602     -0.0001      0.3783      0.2522
         6        -0.0004     -0.0003     -0.0015      0.0022      0.0014

 Excitation energies and oscillator strengths:
 
 Excited State   1:      Singlet-A      3.2359 eV  383.15 nm  f=0.1968  <S**2>=0.000
      52 -> 53         0.69688
 This state for optimization and/or second-order correction.
 Total Energy, E(TD-HF/TD-DFT) =  -633.199018712    
 Copying the excited state density for this state as the 1-particle RhoCI density.
 
 Excited State   2:      Singlet-A      3.4126 eV  363.31 nm  f=0.0032  <S**2>=0.000
      51 -> 53         0.63128
      51 -> 54        -0.26758
 
 Excited State   3:      Singlet-A      4.2184 eV  293.92 nm  f=0.0005  <S**2>=0.000
      50 -> 53         0.52177
      50 -> 54         0.42602
      50 -> 58         0.11831
 
 Excited State   4:      Singlet-A      5.0820 eV  243.97 nm  f=0.2133  <S**2>=0.000
      52 -> 54         0.69933
 
 Excited State   5:      Singlet-A      5.3694 eV  230.91 nm  f=0.2580  <S**2>=0.000
      49 -> 53         0.68783
      50 -> 53        -0.10496
 
 Excited State   6:      Singlet-A      6.1865 eV  200.41 nm  f=0.0008  <S**2>=0.000
      52 -> 55         0.66640
      52 -> 56         0.11225
      52 -> 61        -0.11438
 SavETr:  write IOETrn=   770 NScale= 10 NData=  16 NLR=1 NState=    6 LETran=     118.
 Leave Link  914 at Sat Jan 24 15:36:39 2026, MaxMem=  2147483648 cpu:            2170.1 elap:             136.4
 (Enter /data/home/wyx/g16/l601.exe)
 Copying SCF densities to generalized density rwf, IOpCl= 0 IROHF=0.

 **********************************************************************

            Population analysis using the SCF density.

 **********************************************************************

 Orbital symmetries:
       Occupied  (A) (A) (A) (A) (A) (A) (A) (A) (A) (A) (A) (A)
                 (A) (A) (A) (A) (A) (A) (A) (A) (A) (A) (A) (A)
                 (A) (A) (A) (A) (A) (A) (A) (A) (A) (A) (A) (A)
                 (A) (A) (A) (A) (A) (A) (A) (A) (A) (A) (A) (A)
                 (A) (A) (A) (A)
       Virtual   (A) (A) (A) (A) (A) (A) (A) (A) (A) (A) (A) (A)
                 (A) (A) (A) (A) (A) (A) (A) (A) (A) (A) (A) (A)
                 (A) (A) (A) (A) (A) (A) (A) (A) (A) (A) (A) (A)
                 (A) (A) (A) (A) (A) (A) (A) (A) (A) (A) (A) (A)
                 (A) (A) (A) (A) (A) (A) (A) (A) (A) (A) (A) (A)
                 (A) (A) (A) (A) (A) (A) (A) (A) (A) (A) (A) (A)
                 (A) (A) (A) (A) (A) (A) (A) (A) (A) (A) (A) (A)
                 (A) (A) (A) (A) (A) (A) (A) (A) (A) (A) (A) (A)
                 (A) (A) (A) (A) (A) (A) (A) (A) (A) (A) (A) (A)
                 (A) (A) (A) (A) (A) (A) (A) (A) (A) (A) (A) (A)
                 (A) (A) (A) (A) (A) (A) (A) (A) (A) (A) (A) (A)
                 (A) (A) (A) (A) (A) (A) (A) (A) (A) (A) (A) (A)
                 (A) (A) (A) (A) (A) (A) (A) (A) (A) (A) (A) (A)
                 (A) (A) (A) (A) (A) (A) (A) (A) (A) (A) (A) (A)
                 (A) (A) (A) (A) (A) (A) (A) (A) (A) (A) (A) (A)
                 (A) (A) (A) (A) (A) (A) (A) (A) (A) (A) (A) (A)
                 (A) (A) (A) (A) (A) (A) (A) (A) (A) (A) (A) (A)
                 (A) (A) (A) (A) (A) (A) (A) (A) (A) (A) (A) (A)
                 (A) (A) (A) (A) (A) (A) (A) (A) (A) (A) (A) (A)
                 (A) (A) (A) (A) (A) (A) (A) (A) (A) (A) (A) (A)
                 (A) (A) (A) (A) (A) (A) (A) (A) (A) (A) (A) (A)
                 (A) (A) (A) (A) (A) (A) (A) (A) (A) (A) (A) (A)
                 (A) (A) (A) (A) (A) (A) (A) (A) (A) (A) (A) (A)
                 (A) (A) (A) (A) (A) (A) (A) (A) (A) (A) (A) (A)
                 (A) (A) (A) (A) (A) (A) (A) (A) (A) (A) (A) (A)
                 (A) (A) (A) (A)
 The electronic state is 1-A.
 Alpha  occ. eigenvalues --  -19.17766 -19.16529 -14.44567 -10.33455 -10.33335
 Alpha  occ. eigenvalues --  -10.32743 -10.32463 -10.25747 -10.25446 -10.25215
 Alpha  occ. eigenvalues --  -10.25162 -10.24149 -10.24096 -10.24014  -1.11702
 Alpha  occ. eigenvalues --   -1.08569  -1.07658  -0.91555  -0.90632  -0.83950
 Alpha  occ. eigenvalues --   -0.82474  -0.81467  -0.78824  -0.74366  -0.71684
 Alpha  occ. eigenvalues --   -0.69299  -0.62136  -0.58464  -0.56960  -0.55144
 Alpha  occ. eigenvalues --   -0.54713  -0.54224  -0.52353  -0.51801  -0.50653
 Alpha  occ. eigenvalues --   -0.49600  -0.49295  -0.48967  -0.48470  -0.48170
 Alpha  occ. eigenvalues --   -0.46573  -0.45656  -0.44493  -0.43678  -0.42972
 Alpha  occ. eigenvalues --   -0.42437  -0.41665  -0.40635  -0.32954  -0.32253
 Alpha  occ. eigenvalues --   -0.30681  -0.26353
 Alpha virt. eigenvalues --   -0.03761   0.01774   0.06603   0.08466   0.08748
 Alpha virt. eigenvalues --    0.10186   0.10894   0.11508   0.12688   0.13219
 Alpha virt. eigenvalues --    0.14762   0.15151   0.15540   0.16690   0.17060
 Alpha virt. eigenvalues --    0.17518   0.17527   0.17842   0.18580   0.19349
 Alpha virt. eigenvalues --    0.19925   0.20132   0.22404   0.23101   0.24421
 Alpha virt. eigenvalues --    0.24475   0.24954   0.25540   0.25834   0.26206
 Alpha virt. eigenvalues --    0.27457   0.28082   0.28488   0.29269   0.29747
 Alpha virt. eigenvalues --    0.31080   0.31518   0.33620   0.33907   0.34804
 Alpha virt. eigenvalues --    0.35424   0.35953   0.36983   0.37173   0.37553
 Alpha virt. eigenvalues --    0.40017   0.40818   0.41204   0.42397   0.43157
 Alpha virt. eigenvalues --    0.44101   0.44976   0.45423   0.46315   0.46460
 Alpha virt. eigenvalues --    0.47285   0.47896   0.48171   0.48527   0.48961
 Alpha virt. eigenvalues --    0.49403   0.49969   0.50688   0.51613   0.51878
 Alpha virt. eigenvalues --    0.52306   0.52905   0.53030   0.53869   0.54102
 Alpha virt. eigenvalues --    0.54605   0.55661   0.55930   0.57666   0.57944
 Alpha virt. eigenvalues --    0.58813   0.59131   0.60452   0.62425   0.62743
 Alpha virt. eigenvalues --    0.63291   0.64933   0.66625   0.66989   0.67483
 Alpha virt. eigenvalues --    0.67924   0.68511   0.71159   0.71674   0.72003
 Alpha virt. eigenvalues --    0.73480   0.75434   0.76842   0.77441   0.78606
 Alpha virt. eigenvalues --    0.80210   0.81308   0.84008   0.87878   0.89536
 Alpha virt. eigenvalues --    0.92508   0.95795   0.99838   1.02400   1.20475
 Alpha virt. eigenvalues --    1.22933   1.24465   1.27155   1.29944   1.31147
 Alpha virt. eigenvalues --    1.32063   1.33314   1.34338   1.35352   1.36896
 Alpha virt. eigenvalues --    1.37552   1.37837   1.39469   1.39807   1.39964
 Alpha virt. eigenvalues --    1.40424   1.40831   1.41084   1.41258   1.41737
 Alpha virt. eigenvalues --    1.42966   1.43139   1.44466   1.45135   1.45793
 Alpha virt. eigenvalues --    1.48546   1.49685   1.50009   1.50955   1.51365
 Alpha virt. eigenvalues --    1.52035   1.52568   1.54610   1.57089   1.57578
 Alpha virt. eigenvalues --    1.59441   1.60004   1.60108   1.61142   1.61828
 Alpha virt. eigenvalues --    1.62222   1.62882   1.62986   1.63551   1.64523
 Alpha virt. eigenvalues --    1.65507   1.66105   1.66219   1.67267   1.67928
 Alpha virt. eigenvalues --    1.69060   1.69109   1.69947   1.71226   1.72862
 Alpha virt. eigenvalues --    1.73319   1.74151   1.75910   1.76021   1.80241
 Alpha virt. eigenvalues --    1.81659   1.83155   1.84472   1.84928   1.85743
 Alpha virt. eigenvalues --    1.85945   1.86446   1.89860   1.90173   1.90555
 Alpha virt. eigenvalues --    1.91612   1.92940   1.97110   1.98567   2.01477
 Alpha virt. eigenvalues --    2.02365   2.04905   2.06239   2.07701   2.10053
 Alpha virt. eigenvalues --    2.10554   2.13558   2.14922   2.19008   2.20130
 Alpha virt. eigenvalues --    2.20681   2.23247   2.24122   2.25097   2.25980
 Alpha virt. eigenvalues --    2.27604   2.29274   2.30009   2.31873   2.33155
 Alpha virt. eigenvalues --    2.34241   2.34449   2.36029   2.38167   2.38749
 Alpha virt. eigenvalues --    2.39969   2.41305   2.42954   2.43672   2.45807
 Alpha virt. eigenvalues --    2.46899   2.47453   2.49330   2.49815   2.51082
 Alpha virt. eigenvalues --    2.53195   2.54197   2.55077   2.56468   2.57043
 Alpha virt. eigenvalues --    2.58147   2.59263   2.61502   2.62426   2.63135
 Alpha virt. eigenvalues --    2.63776   2.65012   2.65348   2.66540   2.68230
 Alpha virt. eigenvalues --    2.68640   2.71324   2.73794   2.74455   2.75292
 Alpha virt. eigenvalues --    2.76230   2.76807   2.77377   2.78275   2.78878
 Alpha virt. eigenvalues --    2.80302   2.81135   2.83042   2.83806   2.85053
 Alpha virt. eigenvalues --    2.85582   2.87970   2.89345   2.90954   2.92898
 Alpha virt. eigenvalues --    2.98184   2.98848   2.99089   3.03928   3.08512
 Alpha virt. eigenvalues --    3.11369   3.12502   3.14579   3.18509   3.19982
 Alpha virt. eigenvalues --    3.21396   3.22309   3.25171   3.25828   3.26198
 Alpha virt. eigenvalues --    3.29344   3.30766   3.30998   3.35449   3.37785
 Alpha virt. eigenvalues --    3.39084   3.39715   3.40128   3.40220   3.41277
 Alpha virt. eigenvalues --    3.42361   3.43930   3.45206   3.46682   3.49301
 Alpha virt. eigenvalues --    3.51381   3.52417   3.55055   3.57642   3.59743
 Alpha virt. eigenvalues --    3.62373   3.92135   4.00060   4.28653   4.35524
 Alpha virt. eigenvalues --   21.64432  21.76382  22.04663  22.10369  22.11931
 Alpha virt. eigenvalues --   22.12834  22.16051  22.19032  22.20752  22.26515
 Alpha virt. eigenvalues --   22.31088  31.92990  43.64478  43.67584
          Condensed to atoms (all electrons):
               1          2          3          4          5          6
     1  O    7.952800   0.000000  -0.000231   0.000017   0.018214   0.016278
     2  O    0.000000   8.123404   0.000736   0.000011  -0.189776   0.001691
     3  N   -0.000231   0.000736   6.337693   0.369808  -0.089093   0.387989
     4  H    0.000017   0.000011   0.369808   0.391507   0.011210  -0.040177
     5  C    0.018214  -0.189776  -0.089093   0.011210   7.202497  -0.044256
     6  C    0.016278   0.001691   0.387989  -0.040177  -0.044256   5.568980
     7  C    0.000045   0.003516   0.347445  -0.042924   0.298165  -0.151951
     8  C   -0.000246   0.603213   0.004460  -0.001369  -0.491155   0.049508
     9  C   -0.006223   0.024070   0.018257   0.000912  -0.661535  -0.091931
    10  H    0.006041  -0.000070   0.001989   0.000020  -0.040077  -0.005603
    11  H    0.010419  -0.000195  -0.000951   0.000000  -0.115832   0.022131
    12  C   -0.250642  -0.003869  -0.104780   0.018148   0.210708  -0.142441
    13  C    0.734397  -0.000000  -0.000635   0.000522   0.064513   0.120090
    14  C   -0.000015  -0.090292  -0.048728   0.002539   0.043232  -0.005309
    15  H    0.000000   0.004091   0.001241  -0.000062  -0.007648   0.002227
    16  H    0.000000   0.002670  -0.000959  -0.000190  -0.012578   0.001825
    17  H    0.000000   0.042627   0.003700   0.000675   0.012881  -0.000196
    18  C   -0.000338  -0.085820  -0.000280   0.000011  -0.125260  -0.002404
    19  H    0.000001  -0.000180   0.000009  -0.000001   0.000381   0.000044
    20  H    0.000010  -0.001601   0.000011  -0.000001  -0.008342   0.000086
    21  H    0.000838   0.007646   0.000065   0.000000   0.080929  -0.001438
    22  C   -0.118169   0.000000   0.000333   0.000102   0.000492  -0.010170
    23  H    0.004023  -0.000000   0.000039  -0.000051  -0.000377  -0.025888
    24  H    0.002169   0.000000   0.000088  -0.000015  -0.000080   0.009226
    25  H    0.009993  -0.000000   0.000023  -0.000002  -0.000078  -0.001479
    26  C    0.000850   0.000009  -0.027798  -0.010556   0.001841   0.199672
    27  H   -0.000124  -0.000000   0.000466   0.000887   0.000336  -0.037777
    28  H   -0.000030  -0.000000  -0.002821   0.000571   0.000457  -0.038775
    29  H    0.000019   0.000000   0.003809   0.002026  -0.000533  -0.052405
               7          8          9         10         11         12
     1  O    0.000045  -0.000246  -0.006223   0.006041   0.010419  -0.250642
     2  O    0.003516   0.603213   0.024070  -0.000070  -0.000195  -0.003869
     3  N    0.347445   0.004460   0.018257   0.001989  -0.000951  -0.104780
     4  H   -0.042924  -0.001369   0.000912   0.000020   0.000000   0.018148
     5  C    0.298165  -0.491155  -0.661535  -0.040077  -0.115832   0.210708
     6  C   -0.151951   0.049508  -0.091931  -0.005603   0.022131  -0.142441
     7  C    5.540006  -0.225729  -0.262513  -0.001846   0.013475   0.053814
     8  C   -0.225729   5.770751   0.198759  -0.004594   0.001091  -0.092746
     9  C   -0.262513   0.198759   6.494171   0.419197   0.529667  -0.146611
    10  H   -0.001846  -0.004594   0.419197   0.547057  -0.041932  -0.026887
    11  H    0.013475   0.001091   0.529667  -0.041932   0.519530  -0.090143
    12  C    0.053814  -0.092746  -0.146611  -0.026887  -0.090143   7.497506
    13  C    0.026626  -0.010604  -0.223403  -0.006296  -0.002099  -0.495867
    14  C    0.182840  -0.105412   0.022835  -0.000812   0.000090   0.004399
    15  H   -0.036720   0.007348  -0.001311   0.000117  -0.000009  -0.000435
    16  H   -0.028256   0.007051  -0.000189  -0.000028   0.000053  -0.000871
    17  H   -0.061624  -0.029183   0.002274   0.000015  -0.000031  -0.000304
    18  C    0.029430   0.276852  -0.025534  -0.006271  -0.009822   0.012291
    19  H   -0.000658  -0.029398  -0.001807   0.000471   0.000529  -0.000216
    20  H   -0.001311  -0.015515  -0.000884   0.000282   0.000155  -0.000612
    21  H    0.005331  -0.142267  -0.015484  -0.003789  -0.004536   0.005241
    22  C    0.001194  -0.000055   0.016528   0.001423   0.000127  -0.295584
    23  H   -0.000005   0.000000   0.001748  -0.000150   0.000026   0.051014
    24  H   -0.000038   0.000002  -0.002226   0.000157  -0.000118   0.000024
    25  H    0.000010  -0.000000  -0.000086  -0.000071  -0.000054   0.027468
    26  C    0.004540   0.000862   0.019236  -0.000353   0.000031  -0.086984
    27  H   -0.001020  -0.000002  -0.000704  -0.000028   0.000010  -0.002110
    28  H   -0.001292  -0.000005  -0.000347  -0.000016   0.000055  -0.017912
    29  H    0.003464   0.000020  -0.000624   0.000043  -0.000008   0.023753
              13         14         15         16         17         18
     1  O    0.734397  -0.000015   0.000000   0.000000   0.000000  -0.000338
     2  O   -0.000000  -0.090292   0.004091   0.002670   0.042627  -0.085820
     3  N   -0.000635  -0.048728   0.001241  -0.000959   0.003700  -0.000280
     4  H    0.000522   0.002539  -0.000062  -0.000190   0.000675   0.000011
     5  C    0.064513   0.043232  -0.007648  -0.012578   0.012881  -0.125260
     6  C    0.120090  -0.005309   0.002227   0.001825  -0.000196  -0.002404
     7  C    0.026626   0.182840  -0.036720  -0.028256  -0.061624   0.029430
     8  C   -0.010604  -0.105412   0.007348   0.007051  -0.029183   0.276852
     9  C   -0.223403   0.022835  -0.001311  -0.000189   0.002274  -0.025534
    10  H   -0.006296  -0.000812   0.000117  -0.000028   0.000015  -0.006271
    11  H   -0.002099   0.000090  -0.000009   0.000053  -0.000031  -0.009822
    12  C   -0.495867   0.004399  -0.000435  -0.000871  -0.000304   0.012291
    13  C    5.529734  -0.000048  -0.000022  -0.000027   0.000004   0.000895
    14  C   -0.000048   5.328431   0.385140   0.392055   0.415274  -0.004484
    15  H   -0.000022   0.385140   0.537146  -0.029968  -0.016676   0.000136
    16  H   -0.000027   0.392055  -0.029968   0.520697  -0.015028   0.000104
    17  H    0.000004   0.415274  -0.016676  -0.015028   0.445757   0.001699
    18  C    0.000895  -0.004484   0.000136   0.000104   0.001699   5.166732
    19  H   -0.000021  -0.000022   0.000008  -0.000009   0.000023   0.412160
    20  H   -0.000025  -0.000067  -0.000008   0.000013  -0.000007   0.401688
    21  H    0.002142   0.000574  -0.000020  -0.000009  -0.000209   0.411305
    22  C    0.322780   0.000019   0.000001  -0.000002   0.000000   0.000015
    23  H   -0.075040   0.000002  -0.000000   0.000000   0.000000   0.000001
    24  H   -0.037112  -0.000001   0.000000  -0.000000  -0.000000  -0.000000
    25  H   -0.047018   0.000000   0.000000  -0.000000  -0.000000   0.000000
    26  C   -0.052852  -0.000282  -0.000198   0.000046   0.000009  -0.000022
    27  H   -0.007466   0.000018  -0.000005   0.000006  -0.000001   0.000000
    28  H    0.006114  -0.000059   0.000011  -0.000015   0.000001  -0.000000
    29  H   -0.000148   0.000454   0.000008   0.000019   0.000002   0.000001
              19         20         21         22         23         24
     1  O    0.000001   0.000010   0.000838  -0.118169   0.004023   0.002169
     2  O   -0.000180  -0.001601   0.007646   0.000000  -0.000000   0.000000
     3  N    0.000009   0.000011   0.000065   0.000333   0.000039   0.000088
     4  H   -0.000001  -0.000001   0.000000   0.000102  -0.000051  -0.000015
     5  C    0.000381  -0.008342   0.080929   0.000492  -0.000377  -0.000080
     6  C    0.000044   0.000086  -0.001438  -0.010170  -0.025888   0.009226
     7  C   -0.000658  -0.001311   0.005331   0.001194  -0.000005  -0.000038
     8  C   -0.029398  -0.015515  -0.142267  -0.000055   0.000000   0.000002
     9  C   -0.001807  -0.000884  -0.015484   0.016528   0.001748  -0.002226
    10  H    0.000471   0.000282  -0.003789   0.001423  -0.000150   0.000157
    11  H    0.000529   0.000155  -0.004536   0.000127   0.000026  -0.000118
    12  C   -0.000216  -0.000612   0.005241  -0.295584   0.051014   0.000024
    13  C   -0.000021  -0.000025   0.002142   0.322780  -0.075040  -0.037112
    14  C   -0.000022  -0.000067   0.000574   0.000019   0.000002  -0.000001
    15  H    0.000008  -0.000008  -0.000020   0.000001  -0.000000   0.000000
    16  H   -0.000009   0.000013  -0.000009  -0.000002   0.000000  -0.000000
    17  H    0.000023  -0.000007  -0.000209   0.000000   0.000000  -0.000000
    18  C    0.412160   0.401688   0.411305   0.000015   0.000001  -0.000000
    19  H    0.499350  -0.018910  -0.024416  -0.000000   0.000000   0.000000
    20  H   -0.018910   0.498691  -0.020234  -0.000001   0.000000   0.000000
    21  H   -0.024416  -0.020234   0.547169   0.000054  -0.000001  -0.000001
    22  C   -0.000000  -0.000001   0.000054   5.429399   0.386795   0.406096
    23  H    0.000000   0.000000  -0.000001   0.386795   0.544860  -0.029401
    24  H    0.000000   0.000000  -0.000001   0.406096  -0.029401   0.497002
    25  H   -0.000000   0.000000  -0.000001   0.381315  -0.020587  -0.008296
    26  C    0.000000   0.000001  -0.000014  -0.038948   0.020048  -0.015646
    27  H   -0.000000   0.000000   0.000000   0.011498  -0.008626  -0.001078
    28  H    0.000000  -0.000000   0.000000  -0.013060  -0.002200   0.001531
    29  H    0.000000  -0.000000  -0.000000   0.001755   0.000725   0.000163
              25         26         27         28         29
     1  O    0.009993   0.000850  -0.000124  -0.000030   0.000019
     2  O   -0.000000   0.000009  -0.000000  -0.000000   0.000000
     3  N    0.000023  -0.027798   0.000466  -0.002821   0.003809
     4  H   -0.000002  -0.010556   0.000887   0.000571   0.002026
     5  C   -0.000078   0.001841   0.000336   0.000457  -0.000533
     6  C   -0.001479   0.199672  -0.037777  -0.038775  -0.052405
     7  C    0.000010   0.004540  -0.001020  -0.001292   0.003464
     8  C   -0.000000   0.000862  -0.000002  -0.000005   0.000020
     9  C   -0.000086   0.019236  -0.000704  -0.000347  -0.000624
    10  H   -0.000071  -0.000353  -0.000028  -0.000016   0.000043
    11  H   -0.000054   0.000031   0.000010   0.000055  -0.000008
    12  C    0.027468  -0.086984  -0.002110  -0.017912   0.023753
    13  C   -0.047018  -0.052852  -0.007466   0.006114  -0.000148
    14  C    0.000000  -0.000282   0.000018  -0.000059   0.000454
    15  H    0.000000  -0.000198  -0.000005   0.000011   0.000008
    16  H   -0.000000   0.000046   0.000006  -0.000015   0.000019
    17  H   -0.000000   0.000009  -0.000001   0.000001   0.000002
    18  C    0.000000  -0.000022   0.000000  -0.000000   0.000001
    19  H   -0.000000   0.000000  -0.000000   0.000000   0.000000
    20  H    0.000000   0.000001   0.000000  -0.000000  -0.000000
    21  H   -0.000001  -0.000014   0.000000   0.000000  -0.000000
    22  C    0.381315  -0.038948   0.011498  -0.013060   0.001755
    23  H   -0.020587   0.020048  -0.008626  -0.002200   0.000725
    24  H   -0.008296  -0.015646  -0.001078   0.001531   0.000163
    25  H    0.499844   0.001886   0.000686   0.000107  -0.000046
    26  C    0.001886   5.244428   0.414463   0.438060   0.387050
    27  H    0.000686   0.414463   0.511468  -0.028672  -0.023837
    28  H    0.000107   0.438060  -0.028672   0.474371  -0.015338
    29  H   -0.000046   0.387050  -0.023837  -0.015338   0.516288
 Mulliken charges:
               1
     1  O   -0.380096
     2  O   -0.441881
     3  N   -0.201885
     4  H    0.296380
     5  C   -0.159237
     6  C    0.272451
     7  C    0.305986
     8  C    0.228361
     9  C   -0.306243
    10  H    0.162007
    11  H    0.168340
    12  C   -0.145354
    13  C    0.150864
    14  C   -0.522372
    15  H    0.155608
    16  H    0.163590
    17  H    0.198318
    18  C   -0.453082
    19  H    0.162661
    20  H    0.166582
    21  H    0.151124
    22  C   -0.483939
    23  H    0.153045
    24  H    0.177553
    25  H    0.156384
    26  C   -0.499382
    27  H    0.171611
    28  H    0.199264
    29  H    0.153340
 Sum of Mulliken charges =  -0.00000
 Mulliken charges with hydrogens summed into heavy atoms:
               1
     1  O   -0.380096
     2  O   -0.441881
     3  N    0.094495
     5  C   -0.159237
     6  C    0.272451
     7  C    0.305986
     8  C    0.228361
     9  C    0.024104
    12  C   -0.145354
    13  C    0.150864
    14  C   -0.004855
    18  C    0.027285
    22  C    0.003043
    26  C    0.024834
 Electronic spatial extent (au):  <R**2>=           3234.0283
 Charge=             -0.0000 electrons
 Dipole moment (field-independent basis, Debye):
    X=             -4.6933    Y=              7.8053    Z=             -0.1333  Tot=              9.1086
 Quadrupole moment (field-independent basis, Debye-Ang):
   XX=           -100.4302   YY=            -78.5213   ZZ=            -84.3171
   XY=            -14.0237   XZ=             -2.2045   YZ=             -0.7776
 Traceless Quadrupole moment (field-independent basis, Debye-Ang):
   XX=            -12.6740   YY=              9.2349   ZZ=              3.4391
   XY=            -14.0237   XZ=             -2.2045   YZ=             -0.7776
 Octapole moment (field-independent basis, Debye-Ang**2):
  XXX=           -126.0458  YYY=             68.4123  ZZZ=              0.8583  XYY=             37.8720
  XXY=             28.1843  XXZ=             -4.8943  XZZ=             -0.8414  YZZ=             -0.7384
  YYZ=              1.5719  XYZ=              1.7780
 Hexadecapole moment (field-independent basis, Debye-Ang**3):
 XXXX=          -3192.3741 YYYY=          -1282.0778 ZZZZ=           -128.2845 XXXY=            -53.4785
 XXXZ=            -27.2325 YYYX=            -95.1311 YYYZ=            -10.3331 ZZZX=              1.4148
 ZZZY=              1.8291 XXYY=           -693.1015 XXZZ=           -485.7303 YYZZ=           -234.3155
 XXYZ=             -2.6753 YYXZ=             -3.6316 ZZXY=             -3.8406
 N-N= 8.981404483462D+02 E-N=-3.272186678196D+03  KE= 6.305826042292D+02
 Leave Link  601 at Sat Jan 24 15:36:40 2026, MaxMem=  2147483648 cpu:               0.7 elap:               0.1
 (Enter /data/home/wyx/g16/l9999.exe)
 Electronic transition elements 
                 1             2             3             4             5 
      1  -0.633199D+03 -0.633193D+03 -0.633163D+03 -0.633131D+03 -0.633121D+03
      2   0.145867D+01  0.169740D+00  0.220960D-01  0.534877D+00 -0.185141D+00
      3   0.522769D+00  0.643532D-01 -0.564613D-01 -0.119087D+01  0.138717D+01
      4   0.285720D+00  0.747228D-01 -0.312490D-01  0.940835D-01 -0.543190D-01
      5  -0.169077D+00 -0.211103D-01 -0.237739D-02 -0.879692D-01  0.373787D-01
      6  -0.612688D-01 -0.783311D-02  0.826529D-02  0.208652D+00 -0.267295D+00
      7  -0.333229D-01 -0.824131D-02  0.129917D-02 -0.170508D-01  0.107879D-01
      8  -0.361493D+00  0.691329D+00  0.307842D+00 -0.952470D-01  0.174463D+00
      9   0.400843D-01  0.817493D-02 -0.863608D+00  0.430096D-01 -0.456897D-01
     10   0.134411D+01  0.366817D+00  0.128126D+00  0.420475D+00 -0.316580D+00
     11  -0.145070D-01 -0.126862D-01 -0.390151D-01 -0.115408D+01  0.692477D+00
     12   0.235163D+00  0.407078D-01  0.135314D-01  0.219978D+00 -0.277226D+00
     13  -0.916945D-02  0.880519D-02  0.138110D-01 -0.277188D-01  0.133370D-02
     14   0.497652D+00  0.585394D-01  0.868992D-02 -0.257640D+00  0.478848D+00
     15   0.707728D-02  0.270209D-01  0.600321D-01 -0.254665D+00  0.168230D+00
     16   0.100402D+00  0.440563D-01  0.198880D-01 -0.495822D-01  0.136972D+00
                 6 
      1  -0.633091D+03
      2   0.328923D-01
      3   0.470571D-01
      4  -0.462987D-01
      5  -0.117958D-01
      6  -0.882676D-02
      7   0.295512D-01
      8  -0.194585D-01
      9  -0.207356D-01
     10   0.742998D-02
     11  -0.122463D+00
     12  -0.813761D-01
     13   0.835266D-01
     14   0.203049D-01
     15  -0.188259D-01
     16  -0.698274D-01
 1\1\GINC-CN015\SP\RCAM-B3LYP TD-FC\TZVP\C11H15N1O2\WYX\24-Jan-2026\0\\
 #p CAM-B3LYP TZVP em=gd3bj td(nstates=6,root=1) scrf=(Solvent=Water)\\
 Title Card Required\\0,1\O,0,2.765276,-1.552081,0.671101\O,0,-3.378269
 ,-1.660889,-0.743654\N,0,-0.657692,1.525118,-0.077892\H,0,-0.968745,2.
 478655,-0.164321\C,0,-1.237265,-0.774805,-0.173162\C,0,0.66671,1.31662
 3,0.149759\C,0,-1.607258,0.535158,-0.291865\C,0,-2.146328,-1.831526,-0
 .388286\C,0,0.174666,-1.131178,0.231272\H,0,0.171332,-1.619313,1.21155
 8\H,0,0.580586,-1.875205,-0.456233\C,0,1.130946,0.040823,0.269862\C,0,
 2.510085,-0.360407,0.479962\C,0,-2.9516,1.069062,-0.629463\H,0,-3.3210
 56,1.745587,0.147031\H,0,-2.938439,1.623698,-1.57186\H,0,-3.697858,0.2
 82521,-0.739733\C,0,-1.828655,-3.289658,-0.216557\H,0,-2.535667,-3.786
 598,0.451436\H,0,-1.870746,-3.813092,-1.175462\H,0,-0.832708,-3.431256
 ,0.194033\C,0,3.672046,0.604128,0.456707\H,0,3.638762,1.285992,-0.3893
 64\H,0,3.700171,1.20157,1.368688\H,0,4.584846,0.015579,0.407301\C,0,1.
 447932,2.594731,0.231724\H,0,2.128693,2.60584,1.076185\H,0,2.028694,2.
 760781,-0.675283\H,0,0.771541,3.440143,0.346516\\Version=ES64L-G16RevA
 .03\State=1-A\HF=-633.3179365\RMSD=6.392e-09\PG=C01 [X(C11H15N1O2)]\\@


 Make no judgements where you have no compassion.
                               -- Anne McCaffrey
 Job cpu time:       0 days  0 hours 52 minutes  5.2 seconds.
 Elapsed time:       0 days  0 hours  3 minutes 16.8 seconds.
 File lengths (MBytes):  RWF=    833 Int=      0 D2E=      0 Chk=     34 Scr=      1
 Normal termination of Gaussian 16 at Sat Jan 24 15:36:43 2026.
