 Entering Gaussian System, Link 0=g16
 Input=DDL-LR-Eq-1.gjf
 Output=DDL-LR-Eq-1.log
 Initial command:
 /data/home/wyx/g16/l1.exe "/scr/tmp/wyx/13119/Gau-1508313.inp" -scrdir="/scr/tmp/wyx/13119/"
 Entering Link 1 = /data/home/wyx/g16/l1.exe PID=   1508314.
  
 Copyright (c) 1988,1990,1992,1993,1995,1998,2003,2009,2016,
            Gaussian, Inc.  All Rights Reserved.
  
 This is part of the Gaussian(R) 16 program.  It is based on
 the Gaussian(R) 09 system (copyright 2009, Gaussian, Inc.),
 the Gaussian(R) 03 system (copyright 2003, Gaussian, Inc.),
 the Gaussian(R) 98 system (copyright 1998, Gaussian, Inc.),
 the Gaussian(R) 94 system (copyright 1995, Gaussian, Inc.),
 the Gaussian 92(TM) system (copyright 1992, Gaussian, Inc.),
 the Gaussian 90(TM) system (copyright 1990, Gaussian, Inc.),
 the Gaussian 88(TM) system (copyright 1988, Gaussian, Inc.),
 the Gaussian 86(TM) system (copyright 1986, Carnegie Mellon
 University), and the Gaussian 82(TM) system (copyright 1983,
 Carnegie Mellon University). Gaussian is a federally registered
 trademark of Gaussian, Inc.
  
 This software contains proprietary and confidential information,
 including trade secrets, belonging to Gaussian, Inc.
  
 This software is provided under written license and may be
 used, copied, transmitted, or stored only in accord with that
 written license.
  
 The following legend is applicable only to US Government
 contracts under FAR:
  
                    RESTRICTED RIGHTS LEGEND
  
 Use, reproduction and disclosure by the US Government is
 subject to restrictions as set forth in subparagraphs (a)
 and (c) of the Commercial Computer Software - Restricted
 Rights clause in FAR 52.227-19.
  
 Gaussian, Inc.
 340 Quinnipiac St., Bldg. 40, Wallingford CT 06492
  
  
 ---------------------------------------------------------------
 Warning -- This program may not be used in any manner that
 competes with the business of Gaussian, Inc. or will provide
 assistance to any competitor of Gaussian, Inc.  The licensee
 of this program is prohibited from giving any competitor of
 Gaussian, Inc. access to this program.  By using this program,
 the user acknowledges that Gaussian, Inc. is engaged in the
 business of creating and licensing software in the field of
 computational chemistry and represents and warrants to the
 licensee that it is not a competitor of Gaussian, Inc. and that
 it will not use this program in any manner prohibited above.
 ---------------------------------------------------------------
  

 Cite this work as:
 Gaussian 16, Revision A.03,
 M. J. Frisch, G. W. Trucks, H. B. Schlegel, G. E. Scuseria, 
 M. A. Robb, J. R. Cheeseman, G. Scalmani, V. Barone, 
 G. A. Petersson, H. Nakatsuji, X. Li, M. Caricato, A. V. Marenich, 
 J. Bloino, B. G. Janesko, R. Gomperts, B. Mennucci, H. P. Hratchian, 
 J. V. Ortiz, A. F. Izmaylov, J. L. Sonnenberg, D. Williams-Young, 
 F. Ding, F. Lipparini, F. Egidi, J. Goings, B. Peng, A. Petrone, 
 T. Henderson, D. Ranasinghe, V. G. Zakrzewski, J. Gao, N. Rega, 
 G. Zheng, W. Liang, M. Hada, M. Ehara, K. Toyota, R. Fukuda, 
 J. Hasegawa, M. Ishida, T. Nakajima, Y. Honda, O. Kitao, H. Nakai, 
 T. Vreven, K. Throssell, J. A. Montgomery, Jr., J. E. Peralta, 
 F. Ogliaro, M. J. Bearpark, J. J. Heyd, E. N. Brothers, K. N. Kudin, 
 V. N. Staroverov, T. A. Keith, R. Kobayashi, J. Normand, 
 K. Raghavachari, A. P. Rendell, J. C. Burant, S. S. Iyengar, 
 J. Tomasi, M. Cossi, J. M. Millam, M. Klene, C. Adamo, R. Cammi, 
 J. W. Ochterski, R. L. Martin, K. Morokuma, O. Farkas, 
 J. B. Foresman, and D. J. Fox, Gaussian, Inc., Wallingford CT, 2016.
 
 ******************************************
 Gaussian 16:  ES64L-G16RevA.03 25-Dec-2016
                24-Jan-2026 
 ******************************************
 %nprocshared=16
 Will use up to   16 processors via shared memory.
 %mem=16GB
 %oldchk=DDL-LR-1.chk
 %chk=DDL-LR-Eq-1.chk
 Copying data from "DDL-LR-1.chk" to current chk file "DDL-LR-Eq-1.chk"
 IOpt=  2 FromEx=T IUOpen= 4 IOptOp= 5 NList=   0 IFRang= 0 IUIn= 4 IUOut= 2.
 ----------------------------------------------------------------------
 #p CAM-B3LYP TZVP em=gd3bj td(Eqsolv,nstates=6,root=1) scrf=(Solvent=W
 ater) Geom=Check Guess=Read
 ----------------------------------------------------------------------
 1/29=2,38=1,172=1/1;
 2/12=2,40=1/2;
 3/5=19,7=101,11=9,14=-4,25=1,30=1,70=2201,72=1,74=-40,116=-2,124=41/1,2,3,8;
 4/5=1/1;
 5/5=2,38=6,53=1/2;
 8/6=1,10=1,107=1,108=6/1;
 9/8=1,41=6,42=1,70=2,73=2/14;
 6/7=2,8=2,9=2,10=2/1;
 99/5=1,9=1/99;
 Leave Link    1 at Sat Jan 24 15:31:10 2026, MaxMem=  2147483648 cpu:               0.8 elap:               0.1
 (Enter /data/home/wyx/g16/l101.exe)
 -------------------
 Title Card Required
 -------------------
 Structure from the checkpoint file:  "DDL-LR-Eq-1.chk"
 Charge =  0 Multiplicity = 1
 Z-Matrix found in chk file.
 O,0,2.766599,-1.550992,0.665639
 O,0,-3.387385,-1.658741,-0.712197
 N,0,-0.654178,1.525183,-0.094329
 H,0,-0.96563,2.47844,-0.182473
 C,0,-1.236912,-0.77698,-0.174805
 C,0,0.66848,1.317689,0.138944
 C,0,-1.607223,0.534477,-0.29697
 C,0,-2.145188,-1.833778,-0.375696
 C,0,0.180041,-1.133566,0.214196
 H,0,0.185317,-1.635938,1.186998
 H,0,0.583039,-1.868097,-0.485539
 C,0,1.133601,0.04126,0.262403
 C,0,2.511494,-0.357793,0.481362
 C,0,-2.954537,1.068516,-0.626412
 H,0,-3.337738,1.708069,0.174446
 H,0,-2.935489,1.662358,-1.544638
 H,0,-3.684434,0.272304,-0.775326
 C,0,-1.833914,-3.296885,-0.214604
 H,0,-2.509524,-3.769833,0.501758
 H,0,-1.945584,-3.82404,-1.16548
 H,0,-0.81506,-3.433568,0.135954
 C,0,3.672851,0.60858,0.477694
 H,0,3.652059,1.289674,-0.369494
 H,0,3.68489,1.20716,1.389248
 H,0,4.587799,0.022296,0.443185
 C,0,1.450273,2.595909,0.223067
 H,0,2.117078,2.612238,1.078673
 H,0,2.046566,2.753478,-0.675211
 H,0,0.772707,3.44258,0.319608
 Recover connectivity data from disk.
 ITRead=  0  0  0  0  0  0  0  0  0  0  0  0  0  0  0  0  0  0  0  0
 ITRead=  0  0  0  0  0  0  0  0  0
 MicOpt= -1 -1 -1 -1 -1 -1 -1 -1 -1 -1 -1 -1 -1 -1 -1 -1 -1 -1 -1 -1
 MicOpt= -1 -1 -1 -1 -1 -1 -1 -1 -1
 NAtoms=     29 NQM=       29 NQMF=       0 NMMI=      0 NMMIF=      0
                NMic=       0 NMicF=      0.
                    Isotopes and Nuclear Properties:
 (Nuclear quadrupole moments (NQMom) in fm**2, nuclear magnetic moments (NMagM)
  in nuclear magnetons)

  Atom         1           2           3           4           5           6           7           8           9          10
 IAtWgt=          16          16          14           1          12          12          12          12          12           1
 AtmWgt=  15.9949146  15.9949146  14.0030740   1.0078250  12.0000000  12.0000000  12.0000000  12.0000000  12.0000000   1.0078250
 NucSpn=           0           0           2           1           0           0           0           0           0           1
 AtZEff=   5.6000000   5.6000000   4.5500000   1.0000000   3.6000000   3.6000000   3.6000000   3.6000000   3.6000000   1.0000000
 NQMom=    0.0000000   0.0000000   2.0440000   0.0000000   0.0000000   0.0000000   0.0000000   0.0000000   0.0000000   0.0000000
 NMagM=    0.0000000   0.0000000   0.4037610   2.7928460   0.0000000   0.0000000   0.0000000   0.0000000   0.0000000   2.7928460
 AtZNuc=   8.0000000   8.0000000   7.0000000   1.0000000   6.0000000   6.0000000   6.0000000   6.0000000   6.0000000   1.0000000

  Atom        11          12          13          14          15          16          17          18          19          20
 IAtWgt=           1          12          12          12           1           1           1          12           1           1
 AtmWgt=   1.0078250  12.0000000  12.0000000  12.0000000   1.0078250   1.0078250   1.0078250  12.0000000   1.0078250   1.0078250
 NucSpn=           1           0           0           0           1           1           1           0           1           1
 AtZEff=   1.0000000   3.6000000   3.6000000   3.6000000   1.0000000   1.0000000   1.0000000   3.6000000   1.0000000   1.0000000
 NQMom=    0.0000000   0.0000000   0.0000000   0.0000000   0.0000000   0.0000000   0.0000000   0.0000000   0.0000000   0.0000000
 NMagM=    2.7928460   0.0000000   0.0000000   0.0000000   2.7928460   2.7928460   2.7928460   0.0000000   2.7928460   2.7928460
 AtZNuc=   1.0000000   6.0000000   6.0000000   6.0000000   1.0000000   1.0000000   1.0000000   6.0000000   1.0000000   1.0000000

  Atom        21          22          23          24          25          26          27          28          29
 IAtWgt=           1          12           1           1           1          12           1           1           1
 AtmWgt=   1.0078250  12.0000000   1.0078250   1.0078250   1.0078250  12.0000000   1.0078250   1.0078250   1.0078250
 NucSpn=           1           0           1           1           1           0           1           1           1
 AtZEff=   1.0000000   3.6000000   1.0000000   1.0000000   1.0000000   3.6000000   1.0000000   1.0000000   1.0000000
 NQMom=    0.0000000   0.0000000   0.0000000   0.0000000   0.0000000   0.0000000   0.0000000   0.0000000   0.0000000
 NMagM=    2.7928460   0.0000000   2.7928460   2.7928460   2.7928460   0.0000000   2.7928460   2.7928460   2.7928460
 AtZNuc=   1.0000000   6.0000000   1.0000000   1.0000000   1.0000000   6.0000000   1.0000000   1.0000000   1.0000000
 Leave Link  101 at Sat Jan 24 15:31:13 2026, MaxMem=  2147483648 cpu:               0.9 elap:               0.1
 (Enter /data/home/wyx/g16/l202.exe)
                          Input orientation:                          
 ---------------------------------------------------------------------
 Center     Atomic      Atomic             Coordinates (Angstroms)
 Number     Number       Type             X           Y           Z
 ---------------------------------------------------------------------
      1          8           0        2.766599   -1.550992    0.665639
      2          8           0       -3.387385   -1.658741   -0.712197
      3          7           0       -0.654178    1.525183   -0.094329
      4          1           0       -0.965630    2.478440   -0.182473
      5          6           0       -1.236912   -0.776980   -0.174805
      6          6           0        0.668480    1.317689    0.138944
      7          6           0       -1.607223    0.534477   -0.296970
      8          6           0       -2.145188   -1.833778   -0.375696
      9          6           0        0.180041   -1.133566    0.214196
     10          1           0        0.185317   -1.635938    1.186998
     11          1           0        0.583039   -1.868097   -0.485539
     12          6           0        1.133601    0.041260    0.262403
     13          6           0        2.511494   -0.357793    0.481362
     14          6           0       -2.954537    1.068516   -0.626412
     15          1           0       -3.337738    1.708069    0.174446
     16          1           0       -2.935489    1.662358   -1.544638
     17          1           0       -3.684434    0.272304   -0.775326
     18          6           0       -1.833914   -3.296885   -0.214604
     19          1           0       -2.509524   -3.769833    0.501758
     20          1           0       -1.945584   -3.824040   -1.165480
     21          1           0       -0.815060   -3.433568    0.135954
     22          6           0        3.672851    0.608580    0.477694
     23          1           0        3.652059    1.289674   -0.369494
     24          1           0        3.684890    1.207160    1.389248
     25          1           0        4.587799    0.022296    0.443185
     26          6           0        1.450273    2.595909    0.223067
     27          1           0        2.117078    2.612238    1.078673
     28          1           0        2.046566    2.753478   -0.675211
     29          1           0        0.772707    3.442580    0.319608
 ---------------------------------------------------------------------
                    Distance matrix (angstroms):
                    1          2          3          4          5
     1  O    0.000000
     2  O    6.307263   0.000000
     3  N    4.662845   4.241409   0.000000
     4  H    5.557441   4.823046   1.006713   0.000000
     5  C    4.163357   2.385545   2.376133   3.266713   0.000000
     6  C    3.592888   5.102315   1.359005   2.030017   2.848964
     7  C    4.940255   2.855100   1.389553   2.050303   1.368201
     8  C    5.028916   1.298816   3.685770   4.474809   1.407887
     9  C    2.658633   3.722975   2.803579   3.810052   1.512029
    10  H    2.634777   4.046191   3.512725   4.486450   2.148267
    11  H    2.488715   3.982395   3.632919   4.624133   2.144601
    12  C    2.316149   4.927389   2.350625   3.247234   2.545584
    13  C    1.234002   6.157420   3.728069   4.535999   3.828423
    14  C    6.423598   2.762725   2.404851   2.478047   2.561258
    15  H    6.937267   3.481955   2.703180   2.519476   3.272753
    16  H    6.908310   3.453530   2.706768   2.530183   3.272916
    17  H    6.856866   1.954778   3.349017   3.551113   2.729833
    18  C    4.998769   2.311793   4.965741   5.840319   2.589965
    19  H    5.726045   2.588636   5.642236   6.472457   3.321814
    20  H    5.542961   2.640601   5.606182   6.453516   3.281498
    21  H    4.080801   3.238244   4.966702   5.922492   2.707765
    22  C    2.349546   7.510228   4.459882   5.044572   5.143083
    23  H    3.150385   7.639658   4.321442   4.771917   5.311403
    24  H    2.995709   7.914956   4.596700   5.070877   5.532378
    25  H    2.416918   8.231911   5.479591   6.104479   5.911684
    26  C    4.373256   6.509969   2.382417   2.452519   4.330779
    27  H    4.233788   7.193580   3.199607   3.333389   4.930239
    28  H    4.565609   6.999776   3.023268   3.064598   4.847243
    29  H    5.388052   6.662917   2.425645   2.050236   4.699755
                    6          7          8          9         10
     6  C    0.000000
     7  C    2.445867   0.000000
     8  C    4.255975   2.429863   0.000000
     9  C    2.500577   2.497593   2.498992   0.000000
    10  H    3.171084   3.182147   2.812900   1.094874   0.000000
    11  H    3.247539   3.256558   2.730653   1.091592   1.734780
    12  C    1.364130   2.840471   3.830587   1.513875   2.137080
    13  C    2.514198   4.285531   4.959614   2.471614   2.746393
    14  C    3.711349   1.486265   3.023444   3.921908   4.523407
    15  H    4.025350   2.143416   3.777501   4.522305   4.961810
    16  H    3.992723   2.143148   3.770142   4.540618   5.299059
    17  H    4.569090   2.147642   2.639046   4.229633   4.739945
    18  C    5.261299   3.838946   1.504501   2.986609   2.966568
    19  H    6.009511   4.469810   2.156612   3.777083   3.505029
    20  H    5.913732   4.457069   2.150522   3.696003   3.855215
    21  H    4.977484   4.069438   2.142511   2.507261   2.310178
    22  C    3.105452   5.337113   6.367336   3.912062   4.207596
    23  H    3.026721   5.313721   6.585140   4.274072   4.795850
    24  H    3.267140   5.594845   6.808241   4.375353   4.513438
    25  H    4.139042   6.260068   7.031976   4.562541   4.762861
    26  C    1.500708   3.724006   5.736548   3.939867   4.520819
    27  H    2.158097   4.481060   6.328440   4.304704   4.668023
    28  H    2.150223   4.291527   6.221208   4.402735   5.118500
    29  H    2.135103   3.808057   6.069391   4.615569   5.185435
                   11         12         13         14         15
    11  H    0.000000
    12  C    2.123247   0.000000
    13  C    2.633411   1.451129   0.000000
    14  C    4.599781   4.307914   5.756650   0.000000
    15  H    5.347620   4.772721   6.210918   1.094187   0.000000
    16  H    5.095669   4.738233   6.152667   1.093686   1.766110
    17  H    4.782951   4.933936   6.353409   1.090357   1.756043
    18  C    2.820727   4.491870   5.291994   4.525716   5.240459
    19  H    3.762353   5.277697   6.070672   4.988028   5.549818
    20  H    3.268328   5.144004   5.881539   5.024508   5.859840
    21  H    2.188980   3.985938   4.543750   5.042551   5.727287
    22  C    4.075375   2.610746   1.510841   6.734453   7.102760
    23  H    4.404982   2.881052   2.176923   6.615287   7.023403
    24  H    4.753263   3.022942   2.156431   6.940036   7.144505
    25  H    4.524844   3.458978   2.111153   7.689307   8.107292
    26  C    4.602344   2.574502   3.149168   4.738871   4.869874
    27  H    4.987328   2.871141   3.055066   5.568812   5.602693
    28  H    4.851478   3.011437   3.351690   5.277548   5.550273
    29  H    5.374712   3.420891   4.182389   4.519235   4.463783
                   16         17         18         19         20
    16  H    0.000000
    17  H    1.756420   0.000000
    18  C    5.251338   4.059303   0.000000
    19  H    5.820471   4.398889   1.092384   0.000000
    20  H    5.587865   4.467198   1.092945   1.760866   0.000000
    21  H    5.769668   4.774644   1.086111   1.765813   1.767564
    22  C    6.990739   7.470795   6.786486   7.575806   7.342680
    23  H    6.701914   7.417808   7.152371   8.020149   7.623468
    24  H    7.255640   7.737330   7.301778   7.995553   7.971314
    25  H    7.952428   8.365232   7.258653   8.047091   7.750303
    26  C    4.819876   5.723735   6.760360   7.502022   7.394299
    27  H    5.771695   6.524580   7.225001   7.903740   7.935182
    28  H    5.173714   6.245847   7.202581   8.043432   7.709823
    29  H    4.516118   5.578139   7.245705   7.926230   7.899263
                   21         22         23         24         25
    21  H    0.000000
    22  C    6.049553   0.000000
    23  H    6.520709   1.087221   0.000000
    24  H    6.584577   1.090584   1.760983   0.000000
    25  H    6.420925   1.087221   1.772654   1.764705   0.000000
    26  C    6.441577   2.992351   2.627782   2.877866   4.063989
    27  H    6.785125   2.606962   2.490488   2.128083   3.635396
    28  H    6.864869   2.928238   2.194036   3.055683   3.894615
    29  H    7.059472   4.058002   3.660674   3.823878   5.125284
                   26         27         28         29
    26  C    0.000000
    27  H    1.084877   0.000000
    28  H    1.089631   1.760974   0.000000
    29  H    1.088700   1.752992   1.757055   0.000000
 Stoichiometry    C11H15NO2
 Framework group  C1[X(C11H15NO2)]
 Deg. of freedom    81
 Full point group                 C1      NOp   1
 RotChk:  IX=0 Diff= 4.50D-16
 Largest Abelian subgroup         C1      NOp   1
 Largest concise Abelian subgroup C1      NOp   1
                         Standard orientation:                         
 ---------------------------------------------------------------------
 Center     Atomic      Atomic             Coordinates (Angstroms)
 Number     Number       Type             X           Y           Z
 ---------------------------------------------------------------------
      1          8           0       -2.256550   -2.313765   -0.078603
      2          8           0        3.675296   -0.180778    0.133859
      3          7           0       -0.067552    1.803322   -0.075878
      4          1           0       -0.102881    2.809404   -0.080539
      5          6           0        1.295340   -0.142423   -0.024780
      6          6           0       -1.250845    1.135392   -0.051758
      7          6           0        1.193277    1.221955   -0.019492
      8          6           0        2.537970   -0.801022    0.040520
      9          6           0        0.052586   -0.997143   -0.130834
     10          1           0        0.067591   -1.563812   -1.067536
     11          1           0        0.053902   -1.752863    0.656858
     12          6           0       -1.248724   -0.228701   -0.041911
     13          6           0       -2.412957   -1.093165    0.013227
     14          6           0        2.299559    2.213003    0.034827
     15          1           0        2.297163    2.863278   -0.845162
     16          1           0        2.221004    2.851554    0.919266
     17          1           0        3.277389    1.732110    0.073153
     18          6           0        2.741677   -2.290856   -0.008671
     19          1           0        3.415231   -2.572698   -0.821194
     20          1           0        3.184685   -2.652585    0.922686
     21          1           0        1.794336   -2.800442   -0.158680
     22          6           0       -3.823741   -0.585410    0.199008
     23          1           0       -3.907895    0.141354    1.003235
     24          1           0       -4.193794   -0.119075   -0.714757
     25          1           0       -4.454231   -1.442226    0.423499
     26          6           0       -2.436201    2.055569   -0.033652
     27          1           0       -3.194949    1.759694   -0.750393
     28          1           0       -2.895850    2.087404    0.953772
     29          1           0       -2.126437    3.068798   -0.284013
 ---------------------------------------------------------------------
 Rotational constants (GHZ):           1.1010127           0.4803272           0.3385797
 Leave Link  202 at Sat Jan 24 15:31:13 2026, MaxMem=  2147483648 cpu:               0.0 elap:               0.0
 (Enter /data/home/wyx/g16/l301.exe)
 Standard basis: TZVP (5D, 7F)
 Ernie: Thresh=  0.10000D-02 Tol=  0.10000D-05 Strict=F.
 There are   370 symmetry adapted cartesian basis functions of A   symmetry.
 There are   356 symmetry adapted basis functions of A   symmetry.
   356 basis functions,   610 primitive gaussians,   370 cartesian basis functions
    52 alpha electrons       52 beta electrons
       nuclear repulsion energy       897.8047055810 Hartrees.
 IExCor=20419 DFT=T Ex+Corr=CAM-B3LYP ExCW=0 ScaHFX=  1.000000
 ScaDFX=  1.000000  1.000000  1.000000  0.810000 ScalE2=  1.000000  1.000000
 IRadAn=      5 IRanWt=     -1 IRanGd=            0 ICorTp=0 IEmpDi=141
 HFx  wShort=  0.000000 wLong=  0.330000 cFull=  0.190000 cShort=  0.000000 cLong=  0.460000
 DFx  wShort=  0.000000 wLong=  0.330000 cFull=  0.190000 cShort=  0.000000 cLong=  0.460000
 NAtoms=   29 NActive=   29 NUniq=   29 SFac= 1.00D+00 NAtFMM=   60 NAOKFM=F Big=F
 Integral buffers will be    131072 words long.
 Raffenetti 1 integral format.
 Two-electron integral symmetry is turned on.
 R6Disp:  Grimme-D3(BJ) Dispersion energy=       -0.0260547091 Hartrees.
 Nuclear repulsion after empirical dispersion term =      897.7786508719 Hartrees.
 ------------------------------------------------------------------------------
 Polarizable Continuum Model (PCM)
 =================================
 Model                : PCM.
 Atomic radii         : UFF (Universal Force Field).
 Polarization charges : Total charges.
 Charge compensation  : None.
 Solution method      : On-the-fly selection.
 Cavity type          : Scaled VdW (van der Waals Surface) (Alpha=1.100).
 Cavity algorithm     : GePol (No added spheres)
                        Default sphere list used, NSphG=   29.
                        Lebedev-Laikov grids with approx.  5.0 points / Ang**2.
                        Smoothing algorithm: York/Karplus (Gamma=1.0000).
                        Polarization charges: spherical gaussians, with
                                              point-specific exponents (IZeta= 3).
                        Self-potential: point-specific (ISelfS= 7).
                        Self-field    : sphere-specific E.n sum rule (ISelfD= 2).
 Solvent              : Water, Eps=  78.355300 Eps(inf)=   1.777849
 ------------------------------------------------------------------------------
 GePol: Number of generator spheres                  =      29
 GePol: Total number of spheres                      =      29
 GePol: Number of exposed spheres                    =      29 (100.00%)
 GePol: Number of points                             =    2114
 GePol: Average weight of points                     =       0.13
 GePol: Minimum weight of points                     =   0.30D-09
 GePol: Maximum weight of points                     =    0.20577
 GePol: Number of points with low weight             =     138
 GePol: Fraction of low-weight points (<1% of avg)   =       6.53%
 GePol: Cavity surface area                          =    269.453 Ang**2
 GePol: Cavity volume                                =    286.933 Ang**3
 Leave Link  301 at Sat Jan 24 15:31:13 2026, MaxMem=  2147483648 cpu:               0.6 elap:               0.0
 (Enter /data/home/wyx/g16/l302.exe)
 NPDir=0 NMtPBC=     1 NCelOv=     1 NCel=       1 NClECP=     1 NCelD=      1
         NCelK=      1 NCelE2=     1 NClLst=     1 CellRange=     0.0.
 One-electron integrals computed using PRISM.
 One-electron integral symmetry used in STVInt
 NBasis=   356 RedAO= T EigKep=  3.78D-05  NBF=   356
 NBsUse=   356 1.00D-06 EigRej= -1.00D+00 NBFU=   356
 Precomputing XC quadrature grid using
 IXCGrd= 4 IRadAn=           5 IRanWt=          -1 IRanGd=           0 AccXCQ= 0.00D+00.
 Generated NRdTot=       0 NPtTot=           0 NUsed=           0 NTot=          32
 NSgBfM=   366   366   366   366   366 MxSgAt=    29 MxSgA2=    29.
 Leave Link  302 at Sat Jan 24 15:31:14 2026, MaxMem=  2147483648 cpu:               3.1 elap:               0.2
 (Enter /data/home/wyx/g16/l303.exe)
 DipDrv:  MaxL=1.
 Leave Link  303 at Sat Jan 24 15:31:14 2026, MaxMem=  2147483648 cpu:               0.6 elap:               0.0
 (Enter /data/home/wyx/g16/l308.exe)
 Leave Link  308 at Sat Jan 24 15:31:14 2026, MaxMem=  2147483648 cpu:               0.7 elap:               0.1
 (Enter /data/home/wyx/g16/l401.exe)
 Initial guess from the checkpoint file:  "DDL-LR-Eq-1.chk"
 B after Tr=     0.000000   -0.000000    0.000000
         Rot=    1.000000   -0.000000   -0.000000    0.000000 Ang=   0.00 deg.
 Guess basis will be translated and rotated to current coordinates.
 JPrj=2 DoOrth=T DoCkMO=T.
 Leave Link  401 at Sat Jan 24 15:31:14 2026, MaxMem=  2147483648 cpu:               2.3 elap:               0.2
 (Enter /data/home/wyx/g16/l502.exe)
 Integral symmetry usage will be decided dynamically.
 Closed shell SCF:
 Using DIIS extrapolation, IDIIS=  1040.
 NGot=  2147483648 LenX=  2147200095 LenY=  2147062754
 Requested convergence on RMS density matrix=1.00D-08 within 128 cycles.
 Requested convergence on MAX density matrix=1.00D-06.
 Requested convergence on             energy=1.00D-06.
 No special actions if energy rises.
 Fock matrices will be formed incrementally for  20 cycles.

 Cycle   1  Pass 1  IDiag  1:
 FoFJK:  IHMeth= 1 ICntrl=       0 DoSepK=T KAlg= 0 I1Cent=           0 FoldK=F
 IRaf=         1 NMat=       1 IRICut=       1 DoRegI=T DoRafI=F ISym2E= 0 IDoP0=0 IntGTp=1.
 FoFCou: FMM=F IPFlag=           0 FMFlag=      100000 FMFlg1=           0
         NFxFlg=           0 DoJE=T BraDBF=F KetDBF=F FulRan=T
         wScrn=  0.000000 ICntrl=       500 IOpCl=  0 I1Cent=           0 NGrid=           0
         NMat0=    1 NMatS0=      1 NMatT0=    0 NMatD0=    1 NMtDS0=    0 NMtDT0=    0
 Symmetry not used in FoFCou.
 Inv3:  Mode=1 IEnd=    13406988.
 Iteration    1 A*A^-1 deviation from unit magnitude is 3.11D-15 for    742.
 Iteration    1 A*A^-1 deviation from orthogonality  is 2.15D-15 for   1395    863.
 Iteration    1 A^-1*A deviation from unit magnitude is 3.44D-15 for    730.
 Iteration    1 A^-1*A deviation from orthogonality  is 2.00D-15 for   2005    106.
 E= -633.316734602900    
 DIIS: error= 9.54D-09 at cycle   1 NSaved=   1.
 NSaved= 1 IEnMin= 1 EnMin= -633.316734602900     IErMin= 1 ErrMin= 9.54D-09
 ErrMax= 9.54D-09  0.00D+00 EMaxC= 1.00D-01 BMatC= 2.56D-14 BMatP= 2.56D-14
 IDIUse=1 WtCom= 1.00D+00 WtEn= 0.00D+00
 Coeff-Com:  0.100D+01
 Coeff:      0.100D+01
 Gap=     0.225 Goal=   None    Shift=    0.000
 RMSDP=2.64D-09 MaxDP=1.53D-07              OVMax= 1.03D-07

 Error on total polarization charges =  0.01562
 SCF Done:  E(RCAM-B3LYP) =  -633.316734603     A.U. after    1 cycles
            NFock=  1  Conv=0.26D-08     -V/T= 2.0044
 KE= 6.305579514544D+02 PE=-3.271438748994D+03 EE= 1.109785412065D+03
 Leave Link  502 at Sat Jan 24 15:31:20 2026, MaxMem=  2147483648 cpu:              85.4 elap:               5.6
 (Enter /data/home/wyx/g16/l801.exe)
 DoSCS=F DFT=T ScalE2(SS,OS)=  1.000000  1.000000
 ExpMin= 9.52D-02 ExpMax= 2.70D+04 ExpMxC= 9.22D+02 IAcc=3 IRadAn=         5 AccDes= 0.00D+00
 HarFok:  IExCor=  205 AccDes= 0.00D+00 IRadAn=         5 IDoV=-2 UseB2=F ITyADJ=14
 ICtDFT= 12500011 ScaDFX=  1.000000  1.000000  1.000000  1.000000
 Largest valence mixing into a core orbital is  5.64D-05
 Largest core mixing into a valence orbital is  1.19D-05
 Range of M.O.s used for correlation:    15   356
 NBasis=   356 NAE=    52 NBE=    52 NFC=    14 NFV=     0
 NROrb=    342 NOA=    38 NOB=    38 NVA=   304 NVB=   304

 **** Warning!!: The largest alpha MO coefficient is  0.44623283D+02

 Leave Link  801 at Sat Jan 24 15:31:21 2026, MaxMem=  2147483648 cpu:               1.0 elap:               0.1
 (Enter /data/home/wyx/g16/l914.exe)
 RHF ground state
 Two-electron integrals replicated using symmetry.
 MDV=  2147483648 DFT=T DoStab=F Mixed=T DoRPA=T DoScal=F NonHer=T
 NEqPCM:  Using equilibrium solvation (IEInf=0, Eps=  78.3553, EpsInf=   1.7778)
 Making orbital integer symmetry assigments:
 Orbital symmetries:
       Occupied  (A) (A) (A) (A) (A) (A) (A) (A) (A) (A) (A) (A)
                 (A) (A) (A) (A) (A) (A) (A) (A) (A) (A) (A) (A)
                 (A) (A) (A) (A) (A) (A) (A) (A) (A) (A) (A) (A)
                 (A) (A) (A) (A) (A) (A) (A) (A) (A) (A) (A) (A)
                 (A) (A) (A) (A)
       Virtual   (A) (A) (A) (A) (A) (A) (A) (A) (A) (A) (A) (A)
                 (A) (A) (A) (A) (A) (A) (A) (A) (A) (A) (A) (A)
                 (A) (A) (A) (A) (A) (A) (A) (A) (A) (A) (A) (A)
                 (A) (A) (A) (A) (A) (A) (A) (A) (A) (A) (A) (A)
                 (A) (A) (A) (A) (A) (A) (A) (A) (A) (A) (A) (A)
                 (A) (A) (A) (A) (A) (A) (A) (A) (A) (A) (A) (A)
                 (A) (A) (A) (A) (A) (A) (A) (A) (A) (A) (A) (A)
                 (A) (A) (A) (A) (A) (A) (A) (A) (A) (A) (A) (A)
                 (A) (A) (A) (A) (A) (A) (A) (A) (A) (A) (A) (A)
                 (A) (A) (A) (A) (A) (A) (A) (A) (A) (A) (A) (A)
                 (A) (A) (A) (A) (A) (A) (A) (A) (A) (A) (A) (A)
                 (A) (A) (A) (A) (A) (A) (A) (A) (A) (A) (A) (A)
                 (A) (A) (A) (A) (A) (A) (A) (A) (A) (A) (A) (A)
                 (A) (A) (A) (A) (A) (A) (A) (A) (A) (A) (A) (A)
                 (A) (A) (A) (A) (A) (A) (A) (A) (A) (A) (A) (A)
                 (A) (A) (A) (A) (A) (A) (A) (A) (A) (A) (A) (A)
                 (A) (A) (A) (A) (A) (A) (A) (A) (A) (A) (A) (A)
                 (A) (A) (A) (A) (A) (A) (A) (A) (A) (A) (A) (A)
                 (A) (A) (A) (A) (A) (A) (A) (A) (A) (A) (A) (A)
                 (A) (A) (A) (A) (A) (A) (A) (A) (A) (A) (A) (A)
                 (A) (A) (A) (A) (A) (A) (A) (A) (A) (A) (A) (A)
                 (A) (A) (A) (A) (A) (A) (A) (A) (A) (A) (A) (A)
                 (A) (A) (A) (A) (A) (A) (A) (A) (A) (A) (A) (A)
                 (A) (A) (A) (A) (A) (A) (A) (A) (A) (A) (A) (A)
                 (A) (A) (A) (A) (A) (A) (A) (A) (A) (A) (A) (A)
                 (A) (A) (A) (A)
    24 initial guesses have been made.
 Convergence on wavefunction:    0.001000000000000
 Davidson Disk Diagonalization:  ConvIn= 1.00D-03 SkipCon=T Conv= 1.00D-03.
 Max sub-space:  2000 roots to seek:    24 dimension of matrix:        23104
 Iteration     1 Dimension    24 NMult     0 NNew     24
 CISAX will form    24 AO SS matrices at one time.
 NMat=    24 NSing=    24 JSym2X= 0.
 FoFJK:  IHMeth= 1 ICntrl=       0 DoSepK=T KAlg= 0 I1Cent=           0 FoldK=F
 IRaf=         1 NMat=      48 IRICut=       1 DoRegI=T DoRafI=F ISym2E= 0 IDoP0=3 IntGTp=3.
 FoFCou: FMM=F IPFlag=           0 FMFlag=      100000 FMFlg1=           0
         NFxFlg=           0 DoJE=F BraDBF=F KetDBF=F FulRan=T
         wScrn=  0.000000 ICntrl=       500 IOpCl=  0 I1Cent=           0 NGrid=           0
         NMat0=   24 NMatS0=     24 NMatT0=    0 NMatD0=   24 NMtDS0=    0 NMtDT0=    0
 Symmetry not used in FoFCou.
 New state      3 was old state      4
 New state      4 was old state      3
 New state      6 was old state      7
 Excitation Energies [eV] at current iteration:
 Root      1 :     3.545463793728970
 Root      2 :     3.577362222520064
 Root      3 :     4.452678446350444
 Root      4 :     5.384671187250575
 Root      5 :     6.018573641525252
 Root      6 :     6.313244817672131
 Root      7 :     6.502755383177147
 Root      8 :     6.644917415948551
 Root      9 :     6.945224506007413
 Root     10 :     7.040670469193135
 Root     11 :     7.165675707652743
 Root     12 :     7.205176292344309
 Root     13 :     7.501541964420265
 Root     14 :     7.584076149306751
 Root     15 :     7.652848847310856
 Root     16 :     7.711358998754597
 Root     17 :     7.845680172372239
 Root     18 :     8.115262534319051
 Root     19 :     8.245568340837739
 Root     20 :     8.296267859618013
 Root     21 :     8.409069449107136
 Root     22 :     8.579251154517356
 Root     23 :     8.633197701530065
 Root     24 :     9.090971392328330
 Iteration     2 Dimension    36 NMult    24 NNew     12
 CISAX will form    12 AO SS matrices at one time.
 NMat=    12 NSing=    12 JSym2X= 0.
 Root      1 not converged, maximum delta is    0.311220431929190
 Root      2 not converged, maximum delta is    0.303639297749499
 Root      3 not converged, maximum delta is    0.093874340717307
 Root      4 not converged, maximum delta is    0.525939506733375
 Root      5 not converged, maximum delta is    0.507997318566664
 Root      6 not converged, maximum delta is    0.073216633080824
 Excitation Energies [eV] at current iteration:
 Root      1 :     3.126037310075094   Change is   -0.419426483653876
 Root      2 :     3.372480066865348   Change is   -0.204882155654716
 Root      3 :     4.221628114714081   Change is   -0.231050331636363
 Root      4 :     4.945827743561912   Change is   -0.438843443688663
 Root      5 :     5.275662118863827   Change is   -0.742911522661426
 Root      6 :     6.158297377144127   Change is   -0.154947440528004
 Iteration     3 Dimension    48 NMult    36 NNew     12
 CISAX will form    12 AO SS matrices at one time.
 NMat=    12 NSing=    12 JSym2X= 0.
 Root      1 not converged, maximum delta is    0.006672262593675
 Root      2 not converged, maximum delta is    0.010554609332545
 Root      3 not converged, maximum delta is    0.017742711836066
 Root      4 not converged, maximum delta is    0.016563118221798
 Root      5 not converged, maximum delta is    0.015822417469037
 Root      6 not converged, maximum delta is    0.015396830235587
 Excitation Energies [eV] at current iteration:
 Root      1 :     3.111934720694288   Change is   -0.014102589380806
 Root      2 :     3.365224528004949   Change is   -0.007255538860399
 Root      3 :     4.209436187723839   Change is   -0.012191926990242
 Root      4 :     4.920735287620175   Change is   -0.025092455941737
 Root      5 :     5.262496081251466   Change is   -0.013166037612361
 Root      6 :     6.148994861922048   Change is   -0.009302515222078
 Iteration     4 Dimension    60 NMult    48 NNew     12
 CISAX will form    12 AO SS matrices at one time.
 NMat=    12 NSing=    12 JSym2X= 0.
 Root      1 not converged, maximum delta is    0.001746288537593
 Root      2 not converged, maximum delta is    0.001189257822300
 Root      3 not converged, maximum delta is    0.001951296652859
 Root      4 not converged, maximum delta is    0.003589387420181
 Root      5 not converged, maximum delta is    0.002686260256289
 Root      6 not converged, maximum delta is    0.003165870060703
 Excitation Energies [eV] at current iteration:
 Root      1 :     3.110848640887748   Change is   -0.001086079806539
 Root      2 :     3.364982033716482   Change is   -0.000242494288467
 Root      3 :     4.208955356251870   Change is   -0.000480831471969
 Root      4 :     4.917497891003173   Change is   -0.003237396617003
 Root      5 :     5.260959051240100   Change is   -0.001537030011366
 Root      6 :     6.148323650515055   Change is   -0.000671211406994
 Iteration     5 Dimension    72 NMult    60 NNew     12
 CISAX will form    12 AO SS matrices at one time.
 NMat=    12 NSing=    12 JSym2X= 0.
 Root      1 has converged.
 Root      2 has converged.
 Root      3 has converged.
 Root      4 has converged.
 Root      5 has converged.
 Root      6 has converged.
 Excitation Energies [eV] at current iteration:
 Root      1 :     3.110797941650649   Change is   -0.000050699237099
 Root      2 :     3.364964942355721   Change is   -0.000017091360762
 Root      3 :     4.208926385304673   Change is   -0.000028970947198
 Root      4 :     4.917308253460192   Change is   -0.000189637542981
 Root      5 :     5.260835748979567   Change is   -0.000123302260533
 Root      6 :     6.148284662613081   Change is   -0.000038987901973
 Convergence achieved on expansion vectors.
 ***********************************************************************
 Excited states from <AA,BB:AA,BB> singles matrix:
 ***********************************************************************
 
 1PDM for each excited state written to RWF  633
 Ground to excited state transition densities written to RWF  633
 Ground to excited state transition electric dipole moments (Au):
       state          X           Y           Z        Dip. S.      Osc.
         1        -1.8353     -0.0555     -0.0316      3.3723      0.2570
         2        -0.0940      0.0032     -0.0468      0.0110      0.0009
         3         0.0065     -0.0807      0.0392      0.0081      0.0008
         4         0.0270     -2.1054      0.0475      4.4359      0.5344
         5        -0.3746      1.0480     -0.0088      1.2386      0.1596
         6        -0.0447      0.0390      0.0077      0.0036      0.0005
 Ground to excited state transition velocity dipole moments (Au):
       state          X           Y           Z        Dip. S.      Osc.
         1         0.2049      0.0055      0.0037      0.0420      0.2451
         2         0.0113     -0.0003      0.0048      0.0002      0.0008
         3        -0.0013      0.0119     -0.0024      0.0001      0.0006
         4        -0.0100      0.3615     -0.0070      0.1308      0.4826
         5         0.0670     -0.2027      0.0023      0.0456      0.1571
         6         0.0102     -0.0077     -0.0217      0.0006      0.0019
 Ground to excited state transition magnetic dipole moments (Au):
       state          X           Y           Z
         1         0.0531      0.0105     -1.3828
         2        -0.7034     -0.2697     -0.1124
         3         0.0010     -0.9309     -0.0410
         4         0.0207      0.0571     -0.5699
         5        -0.0698     -0.0555      0.2060
         6         0.0475      0.0186     -0.0216
 Ground to excited state transition velocity quadrupole moments (Au):
       state          XX          YY          ZZ          XY          XZ          YZ
         1         0.4422     -0.1658     -0.0132     -0.4968      0.0263     -0.0049
         2         0.0250     -0.0059      0.0010     -0.0308      0.0430     -0.0223
         3        -0.0151      0.0040     -0.0081     -0.0201      0.0783      0.0047
         4        -1.5787      0.3756      0.0402     -0.3184     -0.0504     -0.0168
         5         0.4905     -0.4264     -0.0244     -0.1313      0.0431     -0.0174
         6        -0.1455     -0.0958      0.0730     -0.0245     -0.0281      0.1057
 <0|del|b> * <b|rxdel|0> + <0|del|b> * <b|delr+rdel|0>
 Rotatory Strengths (R) in cgs (10**-40 erg-esu-cm/Gauss)
       state          XX          YY          ZZ    R(velocity)    E-M Angle
         1       -21.7692     20.4122     37.3859     12.0096       88.82
         2        -1.6762    -24.6316    -21.8801    -16.0626      154.11
         3       -27.0847      0.0969    -23.1480    -16.7119      165.01
         4        88.1599      3.3558      4.0366     31.8508       83.24
         5        36.8849     -9.2918     -1.8213      8.5906       81.55
         6         1.0039      2.3470     -0.8133      0.8459       54.50
 1/2[<0|r|b>*<b|rxdel|0> + (<0|rxdel|b>*<b|r|0>)*]
 Rotatory Strengths (R) in cgs (10**-40 erg-esu-cm/Gauss)
       state          XX          YY          ZZ     R(length)
         1        68.9157      0.4101    -30.8791     12.8156
         2       -46.7795      0.6050     -3.7243    -16.6329
         3        -0.0046    -53.1152      1.1383    -17.3272
         4        -0.3952     85.0607     19.1516     34.6057
         5       -18.4831     41.1617      1.2814      7.9867
         6         1.5042     -0.5119      0.1184      0.3702
  1/2[<0|del|b>*<b|r|0> + (<0|r|b>*<b|del|0>)*] (Au)
       state          X           Y           Z        Dip. S.   Osc.(frdel)
         1        -0.3761     -0.0003     -0.0001      0.3765      0.2510
         2        -0.0011     -0.0000     -0.0002      0.0013      0.0009
         3        -0.0000     -0.0010     -0.0001      0.0011      0.0007
         4        -0.0003     -0.7610     -0.0003      0.7616      0.5078
         5        -0.0251     -0.2124     -0.0000      0.2375      0.1583
         6        -0.0005     -0.0003     -0.0002      0.0009      0.0006

 Excitation energies and oscillator strengths:
 
 Excited State   1:      Singlet-A      3.1108 eV  398.56 nm  f=0.2570  <S**2>=0.000
      52 -> 53         0.69917
 This state for optimization and/or second-order correction.
 Total Energy, E(TD-HF/TD-DFT) =  -633.202414882    
 Copying the excited state density for this state as the 1-particle RhoCI density.
 
 Excited State   2:      Singlet-A      3.3650 eV  368.46 nm  f=0.0009  <S**2>=0.000
      51 -> 53         0.63666
      51 -> 54        -0.26472
 
 Excited State   3:      Singlet-A      4.2089 eV  294.57 nm  f=0.0008  <S**2>=0.000
      50 -> 53         0.52236
      50 -> 54         0.42959
      50 -> 58         0.11905
 
 Excited State   4:      Singlet-A      4.9173 eV  252.14 nm  f=0.5344  <S**2>=0.000
      49 -> 53        -0.21747
      52 -> 54         0.66510
 
 Excited State   5:      Singlet-A      5.2608 eV  235.67 nm  f=0.1596  <S**2>=0.000
      49 -> 53         0.65688
      52 -> 54         0.21712
 
 Excited State   6:      Singlet-A      6.1483 eV  201.66 nm  f=0.0005  <S**2>=0.000
      52 -> 55         0.66210
      52 -> 56         0.12524
      52 -> 61        -0.12321
 SavETr:  write IOETrn=   770 NScale= 10 NData=  16 NLR=1 NState=    6 LETran=     118.
 Leave Link  914 at Sat Jan 24 15:33:18 2026, MaxMem=  2147483648 cpu:            1866.7 elap:             117.1
 (Enter /data/home/wyx/g16/l601.exe)
 Copying SCF densities to generalized density rwf, IOpCl= 0 IROHF=0.

 **********************************************************************

            Population analysis using the SCF density.

 **********************************************************************

 Orbital symmetries:
       Occupied  (A) (A) (A) (A) (A) (A) (A) (A) (A) (A) (A) (A)
                 (A) (A) (A) (A) (A) (A) (A) (A) (A) (A) (A) (A)
                 (A) (A) (A) (A) (A) (A) (A) (A) (A) (A) (A) (A)
                 (A) (A) (A) (A) (A) (A) (A) (A) (A) (A) (A) (A)
                 (A) (A) (A) (A)
       Virtual   (A) (A) (A) (A) (A) (A) (A) (A) (A) (A) (A) (A)
                 (A) (A) (A) (A) (A) (A) (A) (A) (A) (A) (A) (A)
                 (A) (A) (A) (A) (A) (A) (A) (A) (A) (A) (A) (A)
                 (A) (A) (A) (A) (A) (A) (A) (A) (A) (A) (A) (A)
                 (A) (A) (A) (A) (A) (A) (A) (A) (A) (A) (A) (A)
                 (A) (A) (A) (A) (A) (A) (A) (A) (A) (A) (A) (A)
                 (A) (A) (A) (A) (A) (A) (A) (A) (A) (A) (A) (A)
                 (A) (A) (A) (A) (A) (A) (A) (A) (A) (A) (A) (A)
                 (A) (A) (A) (A) (A) (A) (A) (A) (A) (A) (A) (A)
                 (A) (A) (A) (A) (A) (A) (A) (A) (A) (A) (A) (A)
                 (A) (A) (A) (A) (A) (A) (A) (A) (A) (A) (A) (A)
                 (A) (A) (A) (A) (A) (A) (A) (A) (A) (A) (A) (A)
                 (A) (A) (A) (A) (A) (A) (A) (A) (A) (A) (A) (A)
                 (A) (A) (A) (A) (A) (A) (A) (A) (A) (A) (A) (A)
                 (A) (A) (A) (A) (A) (A) (A) (A) (A) (A) (A) (A)
                 (A) (A) (A) (A) (A) (A) (A) (A) (A) (A) (A) (A)
                 (A) (A) (A) (A) (A) (A) (A) (A) (A) (A) (A) (A)
                 (A) (A) (A) (A) (A) (A) (A) (A) (A) (A) (A) (A)
                 (A) (A) (A) (A) (A) (A) (A) (A) (A) (A) (A) (A)
                 (A) (A) (A) (A) (A) (A) (A) (A) (A) (A) (A) (A)
                 (A) (A) (A) (A) (A) (A) (A) (A) (A) (A) (A) (A)
                 (A) (A) (A) (A) (A) (A) (A) (A) (A) (A) (A) (A)
                 (A) (A) (A) (A) (A) (A) (A) (A) (A) (A) (A) (A)
                 (A) (A) (A) (A) (A) (A) (A) (A) (A) (A) (A) (A)
                 (A) (A) (A) (A) (A) (A) (A) (A) (A) (A) (A) (A)
                 (A) (A) (A) (A)
 The electronic state is 1-A.
 Alpha  occ. eigenvalues --  -19.17749 -19.16462 -14.44614 -10.33469 -10.33331
 Alpha  occ. eigenvalues --  -10.32833 -10.32499 -10.25765 -10.25502 -10.25243
 Alpha  occ. eigenvalues --  -10.25188 -10.24131 -10.24105 -10.24074  -1.11673
 Alpha  occ. eigenvalues --   -1.08422  -1.07555  -0.91550  -0.90623  -0.83952
 Alpha  occ. eigenvalues --   -0.82466  -0.81464  -0.78832  -0.74376  -0.71704
 Alpha  occ. eigenvalues --   -0.69319  -0.62130  -0.58444  -0.56953  -0.55136
 Alpha  occ. eigenvalues --   -0.54708  -0.54193  -0.52314  -0.51794  -0.50651
 Alpha  occ. eigenvalues --   -0.49582  -0.49298  -0.48949  -0.48477  -0.48138
 Alpha  occ. eigenvalues --   -0.46561  -0.45774  -0.44479  -0.43701  -0.42982
 Alpha  occ. eigenvalues --   -0.42438  -0.41618  -0.40561  -0.32931  -0.32245
 Alpha  occ. eigenvalues --   -0.30614  -0.26353
 Alpha virt. eigenvalues --   -0.03852   0.01758   0.06605   0.08481   0.08739
 Alpha virt. eigenvalues --    0.10165   0.10957   0.11409   0.12680   0.13185
 Alpha virt. eigenvalues --    0.14889   0.15033   0.15537   0.16712   0.17115
 Alpha virt. eigenvalues --    0.17473   0.17537   0.17798   0.18576   0.19440
 Alpha virt. eigenvalues --    0.19928   0.20063   0.22364   0.23057   0.24411
 Alpha virt. eigenvalues --    0.24533   0.24995   0.25543   0.25836   0.26191
 Alpha virt. eigenvalues --    0.27420   0.28064   0.28487   0.29244   0.29661
 Alpha virt. eigenvalues --    0.30992   0.31405   0.33650   0.33925   0.34766
 Alpha virt. eigenvalues --    0.35487   0.35905   0.36888   0.37039   0.37528
 Alpha virt. eigenvalues --    0.39987   0.40819   0.41205   0.42390   0.43071
 Alpha virt. eigenvalues --    0.44078   0.44992   0.45401   0.46271   0.46510
 Alpha virt. eigenvalues --    0.47330   0.47891   0.48188   0.48521   0.49002
 Alpha virt. eigenvalues --    0.49387   0.49904   0.50680   0.51598   0.51910
 Alpha virt. eigenvalues --    0.52208   0.52978   0.53035   0.53820   0.54148
 Alpha virt. eigenvalues --    0.54554   0.55607   0.55981   0.57729   0.57935
 Alpha virt. eigenvalues --    0.58692   0.59167   0.60655   0.62463   0.62906
 Alpha virt. eigenvalues --    0.63156   0.64999   0.66337   0.66793   0.67456
 Alpha virt. eigenvalues --    0.67674   0.68627   0.71214   0.71674   0.71923
 Alpha virt. eigenvalues --    0.73433   0.75567   0.76979   0.77538   0.78611
 Alpha virt. eigenvalues --    0.80316   0.81529   0.84304   0.88043   0.90210
 Alpha virt. eigenvalues --    0.93088   0.96533   1.00280   1.02684   1.20139
 Alpha virt. eigenvalues --    1.22626   1.23988   1.27097   1.29951   1.31277
 Alpha virt. eigenvalues --    1.31873   1.33333   1.34328   1.35196   1.36898
 Alpha virt. eigenvalues --    1.37570   1.37952   1.39502   1.39761   1.39874
 Alpha virt. eigenvalues --    1.40458   1.40735   1.41144   1.41252   1.41771
 Alpha virt. eigenvalues --    1.42867   1.43100   1.44341   1.44905   1.45868
 Alpha virt. eigenvalues --    1.48527   1.49671   1.50062   1.50925   1.51379
 Alpha virt. eigenvalues --    1.51940   1.52678   1.54748   1.57256   1.57590
 Alpha virt. eigenvalues --    1.59342   1.59995   1.60076   1.61092   1.61621
 Alpha virt. eigenvalues --    1.62065   1.62440   1.62965   1.63637   1.64658
 Alpha virt. eigenvalues --    1.65415   1.66003   1.66157   1.67021   1.67906
 Alpha virt. eigenvalues --    1.68949   1.69071   1.69788   1.71199   1.72723
 Alpha virt. eigenvalues --    1.73078   1.74175   1.75859   1.76075   1.80214
 Alpha virt. eigenvalues --    1.81775   1.83148   1.84460   1.84895   1.85702
 Alpha virt. eigenvalues --    1.85907   1.86405   1.89842   1.90271   1.90783
 Alpha virt. eigenvalues --    1.91604   1.92820   1.97174   1.98549   2.01440
 Alpha virt. eigenvalues --    2.02332   2.04878   2.06374   2.07840   2.10064
 Alpha virt. eigenvalues --    2.10430   2.13443   2.14966   2.18908   2.20090
 Alpha virt. eigenvalues --    2.20581   2.23337   2.24233   2.25040   2.26216
 Alpha virt. eigenvalues --    2.27602   2.29223   2.30048   2.31801   2.33183
 Alpha virt. eigenvalues --    2.33919   2.34298   2.35824   2.38189   2.38683
 Alpha virt. eigenvalues --    2.39963   2.41435   2.42788   2.43789   2.45733
 Alpha virt. eigenvalues --    2.46774   2.47666   2.49302   2.49881   2.50936
 Alpha virt. eigenvalues --    2.53123   2.54350   2.55222   2.56296   2.57213
 Alpha virt. eigenvalues --    2.58073   2.58865   2.61518   2.62511   2.63156
 Alpha virt. eigenvalues --    2.63816   2.64801   2.65323   2.66384   2.68178
 Alpha virt. eigenvalues --    2.68689   2.71242   2.73685   2.74431   2.75317
 Alpha virt. eigenvalues --    2.76388   2.76747   2.77333   2.78261   2.78920
 Alpha virt. eigenvalues --    2.80294   2.81202   2.82958   2.83769   2.84890
 Alpha virt. eigenvalues --    2.85583   2.88048   2.89226   2.91148   2.92921
 Alpha virt. eigenvalues --    2.98165   2.98831   2.99293   3.03990   3.08466
 Alpha virt. eigenvalues --    3.11347   3.12699   3.14942   3.17903   3.20134
 Alpha virt. eigenvalues --    3.21459   3.22286   3.25186   3.25807   3.26498
 Alpha virt. eigenvalues --    3.29542   3.30900   3.31150   3.35486   3.37832
 Alpha virt. eigenvalues --    3.38885   3.39663   3.39949   3.40235   3.41287
 Alpha virt. eigenvalues --    3.42462   3.43918   3.45138   3.46586   3.49242
 Alpha virt. eigenvalues --    3.51309   3.52566   3.54972   3.57154   3.59795
 Alpha virt. eigenvalues --    3.62571   3.92185   4.00105   4.28139   4.35603
 Alpha virt. eigenvalues --   21.64462  21.76193  22.04521  22.10334  22.11902
 Alpha virt. eigenvalues --   22.12819  22.16075  22.19083  22.20675  22.26484
 Alpha virt. eigenvalues --   22.30959  31.92921  43.64575  43.67844
          Condensed to atoms (all electrons):
               1          2          3          4          5          6
     1  O    7.953103   0.000000  -0.000231   0.000017   0.018393   0.016295
     2  O    0.000000   8.132022   0.000749   0.000007  -0.189317   0.001746
     3  N   -0.000231   0.000749   6.334371   0.369442  -0.087868   0.390110
     4  H    0.000017   0.000007   0.369442   0.391252   0.011009  -0.039771
     5  C    0.018393  -0.189317  -0.087868   0.011009   7.198609  -0.041987
     6  C    0.016295   0.001746   0.390110  -0.039771  -0.041987   5.563252
     7  C    0.000086   0.003642   0.345788  -0.042774   0.299887  -0.154635
     8  C   -0.000256   0.597090   0.004349  -0.001402  -0.490926   0.049297
     9  C   -0.004861   0.024793   0.018696   0.000962  -0.669052  -0.091539
    10  H    0.006395  -0.000093   0.001761   0.000016  -0.043444  -0.005064
    11  H    0.009887  -0.000179  -0.000809   0.000002  -0.113109   0.021724
    12  C   -0.253178  -0.004020  -0.105212   0.018222   0.212739  -0.135484
    13  C    0.735712   0.000001  -0.000802   0.000531   0.064146   0.117580
    14  C   -0.000015  -0.094057  -0.048239   0.002586   0.047039  -0.005099
    15  H    0.000000   0.003794   0.000487   0.000001  -0.009659   0.001782
    16  H    0.000000   0.003086  -0.000349  -0.000319  -0.011108   0.002239
    17  H    0.000000   0.044947   0.003673   0.000677   0.013776  -0.000181
    18  C   -0.000335  -0.083899  -0.000280   0.000010  -0.122643  -0.002362
    19  H    0.000001  -0.000623   0.000009  -0.000001  -0.001788   0.000046
    20  H    0.000008  -0.001458   0.000011  -0.000001  -0.006142   0.000074
    21  H    0.000868   0.007713   0.000060   0.000000   0.081131  -0.001399
    22  C   -0.118505   0.000000   0.000348   0.000101   0.000270  -0.009710
    23  H    0.003951  -0.000000   0.000045  -0.000051  -0.000366  -0.024866
    24  H    0.002235   0.000000   0.000097  -0.000015  -0.000084   0.008710
    25  H    0.010097  -0.000000   0.000022  -0.000002  -0.000070  -0.001544
    26  C    0.000832   0.000009  -0.027667  -0.010779   0.001986   0.200999
    27  H   -0.000119  -0.000000   0.000247   0.000885   0.000363  -0.037485
    28  H   -0.000028  -0.000000  -0.002797   0.000579   0.000470  -0.039230
    29  H    0.000019   0.000000   0.003980   0.002114  -0.000528  -0.052405
               7          8          9         10         11         12
     1  O    0.000086  -0.000256  -0.004861   0.006395   0.009887  -0.253178
     2  O    0.003642   0.597090   0.024793  -0.000093  -0.000179  -0.004020
     3  N    0.345788   0.004349   0.018696   0.001761  -0.000809  -0.105212
     4  H   -0.042774  -0.001402   0.000962   0.000016   0.000002   0.018222
     5  C    0.299887  -0.490926  -0.669052  -0.043444  -0.113109   0.212739
     6  C   -0.154635   0.049297  -0.091539  -0.005064   0.021724  -0.135484
     7  C    5.549299  -0.227539  -0.271439  -0.000831   0.012605   0.057122
     8  C   -0.227539   5.780962   0.206900  -0.005970   0.001870  -0.094105
     9  C   -0.271439   0.206900   6.502903   0.426146   0.523479  -0.152127
    10  H   -0.000831  -0.005970   0.426146   0.545306  -0.042671  -0.029315
    11  H    0.012605   0.001870   0.523479  -0.042671   0.522350  -0.086306
    12  C    0.057122  -0.094105  -0.152127  -0.029315  -0.086306   7.502343
    13  C    0.027234  -0.010627  -0.219683  -0.006113  -0.002423  -0.502821
    14  C    0.178781  -0.106764   0.022800  -0.000666   0.000004   0.004789
    15  H   -0.032219   0.007333  -0.001300   0.000111  -0.000010  -0.000380
    16  H   -0.032115   0.007163  -0.000145  -0.000026   0.000054  -0.000979
    17  H   -0.063454  -0.030191   0.002435  -0.000001  -0.000021  -0.000322
    18  C    0.029592   0.272220  -0.027149  -0.005502  -0.010730   0.012359
    19  H   -0.000767  -0.027476  -0.001764   0.000472   0.000516  -0.000241
    20  H   -0.001311  -0.018380  -0.000936   0.000268   0.000216  -0.000484
    21  H    0.005588  -0.145019  -0.015657  -0.004352  -0.003815   0.005248
    22  C    0.001254  -0.000055   0.017487   0.001396   0.000096  -0.298403
    23  H   -0.000010   0.000001   0.001545  -0.000151   0.000034   0.049601
    24  H   -0.000037   0.000002  -0.002184   0.000154  -0.000119   0.001244
    25  H    0.000009  -0.000000  -0.000071  -0.000074  -0.000047   0.027537
    26  C    0.004538   0.000866   0.019048  -0.000326   0.000017  -0.087688
    27  H   -0.001079  -0.000001  -0.000622  -0.000024   0.000011  -0.001645
    28  H   -0.001301  -0.000004  -0.000400  -0.000014   0.000055  -0.017619
    29  H    0.003485   0.000020  -0.000630   0.000040  -0.000008   0.023718
              13         14         15         16         17         18
     1  O    0.735712  -0.000015   0.000000   0.000000   0.000000  -0.000335
     2  O    0.000001  -0.094057   0.003794   0.003086   0.044947  -0.083899
     3  N   -0.000802  -0.048239   0.000487  -0.000349   0.003673  -0.000280
     4  H    0.000531   0.002586   0.000001  -0.000319   0.000677   0.000010
     5  C    0.064146   0.047039  -0.009659  -0.011108   0.013776  -0.122643
     6  C    0.117580  -0.005099   0.001782   0.002239  -0.000181  -0.002362
     7  C    0.027234   0.178781  -0.032219  -0.032115  -0.063454   0.029592
     8  C   -0.010627  -0.106764   0.007333   0.007163  -0.030191   0.272220
     9  C   -0.219683   0.022800  -0.001300  -0.000145   0.002435  -0.027149
    10  H   -0.006113  -0.000666   0.000111  -0.000026  -0.000001  -0.005502
    11  H   -0.002423   0.000004  -0.000010   0.000054  -0.000021  -0.010730
    12  C   -0.502821   0.004789  -0.000380  -0.000979  -0.000322   0.012359
    13  C    5.532866  -0.000043  -0.000022  -0.000028   0.000005   0.000830
    14  C   -0.000043   5.337259   0.385860   0.390977   0.414159  -0.004892
    15  H   -0.000022   0.385860   0.530989  -0.029959  -0.015489   0.000129
    16  H   -0.000028   0.390977  -0.029959   0.525490  -0.014888   0.000113
    17  H    0.000005   0.414159  -0.015489  -0.014888   0.443428   0.001766
    18  C    0.000830  -0.004892   0.000129   0.000113   0.001766   5.161739
    19  H   -0.000022  -0.000035   0.000010  -0.000009   0.000014   0.412435
    20  H   -0.000020  -0.000027  -0.000008   0.000011  -0.000010   0.403407
    21  H    0.002166   0.000606  -0.000019  -0.000011  -0.000222   0.412449
    22  C    0.325039   0.000021   0.000000  -0.000002   0.000000   0.000013
    23  H   -0.073801   0.000002  -0.000000   0.000000   0.000000   0.000000
    24  H   -0.038362  -0.000000   0.000000  -0.000000  -0.000000  -0.000000
    25  H   -0.047030   0.000000   0.000000  -0.000000  -0.000000   0.000000
    26  C   -0.052471  -0.000432  -0.000179   0.000059   0.000010  -0.000022
    27  H   -0.007492   0.000008  -0.000004   0.000007  -0.000001  -0.000000
    28  H    0.006026  -0.000060   0.000011  -0.000014   0.000000  -0.000000
    29  H   -0.000129   0.000517  -0.000000   0.000024   0.000001   0.000001
              19         20         21         22         23         24
     1  O    0.000001   0.000008   0.000868  -0.118505   0.003951   0.002235
     2  O   -0.000623  -0.001458   0.007713   0.000000  -0.000000   0.000000
     3  N    0.000009   0.000011   0.000060   0.000348   0.000045   0.000097
     4  H   -0.000001  -0.000001   0.000000   0.000101  -0.000051  -0.000015
     5  C   -0.001788  -0.006142   0.081131   0.000270  -0.000366  -0.000084
     6  C    0.000046   0.000074  -0.001399  -0.009710  -0.024866   0.008710
     7  C   -0.000767  -0.001311   0.005588   0.001254  -0.000010  -0.000037
     8  C   -0.027476  -0.018380  -0.145019  -0.000055   0.000001   0.000002
     9  C   -0.001764  -0.000936  -0.015657   0.017487   0.001545  -0.002184
    10  H    0.000472   0.000268  -0.004352   0.001396  -0.000151   0.000154
    11  H    0.000516   0.000216  -0.003815   0.000096   0.000034  -0.000119
    12  C   -0.000241  -0.000484   0.005248  -0.298403   0.049601   0.001244
    13  C   -0.000022  -0.000020   0.002166   0.325039  -0.073801  -0.038362
    14  C   -0.000035  -0.000027   0.000606   0.000021   0.000002  -0.000000
    15  H    0.000010  -0.000008  -0.000019   0.000000  -0.000000   0.000000
    16  H   -0.000009   0.000011  -0.000011  -0.000002   0.000000  -0.000000
    17  H    0.000014  -0.000010  -0.000222   0.000000   0.000000  -0.000000
    18  C    0.412435   0.403407   0.412449   0.000013   0.000000  -0.000000
    19  H    0.497905  -0.019286  -0.023195  -0.000000   0.000000   0.000000
    20  H   -0.019286   0.499330  -0.020557  -0.000001   0.000000   0.000000
    21  H   -0.023195  -0.020557   0.548312   0.000054  -0.000001  -0.000001
    22  C   -0.000000  -0.000001   0.000054   5.428839   0.386006   0.406482
    23  H    0.000000   0.000000  -0.000001   0.386006   0.545487  -0.029657
    24  H    0.000000   0.000000  -0.000001   0.406482  -0.029657   0.497710
    25  H   -0.000000   0.000000  -0.000001   0.381117  -0.020434  -0.008384
    26  C    0.000000   0.000001  -0.000014  -0.039729   0.020248  -0.015587
    27  H   -0.000000   0.000000   0.000000   0.011429  -0.008468  -0.001033
    28  H    0.000000  -0.000000   0.000000  -0.013102  -0.002269   0.001540
    29  H    0.000000  -0.000000  -0.000000   0.001753   0.000721   0.000158
              25         26         27         28         29
     1  O    0.010097   0.000832  -0.000119  -0.000028   0.000019
     2  O   -0.000000   0.000009  -0.000000  -0.000000   0.000000
     3  N    0.000022  -0.027667   0.000247  -0.002797   0.003980
     4  H   -0.000002  -0.010779   0.000885   0.000579   0.002114
     5  C   -0.000070   0.001986   0.000363   0.000470  -0.000528
     6  C   -0.001544   0.200999  -0.037485  -0.039230  -0.052405
     7  C    0.000009   0.004538  -0.001079  -0.001301   0.003485
     8  C   -0.000000   0.000866  -0.000001  -0.000004   0.000020
     9  C   -0.000071   0.019048  -0.000622  -0.000400  -0.000630
    10  H   -0.000074  -0.000326  -0.000024  -0.000014   0.000040
    11  H   -0.000047   0.000017   0.000011   0.000055  -0.000008
    12  C    0.027537  -0.087688  -0.001645  -0.017619   0.023718
    13  C   -0.047030  -0.052471  -0.007492   0.006026  -0.000129
    14  C    0.000000  -0.000432   0.000008  -0.000060   0.000517
    15  H    0.000000  -0.000179  -0.000004   0.000011  -0.000000
    16  H   -0.000000   0.000059   0.000007  -0.000014   0.000024
    17  H   -0.000000   0.000010  -0.000001   0.000000   0.000001
    18  C    0.000000  -0.000022  -0.000000  -0.000000   0.000001
    19  H   -0.000000   0.000000  -0.000000   0.000000   0.000000
    20  H    0.000000   0.000001   0.000000  -0.000000  -0.000000
    21  H   -0.000001  -0.000014   0.000000   0.000000  -0.000000
    22  C    0.381117  -0.039729   0.011429  -0.013102   0.001753
    23  H   -0.020434   0.020248  -0.008468  -0.002269   0.000721
    24  H   -0.008384  -0.015587  -0.001033   0.001540   0.000158
    25  H    0.499823   0.001893   0.000667   0.000106  -0.000046
    26  C    0.001893   5.243240   0.413810   0.438635   0.386629
    27  H    0.000667   0.413810   0.511417  -0.028999  -0.023497
    28  H    0.000106   0.438635  -0.028999   0.474610  -0.015215
    29  H   -0.000046   0.386629  -0.023497  -0.015215   0.516227
 Mulliken charges:
               1
     1  O   -0.380372
     2  O   -0.445954
     3  N   -0.199991
     4  H    0.296701
     5  C   -0.161725
     6  C    0.268907
     7  C    0.310600
     8  C    0.230646
     9  C   -0.307634
    10  H    0.162572
    11  H    0.167327
    12  C   -0.144593
    13  C    0.149753
    14  C   -0.525076
    15  H    0.158742
    16  H    0.160729
    17  H    0.199887
    18  C   -0.449249
    19  H    0.163798
    20  H    0.165295
    21  H    0.150067
    22  C   -0.482197
    23  H    0.152433
    24  H    0.177132
    25  H    0.156431
    26  C   -0.497926
    27  H    0.171625
    28  H    0.199020
    29  H    0.153052
 Sum of Mulliken charges =  -0.00000
 Mulliken charges with hydrogens summed into heavy atoms:
               1
     1  O   -0.380372
     2  O   -0.445954
     3  N    0.096709
     5  C   -0.161725
     6  C    0.268907
     7  C    0.310600
     8  C    0.230646
     9  C    0.022265
    12  C   -0.144593
    13  C    0.149753
    14  C   -0.005719
    18  C    0.029910
    22  C    0.003800
    26  C    0.025772
 Electronic spatial extent (au):  <R**2>=           3237.7216
 Charge=              0.0000 electrons
 Dipole moment (field-independent basis, Debye):
    X=             -4.7390    Y=              7.8166    Z=             -0.1052  Tot=              9.1416
 Quadrupole moment (field-independent basis, Debye-Ang):
   XX=           -100.5666   YY=            -78.5924   ZZ=            -84.2904
   XY=            -14.1394   XZ=             -1.9009   YZ=             -0.7184
 Traceless Quadrupole moment (field-independent basis, Debye-Ang):
   XX=            -12.7502   YY=              9.2241   ZZ=              3.5261
   XY=            -14.1394   XZ=             -1.9009   YZ=             -0.7184
 Octapole moment (field-independent basis, Debye-Ang**2):
  XXX=           -127.1282  YYY=             68.9674  ZZZ=              0.5644  XYY=             37.7125
  XXY=             27.7127  XXZ=             -4.0086  XZZ=             -0.7012  YZZ=             -0.7513
  YYZ=              1.4164  XYZ=              1.5344
 Hexadecapole moment (field-independent basis, Debye-Ang**3):
 XXXX=          -3201.5986 YYYY=          -1284.2374 ZZZZ=           -126.9670 XXXY=            -55.5835
 XXXZ=            -22.0722 YYYX=            -94.6655 YYYZ=             -9.1512 ZZZX=              0.8236
 ZZZY=              1.6587 XXYY=           -694.4127 XXZZ=           -485.6575 YYZZ=           -234.2828
 XXYZ=             -2.9121 YYXZ=             -3.7465 ZZXY=             -4.1367
 N-N= 8.977786508719D+02 E-N=-3.271438749155D+03  KE= 6.305579514544D+02
 Leave Link  601 at Sat Jan 24 15:33:19 2026, MaxMem=  2147483648 cpu:               0.7 elap:               0.1
 (Enter /data/home/wyx/g16/l9999.exe)
 Electronic transition elements 
                 1             2             3             4             5 
      1  -0.633202D+03 -0.633193D+03 -0.633162D+03 -0.633136D+03 -0.633123D+03
      2   0.170419D+01  0.768676D-01  0.288138D-01  0.702006D+00 -0.139029D-01
      3   0.597251D+00  0.378083D-01 -0.791073D-01 -0.197966D+01  0.111235D+01
      4   0.333612D+00  0.609068D-01 -0.316846D-01  0.154969D+00 -0.332504D-01
      5  -0.190005D+00 -0.945759D-02 -0.332425D-02 -0.115333D+00  0.780562D-02
      6  -0.673674D-01 -0.445330D-02  0.116408D-01  0.341726D+00 -0.213217D+00
      7  -0.373485D-01 -0.647587D-02  0.136865D-02 -0.268951D-01  0.677009D-02
      8  -0.309602D+00  0.719247D+00  0.308931D+00 -0.144497D+00  0.121548D+00
      9   0.393287D-01  0.139313D-03 -0.869232D+00  0.660267D-01 -0.344874D-01
     10   0.134817D+01  0.250704D+00  0.131207D+00  0.550695D+00 -0.185564D+00
     11   0.350859D-01 -0.107076D-01 -0.527022D-01 -0.147612D+01  0.270945D+00
     12   0.239182D+00  0.208329D-01  0.164781D-01  0.341573D+00 -0.222699D+00
     13  -0.110737D-01  0.998713D-02  0.169878D-01 -0.283562D-01 -0.849381D-02
     14   0.563219D+00  0.272649D-01  0.697695D-02 -0.399134D+00  0.388333D+00
     15   0.121149D-01  0.294199D-01  0.664842D-01 -0.326039D+00  0.765428D-01
     16   0.111805D+00  0.411308D-01  0.240977D-01 -0.884371D-01  0.112664D+00
                 6 
      1  -0.633091D+03
      2   0.293621D-01
      3   0.520106D-01
      4  -0.418052D-02
      5  -0.108016D-01
      6  -0.100554D-01
      7   0.204231D-01
      8  -0.541519D-01
      9   0.131327D-02
     10   0.117052D-01
     11  -0.151390D+00
     12  -0.932260D-01
     13   0.762524D-01
     14   0.214641D-01
     15  -0.328792D-01
     16  -0.100773D+00
 1\1\GINC-CN015\SP\RCAM-B3LYP TD-FC\TZVP\C11H15N1O2\WYX\24-Jan-2026\0\\
 #p CAM-B3LYP TZVP em=gd3bj td(Eqsolv,nstates=6,root=1) scrf=(Solvent=W
 ater) Geom=Check Guess=Read\\Title Card Required\\0,1\O,0,2.766599,-1.
 550992,0.665639\O,0,-3.387385,-1.658741,-0.712197\N,0,-0.654178,1.5251
 83,-0.094329\H,0,-0.96563,2.47844,-0.182473\C,0,-1.236912,-0.77698,-0.
 174805\C,0,0.66848,1.317689,0.138944\C,0,-1.607223,0.534477,-0.29697\C
 ,0,-2.145188,-1.833778,-0.375696\C,0,0.180041,-1.133566,0.214196\H,0,0
 .185317,-1.635938,1.186998\H,0,0.583039,-1.868097,-0.485539\C,0,1.1336
 01,0.04126,0.262403\C,0,2.511494,-0.357793,0.481362\C,0,-2.954537,1.06
 8516,-0.626412\H,0,-3.337738,1.708069,0.174446\H,0,-2.935489,1.662358,
 -1.544638\H,0,-3.684434,0.272304,-0.775326\C,0,-1.833914,-3.296885,-0.
 214604\H,0,-2.509524,-3.769833,0.501758\H,0,-1.945584,-3.82404,-1.1654
 8\H,0,-0.81506,-3.433568,0.135954\C,0,3.672851,0.60858,0.477694\H,0,3.
 652059,1.289674,-0.369494\H,0,3.68489,1.20716,1.389248\H,0,4.587799,0.
 022296,0.443185\C,0,1.450273,2.595909,0.223067\H,0,2.117078,2.612238,1
 .078673\H,0,2.046566,2.753478,-0.675211\H,0,0.772707,3.44258,0.319608\
 \Version=ES64L-G16RevA.03\State=1-A\HF=-633.3167346\RMSD=2.635e-09\PG=
 C01 [X(C11H15N1O2)]\\@


 Sometimes the fool who rushes in gets the job done.
                                    -- Al Bernstein
 Job cpu time:       0 days  0 hours 32 minutes 43.3 seconds.
 Elapsed time:       0 days  0 hours  2 minutes  3.6 seconds.
 File lengths (MBytes):  RWF=    735 Int=      0 D2E=      0 Chk=     67 Scr=      1
 Normal termination of Gaussian 16 at Sat Jan 24 15:33:21 2026.
