 Entering Gaussian System, Link 0=g16
 Input=DDL-S1-cLR-7.gjf
 Output=DDL-S1-cLR-7.log
 Initial command:
 /data/home/wyx/g16/l1.exe "/scr/tmp/wyx/13119/Gau-1520257.inp" -scrdir="/scr/tmp/wyx/13119/"
 Entering Link 1 = /data/home/wyx/g16/l1.exe PID=   1520258.
  
 Copyright (c) 1988,1990,1992,1993,1995,1998,2003,2009,2016,
            Gaussian, Inc.  All Rights Reserved.
  
 This is part of the Gaussian(R) 16 program.  It is based on
 the Gaussian(R) 09 system (copyright 2009, Gaussian, Inc.),
 the Gaussian(R) 03 system (copyright 2003, Gaussian, Inc.),
 the Gaussian(R) 98 system (copyright 1998, Gaussian, Inc.),
 the Gaussian(R) 94 system (copyright 1995, Gaussian, Inc.),
 the Gaussian 92(TM) system (copyright 1992, Gaussian, Inc.),
 the Gaussian 90(TM) system (copyright 1990, Gaussian, Inc.),
 the Gaussian 88(TM) system (copyright 1988, Gaussian, Inc.),
 the Gaussian 86(TM) system (copyright 1986, Carnegie Mellon
 University), and the Gaussian 82(TM) system (copyright 1983,
 Carnegie Mellon University). Gaussian is a federally registered
 trademark of Gaussian, Inc.
  
 This software contains proprietary and confidential information,
 including trade secrets, belonging to Gaussian, Inc.
  
 This software is provided under written license and may be
 used, copied, transmitted, or stored only in accord with that
 written license.
  
 The following legend is applicable only to US Government
 contracts under FAR:
  
                    RESTRICTED RIGHTS LEGEND
  
 Use, reproduction and disclosure by the US Government is
 subject to restrictions as set forth in subparagraphs (a)
 and (c) of the Commercial Computer Software - Restricted
 Rights clause in FAR 52.227-19.
  
 Gaussian, Inc.
 340 Quinnipiac St., Bldg. 40, Wallingford CT 06492
  
  
 ---------------------------------------------------------------
 Warning -- This program may not be used in any manner that
 competes with the business of Gaussian, Inc. or will provide
 assistance to any competitor of Gaussian, Inc.  The licensee
 of this program is prohibited from giving any competitor of
 Gaussian, Inc. access to this program.  By using this program,
 the user acknowledges that Gaussian, Inc. is engaged in the
 business of creating and licensing software in the field of
 computational chemistry and represents and warrants to the
 licensee that it is not a competitor of Gaussian, Inc. and that
 it will not use this program in any manner prohibited above.
 ---------------------------------------------------------------
  

 Cite this work as:
 Gaussian 16, Revision A.03,
 M. J. Frisch, G. W. Trucks, H. B. Schlegel, G. E. Scuseria, 
 M. A. Robb, J. R. Cheeseman, G. Scalmani, V. Barone, 
 G. A. Petersson, H. Nakatsuji, X. Li, M. Caricato, A. V. Marenich, 
 J. Bloino, B. G. Janesko, R. Gomperts, B. Mennucci, H. P. Hratchian, 
 J. V. Ortiz, A. F. Izmaylov, J. L. Sonnenberg, D. Williams-Young, 
 F. Ding, F. Lipparini, F. Egidi, J. Goings, B. Peng, A. Petrone, 
 T. Henderson, D. Ranasinghe, V. G. Zakrzewski, J. Gao, N. Rega, 
 G. Zheng, W. Liang, M. Hada, M. Ehara, K. Toyota, R. Fukuda, 
 J. Hasegawa, M. Ishida, T. Nakajima, Y. Honda, O. Kitao, H. Nakai, 
 T. Vreven, K. Throssell, J. A. Montgomery, Jr., J. E. Peralta, 
 F. Ogliaro, M. J. Bearpark, J. J. Heyd, E. N. Brothers, K. N. Kudin, 
 V. N. Staroverov, T. A. Keith, R. Kobayashi, J. Normand, 
 K. Raghavachari, A. P. Rendell, J. C. Burant, S. S. Iyengar, 
 J. Tomasi, M. Cossi, J. M. Millam, M. Klene, C. Adamo, R. Cammi, 
 J. W. Ochterski, R. L. Martin, K. Morokuma, O. Farkas, 
 J. B. Foresman, and D. J. Fox, Gaussian, Inc., Wallingford CT, 2016.
 
 ******************************************
 Gaussian 16:  ES64L-G16RevA.03 25-Dec-2016
                24-Jan-2026 
 ******************************************
 %nprocshared=16
 Will use up to   16 processors via shared memory.
 %mem=16GB
 %oldchk=DDL-LR-7.chk
 %chk=DDL-S1-cLR-7.chk
 Copying data from "DDL-LR-7.chk" to current chk file "DDL-S1-cLR-7.chk"
 IOpt=  2 FromEx=T IUOpen= 4 IOptOp= 5 NList=   0 IFRang= 0 IUIn= 4 IUOut= 2.
 ----------------------------------------------------------------------
 #p CAM-B3LYP TZVP em=gd3bj td(nstates=6,root=1) scrf=(Solvent=Water,Co
 rrectedLR,NonEquilibrium=Save) Geom=Check Guess=Read
 ----------------------------------------------------------------------
 1/29=2,30=1,38=1,172=1/1;
 2/12=2,40=1/2;
 3/5=19,7=101,11=9,14=-4,25=1,30=1,70=9002201,71=1,72=1,74=-40,116=-2,124=41/1,2,3,8;
 4/5=1/1;
 5/5=2,38=6,53=1/2;
 8/6=1,10=1,107=1,108=6/1;
 9/8=1,15=1,41=6,42=1,70=2,73=22/14;
 10/5=4,13=10,28=1,74=20/2;
 6/7=2,8=2,9=2,10=2,22=-1/1;
 99/5=1,9=1/99;
 Leave Link    1 at Sat Jan 24 19:48:11 2026, MaxMem=  2147483648 cpu:               0.8 elap:               0.1
 (Enter /data/home/wyx/g16/l101.exe)
 -------------------
 Title Card Required
 -------------------
 Structure from the checkpoint file:  "DDL-S1-cLR-7.chk"
 Charge =  0 Multiplicity = 1
 Z-Matrix found in chk file.
 O,0,2.759204,-1.556238,0.693894
 O,0,-3.329061,-1.660395,-0.891358
 N,0,-0.675348,1.522963,0.000492
 H,0,-0.983596,2.478196,-0.077036
 C,0,-1.23986,-0.766191,-0.165184
 C,0,0.658426,1.310621,0.200387
 C,0,-1.609189,0.538242,-0.266212
 C,0,-2.151603,-1.82525,-0.449251
 C,0,0.147883,-1.121674,0.310466
 H,0,0.104742,-1.542112,1.321957
 H,0,0.563745,-1.911874,-0.314602
 C,0,1.117886,0.036923,0.303914
 C,0,2.50381,-0.372231,0.471389
 C,0,-2.942991,1.071367,-0.641906
 H,0,-3.232976,1.914031,-0.008325
 H,0,-2.960894,1.419374,-1.677474
 H,0,-3.746286,0.342259,-0.556836
 C,0,-1.800272,-3.264538,-0.227351
 H,0,-2.630443,-3.863002,0.151442
 H,0,-1.481145,-3.734757,-1.16251
 H,0,-0.981368,-3.407799,0.475632
 C,0,3.666362,0.582304,0.35587
 H,0,3.573701,1.268212,-0.482107
 H,0,3.771379,1.173848,1.266314
 H,0,4.566313,-0.015794,0.235657
 C,0,1.437576,2.588692,0.272125
 H,0,2.1827,2.574766,1.059455
 H,0,1.941657,2.795086,-0.672273
 H,0,0.76965,3.424972,0.47343
 Recover connectivity data from disk.
 ITRead=  0  0  0  0  0  0  0  0  0  0  0  0  0  0  0  0  0  0  0  0
 ITRead=  0  0  0  0  0  0  0  0  0
 MicOpt= -1 -1 -1 -1 -1 -1 -1 -1 -1 -1 -1 -1 -1 -1 -1 -1 -1 -1 -1 -1
 MicOpt= -1 -1 -1 -1 -1 -1 -1 -1 -1
 NAtoms=     29 NQM=       29 NQMF=       0 NMMI=      0 NMMIF=      0
                NMic=       0 NMicF=      0.
                    Isotopes and Nuclear Properties:
 (Nuclear quadrupole moments (NQMom) in fm**2, nuclear magnetic moments (NMagM)
  in nuclear magnetons)

  Atom         1           2           3           4           5           6           7           8           9          10
 IAtWgt=          16          16          14           1          12          12          12          12          12           1
 AtmWgt=  15.9949146  15.9949146  14.0030740   1.0078250  12.0000000  12.0000000  12.0000000  12.0000000  12.0000000   1.0078250
 NucSpn=           0           0           2           1           0           0           0           0           0           1
 AtZEff=   5.6000000   5.6000000   4.5500000   1.0000000   3.6000000   3.6000000   3.6000000   3.6000000   3.6000000   1.0000000
 NQMom=    0.0000000   0.0000000   2.0440000   0.0000000   0.0000000   0.0000000   0.0000000   0.0000000   0.0000000   0.0000000
 NMagM=    0.0000000   0.0000000   0.4037610   2.7928460   0.0000000   0.0000000   0.0000000   0.0000000   0.0000000   2.7928460
 AtZNuc=   8.0000000   8.0000000   7.0000000   1.0000000   6.0000000   6.0000000   6.0000000   6.0000000   6.0000000   1.0000000

  Atom        11          12          13          14          15          16          17          18          19          20
 IAtWgt=           1          12          12          12           1           1           1          12           1           1
 AtmWgt=   1.0078250  12.0000000  12.0000000  12.0000000   1.0078250   1.0078250   1.0078250  12.0000000   1.0078250   1.0078250
 NucSpn=           1           0           0           0           1           1           1           0           1           1
 AtZEff=   1.0000000   3.6000000   3.6000000   3.6000000   1.0000000   1.0000000   1.0000000   3.6000000   1.0000000   1.0000000
 NQMom=    0.0000000   0.0000000   0.0000000   0.0000000   0.0000000   0.0000000   0.0000000   0.0000000   0.0000000   0.0000000
 NMagM=    2.7928460   0.0000000   0.0000000   0.0000000   2.7928460   2.7928460   2.7928460   0.0000000   2.7928460   2.7928460
 AtZNuc=   1.0000000   6.0000000   6.0000000   6.0000000   1.0000000   1.0000000   1.0000000   6.0000000   1.0000000   1.0000000

  Atom        21          22          23          24          25          26          27          28          29
 IAtWgt=           1          12           1           1           1          12           1           1           1
 AtmWgt=   1.0078250  12.0000000   1.0078250   1.0078250   1.0078250  12.0000000   1.0078250   1.0078250   1.0078250
 NucSpn=           1           0           1           1           1           0           1           1           1
 AtZEff=   1.0000000   3.6000000   1.0000000   1.0000000   1.0000000   3.6000000   1.0000000   1.0000000   1.0000000
 NQMom=    0.0000000   0.0000000   0.0000000   0.0000000   0.0000000   0.0000000   0.0000000   0.0000000   0.0000000
 NMagM=    2.7928460   0.0000000   2.7928460   2.7928460   2.7928460   0.0000000   2.7928460   2.7928460   2.7928460
 AtZNuc=   1.0000000   6.0000000   1.0000000   1.0000000   1.0000000   6.0000000   1.0000000   1.0000000   1.0000000
 Leave Link  101 at Sat Jan 24 19:48:13 2026, MaxMem=  2147483648 cpu:               0.9 elap:               0.1
 (Enter /data/home/wyx/g16/l202.exe)
                          Input orientation:                          
 ---------------------------------------------------------------------
 Center     Atomic      Atomic             Coordinates (Angstroms)
 Number     Number       Type             X           Y           Z
 ---------------------------------------------------------------------
      1          8           0        2.759204   -1.556238    0.693894
      2          8           0       -3.329061   -1.660395   -0.891358
      3          7           0       -0.675348    1.522963    0.000492
      4          1           0       -0.983596    2.478196   -0.077036
      5          6           0       -1.239860   -0.766191   -0.165184
      6          6           0        0.658426    1.310621    0.200387
      7          6           0       -1.609189    0.538242   -0.266212
      8          6           0       -2.151603   -1.825250   -0.449251
      9          6           0        0.147883   -1.121674    0.310466
     10          1           0        0.104742   -1.542112    1.321957
     11          1           0        0.563745   -1.911874   -0.314602
     12          6           0        1.117886    0.036923    0.303914
     13          6           0        2.503810   -0.372231    0.471389
     14          6           0       -2.942991    1.071367   -0.641906
     15          1           0       -3.232976    1.914031   -0.008325
     16          1           0       -2.960894    1.419374   -1.677474
     17          1           0       -3.746286    0.342259   -0.556836
     18          6           0       -1.800272   -3.264538   -0.227351
     19          1           0       -2.630443   -3.863002    0.151442
     20          1           0       -1.481145   -3.734757   -1.162510
     21          1           0       -0.981368   -3.407799    0.475632
     22          6           0        3.666362    0.582304    0.355870
     23          1           0        3.573701    1.268212   -0.482107
     24          1           0        3.771379    1.173848    1.266314
     25          1           0        4.566313   -0.015794    0.235657
     26          6           0        1.437576    2.588692    0.272125
     27          1           0        2.182700    2.574766    1.059455
     28          1           0        1.941657    2.795086   -0.672273
     29          1           0        0.769650    3.424972    0.473430
 ---------------------------------------------------------------------
                    Distance matrix (angstroms):
                    1          2          3          4          5
     1  O    0.000000
     2  O    6.292125   0.000000
     3  N    4.664594   4.239264   0.000000
     4  H    5.556936   4.826206   1.006726   0.000000
     5  C    4.165898   2.385726   2.363546   3.255686   0.000000
     6  C    3.588272   5.091060   1.365284   2.033822   2.837302
     7  C    4.938776   2.860554   1.383064   2.047090   1.359469
     8  C    5.049275   1.268481   3.686750   4.474643   1.426035
     9  C    2.674857   3.718029   2.787095   3.793345   1.509451
    10  H    2.727789   4.087023   3.427754   4.393693   2.149790
    11  H    2.442045   3.943327   3.665070   4.660839   2.141940
    12  C    2.320382   4.907637   2.348631   3.243634   2.534563
    13  C    1.231506   6.126894   3.731025   4.537368   3.817787
    14  C    6.419011   2.770162   2.399754   2.477393   2.550400
    15  H    6.960036   3.683137   2.587368   2.320068   3.343756
    16  H    6.870020   3.199766   2.837256   2.755397   3.166334
    17  H    6.891300   2.072825   3.336965   3.524896   2.768433
    18  C    4.955381   2.313304   4.923163   5.802461   2.561184
    19  H    5.887589   2.535148   5.731824   6.555540   3.409430
    20  H    5.115930   2.791289   5.444768   6.326657   3.140901
    21  H    4.179449   3.230131   4.963045   5.911885   2.730486
    22  C    2.347458   7.451256   4.456633   5.040230   5.114778
    23  H    3.166055   7.509484   4.283949   4.732557   5.235418
    24  H    2.967412   7.943849   4.636547   5.110352   5.561066
    25  H    2.418386   8.143206   5.467914   6.092557   5.868170
    26  C    4.370931   6.490706   2.382018   2.448713   4.314527
    27  H    4.187026   7.219541   3.224303   3.365467   4.937170
    28  H    4.633445   6.905054   2.986574   3.001971   4.802279
    29  H    5.368369   6.672558   2.435021   2.067189   4.691674
                    6          7          8          9         10
     6  C    0.000000
     7  C    2.440566   0.000000
     8  C    4.260514   2.431833   0.000000
     9  C    2.487736   2.484991   2.521869   0.000000
    10  H    3.114895   3.128532   2.882436   1.096241   0.000000
    11  H    3.264759   3.275218   2.720064   1.089985   1.739463
    12  C    1.357987   2.830778   3.837252   1.511058   2.134531
    13  C    2.512146   4.276655   4.963035   2.477489   2.801359
    14  C    3.706333   1.484721   3.008953   3.907677   4.469419
    15  H    3.943434   2.143825   3.917398   4.554925   4.985473
    16  H    4.078930   2.143633   3.562453   4.480326   5.212016
    17  H    4.573030   2.165654   2.693081   4.249690   4.680933
    18  C    5.211548   3.807776   1.498073   2.945577   2.999364
    19  H    6.130696   4.537438   2.177740   3.906311   3.773311
    20  H    5.647220   4.367867   2.145803   3.413443   3.673596
    21  H    5.002816   4.063955   2.174700   2.555162   2.318769
    22  C    3.098758   5.312284   6.347697   3.909642   4.258122
    23  H    2.994399   5.238494   6.507664   4.251583   4.815210
    24  H    3.293233   5.630554   6.857074   4.394632   4.563306
    25  H    4.127009   6.220583   6.990967   4.555336   4.838937
    26  C    1.498561   3.711729   5.734586   3.928307   4.465662
    27  H    2.158581   4.503692   6.357870   4.285456   4.619037
    28  H    2.147523   4.226906   6.176732   4.418643   5.114929
    29  H    2.134808   3.813024   6.078642   4.591856   5.082718
                   11         12         13         14         15
    11  H    0.000000
    12  C    2.118359   0.000000
    13  C    2.598487   1.454730   0.000000
    14  C    4.615631   4.295972   5.743783   0.000000
    15  H    5.398745   4.748792   6.194177   1.093434   0.000000
    16  H    5.037630   4.740624   6.139255   1.092625   1.762036
    17  H    4.869924   4.949171   6.374280   1.088172   1.742073
    18  C    2.725048   4.438190   5.232475   4.503081   5.377564
    19  H    3.771861   5.411343   6.216784   5.007503   5.810566
    20  H    2.867652   4.809463   5.464071   5.050431   6.025766
    21  H    2.291208   4.037631   4.621813   5.015953   5.798778
    22  C    4.036916   2.606697   1.508645   6.702111   7.036121
    23  H    4.381876   2.857434   2.178273   6.521622   6.853642
    24  H    4.723335   3.042998   2.151510   6.981015   7.157763
    25  H    4.463010   3.449505   2.106309   7.638173   8.038200
    26  C    4.622004   2.571913   3.153352   4.725156   4.727354
    27  H    4.963767   2.854000   3.022205   5.606028   5.559341
    28  H    4.917524   3.039573   3.414070   5.179953   5.290927
    29  H    5.398640   3.410114   4.174454   4.535100   4.305351
                   16         17         18         19         20
    16  H    0.000000
    17  H    1.741507   0.000000
    18  C    5.038743   4.111510   0.000000
    19  H    5.599788   4.408059   1.091250   0.000000
    20  H    5.387013   4.703165   1.094290   1.750372   0.000000
    21  H    5.644111   4.772179   1.088721   1.741194   1.743613
    22  C    6.982528   7.472483   6.709875   7.710531   6.887621
    23  H    6.644749   7.378698   7.034935   8.076023   7.144516
    24  H    7.351848   7.780148   7.278297   8.221686   7.588320
    25  H    7.898014   8.357963   7.162550   8.160968   7.235835
    26  C    4.951240   5.710172   6.707715   7.628086   7.110775
    27  H    5.939888   6.538299   7.184526   8.089233   7.626990
    28  H    5.190185   6.195352   7.135757   8.118666   7.388826
    29  H    4.750344   5.564013   7.200357   8.048532   7.681412
                   21         22         23         24         25
    21  H    0.000000
    22  C    6.126717   0.000000
    23  H    6.597802   1.086858   0.000000
    24  H    6.648704   1.090808   1.762089   0.000000
    25  H    6.506923   1.087237   1.774580   1.763355   0.000000
    26  C    6.469205   3.000016   2.622130   2.904622   4.071078
    27  H    6.792883   2.581897   2.453239   2.128206   3.615419
    28  H    6.952521   2.987991   2.243006   3.120002   3.951481
    29  H    7.053568   4.060237   3.664337   3.834919   5.129333
                   26         27         28         29
    26  C    0.000000
    27  H    1.084109   0.000000
    28  H    1.090222   1.762250   0.000000
    29  H    1.089042   1.750139   1.755845   0.000000
 Stoichiometry    C11H15NO2
 Framework group  C1[X(C11H15NO2)]
 Deg. of freedom    81
 Full point group                 C1      NOp   1
 RotChk:  IX=0 Diff= 7.50D-16
 Largest Abelian subgroup         C1      NOp   1
 Largest concise Abelian subgroup C1      NOp   1
                         Standard orientation:                         
 ---------------------------------------------------------------------
 Center     Atomic      Atomic             Coordinates (Angstroms)
 Number     Number       Type             X           Y           Z
 ---------------------------------------------------------------------
      1          8           0       -2.267808   -2.304377   -0.115807
      2          8           0        3.652061   -0.210089    0.284135
      3          7           0       -0.053924    1.801194   -0.153785
      4          1           0       -0.088705    2.807315   -0.156551
      5          6           0        1.290913   -0.139685   -0.050102
      6          6           0       -1.243797    1.134594   -0.091757
      7          6           0        1.195019    1.216397   -0.048815
      8          6           0        2.548311   -0.800137    0.077687
      9          6           0        0.053870   -0.982308   -0.245434
     10          1           0        0.066721   -1.448489   -1.237529
     11          1           0        0.052317   -1.809886    0.463917
     12          6           0       -1.242105   -0.223332   -0.079001
     13          6           0       -2.406056   -1.089246    0.028934
     14          6           0        2.303450    2.198750    0.054910
     15          1           0        2.169264    3.032265   -0.639961
     16          1           0        2.376182    2.619717    1.060557
     17          1           0        3.282947    1.779325   -0.165968
     18          6           0        2.687005   -2.286902   -0.042806
     19          1           0        3.595567   -2.599957   -0.559854
     20          1           0        2.716422   -2.755314    0.945726
     21          1           0        1.861615   -2.757970   -0.573974
     22          6           0       -3.789910   -0.577237    0.343269
     23          1           0       -3.799597    0.168778    1.133604
     24          1           0       -4.248275   -0.136225   -0.542886
     25          1           0       -4.390928   -1.431488    0.645123
     26          6           0       -2.418790    2.063305   -0.041003
     27          1           0       -3.235584    1.731158   -0.671731
     28          1           0       -2.793592    2.167439    0.977458
     29          1           0       -2.128370    3.055507   -0.383353
 ---------------------------------------------------------------------
 Rotational constants (GHZ):           1.0964598           0.4841977           0.3417039
 Leave Link  202 at Sat Jan 24 19:48:15 2026, MaxMem=  2147483648 cpu:               0.0 elap:               0.0
 (Enter /data/home/wyx/g16/l301.exe)
 Standard basis: TZVP (5D, 7F)
 Ernie: Thresh=  0.10000D-02 Tol=  0.10000D-05 Strict=F.
 There are   370 symmetry adapted cartesian basis functions of A   symmetry.
 There are   356 symmetry adapted basis functions of A   symmetry.
   356 basis functions,   610 primitive gaussians,   370 cartesian basis functions
    52 alpha electrons       52 beta electrons
       nuclear repulsion energy       899.4815651246 Hartrees.
 IExCor=20419 DFT=T Ex+Corr=CAM-B3LYP ExCW=0 ScaHFX=  1.000000
 ScaDFX=  1.000000  1.000000  1.000000  0.810000 ScalE2=  1.000000  1.000000
 IRadAn=      5 IRanWt=     -1 IRanGd=            0 ICorTp=0 IEmpDi=141
 HFx  wShort=  0.000000 wLong=  0.330000 cFull=  0.190000 cShort=  0.000000 cLong=  0.460000
 DFx  wShort=  0.000000 wLong=  0.330000 cFull=  0.190000 cShort=  0.000000 cLong=  0.460000
 NAtoms=   29 NActive=   29 NUniq=   29 SFac= 1.00D+00 NAtFMM=   60 NAOKFM=F Big=F
 Integral buffers will be    131072 words long.
 Raffenetti 1 integral format.
 Two-electron integral symmetry is turned on.
 R6Disp:  Grimme-D3(BJ) Dispersion energy=       -0.0261145381 Hartrees.
 Nuclear repulsion after empirical dispersion term =      899.4554505865 Hartrees.
 ------------------------------------------------------------------------------
 Polarizable Continuum Model (PCM)
 =================================
 Model                : PCM.
 Atomic radii         : UFF (Universal Force Field).
 Polarization charges : Total charges.
 Charge compensation  : None.
 Solution method      : On-the-fly selection.
 Cavity type          : Scaled VdW (van der Waals Surface) (Alpha=1.100).
 Cavity algorithm     : GePol (No added spheres)
                        Default sphere list used, NSphG=   29.
                        Lebedev-Laikov grids with approx.  5.0 points / Ang**2.
                        Smoothing algorithm: York/Karplus (Gamma=1.0000).
                        Polarization charges: spherical gaussians, with
                                              point-specific exponents (IZeta= 3).
                        Self-potential: point-specific (ISelfS= 7).
                        Self-field    : sphere-specific E.n sum rule (ISelfD= 2).
 1st derivatives      : Analytical E(r).r(x)/FMM algorithm (CHGder, D1EAlg=3).
                        Cavity 1st derivative terms included.
 Solvent              : Water, Eps=  78.355300 Eps(inf)=   1.777849
 ------------------------------------------------------------------------------
 GePol: Number of generator spheres                  =      29
 GePol: Total number of spheres                      =      29
 GePol: Number of exposed spheres                    =      29 (100.00%)
 GePol: Number of points                             =    2113
 GePol: Average weight of points                     =       0.13
 GePol: Minimum weight of points                     =   0.46D-09
 GePol: Maximum weight of points                     =    0.20577
 GePol: Number of points with low weight             =     138
 GePol: Fraction of low-weight points (<1% of avg)   =       6.53%
 GePol: Cavity surface area                          =    269.025 Ang**2
 GePol: Cavity volume                                =    286.519 Ang**3
 Leave Link  301 at Sat Jan 24 19:48:15 2026, MaxMem=  2147483648 cpu:               0.6 elap:               0.0
 (Enter /data/home/wyx/g16/l302.exe)
 NPDir=0 NMtPBC=     1 NCelOv=     1 NCel=       1 NClECP=     1 NCelD=      1
         NCelK=      1 NCelE2=     1 NClLst=     1 CellRange=     0.0.
 One-electron integrals computed using PRISM.
 One-electron integral symmetry used in STVInt
 NBasis=   356 RedAO= T EigKep=  4.09D-05  NBF=   356
 NBsUse=   356 1.00D-06 EigRej= -1.00D+00 NBFU=   356
 Precomputing XC quadrature grid using
 IXCGrd= 4 IRadAn=           5 IRanWt=          -1 IRanGd=           0 AccXCQ= 0.00D+00.
 Generated NRdTot=       0 NPtTot=           0 NUsed=           0 NTot=          32
 NSgBfM=   366   366   366   366   366 MxSgAt=    29 MxSgA2=    29.
 Leave Link  302 at Sat Jan 24 19:48:15 2026, MaxMem=  2147483648 cpu:               3.1 elap:               0.2
 (Enter /data/home/wyx/g16/l303.exe)
 DipDrv:  MaxL=1.
 Leave Link  303 at Sat Jan 24 19:48:15 2026, MaxMem=  2147483648 cpu:               0.5 elap:               0.0
 (Enter /data/home/wyx/g16/l308.exe)
 Leave Link  308 at Sat Jan 24 19:48:16 2026, MaxMem=  2147483648 cpu:               0.7 elap:               0.1
 (Enter /data/home/wyx/g16/l401.exe)
 Initial guess from the checkpoint file:  "DDL-S1-cLR-7.chk"
 B after Tr=     0.000000   -0.000000    0.000000
         Rot=    1.000000    0.000000   -0.000000    0.000000 Ang=   0.00 deg.
 Guess basis will be translated and rotated to current coordinates.
 JPrj=2 DoOrth=T DoCkMO=T.
 Leave Link  401 at Sat Jan 24 19:48:16 2026, MaxMem=  2147483648 cpu:               2.2 elap:               0.2
 (Enter /data/home/wyx/g16/l502.exe)
 Integral symmetry usage will be decided dynamically.
 Closed shell SCF:
 Using DIIS extrapolation, IDIIS=  1040.
 NGot=  2147483648 LenX=  2147200095 LenY=  2147062754
 Requested convergence on RMS density matrix=1.00D-08 within 128 cycles.
 Requested convergence on MAX density matrix=1.00D-06.
 Requested convergence on             energy=1.00D-06.
 No special actions if energy rises.
 Fock matrices will be formed incrementally for  20 cycles.

 Cycle   1  Pass 1  IDiag  1:
 FoFJK:  IHMeth= 1 ICntrl=       0 DoSepK=T KAlg= 0 I1Cent=           0 FoldK=F
 IRaf=         1 NMat=       1 IRICut=       1 DoRegI=T DoRafI=F ISym2E= 0 IDoP0=0 IntGTp=1.
 FoFCou: FMM=F IPFlag=           0 FMFlag=      100000 FMFlg1=           0
         NFxFlg=           0 DoJE=T BraDBF=F KetDBF=F FulRan=T
         wScrn=  0.000000 ICntrl=       500 IOpCl=  0 I1Cent=           0 NGrid=           0
         NMat0=    1 NMatS0=      1 NMatT0=    0 NMatD0=    1 NMtDS0=    0 NMtDT0=    0
 Symmetry not used in FoFCou.
 Inv3:  Mode=1 IEnd=    13394307.
 Iteration    1 A*A^-1 deviation from unit magnitude is 3.77D-15 for    889.
 Iteration    1 A*A^-1 deviation from orthogonality  is 2.65D-15 for   1347    884.
 Iteration    1 A^-1*A deviation from unit magnitude is 3.33D-15 for    889.
 Iteration    1 A^-1*A deviation from orthogonality  is 2.82D-14 for   1394   1347.
 E= -633.323952618353    
 DIIS: error= 7.18D-09 at cycle   1 NSaved=   1.
 NSaved= 1 IEnMin= 1 EnMin= -633.323952618353     IErMin= 1 ErrMin= 7.18D-09
 ErrMax= 7.18D-09  0.00D+00 EMaxC= 1.00D-01 BMatC= 1.76D-14 BMatP= 1.76D-14
 IDIUse=1 WtCom= 1.00D+00 WtEn= 0.00D+00
 Coeff-Com:  0.100D+01
 Coeff:      0.100D+01
 Gap=     0.231 Goal=   None    Shift=    0.000
 RMSDP=2.04D-09 MaxDP=1.28D-07              OVMax= 1.06D-07

 Error on total polarization charges =  0.01556
 SCF Done:  E(RCAM-B3LYP) =  -633.323952618     A.U. after    1 cycles
            NFock=  1  Conv=0.20D-08     -V/T= 2.0042
 KE= 6.306592534316D+02 PE=-3.274901492168D+03 EE= 1.111462835532D+03
 Leave Link  502 at Sat Jan 24 19:48:22 2026, MaxMem=  2147483648 cpu:              85.9 elap:               5.7
 (Enter /data/home/wyx/g16/l801.exe)
 DoSCS=F DFT=T ScalE2(SS,OS)=  1.000000  1.000000
 ExpMin= 9.52D-02 ExpMax= 2.70D+04 ExpMxC= 9.22D+02 IAcc=3 IRadAn=         5 AccDes= 0.00D+00
 HarFok:  IExCor=  205 AccDes= 0.00D+00 IRadAn=         5 IDoV=-2 UseB2=F ITyADJ=14
 ICtDFT= 12500011 ScaDFX=  1.000000  1.000000  1.000000  1.000000
 Largest valence mixing into a core orbital is  5.63D-05
 Largest core mixing into a valence orbital is  1.13D-05
 Range of M.O.s used for correlation:    15   356
 NBasis=   356 NAE=    52 NBE=    52 NFC=    14 NFV=     0
 NROrb=    342 NOA=    38 NOB=    38 NVA=   304 NVB=   304

 **** Warning!!: The largest alpha MO coefficient is  0.44246802D+02

 Leave Link  801 at Sat Jan 24 19:48:24 2026, MaxMem=  2147483648 cpu:               1.0 elap:               0.1
 (Enter /data/home/wyx/g16/l914.exe)
 RHF ground state
 Two-electron integrals replicated using symmetry.
 MDV=  2147483648 DFT=T DoStab=F Mixed=T DoRPA=T DoScal=F NonHer=T
 NEqPCM:  Using equilibrium solvation (IEInf=0, Eps=  78.3553, EpsInf=   1.7778)
 Making orbital integer symmetry assigments:
 Orbital symmetries:
       Occupied  (A) (A) (A) (A) (A) (A) (A) (A) (A) (A) (A) (A)
                 (A) (A) (A) (A) (A) (A) (A) (A) (A) (A) (A) (A)
                 (A) (A) (A) (A) (A) (A) (A) (A) (A) (A) (A) (A)
                 (A) (A) (A) (A) (A) (A) (A) (A) (A) (A) (A) (A)
                 (A) (A) (A) (A)
       Virtual   (A) (A) (A) (A) (A) (A) (A) (A) (A) (A) (A) (A)
                 (A) (A) (A) (A) (A) (A) (A) (A) (A) (A) (A) (A)
                 (A) (A) (A) (A) (A) (A) (A) (A) (A) (A) (A) (A)
                 (A) (A) (A) (A) (A) (A) (A) (A) (A) (A) (A) (A)
                 (A) (A) (A) (A) (A) (A) (A) (A) (A) (A) (A) (A)
                 (A) (A) (A) (A) (A) (A) (A) (A) (A) (A) (A) (A)
                 (A) (A) (A) (A) (A) (A) (A) (A) (A) (A) (A) (A)
                 (A) (A) (A) (A) (A) (A) (A) (A) (A) (A) (A) (A)
                 (A) (A) (A) (A) (A) (A) (A) (A) (A) (A) (A) (A)
                 (A) (A) (A) (A) (A) (A) (A) (A) (A) (A) (A) (A)
                 (A) (A) (A) (A) (A) (A) (A) (A) (A) (A) (A) (A)
                 (A) (A) (A) (A) (A) (A) (A) (A) (A) (A) (A) (A)
                 (A) (A) (A) (A) (A) (A) (A) (A) (A) (A) (A) (A)
                 (A) (A) (A) (A) (A) (A) (A) (A) (A) (A) (A) (A)
                 (A) (A) (A) (A) (A) (A) (A) (A) (A) (A) (A) (A)
                 (A) (A) (A) (A) (A) (A) (A) (A) (A) (A) (A) (A)
                 (A) (A) (A) (A) (A) (A) (A) (A) (A) (A) (A) (A)
                 (A) (A) (A) (A) (A) (A) (A) (A) (A) (A) (A) (A)
                 (A) (A) (A) (A) (A) (A) (A) (A) (A) (A) (A) (A)
                 (A) (A) (A) (A) (A) (A) (A) (A) (A) (A) (A) (A)
                 (A) (A) (A) (A) (A) (A) (A) (A) (A) (A) (A) (A)
                 (A) (A) (A) (A) (A) (A) (A) (A) (A) (A) (A) (A)
                 (A) (A) (A) (A) (A) (A) (A) (A) (A) (A) (A) (A)
                 (A) (A) (A) (A) (A) (A) (A) (A) (A) (A) (A) (A)
                 (A) (A) (A) (A) (A) (A) (A) (A) (A) (A) (A) (A)
                 (A) (A) (A) (A)
 PCM Corrected Linear-Response:
 Compute the excitation energies in the ground state reaction field.
    24 initial guesses have been made.
 Convergence on wavefunction:    0.000001000000000
 Davidson Disk Diagonalization:  ConvIn= 1.00D-06 SkipCon=T Conv= 1.00D-06.
 Max sub-space:  2000 roots to seek:    24 dimension of matrix:        23104
 Iteration     1 Dimension    24 NMult     0 NNew     24
 CISAX will form    24 AO SS matrices at one time.
 NMat=    24 NSing=    24 JSym2X= 0.
 FoFJK:  IHMeth= 1 ICntrl=       0 DoSepK=T KAlg= 0 I1Cent=           0 FoldK=F
 IRaf=         1 NMat=      48 IRICut=       1 DoRegI=T DoRafI=F ISym2E= 0 IDoP0=3 IntGTp=3.
 FoFCou: FMM=F IPFlag=           0 FMFlag=      100000 FMFlg1=           0
         NFxFlg=           0 DoJE=F BraDBF=F KetDBF=F FulRan=T
         wScrn=  0.000000 ICntrl=       500 IOpCl=  0 I1Cent=           0 NGrid=           0
         NMat0=   24 NMatS0=     24 NMatT0=    0 NMatD0=   24 NMtDS0=    0 NMtDT0=    0
 Symmetry not used in FoFCou.
 New state      3 was old state      4
 New state      4 was old state      3
 New state      5 was old state      6
 New state      6 was old state      5
 Excitation Energies [eV] at current iteration:
 Root      1 :     3.829849303667041
 Root      2 :     3.951044825210721
 Root      3 :     4.507194197658374
 Root      4 :     5.493446745243278
 Root      5 :     6.337405912165216
 Root      6 :     6.543240281882208
 Root      7 :     6.686356119098632
 Root      8 :     6.743376519933123
 Root      9 :     6.953709284312660
 Root     10 :     7.218361834324938
 Root     11 :     7.292186900160043
 Root     12 :     7.345568322079084
 Root     13 :     7.572617742574532
 Root     14 :     7.690365632518546
 Root     15 :     7.751162960645272
 Root     16 :     7.789459550784381
 Root     17 :     8.060267881511553
 Root     18 :     8.235916089244315
 Root     19 :     8.302437628763984
 Root     20 :     8.409867182218997
 Root     21 :     8.597162644234730
 Root     22 :     8.808500784953972
 Root     23 :     8.870792764223349
 Root     24 :     9.199238406791572
 Iteration     2 Dimension    36 NMult    24 NNew     12
 CISAX will form    12 AO SS matrices at one time.
 NMat=    12 NSing=    12 JSym2X= 0.
 Root      1 not converged, maximum delta is    0.332000456046058
 Root      2 not converged, maximum delta is    0.319629390959106
 Root      3 not converged, maximum delta is    0.092598931412853
 Root      4 not converged, maximum delta is    0.233579515796618
 New state      5 was old state      6
 Root      5 not converged, maximum delta is    0.245073988725857
 New state      6 was old state      5
 Root      6 not converged, maximum delta is    0.146842048128285
 Excitation Energies [eV] at current iteration:
 Root      1 :     3.420235627851614   Change is   -0.409613675815427
 Root      2 :     3.685287574211019   Change is   -0.265757250999702
 Root      3 :     4.258649349802271   Change is   -0.248544847856103
 Root      4 :     5.186602639063395   Change is   -0.306844106179884
 Root      5 :     5.612530367095707   Change is   -0.930709914786500
 Root      6 :     6.198575736887451   Change is   -0.138830175277766
 Iteration     3 Dimension    48 NMult    36 NNew     12
 CISAX will form    12 AO SS matrices at one time.
 NMat=    12 NSing=    12 JSym2X= 0.
 Root      1 not converged, maximum delta is    0.010339356076434
 Root      2 not converged, maximum delta is    0.010202912450707
 Root      3 not converged, maximum delta is    0.016926843372838
 Root      4 not converged, maximum delta is    0.030747223734358
 Root      5 not converged, maximum delta is    0.030573025458354
 Root      6 not converged, maximum delta is    0.018715121644419
 Excitation Energies [eV] at current iteration:
 Root      1 :     3.400239371468073   Change is   -0.019996256383541
 Root      2 :     3.674635165976865   Change is   -0.010652408234154
 Root      3 :     4.245247161799087   Change is   -0.013402188003184
 Root      4 :     5.163822924104571   Change is   -0.022779714958824
 Root      5 :     5.575602323430398   Change is   -0.036928043665309
 Root      6 :     6.187344739484152   Change is   -0.011230997403299
 Iteration     4 Dimension    60 NMult    48 NNew     12
 CISAX will form    12 AO SS matrices at one time.
 NMat=    12 NSing=    12 JSym2X= 0.
 Root      1 not converged, maximum delta is    0.001902704161857
 Root      2 not converged, maximum delta is    0.001631024173363
 Root      3 not converged, maximum delta is    0.002292945837185
 Root      4 not converged, maximum delta is    0.003501994958382
 Root      5 not converged, maximum delta is    0.004889744700316
 Root      6 not converged, maximum delta is    0.003569829036239
 Excitation Energies [eV] at current iteration:
 Root      1 :     3.398693032444232   Change is   -0.001546339023840
 Root      2 :     3.673874970329126   Change is   -0.000760195647739
 Root      3 :     4.244587342502503   Change is   -0.000659819296584
 Root      4 :     5.161422536694112   Change is   -0.002400387410459
 Root      5 :     5.571282428097125   Change is   -0.004319895333273
 Root      6 :     6.186442623333294   Change is   -0.000902116150857
 Iteration     5 Dimension    72 NMult    60 NNew     12
 CISAX will form    12 AO SS matrices at one time.
 NMat=    12 NSing=    12 JSym2X= 0.
 Root      1 not converged, maximum delta is    0.000906681559880
 Root      2 not converged, maximum delta is    0.000240775968880
 Root      3 not converged, maximum delta is    0.000201832526481
 Root      4 not converged, maximum delta is    0.000559328444006
 Root      5 not converged, maximum delta is    0.001333152936683
 Root      6 not converged, maximum delta is    0.001060638080798
 Excitation Energies [eV] at current iteration:
 Root      1 :     3.398583375526472   Change is   -0.000109656917760
 Root      2 :     3.673836103927630   Change is   -0.000038866401495
 Root      3 :     4.244550743988570   Change is   -0.000036598513933
 Root      4 :     5.161252327489262   Change is   -0.000170209204851
 Root      5 :     5.570876346389407   Change is   -0.000406081707718
 Root      6 :     6.186372700731955   Change is   -0.000069922601340
 Iteration     6 Dimension    84 NMult    72 NNew     12
 CISAX will form    12 AO SS matrices at one time.
 NMat=    12 NSing=    12 JSym2X= 0.
 Root      1 not converged, maximum delta is    0.000168082793408
 Root      2 not converged, maximum delta is    0.000058860374771
 Root      3 not converged, maximum delta is    0.000064082731021
 Root      4 not converged, maximum delta is    0.000230211099722
 Root      5 not converged, maximum delta is    0.000358594699321
 Root      6 not converged, maximum delta is    0.000194795571881
 Excitation Energies [eV] at current iteration:
 Root      1 :     3.398576791682471   Change is   -0.000006583844001
 Root      2 :     3.673833549126662   Change is   -0.000002554800967
 Root      3 :     4.244548309323339   Change is   -0.000002434665230
 Root      4 :     5.161239158965032   Change is   -0.000013168524229
 Root      5 :     5.570844755067970   Change is   -0.000031591321437
 Root      6 :     6.186366971774423   Change is   -0.000005728957531
 Iteration     7 Dimension    96 NMult    84 NNew     12
 CISAX will form    12 AO SS matrices at one time.
 NMat=    12 NSing=    12 JSym2X= 0.
 Root      1 not converged, maximum delta is    0.000016989412207
 Root      2 not converged, maximum delta is    0.000015733832713
 Root      3 not converged, maximum delta is    0.000008938908234
 Root      4 not converged, maximum delta is    0.000057705284230
 Root      5 not converged, maximum delta is    0.000107843815835
 Root      6 not converged, maximum delta is    0.000068150795715
 Excitation Energies [eV] at current iteration:
 Root      1 :     3.398576359935424   Change is   -0.000000431747048
 Root      2 :     3.673833435501463   Change is   -0.000000113625199
 Root      3 :     4.244548175697969   Change is   -0.000000133625370
 Root      4 :     5.161238095061584   Change is   -0.000001063903448
 Root      5 :     5.570842267533834   Change is   -0.000002487534136
 Root      6 :     6.186366449179362   Change is   -0.000000522595062
 Iteration     8 Dimension   108 NMult    96 NNew     12
 CISAX will form    12 AO SS matrices at one time.
 NMat=    12 NSing=    12 JSym2X= 0.
 Root      1 not converged, maximum delta is    0.000005293139653
 Root      2 not converged, maximum delta is    0.000003630284442
 Root      3 not converged, maximum delta is    0.000002149919558
 Root      4 not converged, maximum delta is    0.000026184389331
 Root      5 not converged, maximum delta is    0.000029771670425
 Root      6 not converged, maximum delta is    0.000022015353664
 Excitation Energies [eV] at current iteration:
 Root      1 :     3.398576343339627   Change is   -0.000000016595797
 Root      2 :     3.673833430862011   Change is   -0.000000004639453
 Root      3 :     4.244548169872274   Change is   -0.000000005825695
 Root      4 :     5.161238013795136   Change is   -0.000000081266449
 Root      5 :     5.570842074858263   Change is   -0.000000192675572
 Root      6 :     6.186366399488194   Change is   -0.000000049691168
 Iteration     9 Dimension   120 NMult   108 NNew     12
 CISAX will form    12 AO SS matrices at one time.
 NMat=    12 NSing=    12 JSym2X= 0.
 Root      1 has converged.
 Root      2 has converged.
 Root      3 has converged.
 Root      4 not converged, maximum delta is    0.000003935538468
 Root      5 not converged, maximum delta is    0.000005821906037
 Root      6 not converged, maximum delta is    0.000006974964085
 Excitation Energies [eV] at current iteration:
 Root      1 :     3.398576342664783   Change is   -0.000000000674844
 Root      2 :     3.673833430726028   Change is   -0.000000000135982
 Root      3 :     4.244548169680979   Change is   -0.000000000191296
 Root      4 :     5.161238009640336   Change is   -0.000000004154800
 Root      5 :     5.570842064470425   Change is   -0.000000010387837
 Root      6 :     6.186366395479731   Change is   -0.000000004008462
 Iteration    10 Dimension   126 NMult   120 NNew      6
 CISAX will form     6 AO SS matrices at one time.
 NMat=     6 NSing=     6 JSym2X= 0.
 Root      1 has converged.
 Root      2 has converged.
 Root      3 has converged.
 Root      4 has converged.
 Root      5 not converged, maximum delta is    0.000001442371656
 Root      6 not converged, maximum delta is    0.000001634647102
 Excitation Energies [eV] at current iteration:
 Root      1 :     3.398576342659776   Change is   -0.000000000005007
 Root      2 :     3.673833430725715   Change is   -0.000000000000313
 Root      3 :     4.244548169679932   Change is   -0.000000000001046
 Root      4 :     5.161238009453008   Change is   -0.000000000187328
 Root      5 :     5.570842063921416   Change is   -0.000000000549010
 Root      6 :     6.186366395135865   Change is   -0.000000000343867
 Iteration    11 Dimension   130 NMult   126 NNew      4
 CISAX will form     4 AO SS matrices at one time.
 NMat=     4 NSing=     4 JSym2X= 0.
 Root      1 has converged.
 Root      2 has converged.
 Root      3 has converged.
 Root      4 has converged.
 Root      5 has converged.
 Root      6 has converged.
 Excitation Energies [eV] at current iteration:
 Root      1 :     3.398576342659679   Change is   -0.000000000000097
 Root      2 :     3.673833430725737   Change is    0.000000000000023
 Root      3 :     4.244548169679816   Change is   -0.000000000000116
 Root      4 :     5.161238009448309   Change is   -0.000000000004699
 Root      5 :     5.570842063891046   Change is   -0.000000000030369
 Root      6 :     6.186366395106258   Change is   -0.000000000029606
 Convergence achieved on expansion vectors.
 PCM Corrected Linear-Response:
 The state of interest is root number   1
 Excitation energy =    3.3986 eV, Total energy =  -633.199057236    
 Recompute the excitation energies using the linear response reaction field.
 Convergence on wavefunction:    0.000001000000000
 Davidson Disk Diagonalization:  ConvIn= 1.00D-06 SkipCon=T Conv= 1.00D-06.
 Max sub-space:  2000 roots to seek:     6 dimension of matrix:        23104
 Iteration     1 Dimension     6 NMult     0 NNew      6
 CISAX will form     6 AO SS matrices at one time.
 NMat=     6 NSing=     6 JSym2X= 0.
 Excitation Energies [eV] at current iteration:
 Root      1 :     3.467583272645355
 Root      2 :     3.700214742819067
 Root      3 :     4.270136604853962
 Root      4 :     5.222785566112439
 Root      5 :     5.718842351215236
 Root      6 :     6.145247425116287
 Iteration     2 Dimension    18 NMult     6 NNew     12
 CISAX will form    12 AO SS matrices at one time.
 NMat=    12 NSing=    12 JSym2X= 0.
 Root      1 not converged, maximum delta is    0.067116576650311
 Root      2 not converged, maximum delta is    0.077815236659890
 Root      3 not converged, maximum delta is    0.008550584922001
 Root      4 not converged, maximum delta is    0.280088617047875
 Root      5 not converged, maximum delta is    0.307925044991169
 Root      6 not converged, maximum delta is    0.022051346108909
 Excitation Energies [eV] at current iteration:
 Root      1 :     3.251983814071573   Change is   -0.215599458573782
 Root      2 :     3.665156301430869   Change is   -0.035058441388198
 Root      3 :     4.238704280256604   Change is   -0.031432324597358
 Root      4 :     4.980032917887530   Change is   -0.242752648224909
 Root      5 :     5.429431027112906   Change is   -0.289411324102330
 Root      6 :     6.128999370983601   Change is   -0.016248054132684
 Iteration     3 Dimension    30 NMult    18 NNew     12
 CISAX will form    12 AO SS matrices at one time.
 NMat=    12 NSing=    12 JSym2X= 0.
 Root      1 not converged, maximum delta is    0.003357659193573
 Root      2 not converged, maximum delta is    0.001010012159776
 Root      3 not converged, maximum delta is    0.001352395142096
 Root      4 not converged, maximum delta is    0.013586004036575
 Root      5 not converged, maximum delta is    0.010834862896015
 Root      6 not converged, maximum delta is    0.006609078827807
 Excitation Energies [eV] at current iteration:
 Root      1 :     3.248416354920039   Change is   -0.003567459151534
 Root      2 :     3.664818425393682   Change is   -0.000337876037187
 Root      3 :     4.238344670219242   Change is   -0.000359610037362
 Root      4 :     4.968986084425270   Change is   -0.011046833462260
 Root      5 :     5.421855477030248   Change is   -0.007575550082658
 Root      6 :     6.127470642916341   Change is   -0.001528728067261
 Iteration     4 Dimension    42 NMult    30 NNew     12
 CISAX will form    12 AO SS matrices at one time.
 NMat=    12 NSing=    12 JSym2X= 0.
 Root      1 not converged, maximum delta is    0.001920815655846
 Root      2 not converged, maximum delta is    0.000284506284541
 Root      3 not converged, maximum delta is    0.000244791439961
 Root      4 not converged, maximum delta is    0.003620529685150
 Root      5 not converged, maximum delta is    0.003400285141357
 Root      6 not converged, maximum delta is    0.007105452945356
 Excitation Energies [eV] at current iteration:
 Root      1 :     3.247948448994406   Change is   -0.000467905925633
 Root      2 :     3.664798374038391   Change is   -0.000020051355291
 Root      3 :     4.238323754396295   Change is   -0.000020915822947
 Root      4 :     4.966884872984028   Change is   -0.002101211441242
 Root      5 :     5.420479122571815   Change is   -0.001376354458433
 Root      6 :     6.126986997215151   Change is   -0.000483645701190
 Iteration     5 Dimension    54 NMult    42 NNew     12
 CISAX will form    12 AO SS matrices at one time.
 NMat=    12 NSing=    12 JSym2X= 0.
 Root      1 not converged, maximum delta is    0.000471428239173
 Root      2 not converged, maximum delta is    0.000076960075216
 Root      3 not converged, maximum delta is    0.000109046034301
 Root      4 not converged, maximum delta is    0.001635058046611
 Root      5 not converged, maximum delta is    0.000944496949635
 Root      6 not converged, maximum delta is    0.003937584492858
 Excitation Energies [eV] at current iteration:
 Root      1 :     3.247913712515258   Change is   -0.000034736479147
 Root      2 :     3.664797101111019   Change is   -0.000001272927372
 Root      3 :     4.238322024840618   Change is   -0.000001729555677
 Root      4 :     4.966624297523209   Change is   -0.000260575460819
 Root      5 :     5.420323488945786   Change is   -0.000155633626029
 Root      6 :     6.126860410108709   Change is   -0.000126587106443
 Iteration     6 Dimension    66 NMult    54 NNew     12
 CISAX will form    12 AO SS matrices at one time.
 NMat=    12 NSing=    12 JSym2X= 0.
 Root      1 not converged, maximum delta is    0.000067040960561
 Root      2 not converged, maximum delta is    0.000013861789319
 Root      3 not converged, maximum delta is    0.000024347381809
 Root      4 not converged, maximum delta is    0.000446994094155
 Root      5 not converged, maximum delta is    0.000362193358667
 Root      6 not converged, maximum delta is    0.001115661531933
 Excitation Energies [eV] at current iteration:
 Root      1 :     3.247911411861010   Change is   -0.000002300654249
 Root      2 :     3.664797010993806   Change is   -0.000000090117213
 Root      3 :     4.238321886069045   Change is   -0.000000138771573
 Root      4 :     4.966601015432252   Change is   -0.000023282090957
 Root      5 :     5.420308255773590   Change is   -0.000015233172195
 Root      6 :     6.126838575761123   Change is   -0.000021834347586
 Iteration     7 Dimension    78 NMult    66 NNew     12
 CISAX will form    12 AO SS matrices at one time.
 NMat=    12 NSing=    12 JSym2X= 0.
 Root      1 not converged, maximum delta is    0.000014900761195
 Root      2 not converged, maximum delta is    0.000003640219905
 Root      3 not converged, maximum delta is    0.000009130429096
 Root      4 not converged, maximum delta is    0.000133067810681
 Root      5 not converged, maximum delta is    0.000141972373428
 Root      6 not converged, maximum delta is    0.000287036904040
 Excitation Energies [eV] at current iteration:
 Root      1 :     3.247911311350062   Change is   -0.000000100510948
 Root      2 :     3.664797006175552   Change is   -0.000000004818255
 Root      3 :     4.238321875803972   Change is   -0.000000010265073
 Root      4 :     4.966599203633513   Change is   -0.000001811798739
 Root      5 :     5.420306914311624   Change is   -0.000001341461967
 Root      6 :     6.126836380751198   Change is   -0.000002195009925
 Iteration     8 Dimension    90 NMult    78 NNew     12
 CISAX will form    12 AO SS matrices at one time.
 NMat=    12 NSing=    12 JSym2X= 0.
 Root      1 not converged, maximum delta is    0.000002673358536
 Root      2 has converged.
 Root      3 not converged, maximum delta is    0.000001755699897
 Root      4 not converged, maximum delta is    0.000038414907471
 Root      5 not converged, maximum delta is    0.000048715708575
 Root      6 not converged, maximum delta is    0.000094195102244
 Excitation Energies [eV] at current iteration:
 Root      1 :     3.247911306534083   Change is   -0.000000004815979
 Root      2 :     3.664797005973711   Change is   -0.000000000201841
 Root      3 :     4.238321875222182   Change is   -0.000000000581790
 Root      4 :     4.966599089044763   Change is   -0.000000114588749
 Root      5 :     5.420306806425812   Change is   -0.000000107885812
 Root      6 :     6.126836097203000   Change is   -0.000000283548198
 Iteration     9 Dimension   100 NMult    90 NNew     10
 CISAX will form    10 AO SS matrices at one time.
 NMat=    10 NSing=    10 JSym2X= 0.
 Root      1 has converged.
 Root      2 has converged.
 Root      3 has converged.
 Root      4 not converged, maximum delta is    0.000013105279247
 Root      5 not converged, maximum delta is    0.000019975850437
 Root      6 not converged, maximum delta is    0.000048465112088
 Excitation Energies [eV] at current iteration:
 Root      1 :     3.247911306373410   Change is   -0.000000000160673
 Root      2 :     3.664797005970929   Change is   -0.000000000002782
 Root      3 :     4.238321875193883   Change is   -0.000000000028299
 Root      4 :     4.966599079871820   Change is   -0.000000009172944
 Root      5 :     5.420306793299987   Change is   -0.000000013125825
 Root      6 :     6.126836053223902   Change is   -0.000000043979098
 Iteration    10 Dimension   106 NMult   100 NNew      6
 CISAX will form     6 AO SS matrices at one time.
 NMat=     6 NSing=     6 JSym2X= 0.
 Root      1 has converged.
 Root      2 has converged.
 Root      3 has converged.
 Root      4 not converged, maximum delta is    0.000002672069659
 Root      5 not converged, maximum delta is    0.000004648930576
 Root      6 not converged, maximum delta is    0.000016336801943
 Excitation Energies [eV] at current iteration:
 Root      1 :     3.247911306371992   Change is   -0.000000000001417
 Root      2 :     3.664797005970481   Change is   -0.000000000000449
 Root      3 :     4.238321875193436   Change is   -0.000000000000446
 Root      4 :     4.966599079128399   Change is   -0.000000000743420
 Root      5 :     5.420306791974411   Change is   -0.000000001325575
 Root      6 :     6.126836047633963   Change is   -0.000000005589938
 Iteration    11 Dimension   112 NMult   106 NNew      6
 CISAX will form     6 AO SS matrices at one time.
 NMat=     6 NSing=     6 JSym2X= 0.
 Root      1 has converged.
 Root      2 has converged.
 Root      3 has converged.
 Root      4 has converged.
 Root      5 not converged, maximum delta is    0.000001047161950
 Root      6 not converged, maximum delta is    0.000002489351060
 Excitation Energies [eV] at current iteration:
 Root      1 :     3.247911306371739   Change is   -0.000000000000253
 Root      2 :     3.664797005970346   Change is   -0.000000000000134
 Root      3 :     4.238321875193224   Change is   -0.000000000000213
 Root      4 :     4.966599079080233   Change is   -0.000000000048166
 Root      5 :     5.420306791884975   Change is   -0.000000000089437
 Root      6 :     6.126836047077147   Change is   -0.000000000556817
 Iteration    12 Dimension   116 NMult   112 NNew      4
 CISAX will form     4 AO SS matrices at one time.
 NMat=     4 NSing=     4 JSym2X= 0.
 Root      1 has converged.
 Root      2 has converged.
 Root      3 has converged.
 Root      4 has converged.
 Root      5 has converged.
 Root      6 has converged.
 Excitation Energies [eV] at current iteration:
 Root      1 :     3.247911306371612   Change is   -0.000000000000127
 Root      2 :     3.664797005970212   Change is   -0.000000000000134
 Root      3 :     4.238321875193165   Change is   -0.000000000000058
 Root      4 :     4.966599079078346   Change is   -0.000000000001887
 Root      5 :     5.420306791879637   Change is   -0.000000000005338
 Root      6 :     6.126836047025702   Change is   -0.000000000051444
 Convergence achieved on expansion vectors.
 ***********************************************************************
 Excited states from <AA,BB:AA,BB> singles matrix:
 ***********************************************************************
 
 1PDM for each excited state written to RWF  633
 Ground to excited state transition densities written to RWF  633
 Ground to excited state transition electric dipole moments (Au):
       state          X           Y           Z        Dip. S.      Osc.
         1        -1.7684     -0.1095     -0.0500      3.1419      0.2500
         2         0.2425      0.0390      0.0528      0.0631      0.0057
         3         0.0132     -0.1273      0.0426      0.0182      0.0019
         4         0.0621     -2.0275      0.0974      4.1239      0.5018
         5        -0.2905      1.3015     -0.0102      1.7784      0.2362
         6        -0.0431      0.1599      0.0290      0.0283      0.0042
 Ground to excited state transition velocity dipole moments (Au):
       state          X           Y           Z        Dip. S.      Osc.
         1         0.2044      0.0113      0.0060      0.0419      0.2342
         2        -0.0325     -0.0047     -0.0054      0.0011      0.0055
         3        -0.0021      0.0189     -0.0029      0.0004      0.0016
         4        -0.0150      0.3520     -0.0143      0.1244      0.4542
         5         0.0551     -0.2565      0.0027      0.0688      0.2304
         6         0.0108     -0.0327     -0.0262      0.0019      0.0055
 Ground to excited state transition magnetic dipole moments (Au):
       state          X           Y           Z
         1         0.0926      0.0185     -1.4076
         2         0.7459      0.2652      0.3568
         3        -0.0106     -0.9504     -0.0766
         4         0.0632      0.0900     -0.3932
         5        -0.1733     -0.0964      0.2072
         6         0.0483      0.0147     -0.0212
 Ground to excited state transition velocity quadrupole moments (Au):
       state          XX          YY          ZZ          XY          XZ          YZ
         1         0.3556     -0.1500     -0.0073     -0.5227      0.0479     -0.0089
         2        -0.0553     -0.0043      0.0009      0.0909     -0.0432      0.0496
         3        -0.0259      0.0102     -0.0173     -0.0318      0.0752      0.0052
         4        -1.4985      0.3435      0.0261     -0.2628     -0.0757     -0.0255
         5         0.5550     -0.3873     -0.0346     -0.0239      0.0579     -0.0599
         6        -0.2496     -0.1685      0.1336     -0.0200     -0.0278      0.1062
 <0|del|b> * <b|rxdel|0> + <0|del|b> * <b|delr+rdel|0>
 Rotatory Strengths (R) in cgs (10**-40 erg-esu-cm/Gauss)
       state          XX          YY          ZZ    R(velocity)    E-M Angle
         1       -35.5765     34.8170     63.6313     20.9573       87.89
         2       -10.1578    -71.6213    -62.0729    -47.9507      161.59
         3       -43.2342      0.3254    -37.4355    -26.7814      164.89
         4       131.1743      2.5187      7.1643     46.9524       75.38
         5        71.1498    -21.6734      6.4329     18.6365       77.92
         6        -0.4955      2.6635     -0.3061      0.6206       75.51
 1/2[<0|r|b>*<b|rxdel|0> + (<0|rxdel|b>*<b|r|0>)*]
 Rotatory Strengths (R) in cgs (10**-40 erg-esu-cm/Gauss)
       state          XX          YY          ZZ     R(length)
         1       115.7683      1.4311    -49.7225     22.4923
         2      -127.9265     -7.3125    -13.3265    -49.5218
         3         0.0987    -85.5438      2.3076    -27.7125
         4        -2.7752    129.0250     27.0911     51.1136
         5       -35.5958     88.7268      1.5012     18.2107
         6         1.4730     -1.6641      0.4350      0.0813
  1/2[<0|del|b>*<b|r|0> + (<0|r|b>*<b|del|0>)*] (Au)
       state          X           Y           Z        Dip. S.   Osc.(frdel)
         1        -0.3614     -0.0012     -0.0003      0.3629      0.2420
         2        -0.0079     -0.0002     -0.0003      0.0083      0.0056
         3        -0.0000     -0.0024     -0.0001      0.0026      0.0017
         4        -0.0009     -0.7137     -0.0014      0.7160      0.4774
         5        -0.0160     -0.3338     -0.0000      0.3499      0.2332
         6        -0.0005     -0.0052     -0.0008      0.0065      0.0043

 Excitation energies and oscillator strengths:
 
 Excited State   1:      Singlet-A      3.2479 eV  381.74 nm  f=0.2500  <S**2>=0.000
      52 -> 53         0.69690
 This state for optimization and/or second-order correction.
 Total Energy, E(TD-HF/TD-DFT) =  -633.204594074    
 Copying the excited state density for this state as the 1-particle RhoCI density.
 
 Excited State   2:      Singlet-A      3.6648 eV  338.31 nm  f=0.0057  <S**2>=0.000
      51 -> 53         0.61047
      51 -> 54        -0.29873
 
 Excited State   3:      Singlet-A      4.2383 eV  292.53 nm  f=0.0019  <S**2>=0.000
      49 -> 53         0.10899
      50 -> 53         0.52339
      50 -> 54         0.39587
      50 -> 58         0.11808
      51 -> 54         0.11860
 
 Excited State   4:      Singlet-A      4.9666 eV  249.64 nm  f=0.5018  <S**2>=0.000
      49 -> 53        -0.16102
      52 -> 54         0.68076
 
 Excited State   5:      Singlet-A      5.4203 eV  228.74 nm  f=0.2362  <S**2>=0.000
      49 -> 53         0.65708
      50 -> 53        -0.16760
      52 -> 54         0.16014
 
 Excited State   6:      Singlet-A      6.1268 eV  202.36 nm  f=0.0042  <S**2>=0.000
      52 -> 55         0.66344
      52 -> 56         0.12693
      52 -> 62        -0.10286
 SavETr:  write IOETrn=   770 NScale= 10 NData=  16 NLR=1 NState=    6 LETran=     118.
 The selected state is a singlet.
 CISGrd: IGrad=1 NXY=2 DFT=T
 CISAX will form     1 AO SS matrices at one time.
 NMat=     1 NSing=     1 JSym2X= 0.
 Leave Link  914 at Sat Jan 24 19:57:08 2026, MaxMem=  2147483648 cpu:            8339.1 elap:             524.0
 (Enter /data/home/wyx/g16/l1002.exe)
 Minotr:  Closed shell wavefunction.
          Computing CIS/TDA/TD derivatives.
          Using Z-Vector for PSCF gradient.
          Skipping F1 and S1 gradient terms here.
 NEqPCM:  Using equilibrium solvation (IEInf=0, Eps=  78.3553, EpsInf=   1.7778)
          Frozen-core window.
          Direct CPHF calculation.
          Differentiating once with respect to electric field.
                with respect to dipole field.
          Electric field/nuclear overlap derivatives assumed to be zero.
          Requested convergence is 1.0D-10 RMS, and 1.0D-09 maximum.
          NewPWx=F KeepS1=T KeepF1=T KeepIn=T MapXYZ=F SortEE=F KeepMc=T.
 Two-electron integral symmetry used by symmetrizing perturbed Fock matrices.
          MDV=    2147483648 using IRadAn=       5.
          Solving linear equations separately, MaxMat=     384.
          There are     1 degrees of freedom in the 1st order CPHF.  IDoFFX=0 NUNeed=     1.
 FoFJK:  IHMeth= 1 ICntrl=       0 DoSepK=T KAlg= 0 I1Cent=           0 FoldK=F
 IRaf=         1 NMat=       1 IRICut=       1 DoRegI=T DoRafI=F ISym2E=-1 IDoP0=0 IntGTp=1.
 FoFCou: FMM=F IPFlag=           0 FMFlag=      100000 FMFlg1=           0
         NFxFlg=           0 DoJE=T BraDBF=F KetDBF=F FulRan=T
         wScrn=  0.000000 ICntrl=       500 IOpCl=  0 I1Cent=           0 NGrid=           0
         NMat0=    1 NMatS0=      1 NMatT0=    0 NMatD0=    1 NMtDS0=    0 NMtDT0=    0
 Petite list used in FoFCou.
 LinEq1:  Iter=  0 NonCon=     1 RMS=3.48D-03 Max=1.46D-01 NDo=     1
 AX will form     1 AO Fock derivatives at one time.
 LinEq1:  Iter=  1 NonCon=     1 RMS=1.34D-03 Max=8.30D-02 NDo=     1
 LinEq1:  Iter=  2 NonCon=     1 RMS=5.96D-04 Max=2.89D-02 NDo=     1
 LinEq1:  Iter=  3 NonCon=     1 RMS=3.38D-04 Max=1.98D-02 NDo=     1
 LinEq1:  Iter=  4 NonCon=     1 RMS=1.60D-04 Max=3.32D-03 NDo=     1
 LinEq1:  Iter=  5 NonCon=     1 RMS=7.96D-05 Max=2.89D-03 NDo=     1
 LinEq1:  Iter=  6 NonCon=     1 RMS=5.39D-05 Max=2.20D-03 NDo=     1
 LinEq1:  Iter=  7 NonCon=     1 RMS=2.15D-05 Max=1.06D-03 NDo=     1
 LinEq1:  Iter=  8 NonCon=     1 RMS=1.19D-05 Max=4.66D-04 NDo=     1
 LinEq1:  Iter=  9 NonCon=     1 RMS=8.15D-06 Max=3.82D-04 NDo=     1
 LinEq1:  Iter= 10 NonCon=     1 RMS=4.96D-06 Max=1.90D-04 NDo=     1
 LinEq1:  Iter= 11 NonCon=     1 RMS=2.07D-06 Max=3.96D-05 NDo=     1
 LinEq1:  Iter= 12 NonCon=     1 RMS=8.45D-07 Max=1.87D-05 NDo=     1
 LinEq1:  Iter= 13 NonCon=     1 RMS=2.88D-07 Max=1.16D-05 NDo=     1
 LinEq1:  Iter= 14 NonCon=     1 RMS=9.34D-08 Max=5.16D-06 NDo=     1
 LinEq1:  Iter= 15 NonCon=     1 RMS=3.23D-08 Max=1.20D-06 NDo=     1
 LinEq1:  Iter= 16 NonCon=     1 RMS=1.79D-08 Max=5.40D-07 NDo=     1
 LinEq1:  Iter= 17 NonCon=     1 RMS=6.85D-09 Max=1.26D-07 NDo=     1
 LinEq1:  Iter= 18 NonCon=     1 RMS=4.10D-09 Max=1.11D-07 NDo=     1
 LinEq1:  Iter= 19 NonCon=     1 RMS=1.25D-09 Max=4.10D-08 NDo=     1
 LinEq1:  Iter= 20 NonCon=     1 RMS=3.00D-10 Max=1.12D-08 NDo=     1
 LinEq1:  Iter= 21 NonCon=     1 RMS=1.07D-10 Max=3.40D-09 NDo=     1
 LinEq1:  Iter= 22 NonCon=     1 RMS=5.26D-11 Max=1.67D-09 NDo=     1
 LinEq1:  Iter= 23 NonCon=     0 RMS=1.69D-11 Max=5.82D-10 NDo=     1
 Linear equations converged to 1.000D-10 1.000D-09 after    23 iterations.
 PCM Corrected Linear-Response - Equilibrium solvation:
 Corrected transition energy               =    3.3699          eV
 Total energy after correction             = -633.200112673     a.u.
 NEqPCM:  Using non-equilibrium solvation (IEInf=1, Eps=  78.3553, EpsInf=   1.7778)
 Inv3:  Mode=1 IEnd=    13394307.
 Iteration    1 A*A^-1 deviation from unit magnitude is 3.33D-15 for    358.
 Iteration    1 A*A^-1 deviation from orthogonality  is 2.44D-15 for   1910    315.
 Iteration    1 A^-1*A deviation from unit magnitude is 3.33D-15 for    358.
 Iteration    1 A^-1*A deviation from orthogonality  is 1.54D-15 for   1762    497.
 NEqSol: Computing the dynamic-inertial partition of the PCM polarization charges.
 End of Minotr F.D. properties file   721 does not exist.
 End of Minotr F.D. properties file   722 does not exist.
 End of Minotr F.D. properties file   788 does not exist.
 Leave Link 1002 at Sat Jan 24 19:59:08 2026, MaxMem=  2147483648 cpu:            1888.7 elap:             118.9
 (Enter /data/home/wyx/g16/l601.exe)
 Copying SCF densities to generalized density rwf, IOpCl= 0 IROHF=0.

 **********************************************************************

            Population analysis using the CI density.

 **********************************************************************

 Orbital symmetries:
       Occupied  (A) (A) (A) (A) (A) (A) (A) (A) (A) (A) (A) (A)
                 (A) (A) (A) (A) (A) (A) (A) (A) (A) (A) (A) (A)
                 (A) (A) (A) (A) (A) (A) (A) (A) (A) (A) (A) (A)
                 (A) (A) (A) (A) (A) (A) (A) (A) (A) (A) (A) (A)
                 (A) (A) (A) (A)
       Virtual   (A) (A) (A) (A) (A) (A) (A) (A) (A) (A) (A) (A)
                 (A) (A) (A) (A) (A) (A) (A) (A) (A) (A) (A) (A)
                 (A) (A) (A) (A) (A) (A) (A) (A) (A) (A) (A) (A)
                 (A) (A) (A) (A) (A) (A) (A) (A) (A) (A) (A) (A)
                 (A) (A) (A) (A) (A) (A) (A) (A) (A) (A) (A) (A)
                 (A) (A) (A) (A) (A) (A) (A) (A) (A) (A) (A) (A)
                 (A) (A) (A) (A) (A) (A) (A) (A) (A) (A) (A) (A)
                 (A) (A) (A) (A) (A) (A) (A) (A) (A) (A) (A) (A)
                 (A) (A) (A) (A) (A) (A) (A) (A) (A) (A) (A) (A)
                 (A) (A) (A) (A) (A) (A) (A) (A) (A) (A) (A) (A)
                 (A) (A) (A) (A) (A) (A) (A) (A) (A) (A) (A) (A)
                 (A) (A) (A) (A) (A) (A) (A) (A) (A) (A) (A) (A)
                 (A) (A) (A) (A) (A) (A) (A) (A) (A) (A) (A) (A)
                 (A) (A) (A) (A) (A) (A) (A) (A) (A) (A) (A) (A)
                 (A) (A) (A) (A) (A) (A) (A) (A) (A) (A) (A) (A)
                 (A) (A) (A) (A) (A) (A) (A) (A) (A) (A) (A) (A)
                 (A) (A) (A) (A) (A) (A) (A) (A) (A) (A) (A) (A)
                 (A) (A) (A) (A) (A) (A) (A) (A) (A) (A) (A) (A)
                 (A) (A) (A) (A) (A) (A) (A) (A) (A) (A) (A) (A)
                 (A) (A) (A) (A) (A) (A) (A) (A) (A) (A) (A) (A)
                 (A) (A) (A) (A) (A) (A) (A) (A) (A) (A) (A) (A)
                 (A) (A) (A) (A) (A) (A) (A) (A) (A) (A) (A) (A)
                 (A) (A) (A) (A) (A) (A) (A) (A) (A) (A) (A) (A)
                 (A) (A) (A) (A) (A) (A) (A) (A) (A) (A) (A) (A)
                 (A) (A) (A) (A) (A) (A) (A) (A) (A) (A) (A) (A)
                 (A) (A) (A) (A)
 The electronic state is 1-A.
 Alpha  occ. eigenvalues --  -19.17848 -19.16883 -14.44353 -10.33382 -10.33381
 Alpha  occ. eigenvalues --  -10.32294 -10.32283 -10.25679 -10.25163 -10.25102
 Alpha  occ. eigenvalues --  -10.25073 -10.24366 -10.24087 -10.23852  -1.11853
 Alpha  occ. eigenvalues --   -1.09596  -1.07744  -0.91497  -0.90597  -0.83921
 Alpha  occ. eigenvalues --   -0.82495  -0.81478  -0.78750  -0.74281  -0.71530
 Alpha  occ. eigenvalues --   -0.69132  -0.62062  -0.58477  -0.56944  -0.55153
 Alpha  occ. eigenvalues --   -0.54689  -0.54224  -0.52477  -0.51843  -0.50669
 Alpha  occ. eigenvalues --   -0.49734  -0.49339  -0.49067  -0.48411  -0.48259
 Alpha  occ. eigenvalues --   -0.46649  -0.45283  -0.44609  -0.43584  -0.42975
 Alpha  occ. eigenvalues --   -0.42434  -0.41861  -0.41044  -0.33011  -0.32292
 Alpha  occ. eigenvalues --   -0.31029  -0.26338
 Alpha virt. eigenvalues --   -0.03214   0.01927   0.06578   0.08354   0.08793
 Alpha virt. eigenvalues --    0.10215   0.10686   0.11921   0.12699   0.13572
 Alpha virt. eigenvalues --    0.14234   0.15549   0.15680   0.16539   0.16762
 Alpha virt. eigenvalues --    0.17493   0.17646   0.17914   0.18279   0.19093
 Alpha virt. eigenvalues --    0.19902   0.20731   0.22599   0.23242   0.23994
 Alpha virt. eigenvalues --    0.24443   0.24760   0.25484   0.25798   0.26359
 Alpha virt. eigenvalues --    0.27469   0.27910   0.28724   0.29572   0.30080
 Alpha virt. eigenvalues --    0.31385   0.31970   0.32864   0.33737   0.34813
 Alpha virt. eigenvalues --    0.35220   0.35882   0.36966   0.37594   0.37951
 Alpha virt. eigenvalues --    0.39732   0.41175   0.41629   0.42234   0.43126
 Alpha virt. eigenvalues --    0.44146   0.44785   0.45368   0.46252   0.46373
 Alpha virt. eigenvalues --    0.46867   0.48121   0.48147   0.48656   0.48890
 Alpha virt. eigenvalues --    0.49516   0.49989   0.50707   0.51462   0.51879
 Alpha virt. eigenvalues --    0.52109   0.52830   0.53313   0.53807   0.54305
 Alpha virt. eigenvalues --    0.54751   0.55694   0.55832   0.56967   0.58000
 Alpha virt. eigenvalues --    0.58729   0.59390   0.59583   0.61686   0.62394
 Alpha virt. eigenvalues --    0.63774   0.64601   0.66170   0.67193   0.67917
 Alpha virt. eigenvalues --    0.69516   0.70418   0.71107   0.71371   0.72537
 Alpha virt. eigenvalues --    0.73381   0.74738   0.75797   0.76942   0.78674
 Alpha virt. eigenvalues --    0.79529   0.80459   0.81739   0.85812   0.86714
 Alpha virt. eigenvalues --    0.89272   0.90101   0.96693   1.01162   1.23320
 Alpha virt. eigenvalues --    1.24222   1.26740   1.27849   1.29845   1.30784
 Alpha virt. eigenvalues --    1.32730   1.33124   1.34142   1.35768   1.36199
 Alpha virt. eigenvalues --    1.37428   1.37659   1.38795   1.39511   1.39814
 Alpha virt. eigenvalues --    1.40157   1.40926   1.41097   1.41761   1.42071
 Alpha virt. eigenvalues --    1.42844   1.43819   1.44487   1.45112   1.46457
 Alpha virt. eigenvalues --    1.48136   1.49550   1.49809   1.50894   1.51675
 Alpha virt. eigenvalues --    1.51867   1.52555   1.53646   1.55970   1.57340
 Alpha virt. eigenvalues --    1.58619   1.60234   1.60555   1.61256   1.61878
 Alpha virt. eigenvalues --    1.62838   1.63213   1.64439   1.65264   1.65479
 Alpha virt. eigenvalues --    1.66313   1.66933   1.67118   1.68596   1.68801
 Alpha virt. eigenvalues --    1.69246   1.69853   1.70957   1.71900   1.73432
 Alpha virt. eigenvalues --    1.73839   1.74254   1.75833   1.76724   1.80113
 Alpha virt. eigenvalues --    1.80802   1.83076   1.84580   1.85311   1.86215
 Alpha virt. eigenvalues --    1.86413   1.86726   1.88417   1.89802   1.90179
 Alpha virt. eigenvalues --    1.91604   1.93482   1.96632   1.98510   2.01109
 Alpha virt. eigenvalues --    2.01637   2.04450   2.05468   2.07022   2.09766
 Alpha virt. eigenvalues --    2.10901   2.14020   2.14335   2.18674   2.20076
 Alpha virt. eigenvalues --    2.20987   2.22776   2.23308   2.24313   2.25217
 Alpha virt. eigenvalues --    2.27488   2.28969   2.29858   2.31617   2.32526
 Alpha virt. eigenvalues --    2.34160   2.34778   2.36281   2.37805   2.39082
 Alpha virt. eigenvalues --    2.40589   2.40887   2.41262   2.44058   2.45233
 Alpha virt. eigenvalues --    2.45662   2.47712   2.49019   2.49862   2.51421
 Alpha virt. eigenvalues --    2.52892   2.53666   2.54415   2.56198   2.57595
 Alpha virt. eigenvalues --    2.58415   2.59886   2.60961   2.61964   2.63219
 Alpha virt. eigenvalues --    2.63940   2.65915   2.66799   2.67689   2.68470
 Alpha virt. eigenvalues --    2.69015   2.72040   2.72861   2.74006   2.74878
 Alpha virt. eigenvalues --    2.76580   2.76813   2.77436   2.78305   2.78684
 Alpha virt. eigenvalues --    2.80074   2.81197   2.83324   2.84522   2.85366
 Alpha virt. eigenvalues --    2.85741   2.87160   2.88685   2.89543   2.92797
 Alpha virt. eigenvalues --    2.97886   2.98495   2.99165   3.04175   3.09385
 Alpha virt. eigenvalues --    3.09972   3.11133   3.13531   3.19062   3.20399
 Alpha virt. eigenvalues --    3.21604   3.22000   3.23467   3.25090   3.26029
 Alpha virt. eigenvalues --    3.27319   3.29925   3.31588   3.35247   3.37440
 Alpha virt. eigenvalues --    3.39102   3.39411   3.40210   3.40843   3.41129
 Alpha virt. eigenvalues --    3.41969   3.44260   3.45348   3.46779   3.49667
 Alpha virt. eigenvalues --    3.50570   3.51620   3.54547   3.57886   3.59295
 Alpha virt. eigenvalues --    3.61197   3.91180   3.99707   4.30946   4.35078
 Alpha virt. eigenvalues --   21.63817  21.76943  22.05622  22.10257  22.11569
 Alpha virt. eigenvalues --   22.12768  22.15811  22.18407  22.20980  22.26251
 Alpha virt. eigenvalues --   22.30997  31.93183  43.63561  43.65815
          Condensed to atoms (all electrons):
               1          2          3          4          5          6
     1  O    7.988894   0.000000  -0.000263   0.000017   0.021264   0.022972
     2  O    0.000000   8.127258   0.000315   0.000036  -0.205786   0.001431
     3  N   -0.000263   0.000315   6.169887   0.366709  -0.067837   0.410151
     4  H    0.000017   0.000036   0.366709   0.384560   0.013155  -0.039759
     5  C    0.021264  -0.205786  -0.067837   0.013155   7.421941   0.001403
     6  C    0.022972   0.001431   0.410151  -0.039759   0.001403   5.916872
     7  C   -0.000490   0.000069   0.370555  -0.041087   0.027345  -0.227459
     8  C   -0.000168   0.623759   0.004461  -0.000752  -0.521281   0.051224
     9  C   -0.020569   0.021558   0.006612  -0.000393  -0.631586  -0.146199
    10  H    0.003032  -0.000124   0.000958   0.000052  -0.013329  -0.001645
    11  H    0.013468  -0.000426  -0.001529  -0.000002  -0.089846   0.017697
    12  C   -0.248438  -0.002919  -0.066297   0.016497   0.111832  -0.369340
    13  C    0.705554  -0.000010  -0.000019   0.000569   0.074116   0.114985
    14  C   -0.000014  -0.068752  -0.049846  -0.001947   0.022097  -0.001728
    15  H    0.000000   0.004858   0.002424   0.000302   0.013516   0.004195
    16  H    0.000000  -0.000646  -0.001892   0.000441  -0.020699   0.002259
    17  H    0.000000   0.029030   0.004090   0.000702  -0.008437  -0.000199
    18  C   -0.000188  -0.105633  -0.000333   0.000019  -0.173237  -0.002175
    19  H    0.000000   0.008038   0.000013  -0.000001   0.010026   0.000029
    20  H   -0.000032   0.001816  -0.000004  -0.000001  -0.011307   0.000111
    21  H    0.000525   0.007283   0.000092  -0.000000   0.078579  -0.001609
    22  C   -0.115170   0.000000   0.000417   0.000106   0.002555  -0.007544
    23  H    0.004379  -0.000000  -0.000071  -0.000053  -0.000503  -0.030647
    24  H    0.002188   0.000000   0.000090  -0.000014  -0.000096   0.015497
    25  H    0.010044  -0.000000   0.000012  -0.000003  -0.000122  -0.002069
    26  C    0.000824   0.000005  -0.035879  -0.009670  -0.001179   0.197914
    27  H   -0.000262  -0.000000   0.000920   0.000826  -0.000250  -0.055983
    28  H   -0.000068   0.000000  -0.002999   0.000556   0.000769  -0.048199
    29  H    0.000018   0.000000   0.003788   0.001725  -0.000405  -0.053013
               7          8          9         10         11         12
     1  O   -0.000490  -0.000168  -0.020569   0.003032   0.013468  -0.248438
     2  O    0.000069   0.623759   0.021558  -0.000124  -0.000426  -0.002919
     3  N    0.370555   0.004461   0.006612   0.000958  -0.001529  -0.066297
     4  H   -0.041087  -0.000752  -0.000393   0.000052  -0.000002   0.016497
     5  C    0.027345  -0.521281  -0.631586  -0.013329  -0.089846   0.111832
     6  C   -0.227459   0.051224  -0.146199  -0.001645   0.017697  -0.369340
     7  C    6.058020  -0.300075  -0.227916  -0.009426   0.014837   0.062224
     8  C   -0.300075   5.856649   0.203369   0.001897  -0.000794  -0.088366
     9  C   -0.227916   0.203369   6.660305   0.349236   0.511362  -0.161364
    10  H   -0.009426   0.001897   0.349236   0.482131  -0.023553   0.012217
    11  H    0.014837  -0.000794   0.511362  -0.023553   0.456885  -0.104727
    12  C    0.062224  -0.088366  -0.161364   0.012217  -0.104727   7.653822
    13  C    0.022380  -0.010960  -0.250821  -0.005827   0.004026  -0.456885
    14  C    0.176046  -0.085905   0.017262  -0.000676  -0.000034   0.005415
    15  H   -0.077230   0.008402  -0.001822   0.000102  -0.000007  -0.000513
    16  H   -0.029506   0.006637   0.000709  -0.000039   0.000080  -0.001540
    17  H   -0.033826  -0.019111   0.001584   0.000032  -0.000012  -0.000792
    18  C    0.019008   0.316670  -0.009865  -0.007386  -0.004518   0.007863
    19  H    0.004325  -0.041646  -0.004747  -0.000143   0.001067  -0.001019
    20  H   -0.003703  -0.028564  -0.000909   0.000734  -0.001528   0.000733
    21  H    0.005896  -0.126162  -0.012170  -0.003689  -0.004784   0.004914
    22  C    0.000459  -0.000026   0.005984   0.001240   0.000703  -0.295729
    23  H    0.000026  -0.000004   0.002830  -0.000128  -0.000077   0.061752
    24  H   -0.000037   0.000003  -0.003481   0.000100  -0.000108  -0.007078
    25  H    0.000021   0.000002   0.000920  -0.000050  -0.000089   0.029590
    26  C    0.004911   0.000706   0.023252  -0.000553   0.000096  -0.081893
    27  H   -0.000590   0.000001   0.001742  -0.000013   0.000023   0.004340
    28  H   -0.000102  -0.000035  -0.002300   0.000002   0.000003  -0.017341
    29  H    0.003622   0.000022  -0.000875   0.000024   0.000003   0.023101
              13         14         15         16         17         18
     1  O    0.705554  -0.000014   0.000000   0.000000   0.000000  -0.000188
     2  O   -0.000010  -0.068752   0.004858  -0.000646   0.029030  -0.105633
     3  N   -0.000019  -0.049846   0.002424  -0.001892   0.004090  -0.000333
     4  H    0.000569  -0.001947   0.000302   0.000441   0.000702   0.000019
     5  C    0.074116   0.022097   0.013516  -0.020699  -0.008437  -0.173237
     6  C    0.114985  -0.001728   0.004195   0.002259  -0.000199  -0.002175
     7  C    0.022380   0.176046  -0.077230  -0.029506  -0.033826   0.019008
     8  C   -0.010960  -0.085905   0.008402   0.006637  -0.019111   0.316670
     9  C   -0.250821   0.017262  -0.001822   0.000709   0.001584  -0.009865
    10  H   -0.005827  -0.000676   0.000102  -0.000039   0.000032  -0.007386
    11  H    0.004026  -0.000034  -0.000007   0.000080  -0.000012  -0.004518
    12  C   -0.456885   0.005415  -0.000513  -0.001540  -0.000792   0.007863
    13  C    5.571335  -0.000029  -0.000011  -0.000063  -0.000007   0.000994
    14  C   -0.000029   5.281933   0.395687   0.389072   0.407153  -0.000573
    15  H   -0.000011   0.395687   0.578599  -0.037372  -0.025757   0.000276
    16  H   -0.000063   0.389072  -0.037372   0.546311  -0.013530  -0.000120
    17  H   -0.000007   0.407153  -0.025757  -0.013530   0.476191   0.000923
    18  C    0.000994  -0.000573   0.000276  -0.000120   0.000923   5.245918
    19  H   -0.000039  -0.000516  -0.000024   0.000044   0.000353   0.382441
    20  H    0.000042   0.000001   0.000003  -0.000049  -0.000122   0.402659
    21  H    0.001643   0.000424  -0.000034   0.000007  -0.000161   0.392606
    22  C    0.311298   0.000011   0.000002  -0.000002  -0.000000   0.000013
    23  H   -0.083454   0.000001  -0.000000   0.000000   0.000000   0.000001
    24  H   -0.033446  -0.000000   0.000000  -0.000000  -0.000000  -0.000001
    25  H   -0.046276   0.000000  -0.000000   0.000000   0.000000   0.000001
    26  C   -0.051339   0.000092  -0.000269   0.000077   0.000052  -0.000016
    27  H   -0.007044   0.000037  -0.000022   0.000018   0.000000   0.000001
    28  H    0.007844  -0.000131   0.000044  -0.000095  -0.000003  -0.000001
    29  H   -0.000020   0.000279   0.000001   0.000015  -0.000000   0.000001
              19         20         21         22         23         24
     1  O    0.000000  -0.000032   0.000525  -0.115170   0.004379   0.002188
     2  O    0.008038   0.001816   0.007283   0.000000  -0.000000   0.000000
     3  N    0.000013  -0.000004   0.000092   0.000417  -0.000071   0.000090
     4  H   -0.000001  -0.000001  -0.000000   0.000106  -0.000053  -0.000014
     5  C    0.010026  -0.011307   0.078579   0.002555  -0.000503  -0.000096
     6  C    0.000029   0.000111  -0.001609  -0.007544  -0.030647   0.015497
     7  C    0.004325  -0.003703   0.005896   0.000459   0.000026  -0.000037
     8  C   -0.041646  -0.028564  -0.126162  -0.000026  -0.000004   0.000003
     9  C   -0.004747  -0.000909  -0.012170   0.005984   0.002830  -0.003481
    10  H   -0.000143   0.000734  -0.003689   0.001240  -0.000128   0.000100
    11  H    0.001067  -0.001528  -0.004784   0.000703  -0.000077  -0.000108
    12  C   -0.001019   0.000733   0.004914  -0.295729   0.061752  -0.007078
    13  C   -0.000039   0.000042   0.001643   0.311298  -0.083454  -0.033446
    14  C   -0.000516   0.000001   0.000424   0.000011   0.000001  -0.000000
    15  H   -0.000024   0.000003  -0.000034   0.000002  -0.000000   0.000000
    16  H    0.000044  -0.000049   0.000007  -0.000002   0.000000  -0.000000
    17  H    0.000353  -0.000122  -0.000161  -0.000000   0.000000  -0.000000
    18  C    0.382441   0.402659   0.392606   0.000013   0.000001  -0.000001
    19  H    0.552238  -0.031808  -0.023578  -0.000001   0.000000  -0.000000
    20  H   -0.031808   0.535078  -0.023917   0.000001  -0.000000   0.000000
    21  H   -0.023578  -0.023917   0.557885   0.000033  -0.000000  -0.000001
    22  C   -0.000001   0.000001   0.000033   5.453864   0.388012   0.404596
    23  H    0.000000  -0.000000  -0.000000   0.388012   0.544705  -0.028040
    24  H   -0.000000   0.000000  -0.000001   0.404596  -0.028040   0.499797
    25  H    0.000000  -0.000000   0.000000   0.374355  -0.020425  -0.009529
    26  C    0.000001   0.000000  -0.000012  -0.036005   0.018508  -0.016534
    27  H    0.000000  -0.000000   0.000001   0.010983  -0.009260  -0.003592
    28  H   -0.000000   0.000000  -0.000000  -0.013565  -0.002662   0.002496
    29  H   -0.000000   0.000000  -0.000000   0.001732   0.000813   0.000080
              25         26         27         28         29
     1  O    0.010044   0.000824  -0.000262  -0.000068   0.000018
     2  O   -0.000000   0.000005  -0.000000   0.000000   0.000000
     3  N    0.000012  -0.035879   0.000920  -0.002999   0.003788
     4  H   -0.000003  -0.009670   0.000826   0.000556   0.001725
     5  C   -0.000122  -0.001179  -0.000250   0.000769  -0.000405
     6  C   -0.002069   0.197914  -0.055983  -0.048199  -0.053013
     7  C    0.000021   0.004911  -0.000590  -0.000102   0.003622
     8  C    0.000002   0.000706   0.000001  -0.000035   0.000022
     9  C    0.000920   0.023252   0.001742  -0.002300  -0.000875
    10  H   -0.000050  -0.000553  -0.000013   0.000002   0.000024
    11  H   -0.000089   0.000096   0.000023   0.000003   0.000003
    12  C    0.029590  -0.081893   0.004340  -0.017341   0.023101
    13  C   -0.046276  -0.051339  -0.007044   0.007844  -0.000020
    14  C    0.000000   0.000092   0.000037  -0.000131   0.000279
    15  H   -0.000000  -0.000269  -0.000022   0.000044   0.000001
    16  H    0.000000   0.000077   0.000018  -0.000095   0.000015
    17  H    0.000000   0.000052   0.000000  -0.000003  -0.000000
    18  C    0.000001  -0.000016   0.000001  -0.000001   0.000001
    19  H    0.000000   0.000001   0.000000  -0.000000  -0.000000
    20  H   -0.000000   0.000000  -0.000000   0.000000   0.000000
    21  H    0.000000  -0.000012   0.000001  -0.000000  -0.000000
    22  C    0.374355  -0.036005   0.010983  -0.013565   0.001732
    23  H   -0.020425   0.018508  -0.009260  -0.002662   0.000813
    24  H   -0.009529  -0.016534  -0.003592   0.002496   0.000080
    25  H    0.506653   0.001854   0.001196  -0.000228  -0.000043
    26  C    0.001854   5.236027   0.420583   0.436756   0.389576
    27  H    0.001196   0.420583   0.528456  -0.036450  -0.023267
    28  H   -0.000228   0.436756  -0.036450   0.499367  -0.016682
    29  H   -0.000043   0.389576  -0.023267  -0.016682   0.517543
 Mulliken charges:
               1
     1  O   -0.387518
     2  O   -0.441161
     3  N   -0.114522
     4  H    0.307410
     5  C   -0.052697
     6  C    0.230830
     7  C    0.181705
     8  C    0.150046
     9  C   -0.331707
    10  H    0.214826
    11  H    0.211785
    12  C   -0.090058
    13  C    0.131464
    14  C   -0.485361
    15  H    0.134651
    16  H    0.159882
    17  H    0.181850
    18  C   -0.465348
    19  H    0.144948
    20  H    0.160766
    21  H    0.146233
    22  C   -0.488324
    23  H    0.154299
    24  H    0.177111
    25  H    0.154183
    26  C   -0.497884
    27  H    0.167606
    28  H    0.193024
    29  H    0.151963
 Sum of Mulliken charges =   0.00000
 Mulliken charges with hydrogens summed into heavy atoms:
               1
     1  O   -0.387518
     2  O   -0.441161
     3  N    0.192888
     5  C   -0.052697
     6  C    0.230830
     7  C    0.181705
     8  C    0.150046
     9  C    0.094904
    12  C   -0.090058
    13  C    0.131464
    14  C   -0.008978
    18  C   -0.013402
    22  C   -0.002732
    26  C    0.014709
 Electronic spatial extent (au):  <R**2>=           3222.3629
 Charge=              0.0000 electrons
 Dipole moment (field-independent basis, Debye):
    X=             -5.6890    Y=              8.0072    Z=             -0.6605  Tot=              9.8446
 Quadrupole moment (field-independent basis, Debye-Ang):
   XX=           -107.0881   YY=            -78.9763   ZZ=            -84.5183
   XY=            -13.2469   XZ=             -3.9256   YZ=             -0.8720
 Traceless Quadrupole moment (field-independent basis, Debye-Ang):
   XX=            -16.8939   YY=             11.2179   ZZ=              5.6760
   XY=            -13.2469   XZ=             -3.9256   YZ=             -0.8720
 Octapole moment (field-independent basis, Debye-Ang**2):
  XXX=           -132.9440  YYY=             70.2114  ZZZ=              0.6929  XYY=             33.0521
  XXY=             32.1818  XXZ=             -9.7629  XZZ=             -3.3963  YZZ=             -1.0693
  YYZ=              0.4162  XYZ=              3.1091
 Hexadecapole moment (field-independent basis, Debye-Ang**3):
 XXXX=          -3231.6159 YYYY=          -1285.3261 ZZZZ=           -136.8145 XXXY=            -37.9295
 XXXZ=            -52.3935 YYYX=            -94.4904 YYYZ=            -16.3512 ZZZX=              2.6981
 ZZZY=              3.9085 XXYY=           -718.8229 XXZZ=           -496.7394 YYZZ=           -237.2088
 XXYZ=             -2.6500 YYXZ=             -5.2962 ZZXY=             -0.9730
 N-N= 8.994554505865D+02 E-N=-3.274394769199D+03  KE= 6.307257701181D+02
 No NMR shielding tensors so no spin-rotation constants.
 Leave Link  601 at Sat Jan 24 19:59:08 2026, MaxMem=  2147483648 cpu:               1.8 elap:               0.1
 (Enter /data/home/wyx/g16/l9999.exe)
 Electronic transition elements 
                 1             2             3             4             5 
      1  -0.633205D+03 -0.633189D+03 -0.633168D+03 -0.633141D+03 -0.633125D+03
      2   0.165768D+01 -0.226684D+00  0.389370D-01  0.646015D+00 -0.173693D+00
      3   0.513422D+00 -0.489135D-01 -0.124798D+00 -0.192407D+01  0.132121D+01
      4   0.361108D+00 -0.966967D-01 -0.331706D-01  0.674509D-01 -0.517213D-01
      5  -0.191054D+00  0.304715D-01 -0.500807D-02 -0.107748D+00  0.363624D-01
      6  -0.605979D-01  0.704930D-02  0.184882D-01  0.335498D+00 -0.259636D+00
      7  -0.418864D-01  0.112950D-01  0.163207D-02 -0.135419D-01  0.986059D-02
      8  -0.359356D+00 -0.709286D+00  0.316134D+00 -0.163475D+00  0.231689D+00
      9   0.149271D-01 -0.183681D-01 -0.885503D+00  0.706914D-01 -0.344899D-01
     10   0.136417D+01 -0.500569D+00  0.158404D+00  0.367428D+00 -0.165426D+00
     11  -0.562337D-01  0.179625D-01 -0.683105D-01 -0.136700D+01  0.398710D+00
     12   0.253032D+00 -0.722741D-01  0.274737D-01  0.291775D+00 -0.254367D+00
     13   0.156459D-02 -0.426966D-02  0.789042D-02 -0.536700D-01 -0.112227D-01
     14   0.547878D+00 -0.729938D-01  0.969794D-02 -0.394252D+00  0.304670D+00
     15   0.206067D-01 -0.186615D-01  0.623260D-01 -0.341381D+00  0.111212D+00
     16   0.126002D+00 -0.752830D-01  0.226371D-01 -0.845897D-01  0.141473D+00
                 6 
      1  -0.633099D+03
      2  -0.871343D-02
      3   0.164281D+00
      4  -0.348288D-01
      5  -0.385779D-02
      6  -0.338782D-01
      7   0.266462D-01
      8  -0.535091D-01
      9  -0.255069D-02
     10   0.112576D-01
     11  -0.242764D+00
     12  -0.169768D+00
     13   0.128078D+00
     14   0.869961D-02
     15  -0.627288D-01
     16  -0.103023D+00
 1\1\GINC-CN015\SP\RCAM-B3LYP TD-FC\TZVP\C11H15N1O2\WYX\24-Jan-2026\0\\
 #p CAM-B3LYP TZVP em=gd3bj td(nstates=6,root=1) scrf=(Solvent=Water,Co
 rrectedLR,NonEquilibrium=Save) Geom=Check Guess=Read\\Title Card Requi
 red\\0,1\O,0,2.759204,-1.556238,0.693894\O,0,-3.329061,-1.660395,-0.89
 1358\N,0,-0.675348,1.522963,0.000492\H,0,-0.983596,2.478196,-0.077036\
 C,0,-1.23986,-0.766191,-0.165184\C,0,0.658426,1.310621,0.200387\C,0,-1
 .609189,0.538242,-0.266212\C,0,-2.151603,-1.82525,-0.449251\C,0,0.1478
 83,-1.121674,0.310466\H,0,0.104742,-1.542112,1.321957\H,0,0.563745,-1.
 911874,-0.314602\C,0,1.117886,0.036923,0.303914\C,0,2.50381,-0.372231,
 0.471389\C,0,-2.942991,1.071367,-0.641906\H,0,-3.232976,1.914031,-0.00
 8325\H,0,-2.960894,1.419374,-1.677474\H,0,-3.746286,0.342259,-0.556836
 \C,0,-1.800272,-3.264538,-0.227351\H,0,-2.630443,-3.863002,0.151442\H,
 0,-1.481145,-3.734757,-1.16251\H,0,-0.981368,-3.407799,0.475632\C,0,3.
 666362,0.582304,0.35587\H,0,3.573701,1.268212,-0.482107\H,0,3.771379,1
 .173848,1.266314\H,0,4.566313,-0.015794,0.235657\C,0,1.437576,2.588692
 ,0.272125\H,0,2.1827,2.574766,1.059455\H,0,1.941657,2.795086,-0.672273
 \H,0,0.76965,3.424972,0.47343\\Version=ES64L-G16RevA.03\State=1-A\HF=-
 633.3239526\RMSD=2.044e-09\Dipole=0.9499222,3.7367652,0.368258\Quadrup
 ole=-14.5943616,12.2143388,2.3800228,0.685383,-6.6255212,-0.4545577\PG
 =C01 [X(C11H15N1O2)]\\@


 HE THAT RISETH LATE MUST TROT ALL DAY.

                  -- BENJAMIN FRANKLIN
 Job cpu time:       0 days  2 hours 52 minutes  6.0 seconds.
 Elapsed time:       0 days  0 hours 10 minutes 49.4 seconds.
 File lengths (MBytes):  RWF=    735 Int=      0 D2E=      0 Chk=     67 Scr=      1
 Normal termination of Gaussian 16 at Sat Jan 24 19:59:11 2026.
