 Entering Gaussian System, Link 0=g16
 Input=DDL-LR-11.gjf
 Output=DDL-LR-11.log
 Initial command:
 /data/home/wyx/g16/l1.exe "/scr/tmp/wyx/13119/Gau-1512604.inp" -scrdir="/scr/tmp/wyx/13119/"
 Entering Link 1 = /data/home/wyx/g16/l1.exe PID=   1512605.
  
 Copyright (c) 1988,1990,1992,1993,1995,1998,2003,2009,2016,
            Gaussian, Inc.  All Rights Reserved.
  
 This is part of the Gaussian(R) 16 program.  It is based on
 the Gaussian(R) 09 system (copyright 2009, Gaussian, Inc.),
 the Gaussian(R) 03 system (copyright 2003, Gaussian, Inc.),
 the Gaussian(R) 98 system (copyright 1998, Gaussian, Inc.),
 the Gaussian(R) 94 system (copyright 1995, Gaussian, Inc.),
 the Gaussian 92(TM) system (copyright 1992, Gaussian, Inc.),
 the Gaussian 90(TM) system (copyright 1990, Gaussian, Inc.),
 the Gaussian 88(TM) system (copyright 1988, Gaussian, Inc.),
 the Gaussian 86(TM) system (copyright 1986, Carnegie Mellon
 University), and the Gaussian 82(TM) system (copyright 1983,
 Carnegie Mellon University). Gaussian is a federally registered
 trademark of Gaussian, Inc.
  
 This software contains proprietary and confidential information,
 including trade secrets, belonging to Gaussian, Inc.
  
 This software is provided under written license and may be
 used, copied, transmitted, or stored only in accord with that
 written license.
  
 The following legend is applicable only to US Government
 contracts under FAR:
  
                    RESTRICTED RIGHTS LEGEND
  
 Use, reproduction and disclosure by the US Government is
 subject to restrictions as set forth in subparagraphs (a)
 and (c) of the Commercial Computer Software - Restricted
 Rights clause in FAR 52.227-19.
  
 Gaussian, Inc.
 340 Quinnipiac St., Bldg. 40, Wallingford CT 06492
  
  
 ---------------------------------------------------------------
 Warning -- This program may not be used in any manner that
 competes with the business of Gaussian, Inc. or will provide
 assistance to any competitor of Gaussian, Inc.  The licensee
 of this program is prohibited from giving any competitor of
 Gaussian, Inc. access to this program.  By using this program,
 the user acknowledges that Gaussian, Inc. is engaged in the
 business of creating and licensing software in the field of
 computational chemistry and represents and warrants to the
 licensee that it is not a competitor of Gaussian, Inc. and that
 it will not use this program in any manner prohibited above.
 ---------------------------------------------------------------
  

 Cite this work as:
 Gaussian 16, Revision A.03,
 M. J. Frisch, G. W. Trucks, H. B. Schlegel, G. E. Scuseria, 
 M. A. Robb, J. R. Cheeseman, G. Scalmani, V. Barone, 
 G. A. Petersson, H. Nakatsuji, X. Li, M. Caricato, A. V. Marenich, 
 J. Bloino, B. G. Janesko, R. Gomperts, B. Mennucci, H. P. Hratchian, 
 J. V. Ortiz, A. F. Izmaylov, J. L. Sonnenberg, D. Williams-Young, 
 F. Ding, F. Lipparini, F. Egidi, J. Goings, B. Peng, A. Petrone, 
 T. Henderson, D. Ranasinghe, V. G. Zakrzewski, J. Gao, N. Rega, 
 G. Zheng, W. Liang, M. Hada, M. Ehara, K. Toyota, R. Fukuda, 
 J. Hasegawa, M. Ishida, T. Nakajima, Y. Honda, O. Kitao, H. Nakai, 
 T. Vreven, K. Throssell, J. A. Montgomery, Jr., J. E. Peralta, 
 F. Ogliaro, M. J. Bearpark, J. J. Heyd, E. N. Brothers, K. N. Kudin, 
 V. N. Staroverov, T. A. Keith, R. Kobayashi, J. Normand, 
 K. Raghavachari, A. P. Rendell, J. C. Burant, S. S. Iyengar, 
 J. Tomasi, M. Cossi, J. M. Millam, M. Klene, C. Adamo, R. Cammi, 
 J. W. Ochterski, R. L. Martin, K. Morokuma, O. Farkas, 
 J. B. Foresman, and D. J. Fox, Gaussian, Inc., Wallingford CT, 2016.
 
 ******************************************
 Gaussian 16:  ES64L-G16RevA.03 25-Dec-2016
                24-Jan-2026 
 ******************************************
 %nprocshared=16
 Will use up to   16 processors via shared memory.
 %mem=16GB
 %chk=DDL-LR-11.chk
 --------------------------------------------------------------------
 #p CAM-B3LYP TZVP em=gd3bj td(nstates=6,root=1) scrf=(Solvent=Water)
 --------------------------------------------------------------------
 1/38=1,172=1/1;
 2/12=2,17=6,18=5,40=1/2;
 3/5=19,7=101,11=9,25=1,30=1,70=2201,72=1,74=-40,124=41/1,2,3,8;
 4//1;
 5/5=2,38=5,53=1/2;
 8/6=1,10=1,107=1,108=6/1;
 9/8=1,41=6,42=1,70=2/14;
 6/7=2,8=2,9=2,10=2/1;
 99/5=1,9=1/99;
 Leave Link    1 at Sat Jan 24 16:24:32 2026, MaxMem=  2147483648 cpu:               0.4 elap:               0.1
 (Enter /data/home/wyx/g16/l101.exe)
 -------------------
 Title Card Required
 -------------------
 Symbolic Z-matrix:
 Charge =  0 Multiplicity = 1
 O                     2.75417  -1.55817   0.71023 
 O                    -3.28409  -1.6507   -1.00069 
 N                    -0.69062   1.51934   0.06208 
 H                    -0.99704   2.47589  -0.00709 
 C                    -1.24291  -0.76147  -0.15886 
 C                     0.65147   1.30497   0.23978 
 C                    -1.61237   0.54006  -0.24606 
 C                    -2.15358  -1.82546  -0.4978 
 C                     0.12494  -1.11602   0.37226 
 H                     0.04968  -1.48675   1.40206 
 H                     0.54682  -1.94081  -0.19981 
 C                     1.10676   0.03192   0.33058 
 C                     2.49885  -0.38073   0.4636 
 C                    -2.94004   1.07413  -0.65144 
 H                    -3.15531   2.02338  -0.15628 
 H                    -2.98706   1.24643  -1.72836 
 H                    -3.76278   0.40339  -0.41626 
 C                    -1.77227  -3.25226  -0.23795 
 H                    -2.63717  -3.90506  -0.12356 
 H                    -1.18376  -3.65214  -1.0689 
 H                    -1.16019  -3.38227   0.6546 
 C                     3.65933   0.56439   0.2763 
 H                     3.52034   1.25377  -0.55221 
 H                     3.82483   1.151     1.18117 
 H                     4.54605  -0.03992   0.10085 
 C                     1.42999   2.58338   0.3035 
 H                     2.22282   2.54987   1.04141 
 H                     1.87133   2.82114  -0.66505 
 H                     0.77183   3.40873   0.5719 
 
 ITRead=  0  0  0  0  0  0  0  0  0  0  0  0  0  0  0  0  0  0  0  0
 ITRead=  0  0  0  0  0  0  0  0  0
 MicOpt= -1 -1 -1 -1 -1 -1 -1 -1 -1 -1 -1 -1 -1 -1 -1 -1 -1 -1 -1 -1
 MicOpt= -1 -1 -1 -1 -1 -1 -1 -1 -1
 NAtoms=     29 NQM=       29 NQMF=       0 NMMI=      0 NMMIF=      0
                NMic=       0 NMicF=      0.
                    Isotopes and Nuclear Properties:
 (Nuclear quadrupole moments (NQMom) in fm**2, nuclear magnetic moments (NMagM)
  in nuclear magnetons)

  Atom         1           2           3           4           5           6           7           8           9          10
 IAtWgt=          16          16          14           1          12          12          12          12          12           1
 AtmWgt=  15.9949146  15.9949146  14.0030740   1.0078250  12.0000000  12.0000000  12.0000000  12.0000000  12.0000000   1.0078250
 NucSpn=           0           0           2           1           0           0           0           0           0           1
 AtZEff=  -0.0000000  -0.0000000  -0.0000000  -0.0000000  -0.0000000  -0.0000000  -0.0000000  -0.0000000  -0.0000000  -0.0000000
 NQMom=    0.0000000   0.0000000   2.0440000   0.0000000   0.0000000   0.0000000   0.0000000   0.0000000   0.0000000   0.0000000
 NMagM=    0.0000000   0.0000000   0.4037610   2.7928460   0.0000000   0.0000000   0.0000000   0.0000000   0.0000000   2.7928460
 AtZNuc=   8.0000000   8.0000000   7.0000000   1.0000000   6.0000000   6.0000000   6.0000000   6.0000000   6.0000000   1.0000000

  Atom        11          12          13          14          15          16          17          18          19          20
 IAtWgt=           1          12          12          12           1           1           1          12           1           1
 AtmWgt=   1.0078250  12.0000000  12.0000000  12.0000000   1.0078250   1.0078250   1.0078250  12.0000000   1.0078250   1.0078250
 NucSpn=           1           0           0           0           1           1           1           0           1           1
 AtZEff=  -0.0000000  -0.0000000  -0.0000000  -0.0000000  -0.0000000  -0.0000000  -0.0000000  -0.0000000  -0.0000000  -0.0000000
 NQMom=    0.0000000   0.0000000   0.0000000   0.0000000   0.0000000   0.0000000   0.0000000   0.0000000   0.0000000   0.0000000
 NMagM=    2.7928460   0.0000000   0.0000000   0.0000000   2.7928460   2.7928460   2.7928460   0.0000000   2.7928460   2.7928460
 AtZNuc=   1.0000000   6.0000000   6.0000000   6.0000000   1.0000000   1.0000000   1.0000000   6.0000000   1.0000000   1.0000000

  Atom        21          22          23          24          25          26          27          28          29
 IAtWgt=           1          12           1           1           1          12           1           1           1
 AtmWgt=   1.0078250  12.0000000   1.0078250   1.0078250   1.0078250  12.0000000   1.0078250   1.0078250   1.0078250
 NucSpn=           1           0           1           1           1           0           1           1           1
 AtZEff=  -0.0000000  -0.0000000  -0.0000000  -0.0000000  -0.0000000  -0.0000000  -0.0000000  -0.0000000  -0.0000000
 NQMom=    0.0000000   0.0000000   0.0000000   0.0000000   0.0000000   0.0000000   0.0000000   0.0000000   0.0000000
 NMagM=    2.7928460   0.0000000   2.7928460   2.7928460   2.7928460   0.0000000   2.7928460   2.7928460   2.7928460
 AtZNuc=   1.0000000   6.0000000   1.0000000   1.0000000   1.0000000   6.0000000   1.0000000   1.0000000   1.0000000
 Leave Link  101 at Sat Jan 24 16:24:33 2026, MaxMem=  2147483648 cpu:               0.8 elap:               0.1
 (Enter /data/home/wyx/g16/l202.exe)
                          Input orientation:                          
 ---------------------------------------------------------------------
 Center     Atomic      Atomic             Coordinates (Angstroms)
 Number     Number       Type             X           Y           Z
 ---------------------------------------------------------------------
      1          8           0        2.754165   -1.558174    0.710229
      2          8           0       -3.284086   -1.650700   -1.000686
      3          7           0       -0.690616    1.519341    0.062084
      4          1           0       -0.997037    2.475888   -0.007087
      5          6           0       -1.242913   -0.761470   -0.158859
      6          6           0        0.651467    1.304966    0.239780
      7          6           0       -1.612370    0.540059   -0.246059
      8          6           0       -2.153583   -1.825457   -0.497801
      9          6           0        0.124935   -1.116017    0.372261
     10          1           0        0.049679   -1.486754    1.402056
     11          1           0        0.546824   -1.940812   -0.199812
     12          6           0        1.106755    0.031924    0.330581
     13          6           0        2.498851   -0.380730    0.463597
     14          6           0       -2.940042    1.074134   -0.651439
     15          1           0       -3.155308    2.023381   -0.156284
     16          1           0       -2.987064    1.246425   -1.728355
     17          1           0       -3.762779    0.403385   -0.416257
     18          6           0       -1.772270   -3.252262   -0.237951
     19          1           0       -2.637166   -3.905055   -0.123555
     20          1           0       -1.183761   -3.652141   -1.068900
     21          1           0       -1.160194   -3.382275    0.654600
     22          6           0        3.659333    0.564385    0.276301
     23          1           0        3.520344    1.253768   -0.552213
     24          1           0        3.824826    1.150999    1.181167
     25          1           0        4.546052   -0.039921    0.100847
     26          6           0        1.429985    2.583376    0.303496
     27          1           0        2.222818    2.549866    1.041409
     28          1           0        1.871328    2.821139   -0.665049
     29          1           0        0.771830    3.408734    0.571899
 ---------------------------------------------------------------------
                    Distance matrix (angstroms):
                    1          2          3          4          5
     1  O    0.000000
     2  O    6.276645   0.000000
     3  N    4.664516   4.231398   0.000000
     4  H    5.555152   4.821469   1.006807   0.000000
     5  C    4.167335   2.380292   2.357106   3.250227   0.000000
     6  C    3.583327   5.075756   1.370664   2.037049   2.831563
     7  C    4.937985   2.857188   1.379701   2.045281   1.355758
     8  C    5.061301   1.249588   3.693429   4.481068   1.440927
     9  C    2.687485   3.713798   2.776048   3.782130   1.509570
    10  H    2.792485   4.112668   3.373451   4.334032   2.152507
    11  H    2.418045   3.924466   3.684088   4.682722   2.143754
    12  C    2.320884   4.887022   2.348413   3.242363   2.527838
    13  C    1.229791   6.099124   3.734191   4.539057   3.812245
    14  C    6.419282   2.768584   2.401508   2.481002   2.548004
    15  H    6.964212   3.772064   2.525163   2.210239   3.378262
    16  H    6.839165   3.001842   2.924693   2.904230   3.088207
    17  H    6.898351   2.188600   3.303385   3.480232   2.787986
    18  C    4.925200   2.330741   4.901856   5.784979   2.547650
    19  H    5.938813   2.503993   5.766072   6.589387   3.439086
    20  H    4.801797   2.902031   5.316629   6.222142   3.031114
    21  H    4.318871   3.201444   4.959578   5.897671   2.745392
    22  C    2.347952   7.399214   4.458687   5.041422   5.096987
    23  H    3.176131   7.411972   4.263810   4.711419   5.186958
    24  H    2.950884   7.946485   4.666609   5.139809   5.579891
    25  H    2.426375   8.069637   5.464018   6.088249   5.839537
    26  C    4.367072   6.469216   2.384827   2.449174   4.306524
    27  H    4.155479   7.220865   3.241783   3.387076   4.941344
    28  H    4.674310   6.832883   2.964280   2.963044   4.773868
    29  H    5.349669   6.672432   2.443044   2.081902   4.688688
                    6          7          8          9         10
     6  C    0.000000
     7  C    2.438459   0.000000
     8  C    4.267538   2.439662   0.000000
     9  C    2.481118   2.478535   2.540070   0.000000
    10  H    3.083299   3.096233   2.928914   1.097081   0.000000
    11  H    3.277082   3.289222   2.719247   1.088827   1.737614
    12  C    1.355053   2.825660   3.842640   1.511118   2.138189
    13  C    2.510875   4.272423   4.965548   2.486859   2.846478
    14  C    3.707626   1.487374   3.008280   3.903691   4.439980
    15  H    3.894165   2.142186   3.991696   4.571124   5.002141
    16  H    4.137136   2.141480   3.412538   4.436018   5.146994
    17  H    4.552889   2.161459   2.750254   4.247901   4.627496
    18  C    5.183730   3.795699   1.499565   2.921522   3.020950
    19  H    6.171826   4.563360   2.167635   3.956484   3.923621
    20  H    5.445513   4.293636   2.145573   3.197117   3.509401
    21  H    5.042263   4.049735   2.176817   2.620534   2.369701
    22  C    3.097911   5.297575   6.332501   3.914707   4.301639
    23  H    2.976631   5.191133   6.455853   4.242562   4.834785
    24  H    3.313627   5.654496   6.886189   4.413942   4.610669
    25  H    4.122598   6.195392   6.959284   4.558281   4.899371
    26  C    1.498160   3.705817   5.737756   3.923441   4.435993
    27  H    2.159057   4.517252   6.376951   4.276397   4.598576
    28  H    2.146056   4.185096   6.149694   4.430248   5.113636
    29  H    2.133221   3.818738   6.090899   4.575117   5.017616
                   11         12         13         14         15
    11  H    0.000000
    12  C    2.118142   0.000000
    13  C    2.585416   1.458049   0.000000
    14  C    4.631641   4.292683   5.739468   0.000000
    15  H    5.424251   4.729495   6.175234   1.092057   0.000000
    16  H    4.998328   4.740631   6.127606   1.091624   1.761640
    17  H    4.910681   4.940457   6.371577   1.087249   1.749570
    18  C    2.664499   4.404304   5.194260   4.500263   5.454528
    19  H    3.741906   5.451879   6.256539   5.016245   5.951126
    20  H    2.584354   4.558217   5.158712   5.059296   6.077122
    21  H    2.392017   4.111058   4.736493   4.973246   5.818860
    22  C    4.023731   2.608087   1.508324   6.683734   6.982487
    23  H    4.378510   2.845635   2.178739   6.463645   6.731522
    24  H    4.712929   3.060022   2.149258   7.009122   7.160454
    25  H    4.438199   3.447710   2.106839   7.605830   7.977110
    26  C    4.636978   2.571987   3.155001   4.720895   4.642187
    27  H    4.951341   2.844452   2.999742   5.630155   5.534970
    28  H    4.964568   3.058688   3.452476   5.118739   5.114912
    29  H    5.409603   3.401949   4.165857   4.552462   4.227513
                   16         17         18         19         20
    16  H    0.000000
    17  H    1.741853   0.000000
    18  C    4.892363   4.166254   0.000000
    19  H    5.406992   4.462660   1.089619   0.000000
    20  H    5.261438   4.850213   1.093948   1.752150   0.000000
    21  H    5.517317   4.717139   1.090040   1.749363   1.744659
    22  C    6.975559   7.456092   6.658345   7.731861   6.560809
    23  H    6.612845   7.333861   6.958077   8.044385   6.816415
    24  H    7.407852   7.789893   7.261549   8.308028   7.295128
    25  H    7.858022   8.336701   7.096134   8.160162   6.873660
    26  C    5.042438   5.677605   6.678493   7.669669   6.899044
    27  H    6.042634   6.523767   7.159761   8.163491   7.383974
    28  H    5.216734   6.136008   7.095380   8.115505   7.169381
    29  H    4.908771   5.529128   7.176153   8.099162   7.508163
                   21         22         23         24         25
    21  H    0.000000
    22  C    6.240759   0.000000
    23  H    6.697517   1.086739   0.000000
    24  H    6.758570   1.091002   1.762917   0.000000
    25  H    6.636205   1.087309   1.775442   1.762257   0.000000
    26  C    6.513163   3.007833   2.621011   2.925282   4.078312
    27  H    6.839933   2.567314   2.429624   2.131382   3.604035
    28  H    7.029505   3.029198   2.277858   3.164496   3.990791
    29  H    7.060974   4.063911   3.669037   3.845694   5.134186
                   26         27         28         29
    26  C    0.000000
    27  H    1.083616   0.000000
    28  H    1.090594   1.763273   0.000000
    29  H    1.089231   1.750274   1.756190   0.000000
 Stoichiometry    C11H15NO2
 Framework group  C1[X(C11H15NO2)]
 Deg. of freedom    81
 Full point group                 C1      NOp   1
 Largest Abelian subgroup         C1      NOp   1
 Largest concise Abelian subgroup C1      NOp   1
                         Standard orientation:                         
 ---------------------------------------------------------------------
 Center     Atomic      Atomic             Coordinates (Angstroms)
 Number     Number       Type             X           Y           Z
 ---------------------------------------------------------------------
      1          8           0       -2.276082   -2.294954   -0.140193
      2          8           0        3.626790   -0.224917    0.376839
      3          7           0       -0.043116    1.799868   -0.203479
      4          1           0       -0.077278    2.806092   -0.205767
      5          6           0        1.289705   -0.139400   -0.066459
      6          6           0       -1.238471    1.134777   -0.116886
      7          6           0        1.198217    1.213267   -0.067217
      8          6           0        2.555397   -0.806879    0.103145
      9          6           0        0.056275   -0.971951   -0.320054
     10          1           0        0.071003   -1.374079   -1.340673
     11          1           0        0.052081   -1.843834    0.332132
     12          6           0       -1.236570   -0.220208   -0.103464
     13          6           0       -2.401951   -1.084803    0.038913
     14          6           0        2.310611    2.191227    0.068644
     15          1           0        2.095066    3.116582   -0.469729
     16          1           0        2.485231    2.451668    1.114264
     17          1           0        3.258405    1.819281   -0.312740
     18          6           0        2.648494   -2.294439   -0.061759
     19          1           0        3.650358   -2.626087   -0.332954
     20          1           0        2.390305   -2.803313    0.871573
     21          1           0        1.970864   -2.690508   -0.818155
     22          6           0       -3.764039   -0.572213    0.435153
     23          1           0       -3.726390    0.185463    1.213300
     24          1           0       -4.278477   -0.146588   -0.427681
     25          1           0       -4.342886   -1.423508    0.785116
     26          6           0       -2.407351    2.069093   -0.044384
     27          1           0       -3.257504    1.714912   -0.615363
     28          1           0       -2.724781    2.218869    0.988185
     29          1           0       -2.131749    3.044125   -0.444110
 ---------------------------------------------------------------------
 Rotational constants (GHZ):           1.0905382           0.4869177           0.3440652
 Leave Link  202 at Sat Jan 24 16:24:33 2026, MaxMem=  2147483648 cpu:               0.0 elap:               0.0
 (Enter /data/home/wyx/g16/l301.exe)
 Standard basis: TZVP (5D, 7F)
 Ernie: Thresh=  0.10000D-02 Tol=  0.10000D-05 Strict=F.
 There are   370 symmetry adapted cartesian basis functions of A   symmetry.
 There are   356 symmetry adapted basis functions of A   symmetry.
   356 basis functions,   610 primitive gaussians,   370 cartesian basis functions
    52 alpha electrons       52 beta electrons
       nuclear repulsion energy       900.2284117640 Hartrees.
 IExCor=20419 DFT=T Ex+Corr=CAM-B3LYP ExCW=0 ScaHFX=  1.000000
 ScaDFX=  1.000000  1.000000  1.000000  0.810000 ScalE2=  1.000000  1.000000
 IRadAn=      5 IRanWt=     -1 IRanGd=            0 ICorTp=0 IEmpDi=141
 HFx  wShort=  0.000000 wLong=  0.330000 cFull=  0.190000 cShort=  0.000000 cLong=  0.460000
 DFx  wShort=  0.000000 wLong=  0.330000 cFull=  0.190000 cShort=  0.000000 cLong=  0.460000
 NAtoms=   29 NActive=   29 NUniq=   29 SFac= 1.00D+00 NAtFMM=   60 NAOKFM=F Big=F
 Integral buffers will be    131072 words long.
 Raffenetti 1 integral format.
 Two-electron integral symmetry is turned on.
 R6Disp:  Grimme-D3(BJ) Dispersion energy=       -0.0261593528 Hartrees.
 Nuclear repulsion after empirical dispersion term =      900.2022524112 Hartrees.
 ------------------------------------------------------------------------------
 Polarizable Continuum Model (PCM)
 =================================
 Model                : PCM.
 Atomic radii         : UFF (Universal Force Field).
 Polarization charges : Total charges.
 Charge compensation  : None.
 Solution method      : On-the-fly selection.
 Cavity type          : Scaled VdW (van der Waals Surface) (Alpha=1.100).
 Cavity algorithm     : GePol (No added spheres)
                        Default sphere list used, NSphG=   29.
                        Lebedev-Laikov grids with approx.  5.0 points / Ang**2.
                        Smoothing algorithm: York/Karplus (Gamma=1.0000).
                        Polarization charges: spherical gaussians, with
                                              point-specific exponents (IZeta= 3).
                        Self-potential: point-specific (ISelfS= 7).
                        Self-field    : sphere-specific E.n sum rule (ISelfD= 2).
 Solvent              : Water, Eps=  78.355300 Eps(inf)=   1.777849
 ------------------------------------------------------------------------------
 GePol: Number of generator spheres                  =      29
 GePol: Total number of spheres                      =      29
 GePol: Number of exposed spheres                    =      29 (100.00%)
 GePol: Number of points                             =    2109
 GePol: Average weight of points                     =       0.13
 GePol: Minimum weight of points                     =   0.48D-10
 GePol: Maximum weight of points                     =    0.20577
 GePol: Number of points with low weight             =     145
 GePol: Fraction of low-weight points (<1% of avg)   =       6.88%
 GePol: Cavity surface area                          =    269.120 Ang**2
 GePol: Cavity volume                                =    286.433 Ang**3
 Leave Link  301 at Sat Jan 24 16:24:33 2026, MaxMem=  2147483648 cpu:               0.6 elap:               0.0
 (Enter /data/home/wyx/g16/l302.exe)
 NPDir=0 NMtPBC=     1 NCelOv=     1 NCel=       1 NClECP=     1 NCelD=      1
         NCelK=      1 NCelE2=     1 NClLst=     1 CellRange=     0.0.
 One-electron integrals computed using PRISM.
 One-electron integral symmetry used in STVInt
 NBasis=   356 RedAO= T EigKep=  4.35D-05  NBF=   356
 NBsUse=   356 1.00D-06 EigRej= -1.00D+00 NBFU=   356
 Precomputing XC quadrature grid using
 IXCGrd= 4 IRadAn=           5 IRanWt=          -1 IRanGd=           0 AccXCQ= 0.00D+00.
 Generated NRdTot=       0 NPtTot=           0 NUsed=           0 NTot=          32
 NSgBfM=   366   366   366   366   366 MxSgAt=    29 MxSgA2=    29.
 Leave Link  302 at Sat Jan 24 16:24:33 2026, MaxMem=  2147483648 cpu:               3.1 elap:               0.2
 (Enter /data/home/wyx/g16/l303.exe)
 DipDrv:  MaxL=1.
 Leave Link  303 at Sat Jan 24 16:24:34 2026, MaxMem=  2147483648 cpu:               0.6 elap:               0.0
 (Enter /data/home/wyx/g16/l308.exe)
 Leave Link  308 at Sat Jan 24 16:24:34 2026, MaxMem=  2147483648 cpu:               0.7 elap:               0.1
 (Enter /data/home/wyx/g16/l401.exe)
 ExpMin= 9.52D-02 ExpMax= 2.70D+04 ExpMxC= 9.22D+02 IAcc=3 IRadAn=         5 AccDes= 0.00D+00
 Harris functional with IExCor=20419 and IRadAn=       5 diagonalized for initial guess.
 HarFok:  IExCor=20419 AccDes= 0.00D+00 IRadAn=         5 IDoV= 1 UseB2=F ITyADJ=14
 ICtDFT=  3500011 ScaDFX=  1.000000  1.000000  1.000000  1.000000
 FoFCou: FMM=F IPFlag=           0 FMFlag=      100000 FMFlg1=           0
         NFxFlg=           0 DoJE=T BraDBF=F KetDBF=T FulRan=T
         wScrn=  0.000000 ICntrl=       500 IOpCl=  0 I1Cent=   200000004 NGrid=           0
         NMat0=    1 NMatS0=      1 NMatT0=    0 NMatD0=    1 NMtDS0=    0 NMtDT0=    0
 Petite list used in FoFCou.
 Harris En= -608.712313603665    
 JPrj=0 DoOrth=F DoCkMO=F.
 Leave Link  401 at Sat Jan 24 16:24:35 2026, MaxMem=  2147483648 cpu:              11.8 elap:               0.8
 (Enter /data/home/wyx/g16/l502.exe)
 Integral symmetry usage will be decided dynamically.
 Closed shell SCF:
 Using DIIS extrapolation, IDIIS=  1040.
 NGot=  2147483648 LenX=  2147200095 LenY=  2147062754
 Requested convergence on RMS density matrix=1.00D-08 within 128 cycles.
 Requested convergence on MAX density matrix=1.00D-06.
 Requested convergence on             energy=1.00D-06.
 No special actions if energy rises.
 Fock matrices will be formed incrementally for  20 cycles.

 Cycle   1  Pass 1  IDiag  1:
 FoFJK:  IHMeth= 1 ICntrl=       0 DoSepK=T KAlg= 0 I1Cent=           0 FoldK=F
 IRaf=         1 NMat=       1 IRICut=       1 DoRegI=T DoRafI=F ISym2E= 0 IDoP0=0 IntGTp=1.
 FoFCou: FMM=F IPFlag=           0 FMFlag=      100000 FMFlg1=           0
         NFxFlg=           0 DoJE=T BraDBF=F KetDBF=F FulRan=T
         wScrn=  0.000000 ICntrl=       500 IOpCl=  0 I1Cent=           0 NGrid=           0
         NMat0=    1 NMatS0=      1 NMatT0=    0 NMatD0=    1 NMtDS0=    0 NMtDT0=    0
 Symmetry not used in FoFCou.
 Inv3:  Mode=1 IEnd=    13343643.
 Iteration    1 A*A^-1 deviation from unit magnitude is 3.55D-15 for   1582.
 Iteration    1 A*A^-1 deviation from orthogonality  is 1.88D-15 for   1253    503.
 Iteration    1 A^-1*A deviation from unit magnitude is 3.55D-15 for   1582.
 Iteration    1 A^-1*A deviation from orthogonality  is 2.25D-15 for   1509   1276.
 E= -633.132561281792    
 DIIS: error= 4.16D-02 at cycle   1 NSaved=   1.
 NSaved= 1 IEnMin= 1 EnMin= -633.132561281792     IErMin= 1 ErrMin= 4.16D-02
 ErrMax= 4.16D-02  0.00D+00 EMaxC= 1.00D-01 BMatC= 1.09D+00 BMatP= 1.09D+00
 IDIUse=3 WtCom= 5.84D-01 WtEn= 4.16D-01
 Coeff-Com:  0.100D+01
 Coeff-En:   0.100D+01
 Coeff:      0.100D+01
 Gap=     0.229 Goal=   None    Shift=    0.000
 GapD=    0.229 DampG=1.000 DampE=0.500 DampFc=0.5000 IDamp=-1.
 Damping current iteration by 5.00D-01
 RMSDP=4.09D-03 MaxDP=1.68D-01              OVMax= 1.39D-01

 Cycle   2  Pass 1  IDiag  1:
 RMSU=  1.77D-03    CP:  9.27D-01
 E= -633.227859618320     Delta-E=       -0.095298336528 Rises=F Damp=T
 DIIS: error= 1.91D-02 at cycle   2 NSaved=   2.
 NSaved= 2 IEnMin= 2 EnMin= -633.227859618320     IErMin= 2 ErrMin= 1.91D-02
 ErrMax= 1.91D-02  0.00D+00 EMaxC= 1.00D-01 BMatC= 2.23D-01 BMatP= 1.09D+00
 IDIUse=3 WtCom= 8.09D-01 WtEn= 1.91D-01
 Coeff-Com: -0.596D+00 0.160D+01
 Coeff-En:   0.000D+00 0.100D+01
 Coeff:     -0.483D+00 0.148D+01
 Gap=     0.242 Goal=   None    Shift=    0.000
 RMSDP=1.44D-03 MaxDP=4.41D-02 DE=-9.53D-02 OVMax= 1.32D-01

 Cycle   3  Pass 1  IDiag  1:
 RMSU=  1.35D-03    CP:  9.05D-01  1.24D+00
 E= -633.277444622673     Delta-E=       -0.049585004354 Rises=F Damp=F
 DIIS: error= 1.07D-02 at cycle   3 NSaved=   3.
 NSaved= 3 IEnMin= 3 EnMin= -633.277444622673     IErMin= 3 ErrMin= 1.07D-02
 ErrMax= 1.07D-02  0.00D+00 EMaxC= 1.00D-01 BMatC= 6.24D-02 BMatP= 2.23D-01
 IDIUse=3 WtCom= 8.93D-01 WtEn= 1.07D-01
 Coeff-Com: -0.364D+00 0.796D+00 0.567D+00
 Coeff-En:   0.000D+00 0.000D+00 0.100D+01
 Coeff:     -0.325D+00 0.711D+00 0.614D+00
 Gap=     0.240 Goal=   None    Shift=    0.000
 RMSDP=1.40D-03 MaxDP=7.06D-02 DE=-4.96D-02 OVMax= 7.27D-02

 Cycle   4  Pass 1  IDiag  1:
 RMSU=  5.06D-04    CP:  8.53D-01  1.74D+00  5.29D-01
 E= -633.324291105593     Delta-E=       -0.046846482920 Rises=F Damp=F
 DIIS: error= 3.85D-03 at cycle   4 NSaved=   4.
 NSaved= 4 IEnMin= 4 EnMin= -633.324291105593     IErMin= 4 ErrMin= 3.85D-03
 ErrMax= 3.85D-03  0.00D+00 EMaxC= 1.00D-01 BMatC= 6.16D-03 BMatP= 6.24D-02
 IDIUse=3 WtCom= 9.61D-01 WtEn= 3.85D-02
 Coeff-Com: -0.169D+00 0.367D+00 0.355D+00 0.447D+00
 Coeff-En:   0.000D+00 0.000D+00 0.000D+00 0.100D+01
 Coeff:     -0.163D+00 0.353D+00 0.342D+00 0.469D+00
 Gap=     0.235 Goal=   None    Shift=    0.000
 RMSDP=3.35D-04 MaxDP=2.03D-02 DE=-4.68D-02 OVMax= 1.36D-02

 Cycle   5  Pass 1  IDiag  1:
 RMSU=  9.62D-05    CP:  8.65D-01  1.67D+00  6.58D-01  6.55D-01
 E= -633.328928178455     Delta-E=       -0.004637072861 Rises=F Damp=F
 DIIS: error= 4.14D-04 at cycle   5 NSaved=   5.
 NSaved= 5 IEnMin= 5 EnMin= -633.328928178455     IErMin= 5 ErrMin= 4.14D-04
 ErrMax= 4.14D-04  0.00D+00 EMaxC= 1.00D-01 BMatC= 7.12D-05 BMatP= 6.16D-03
 IDIUse=3 WtCom= 9.96D-01 WtEn= 4.14D-03
 Coeff-Com: -0.330D-01 0.707D-01 0.793D-01 0.157D+00 0.726D+00
 Coeff-En:   0.000D+00 0.000D+00 0.000D+00 0.000D+00 0.100D+01
 Coeff:     -0.329D-01 0.704D-01 0.790D-01 0.156D+00 0.727D+00
 Gap=     0.235 Goal=   None    Shift=    0.000
 RMSDP=1.18D-04 MaxDP=5.97D-03 DE=-4.64D-03 OVMax= 2.02D-03

 Cycle   6  Pass 1  IDiag  1:
 RMSU=  4.85D-05    CP:  8.60D-01  1.70D+00  6.61D-01  7.81D-01  1.10D+00
 E= -633.328971423030     Delta-E=       -0.000043244575 Rises=F Damp=F
 DIIS: error= 3.87D-04 at cycle   6 NSaved=   6.
 NSaved= 6 IEnMin= 6 EnMin= -633.328971423030     IErMin= 6 ErrMin= 3.87D-04
 ErrMax= 3.87D-04  0.00D+00 EMaxC= 1.00D-01 BMatC= 2.37D-05 BMatP= 7.12D-05
 IDIUse=3 WtCom= 9.96D-01 WtEn= 3.87D-03
 Coeff-Com:  0.176D-01-0.383D-01-0.300D-01-0.979D-02 0.423D+00 0.638D+00
 Coeff-En:   0.000D+00 0.000D+00 0.000D+00 0.000D+00 0.137D+00 0.863D+00
 Coeff:      0.175D-01-0.382D-01-0.299D-01-0.976D-02 0.422D+00 0.639D+00
 Gap=     0.235 Goal=   None    Shift=    0.000
 RMSDP=2.62D-05 MaxDP=1.28D-03 DE=-4.32D-05 OVMax= 2.90D-03

 Cycle   7  Pass 1  IDiag  1:
 RMSU=  1.84D-05    CP:  8.60D-01  1.70D+00  6.64D-01  7.79D-01  1.23D+00
                    CP:  7.85D-01
 E= -633.328993973729     Delta-E=       -0.000022550700 Rises=F Damp=F
 DIIS: error= 3.64D-05 at cycle   7 NSaved=   7.
 NSaved= 7 IEnMin= 7 EnMin= -633.328993973729     IErMin= 7 ErrMin= 3.64D-05
 ErrMax= 3.64D-05  0.00D+00 EMaxC= 1.00D-01 BMatC= 7.82D-07 BMatP= 2.37D-05
 IDIUse=1 WtCom= 1.00D+00 WtEn= 0.00D+00
 Coeff-Com:  0.381D-02-0.820D-02-0.722D-02-0.108D-01-0.947D-02 0.134D+00
 Coeff-Com:  0.898D+00
 Coeff:      0.381D-02-0.820D-02-0.722D-02-0.108D-01-0.947D-02 0.134D+00
 Coeff:      0.898D+00
 Gap=     0.236 Goal=   None    Shift=    0.000
 RMSDP=1.60D-05 MaxDP=7.46D-04 DE=-2.26D-05 OVMax= 6.56D-04

 Cycle   8  Pass 1  IDiag  1:
 RMSU=  5.18D-06    CP:  8.60D-01  1.70D+00  6.65D-01  7.96D-01  1.29D+00
                    CP:  9.17D-01  1.07D+00
 E= -633.328995227344     Delta-E=       -0.000001253615 Rises=F Damp=F
 DIIS: error= 2.10D-05 at cycle   8 NSaved=   8.
 NSaved= 8 IEnMin= 8 EnMin= -633.328995227344     IErMin= 8 ErrMin= 2.10D-05
 ErrMax= 2.10D-05  0.00D+00 EMaxC= 1.00D-01 BMatC= 1.13D-07 BMatP= 7.82D-07
 IDIUse=1 WtCom= 1.00D+00 WtEn= 0.00D+00
 Coeff-Com: -0.479D-03 0.110D-02 0.552D-03-0.400D-02-0.624D-01-0.160D-01
 Coeff-Com:  0.321D+00 0.761D+00
 Coeff:     -0.479D-03 0.110D-02 0.552D-03-0.400D-02-0.624D-01-0.160D-01
 Coeff:      0.321D+00 0.761D+00
 Gap=     0.236 Goal=   None    Shift=    0.000
 RMSDP=4.85D-06 MaxDP=2.96D-04 DE=-1.25D-06 OVMax= 3.66D-04

 Cycle   9  Pass 1  IDiag  1:
 RMSU=  1.71D-06    CP:  8.60D-01  1.71D+00  6.65D-01  8.01D-01  1.30D+00
                    CP:  9.48D-01  1.18D+00  1.14D+00
 E= -633.328995412705     Delta-E=       -0.000000185360 Rises=F Damp=F
 DIIS: error= 5.17D-06 at cycle   9 NSaved=   9.
 NSaved= 9 IEnMin= 9 EnMin= -633.328995412705     IErMin= 9 ErrMin= 5.17D-06
 ErrMax= 5.17D-06  0.00D+00 EMaxC= 1.00D-01 BMatC= 2.00D-08 BMatP= 1.13D-07
 IDIUse=1 WtCom= 1.00D+00 WtEn= 0.00D+00
 Coeff-Com: -0.855D-03 0.186D-02 0.155D-02 0.189D-03-0.243D-01-0.210D-01
 Coeff-Com: -0.185D-01 0.310D+00 0.751D+00
 Coeff:     -0.855D-03 0.186D-02 0.155D-02 0.189D-03-0.243D-01-0.210D-01
 Coeff:     -0.185D-01 0.310D+00 0.751D+00
 Gap=     0.236 Goal=   None    Shift=    0.000
 RMSDP=1.78D-06 MaxDP=7.60D-05 DE=-1.85D-07 OVMax= 1.17D-04

 Cycle  10  Pass 1  IDiag  1:
 RMSU=  7.59D-07    CP:  8.60D-01  1.71D+00  6.65D-01  8.02D-01  1.31D+00
                    CP:  9.65D-01  1.21D+00  1.30D+00  9.64D-01
 E= -633.328995438560     Delta-E=       -0.000000025855 Rises=F Damp=F
 DIIS: error= 3.01D-06 at cycle  10 NSaved=  10.
 NSaved=10 IEnMin=10 EnMin= -633.328995438560     IErMin=10 ErrMin= 3.01D-06
 ErrMax= 3.01D-06  0.00D+00 EMaxC= 1.00D-01 BMatC= 3.14D-09 BMatP= 2.00D-08
 IDIUse=1 WtCom= 1.00D+00 WtEn= 0.00D+00
 Coeff-Com: -0.388D-03 0.838D-03 0.751D-03 0.498D-03-0.605D-02-0.792D-02
 Coeff-Com: -0.475D-01 0.773D-01 0.368D+00 0.615D+00
 Coeff:     -0.388D-03 0.838D-03 0.751D-03 0.498D-03-0.605D-02-0.792D-02
 Coeff:     -0.475D-01 0.773D-01 0.368D+00 0.615D+00
 Gap=     0.236 Goal=   None    Shift=    0.000
 RMSDP=6.10D-07 MaxDP=3.69D-05 DE=-2.59D-08 OVMax= 2.89D-05

 Cycle  11  Pass 1  IDiag  1:
 RMSU=  2.53D-07    CP:  8.60D-01  1.71D+00  6.65D-01  8.03D-01  1.31D+00
                    CP:  9.69D-01  1.21D+00  1.32D+00  1.14D+00  9.19D-01
 E= -633.328995441656     Delta-E=       -0.000000003096 Rises=F Damp=F
 DIIS: error= 1.16D-06 at cycle  11 NSaved=  11.
 NSaved=11 IEnMin=11 EnMin= -633.328995441656     IErMin=11 ErrMin= 1.16D-06
 ErrMax= 1.16D-06  0.00D+00 EMaxC= 1.00D-01 BMatC= 4.09D-10 BMatP= 3.14D-09
 IDIUse=1 WtCom= 1.00D+00 WtEn= 0.00D+00
 Coeff-Com:  0.218D-04-0.505D-04-0.165D-04 0.120D-03 0.221D-02 0.165D-02
 Coeff-Com: -0.171D-01-0.269D-01-0.102D-02 0.278D+00 0.763D+00
 Coeff:      0.218D-04-0.505D-04-0.165D-04 0.120D-03 0.221D-02 0.165D-02
 Coeff:     -0.171D-01-0.269D-01-0.102D-02 0.278D+00 0.763D+00
 Gap=     0.236 Goal=   None    Shift=    0.000
 RMSDP=2.35D-07 MaxDP=1.44D-05 DE=-3.10D-09 OVMax= 1.48D-05

 Cycle  12  Pass 1  IDiag  1:
 RMSU=  1.14D-07    CP:  8.60D-01  1.71D+00  6.65D-01  8.03D-01  1.31D+00
                    CP:  9.69D-01  1.21D+00  1.34D+00  1.13D+00  1.04D+00
                    CP:  9.22D-01
 E= -633.328995442151     Delta-E=       -0.000000000495 Rises=F Damp=F
 DIIS: error= 2.56D-07 at cycle  12 NSaved=  12.
 NSaved=12 IEnMin=12 EnMin= -633.328995442151     IErMin=12 ErrMin= 2.56D-07
 ErrMax= 2.56D-07  0.00D+00 EMaxC= 1.00D-01 BMatC= 3.19D-11 BMatP= 4.09D-10
 IDIUse=1 WtCom= 1.00D+00 WtEn= 0.00D+00
 Coeff-Com:  0.282D-04-0.623D-04-0.440D-04 0.271D-04 0.124D-02 0.113D-02
 Coeff-Com: -0.374D-02-0.146D-01-0.291D-01 0.608D-01 0.300D+00 0.684D+00
 Coeff:      0.282D-04-0.623D-04-0.440D-04 0.271D-04 0.124D-02 0.113D-02
 Coeff:     -0.374D-02-0.146D-01-0.291D-01 0.608D-01 0.300D+00 0.684D+00
 Gap=     0.236 Goal=   None    Shift=    0.000
 RMSDP=5.13D-08 MaxDP=1.94D-06 DE=-4.95D-10 OVMax= 3.13D-06

 Cycle  13  Pass 1  IDiag  1:
 RMSU=  2.46D-08    CP:  8.60D-01  1.71D+00  6.65D-01  8.03D-01  1.31D+00
                    CP:  9.70D-01  1.22D+00  1.35D+00  1.14D+00  1.06D+00
                    CP:  1.00D+00  1.06D+00
 E= -633.328995442195     Delta-E=       -0.000000000043 Rises=F Damp=F
 DIIS: error= 1.10D-07 at cycle  13 NSaved=  13.
 NSaved=13 IEnMin=13 EnMin= -633.328995442195     IErMin=13 ErrMin= 1.10D-07
 ErrMax= 1.10D-07  0.00D+00 EMaxC= 1.00D-01 BMatC= 3.26D-12 BMatP= 3.19D-11
 IDIUse=1 WtCom= 1.00D+00 WtEn= 0.00D+00
 Coeff-Com:  0.511D-05-0.107D-04-0.118D-04-0.171D-04-0.561D-04 0.248D-04
 Coeff-Com:  0.205D-02 0.158D-02-0.969D-02-0.329D-01-0.503D-01 0.177D+00
 Coeff-Com:  0.912D+00
 Coeff:      0.511D-05-0.107D-04-0.118D-04-0.171D-04-0.561D-04 0.248D-04
 Coeff:      0.205D-02 0.158D-02-0.969D-02-0.329D-01-0.503D-01 0.177D+00
 Coeff:      0.912D+00
 Gap=     0.236 Goal=   None    Shift=    0.000
 RMSDP=2.86D-08 MaxDP=1.02D-06 DE=-4.33D-11 OVMax= 2.61D-06

 Cycle  14  Pass 1  IDiag  1:
 RMSU=  1.45D-08    CP:  8.60D-01  1.71D+00  6.65D-01  8.03D-01  1.31D+00
                    CP:  9.70D-01  1.22D+00  1.35D+00  1.13D+00  1.08D+00
                    CP:  1.03D+00  1.22D+00  1.20D+00
 E= -633.328995442210     Delta-E=       -0.000000000015 Rises=F Damp=F
 DIIS: error= 4.64D-08 at cycle  14 NSaved=  14.
 NSaved=14 IEnMin=14 EnMin= -633.328995442210     IErMin=14 ErrMin= 4.64D-08
 ErrMax= 4.64D-08  0.00D+00 EMaxC= 1.00D-01 BMatC= 3.07D-13 BMatP= 3.26D-12
 IDIUse=1 WtCom= 1.00D+00 WtEn= 0.00D+00
 Coeff-Com: -0.214D-05 0.480D-05 0.317D-05-0.393D-05-0.121D-03-0.948D-04
 Coeff-Com:  0.520D-03 0.169D-02 0.202D-02-0.764D-02-0.341D-01-0.639D-01
 Coeff-Com:  0.313D-01 0.107D+01
 Coeff:     -0.214D-05 0.480D-05 0.317D-05-0.393D-05-0.121D-03-0.948D-04
 Coeff:      0.520D-03 0.169D-02 0.202D-02-0.764D-02-0.341D-01-0.639D-01
 Coeff:      0.313D-01 0.107D+01
 Gap=     0.236 Goal=   None    Shift=    0.000
 RMSDP=1.15D-08 MaxDP=5.10D-07 DE=-1.49D-11 OVMax= 1.39D-06

 Cycle  15  Pass 1  IDiag  1:
 RMSU=  4.81D-09    CP:  8.60D-01  1.71D+00  6.65D-01  8.03D-01  1.31D+00
                    CP:  9.70D-01  1.22D+00  1.35D+00  1.13D+00  1.08D+00
                    CP:  1.03D+00  1.28D+00  1.39D+00  1.34D+00
 E= -633.328995442213     Delta-E=       -0.000000000004 Rises=F Damp=F
 DIIS: error= 1.67D-08 at cycle  15 NSaved=  15.
 NSaved=15 IEnMin=15 EnMin= -633.328995442213     IErMin=15 ErrMin= 1.67D-08
 ErrMax= 1.67D-08  0.00D+00 EMaxC= 1.00D-01 BMatC= 9.32D-14 BMatP= 3.07D-13
 IDIUse=1 WtCom= 1.00D+00 WtEn= 0.00D+00
 Coeff-Com: -0.152D-05 0.326D-05 0.289D-05 0.114D-05-0.338D-04-0.446D-04
 Coeff-Com: -0.165D-03 0.238D-03 0.218D-02 0.287D-02-0.425D-02-0.482D-01
 Coeff-Com: -0.145D+00 0.369D+00 0.823D+00
 Coeff:     -0.152D-05 0.326D-05 0.289D-05 0.114D-05-0.338D-04-0.446D-04
 Coeff:     -0.165D-03 0.238D-03 0.218D-02 0.287D-02-0.425D-02-0.482D-01
 Coeff:     -0.145D+00 0.369D+00 0.823D+00
 Gap=     0.236 Goal=   None    Shift=    0.000
 RMSDP=4.90D-09 MaxDP=1.31D-07 DE=-3.87D-12 OVMax= 5.64D-07

 Error on total polarization charges =  0.01550
 SCF Done:  E(RCAM-B3LYP) =  -633.328995442     A.U. after   15 cycles
            NFock= 15  Conv=0.49D-08     -V/T= 2.0042
 KE= 6.306895816092D+02 PE=-3.276441744702D+03 EE= 1.112220915239D+03
 Leave Link  502 at Sat Jan 24 16:25:34 2026, MaxMem=  2147483648 cpu:             940.2 elap:              59.2
 (Enter /data/home/wyx/g16/l801.exe)
 DoSCS=F DFT=T ScalE2(SS,OS)=  1.000000  1.000000
 ExpMin= 9.52D-02 ExpMax= 2.70D+04 ExpMxC= 9.22D+02 IAcc=3 IRadAn=         5 AccDes= 0.00D+00
 HarFok:  IExCor=  205 AccDes= 0.00D+00 IRadAn=         5 IDoV=-2 UseB2=F ITyADJ=14
 ICtDFT= 12500011 ScaDFX=  1.000000  1.000000  1.000000  1.000000
 Largest valence mixing into a core orbital is  5.64D-05
 Largest core mixing into a valence orbital is  1.18D-05
 Range of M.O.s used for correlation:    15   356
 NBasis=   356 NAE=    52 NBE=    52 NFC=    14 NFV=     0
 NROrb=    342 NOA=    38 NOB=    38 NVA=   304 NVB=   304

 **** Warning!!: The largest alpha MO coefficient is  0.42286092D+02

 Leave Link  801 at Sat Jan 24 16:25:34 2026, MaxMem=  2147483648 cpu:               1.0 elap:               0.1
 (Enter /data/home/wyx/g16/l914.exe)
 RHF ground state
 Two-electron integrals replicated using symmetry.
 MDV=  2147483648 DFT=T DoStab=F Mixed=T DoRPA=T DoScal=F NonHer=T
 NEqPCM:  Using non-equilibrium solvation (IEInf=1, Eps=  78.3553, EpsInf=   1.7778)
 Inv3:  Mode=1 IEnd=    13343643.
 Iteration    1 A*A^-1 deviation from unit magnitude is 3.33D-15 for    492.
 Iteration    1 A*A^-1 deviation from orthogonality  is 1.45D-15 for   1701    758.
 Iteration    1 A^-1*A deviation from unit magnitude is 3.55D-15 for    492.
 Iteration    1 A^-1*A deviation from orthogonality  is 1.77D-15 for    670    622.
 Making orbital integer symmetry assigments:
 Orbital symmetries:
       Occupied  (A) (A) (A) (A) (A) (A) (A) (A) (A) (A) (A) (A)
                 (A) (A) (A) (A) (A) (A) (A) (A) (A) (A) (A) (A)
                 (A) (A) (A) (A) (A) (A) (A) (A) (A) (A) (A) (A)
                 (A) (A) (A) (A) (A) (A) (A) (A) (A) (A) (A) (A)
                 (A) (A) (A) (A)
       Virtual   (A) (A) (A) (A) (A) (A) (A) (A) (A) (A) (A) (A)
                 (A) (A) (A) (A) (A) (A) (A) (A) (A) (A) (A) (A)
                 (A) (A) (A) (A) (A) (A) (A) (A) (A) (A) (A) (A)
                 (A) (A) (A) (A) (A) (A) (A) (A) (A) (A) (A) (A)
                 (A) (A) (A) (A) (A) (A) (A) (A) (A) (A) (A) (A)
                 (A) (A) (A) (A) (A) (A) (A) (A) (A) (A) (A) (A)
                 (A) (A) (A) (A) (A) (A) (A) (A) (A) (A) (A) (A)
                 (A) (A) (A) (A) (A) (A) (A) (A) (A) (A) (A) (A)
                 (A) (A) (A) (A) (A) (A) (A) (A) (A) (A) (A) (A)
                 (A) (A) (A) (A) (A) (A) (A) (A) (A) (A) (A) (A)
                 (A) (A) (A) (A) (A) (A) (A) (A) (A) (A) (A) (A)
                 (A) (A) (A) (A) (A) (A) (A) (A) (A) (A) (A) (A)
                 (A) (A) (A) (A) (A) (A) (A) (A) (A) (A) (A) (A)
                 (A) (A) (A) (A) (A) (A) (A) (A) (A) (A) (A) (A)
                 (A) (A) (A) (A) (A) (A) (A) (A) (A) (A) (A) (A)
                 (A) (A) (A) (A) (A) (A) (A) (A) (A) (A) (A) (A)
                 (A) (A) (A) (A) (A) (A) (A) (A) (A) (A) (A) (A)
                 (A) (A) (A) (A) (A) (A) (A) (A) (A) (A) (A) (A)
                 (A) (A) (A) (A) (A) (A) (A) (A) (A) (A) (A) (A)
                 (A) (A) (A) (A) (A) (A) (A) (A) (A) (A) (A) (A)
                 (A) (A) (A) (A) (A) (A) (A) (A) (A) (A) (A) (A)
                 (A) (A) (A) (A) (A) (A) (A) (A) (A) (A) (A) (A)
                 (A) (A) (A) (A) (A) (A) (A) (A) (A) (A) (A) (A)
                 (A) (A) (A) (A) (A) (A) (A) (A) (A) (A) (A) (A)
                 (A) (A) (A) (A) (A) (A) (A) (A) (A) (A) (A) (A)
                 (A) (A) (A) (A)
    24 initial guesses have been made.
 Convergence on wavefunction:    0.001000000000000
 Davidson Disk Diagonalization:  ConvIn= 1.00D-03 SkipCon=T Conv= 1.00D-03.
 Max sub-space:  2000 roots to seek:    24 dimension of matrix:        23104
 Iteration     1 Dimension    24 NMult     0 NNew     24
 CISAX will form    24 AO SS matrices at one time.
 NMat=    24 NSing=    24 JSym2X= 0.
 FoFJK:  IHMeth= 1 ICntrl=       0 DoSepK=T KAlg= 0 I1Cent=           0 FoldK=F
 IRaf=         1 NMat=      48 IRICut=       1 DoRegI=T DoRafI=F ISym2E= 0 IDoP0=3 IntGTp=3.
 New state      2 was old state      3
 New state      3 was old state      4
 New state      4 was old state      2
 New state      5 was old state      6
 New state      6 was old state      5
 Excitation Energies [eV] at current iteration:
 Root      1 :     3.897737470482220
 Root      2 :     4.148759723851080
 Root      3 :     4.534166359384279
 Root      4 :     5.526465718086534
 Root      5 :     6.289370043890118
 Root      6 :     6.464640103957045
 Root      7 :     6.790384341181366
 Root      8 :     6.876300755768479
 Root      9 :     6.910009115626176
 Root     10 :     7.191380366095180
 Root     11 :     7.265322463550596
 Root     12 :     7.515725009692874
 Root     13 :     7.551173102347097
 Root     14 :     7.686789844346577
 Root     15 :     7.818386324655553
 Root     16 :     8.071902083087842
 Root     17 :     8.212349975567095
 Root     18 :     8.310898248455324
 Root     19 :     8.364508762677440
 Root     20 :     8.646888015907345
 Root     21 :     8.847995872321313
 Root     22 :     8.881350387538834
 Root     23 :     9.012448931363222
 Root     24 :     9.249748579623519
 Iteration     2 Dimension    36 NMult    24 NNew     12
 CISAX will form    12 AO SS matrices at one time.
 NMat=    12 NSing=    12 JSym2X= 0.
 Root      1 not converged, maximum delta is    0.105651168455362
 Root      2 not converged, maximum delta is    0.100115639054528
 Root      3 not converged, maximum delta is    0.092607216418954
 Root      4 not converged, maximum delta is    0.286361897340531
 New state      5 was old state      6
 Root      5 not converged, maximum delta is    0.311498927199942
 New state      6 was old state      5
 Root      6 not converged, maximum delta is    0.202709937764720
 Excitation Energies [eV] at current iteration:
 Root      1 :     3.466431015499952   Change is   -0.431306454982268
 Root      2 :     3.907387603305099   Change is   -0.241372120545981
 Root      3 :     4.274010145255752   Change is   -0.260156214128527
 Root      4 :     5.180771516936854   Change is   -0.345694201149680
 Root      5 :     5.626663258053654   Change is   -0.837976845903391
 Root      6 :     6.164430092609772   Change is   -0.124939951280347
 Iteration     3 Dimension    48 NMult    36 NNew     12
 CISAX will form    12 AO SS matrices at one time.
 NMat=    12 NSing=    12 JSym2X= 0.
 Root      1 not converged, maximum delta is    0.009502621155492
 Root      2 not converged, maximum delta is    0.010512340493619
 Root      3 not converged, maximum delta is    0.015525959891115
 Root      4 not converged, maximum delta is    0.022365562366241
 Root      5 not converged, maximum delta is    0.022564315231733
 Root      6 not converged, maximum delta is    0.018184616899523
 Excitation Energies [eV] at current iteration:
 Root      1 :     3.448731540643910   Change is   -0.017699474856043
 Root      2 :     3.895264112740327   Change is   -0.012123490564772
 Root      3 :     4.260506406365480   Change is   -0.013503738890272
 Root      4 :     5.158354280564176   Change is   -0.022417236372678
 Root      5 :     5.601102803013091   Change is   -0.025560455040563
 Root      6 :     6.154720111578729   Change is   -0.009709981031043
 Iteration     4 Dimension    60 NMult    48 NNew     12
 CISAX will form    12 AO SS matrices at one time.
 NMat=    12 NSing=    12 JSym2X= 0.
 Root      1 not converged, maximum delta is    0.002007603708891
 Root      2 not converged, maximum delta is    0.001864033413065
 Root      3 not converged, maximum delta is    0.002187842667654
 Root      4 not converged, maximum delta is    0.002493294177102
 Root      5 not converged, maximum delta is    0.003596745952871
 Root      6 not converged, maximum delta is    0.003959065490024
 Excitation Energies [eV] at current iteration:
 Root      1 :     3.447275766606613   Change is   -0.001455774037297
 Root      2 :     3.894313958074583   Change is   -0.000950154665744
 Root      3 :     4.259816025256771   Change is   -0.000690381108709
 Root      4 :     5.156283154373530   Change is   -0.002071126190647
 Root      5 :     5.598415300068488   Change is   -0.002687502944603
 Root      6 :     6.154021553035939   Change is   -0.000698558542789
 Iteration     5 Dimension    72 NMult    60 NNew     12
 CISAX will form    12 AO SS matrices at one time.
 NMat=    12 NSing=    12 JSym2X= 0.
 Root      1 has converged.
 Root      2 has converged.
 Root      3 has converged.
 Root      4 has converged.
 Root      5 not converged, maximum delta is    0.001050323653011
 Root      6 not converged, maximum delta is    0.001156343480595
 Excitation Energies [eV] at current iteration:
 Root      1 :     3.447191237784383   Change is   -0.000084528822229
 Root      2 :     3.894272802613176   Change is   -0.000041155461407
 Root      3 :     4.259774289551308   Change is   -0.000041735705463
 Root      4 :     5.156116130657712   Change is   -0.000167023715818
 Root      5 :     5.598167840354174   Change is   -0.000247459714314
 Root      6 :     6.153966233104661   Change is   -0.000055319931278
 Iteration     6 Dimension    76 NMult    72 NNew      4
 CISAX will form     4 AO SS matrices at one time.
 NMat=     4 NSing=     4 JSym2X= 0.
 Root      1 has converged.
 Root      2 has converged.
 Root      3 has converged.
 Root      4 has converged.
 Root      5 has converged.
 Root      6 has converged.
 Excitation Energies [eV] at current iteration:
 Root      1 :     3.447191035370749   Change is   -0.000000202413635
 Root      2 :     3.894272623128042   Change is   -0.000000179485134
 Root      3 :     4.259774224086224   Change is   -0.000000065465083
 Root      4 :     5.156109411356929   Change is   -0.000006719300784
 Root      5 :     5.598149732559551   Change is   -0.000018107794623
 Root      6 :     6.153961995171954   Change is   -0.000004237932708
 Convergence achieved on expansion vectors.
 ***********************************************************************
 Excited states from <AA,BB:AA,BB> singles matrix:
 ***********************************************************************
 
 1PDM for each excited state written to RWF  633
 Ground to excited state transition densities written to RWF  633
 Ground to excited state transition electric dipole moments (Au):
       state          X           Y           Z        Dip. S.      Osc.
         1        -1.5027     -0.1056     -0.0390      2.2709      0.1918
         2        -0.2437     -0.0303     -0.0470      0.0625      0.0060
         3         0.0073     -0.0988      0.0392      0.0113      0.0012
         4         0.0534     -1.3129      0.1051      1.7377      0.2195
         5        -0.1796      1.4519     -0.0439      2.1422      0.2938
         6        -0.0373      0.1810      0.0749      0.0398      0.0060
 Ground to excited state transition velocity dipole moments (Au):
       state          X           Y           Z        Dip. S.      Osc.
         1         0.1832      0.0106      0.0053      0.0337      0.1774
         2         0.0344      0.0035      0.0047      0.0012      0.0057
         3        -0.0011      0.0146     -0.0025      0.0002      0.0009
         4        -0.0133      0.2344     -0.0153      0.0554      0.1947
         5         0.0365     -0.2924      0.0088      0.0869      0.2815
         6         0.0095     -0.0369     -0.0361      0.0028      0.0081
 Ground to excited state transition magnetic dipole moments (Au):
       state          X           Y           Z
         1         0.1136      0.0290     -1.4163
         2        -0.7746     -0.2521     -0.4520
         3        -0.0370     -0.9596     -0.0965
         4         0.0442      0.0663     -0.1835
         5        -0.2272     -0.1156      0.2358
         6         0.0174     -0.0019     -0.0057
 Ground to excited state transition velocity quadrupole moments (Au):
       state          XX          YY          ZZ          XY          XZ          YZ
         1         0.2227     -0.1040     -0.0019     -0.5027      0.0566     -0.0070
         2         0.0332      0.0068     -0.0035     -0.1004      0.0380     -0.0643
         3        -0.0069      0.0069     -0.0209     -0.0307      0.0644      0.0046
         4        -1.1625      0.2281      0.0040     -0.1398     -0.0643     -0.0363
         5         0.8018     -0.3536     -0.0447      0.0741      0.0713     -0.0605
         6        -0.1835     -0.1763      0.1605     -0.0176     -0.0194      0.0756
 <0|del|b> * <b|rxdel|0> + <0|del|b> * <b|delr+rdel|0>
 Rotatory Strengths (R) in cgs (10**-40 erg-esu-cm/Gauss)
       state          XX          YY          ZZ    R(velocity)    E-M Angle
         1       -29.4588     40.8748     64.2370     25.2177       87.02
         2        -8.9031    -75.4089    -62.2381    -48.8500      155.78
         3       -32.9765      0.4424    -29.3434    -20.6258      163.45
         4        66.3819      1.0539     -1.1322     22.1012       67.83
         5        98.6489    -15.5709     11.7990     31.6257       74.36
         6         0.3113      0.7106      0.3641      0.4620       62.69
 1/2[<0|r|b>*<b|rxdel|0> + (<0|rxdel|b>*<b|r|0>)*]
 Rotatory Strengths (R) in cgs (10**-40 erg-esu-cm/Gauss)
       state          XX          YY          ZZ     R(length)
         1       120.7495      2.1635    -39.0184     27.9649
         2      -133.4770     -5.4036    -15.0373    -51.3059
         3         0.1911    -67.0179      2.6731    -21.3845
         4        -1.6706     61.5747     13.6341     24.5127
         5       -28.8499    118.7075      7.3284     32.3953
         6         0.4581      0.2464      0.3041      0.3362
  1/2[<0|del|b>*<b|r|0> + (<0|r|b>*<b|del|0>)*] (Au)
       state          X           Y           Z        Dip. S.   Osc.(frdel)
         1        -0.2754     -0.0011     -0.0002      0.2767      0.1845
         2        -0.0084     -0.0001     -0.0002      0.0087      0.0058
         3        -0.0000     -0.0014     -0.0001      0.0015      0.0010
         4        -0.0007     -0.3077     -0.0016      0.3101      0.2067
         5        -0.0065     -0.4245     -0.0004      0.4314      0.2876
         6        -0.0004     -0.0067     -0.0027      0.0097      0.0065

 Excitation energies and oscillator strengths:
 
 Excited State   1:      Singlet-A      3.4472 eV  359.67 nm  f=0.1918  <S**2>=0.000
      52 -> 53         0.69622
 This state for optimization and/or second-order correction.
 Total Energy, E(TD-HF/TD-DFT) =  -633.202313503    
 Copying the excited state density for this state as the 1-particle RhoCI density.
 
 Excited State   2:      Singlet-A      3.8943 eV  318.38 nm  f=0.0060  <S**2>=0.000
      50 -> 53         0.11173
      50 -> 54        -0.10960
      51 -> 53         0.58441
      51 -> 54        -0.32379
 
 Excited State   3:      Singlet-A      4.2598 eV  291.06 nm  f=0.0012  <S**2>=0.000
      49 -> 53         0.16507
      49 -> 54         0.12661
      50 -> 53         0.52146
      50 -> 54         0.34967
      50 -> 58         0.11564
      51 -> 53        -0.11490
      51 -> 54        -0.14915
 
 Excited State   4:      Singlet-A      5.1561 eV  240.46 nm  f=0.2195  <S**2>=0.000
      52 -> 54         0.69838
 
 Excited State   5:      Singlet-A      5.5981 eV  221.47 nm  f=0.2938  <S**2>=0.000
      49 -> 53         0.65347
      50 -> 53        -0.22068
 
 Excited State   6:      Singlet-A      6.1540 eV  201.47 nm  f=0.0060  <S**2>=0.000
      52 -> 55         0.66931
      52 -> 56         0.11172
 SavETr:  write IOETrn=   770 NScale= 10 NData=  16 NLR=1 NState=    6 LETran=     118.
 Leave Link  914 at Sat Jan 24 16:27:54 2026, MaxMem=  2147483648 cpu:            2230.6 elap:             140.1
 (Enter /data/home/wyx/g16/l601.exe)
 Copying SCF densities to generalized density rwf, IOpCl= 0 IROHF=0.

 **********************************************************************

            Population analysis using the SCF density.

 **********************************************************************

 Orbital symmetries:
       Occupied  (A) (A) (A) (A) (A) (A) (A) (A) (A) (A) (A) (A)
                 (A) (A) (A) (A) (A) (A) (A) (A) (A) (A) (A) (A)
                 (A) (A) (A) (A) (A) (A) (A) (A) (A) (A) (A) (A)
                 (A) (A) (A) (A) (A) (A) (A) (A) (A) (A) (A) (A)
                 (A) (A) (A) (A)
       Virtual   (A) (A) (A) (A) (A) (A) (A) (A) (A) (A) (A) (A)
                 (A) (A) (A) (A) (A) (A) (A) (A) (A) (A) (A) (A)
                 (A) (A) (A) (A) (A) (A) (A) (A) (A) (A) (A) (A)
                 (A) (A) (A) (A) (A) (A) (A) (A) (A) (A) (A) (A)
                 (A) (A) (A) (A) (A) (A) (A) (A) (A) (A) (A) (A)
                 (A) (A) (A) (A) (A) (A) (A) (A) (A) (A) (A) (A)
                 (A) (A) (A) (A) (A) (A) (A) (A) (A) (A) (A) (A)
                 (A) (A) (A) (A) (A) (A) (A) (A) (A) (A) (A) (A)
                 (A) (A) (A) (A) (A) (A) (A) (A) (A) (A) (A) (A)
                 (A) (A) (A) (A) (A) (A) (A) (A) (A) (A) (A) (A)
                 (A) (A) (A) (A) (A) (A) (A) (A) (A) (A) (A) (A)
                 (A) (A) (A) (A) (A) (A) (A) (A) (A) (A) (A) (A)
                 (A) (A) (A) (A) (A) (A) (A) (A) (A) (A) (A) (A)
                 (A) (A) (A) (A) (A) (A) (A) (A) (A) (A) (A) (A)
                 (A) (A) (A) (A) (A) (A) (A) (A) (A) (A) (A) (A)
                 (A) (A) (A) (A) (A) (A) (A) (A) (A) (A) (A) (A)
                 (A) (A) (A) (A) (A) (A) (A) (A) (A) (A) (A) (A)
                 (A) (A) (A) (A) (A) (A) (A) (A) (A) (A) (A) (A)
                 (A) (A) (A) (A) (A) (A) (A) (A) (A) (A) (A) (A)
                 (A) (A) (A) (A) (A) (A) (A) (A) (A) (A) (A) (A)
                 (A) (A) (A) (A) (A) (A) (A) (A) (A) (A) (A) (A)
                 (A) (A) (A) (A) (A) (A) (A) (A) (A) (A) (A) (A)
                 (A) (A) (A) (A) (A) (A) (A) (A) (A) (A) (A) (A)
                 (A) (A) (A) (A) (A) (A) (A) (A) (A) (A) (A) (A)
                 (A) (A) (A) (A) (A) (A) (A) (A) (A) (A) (A) (A)
                 (A) (A) (A) (A)
 The electronic state is 1-A.
 Alpha  occ. eigenvalues --  -19.17918 -19.17198 -14.44192 -10.33446 -10.33313
 Alpha  occ. eigenvalues --  -10.32135 -10.31924 -10.25637 -10.25050 -10.25017
 Alpha  occ. eigenvalues --  -10.24904 -10.24573 -10.24119 -10.23827  -1.11983
 Alpha  occ. eigenvalues --   -1.10531  -1.07627  -0.91377  -0.90486  -0.83891
 Alpha  occ. eigenvalues --   -0.82502  -0.81483  -0.78652  -0.74174  -0.71338
 Alpha  occ. eigenvalues --   -0.68934  -0.61899  -0.58395  -0.56889  -0.55142
 Alpha  occ. eigenvalues --   -0.54618  -0.54133  -0.52533  -0.51879  -0.50674
 Alpha  occ. eigenvalues --   -0.49896  -0.49449  -0.49062  -0.48374  -0.48263
 Alpha  occ. eigenvalues --   -0.46718  -0.45272  -0.44762  -0.43494  -0.43019
 Alpha  occ. eigenvalues --   -0.42430  -0.41980  -0.41499  -0.32973  -0.32328
 Alpha  occ. eigenvalues --   -0.31291  -0.26313
 Alpha virt. eigenvalues --   -0.02754   0.02132   0.06554   0.08277   0.08815
 Alpha virt. eigenvalues --    0.10175   0.10667   0.12053   0.12688   0.13852
 Alpha virt. eigenvalues --    0.14055   0.15387   0.15659   0.16467   0.16895
 Alpha virt. eigenvalues --    0.17410   0.17609   0.17913   0.18183   0.19136
 Alpha virt. eigenvalues --    0.19887   0.21431   0.22715   0.23413   0.23604
 Alpha virt. eigenvalues --    0.24387   0.24663   0.25457   0.25804   0.26490
 Alpha virt. eigenvalues --    0.27299   0.27547   0.29029   0.29565   0.30006
 Alpha virt. eigenvalues --    0.31481   0.32164   0.32385   0.33654   0.34538
 Alpha virt. eigenvalues --    0.35480   0.35725   0.36864   0.38037   0.38684
 Alpha virt. eigenvalues --    0.39305   0.41174   0.41917   0.42248   0.42764
 Alpha virt. eigenvalues --    0.44074   0.44441   0.45288   0.46160   0.46402
 Alpha virt. eigenvalues --    0.46914   0.48179   0.48361   0.48562   0.48894
 Alpha virt. eigenvalues --    0.49521   0.49669   0.50724   0.51399   0.51628
 Alpha virt. eigenvalues --    0.52434   0.52992   0.53782   0.53878   0.54490
 Alpha virt. eigenvalues --    0.54611   0.55565   0.55848   0.56721   0.58118
 Alpha virt. eigenvalues --    0.58695   0.59010   0.60036   0.61329   0.62055
 Alpha virt. eigenvalues --    0.63463   0.65091   0.65882   0.66681   0.67832
 Alpha virt. eigenvalues --    0.69616   0.70987   0.71546   0.72372   0.72736
 Alpha virt. eigenvalues --    0.73620   0.74743   0.75037   0.76521   0.77571
 Alpha virt. eigenvalues --    0.78886   0.79626   0.82197   0.83551   0.85846
 Alpha virt. eigenvalues --    0.87457   0.89871   0.94868   1.00238   1.24835
 Alpha virt. eigenvalues --    1.25352   1.27171   1.28464   1.29834   1.31202
 Alpha virt. eigenvalues --    1.32662   1.32876   1.33932   1.35628   1.35834
 Alpha virt. eigenvalues --    1.37132   1.37583   1.38202   1.39286   1.39580
 Alpha virt. eigenvalues --    1.40138   1.40816   1.41269   1.41727   1.42033
 Alpha virt. eigenvalues --    1.43144   1.43846   1.44195   1.45208   1.47208
 Alpha virt. eigenvalues --    1.47691   1.49290   1.49665   1.50731   1.51434
 Alpha virt. eigenvalues --    1.52116   1.52819   1.53227   1.55034   1.57279
 Alpha virt. eigenvalues --    1.58190   1.60242   1.60747   1.61579   1.62080
 Alpha virt. eigenvalues --    1.62885   1.63241   1.64466   1.65865   1.66170
 Alpha virt. eigenvalues --    1.66767   1.67544   1.67967   1.68505   1.69230
 Alpha virt. eigenvalues --    1.69398   1.70719   1.71296   1.72355   1.73325
 Alpha virt. eigenvalues --    1.73648   1.74640   1.76063   1.77156   1.78739
 Alpha virt. eigenvalues --    1.80459   1.83106   1.84610   1.85696   1.86332
 Alpha virt. eigenvalues --    1.87022   1.87461   1.87746   1.89627   1.90186
 Alpha virt. eigenvalues --    1.91448   1.93899   1.95963   1.98286   2.00188
 Alpha virt. eigenvalues --    2.01033   2.03974   2.04906   2.06758   2.09504
 Alpha virt. eigenvalues --    2.11062   2.13523   2.14486   2.17768   2.19707
 Alpha virt. eigenvalues --    2.21213   2.21824   2.22538   2.23465   2.25289
 Alpha virt. eigenvalues --    2.27159   2.28404   2.29526   2.31178   2.32057
 Alpha virt. eigenvalues --    2.34188   2.34354   2.36003   2.37293   2.38609
 Alpha virt. eigenvalues --    2.39227   2.40849   2.41377   2.44430   2.44739
 Alpha virt. eigenvalues --    2.45358   2.48110   2.48872   2.50512   2.51683
 Alpha virt. eigenvalues --    2.52652   2.53278   2.54131   2.56545   2.58251
 Alpha virt. eigenvalues --    2.58809   2.60203   2.60659   2.61462   2.62956
 Alpha virt. eigenvalues --    2.64045   2.66359   2.66568   2.67283   2.69071
 Alpha virt. eigenvalues --    2.70886   2.71479   2.73220   2.73283   2.75203
 Alpha virt. eigenvalues --    2.75720   2.77031   2.77938   2.78201   2.79159
 Alpha virt. eigenvalues --    2.80172   2.81255   2.83147   2.83831   2.84793
 Alpha virt. eigenvalues --    2.85880   2.86226   2.87961   2.89850   2.92607
 Alpha virt. eigenvalues --    2.97521   2.98919   2.99993   3.04886   3.10082
 Alpha virt. eigenvalues --    3.10148   3.12126   3.13976   3.18208   3.18736
 Alpha virt. eigenvalues --    3.21509   3.22393   3.24147   3.25103   3.26280
 Alpha virt. eigenvalues --    3.26587   3.29539   3.32534   3.35058   3.37026
 Alpha virt. eigenvalues --    3.37800   3.39362   3.39818   3.40847   3.41888
 Alpha virt. eigenvalues --    3.42299   3.44586   3.45508   3.46786   3.48303
 Alpha virt. eigenvalues --    3.49936   3.50845   3.54168   3.57035   3.58983
 Alpha virt. eigenvalues --    3.60402   3.90346   3.99519   4.33009   4.34731
 Alpha virt. eigenvalues --   21.63330  21.77472  22.06844  22.10380  22.11273
 Alpha virt. eigenvalues --   22.13101  22.15632  22.17940  22.21083  22.25774
 Alpha virt. eigenvalues --   22.30799  31.93272  43.62713  43.65013
          Condensed to atoms (all electrons):
               1          2          3          4          5          6
     1  O    7.953742   0.000000  -0.000233   0.000017   0.016583   0.016648
     2  O    0.000000   8.036348   0.000429   0.000036  -0.193638   0.001263
     3  N   -0.000233   0.000429   6.379023   0.374695  -0.108059   0.348572
     4  H    0.000017   0.000036   0.374695   0.398040   0.014173  -0.043477
     5  C    0.016583  -0.193638  -0.108059   0.014173   7.049863  -0.049261
     6  C    0.016648   0.001263   0.348572  -0.043477  -0.049261   5.600440
     7  C   -0.000321  -0.021842   0.370668  -0.042993   0.385696  -0.114604
     8  C   -0.000241   0.680031   0.004258  -0.000747  -0.375311   0.037261
     9  C   -0.023243   0.018724   0.017257  -0.000065  -0.539721  -0.111876
    10  H    0.003868   0.000069   0.003350   0.000023  -0.028588  -0.010929
    11  H    0.015409  -0.000140  -0.001417   0.000009  -0.113935   0.023399
    12  C   -0.227913  -0.002554  -0.095653   0.015778   0.157309  -0.166183
    13  C    0.719922  -0.000021   0.000312   0.000409   0.070489   0.158912
    14  C   -0.000008  -0.038993  -0.042189  -0.003212  -0.043768  -0.001292
    15  H   -0.000000   0.004695   0.004307   0.000211   0.011640   0.005685
    16  H   -0.000000   0.000691  -0.003958   0.000723  -0.010577  -0.001003
    17  H    0.000000   0.011234   0.003366   0.000728  -0.001172  -0.000545
    18  C   -0.000201  -0.105017  -0.000407   0.000019  -0.218154  -0.000756
    19  H   -0.000004   0.006857   0.000005  -0.000001   0.019729   0.000028
    20  H    0.000017   0.000051   0.000015  -0.000001  -0.007935   0.000212
    21  H    0.000224   0.005369   0.000116   0.000000   0.061469  -0.001391
    22  C   -0.112105   0.000000   0.000104   0.000107   0.002994  -0.010281
    23  H    0.004461  -0.000000  -0.000030  -0.000050  -0.000476  -0.032051
    24  H    0.001583   0.000000   0.000003  -0.000017  -0.000090   0.011187
    25  H    0.008767   0.000000   0.000027  -0.000002  -0.000126  -0.001278
    26  C    0.000913   0.000004  -0.029707  -0.007418   0.000117   0.185210
    27  H   -0.000178  -0.000000   0.002251   0.000885   0.000054  -0.042131
    28  H   -0.000039  -0.000000  -0.002633   0.000479   0.000389  -0.035742
    29  H    0.000023  -0.000000   0.001519   0.001235  -0.000451  -0.050456
               7          8          9         10         11         12
     1  O   -0.000321  -0.000241  -0.023243   0.003868   0.015409  -0.227913
     2  O   -0.021842   0.680031   0.018724   0.000069  -0.000140  -0.002554
     3  N    0.370668   0.004258   0.017257   0.003350  -0.001417  -0.095653
     4  H   -0.042993  -0.000747  -0.000065   0.000023   0.000009   0.015778
     5  C    0.385696  -0.375311  -0.539721  -0.028588  -0.113935   0.157309
     6  C   -0.114604   0.037261  -0.111876  -0.010929   0.023399  -0.166183
     7  C    5.428441  -0.224472  -0.181289  -0.006399   0.017216   0.017892
     8  C   -0.224472   5.543790   0.124117  -0.001597  -0.006900  -0.050454
     9  C   -0.181289   0.124117   6.331172   0.394469   0.536978  -0.040562
    10  H   -0.006399  -0.001597   0.394469   0.548427  -0.035369  -0.019525
    11  H    0.017216  -0.006900   0.536978  -0.035369   0.500432  -0.105416
    12  C    0.017892  -0.050454  -0.040562  -0.019525  -0.105416   7.343741
    13  C    0.016808  -0.007968  -0.255814  -0.002037   0.000242  -0.418987
    14  C    0.230817  -0.063615   0.014546  -0.001407   0.000441  -0.000099
    15  H   -0.066509   0.006088  -0.000759   0.000120  -0.000005  -0.000869
    16  H   -0.017313   0.003655  -0.000195  -0.000049   0.000053   0.000268
    17  H   -0.038880  -0.015433   0.000766   0.000134  -0.000063  -0.000234
    18  C    0.008179   0.327890   0.001083  -0.010325   0.002920   0.003337
    19  H    0.000434  -0.047956  -0.001287   0.000160   0.000503  -0.000243
    20  H   -0.000415  -0.011400  -0.004044   0.000607  -0.001132  -0.002532
    21  H    0.002935  -0.097045  -0.013455   0.001404  -0.006243   0.006578
    22  C    0.000258  -0.000030   0.006128   0.001512   0.000837  -0.265856
    23  H    0.000002  -0.000006   0.003099  -0.000133  -0.000054   0.060325
    24  H    0.000001   0.000003  -0.002088   0.000152  -0.000114  -0.008286
    25  H    0.000012   0.000002   0.000034  -0.000043  -0.000119   0.025986
    26  C    0.002704   0.000569   0.020375  -0.000571   0.000028  -0.077941
    27  H   -0.000685  -0.000001  -0.000952  -0.000060   0.000004  -0.005478
    28  H   -0.001022  -0.000014  -0.000165  -0.000022   0.000050  -0.019728
    29  H    0.003589   0.000000  -0.000558   0.000074  -0.000007   0.023653
              13         14         15         16         17         18
     1  O    0.719922  -0.000008  -0.000000  -0.000000   0.000000  -0.000201
     2  O   -0.000021  -0.038993   0.004695   0.000691   0.011234  -0.105017
     3  N    0.000312  -0.042189   0.004307  -0.003958   0.003366  -0.000407
     4  H    0.000409  -0.003212   0.000211   0.000723   0.000728   0.000019
     5  C    0.070489  -0.043768   0.011640  -0.010577  -0.001172  -0.218154
     6  C    0.158912  -0.001292   0.005685  -0.001003  -0.000545  -0.000756
     7  C    0.016808   0.230817  -0.066509  -0.017313  -0.038880   0.008179
     8  C   -0.007968  -0.063615   0.006088   0.003655  -0.015433   0.327890
     9  C   -0.255814   0.014546  -0.000759  -0.000195   0.000766   0.001083
    10  H   -0.002037  -0.001407   0.000120  -0.000049   0.000134  -0.010325
    11  H    0.000242   0.000441  -0.000005   0.000053  -0.000063   0.002920
    12  C   -0.418987  -0.000099  -0.000869   0.000268  -0.000234   0.003337
    13  C    5.469012  -0.000042  -0.000014  -0.000026   0.000001   0.000686
    14  C   -0.000042   5.191748   0.383513   0.400769   0.423167   0.000709
    15  H   -0.000014   0.383513   0.570497  -0.026993  -0.027977   0.000209
    16  H   -0.000026   0.400769  -0.026993   0.504339  -0.022776  -0.000012
    17  H    0.000001   0.423167  -0.027977  -0.022776   0.492496   0.000253
    18  C    0.000686   0.000709   0.000209  -0.000012   0.000253   5.275645
    19  H   -0.000012   0.000019  -0.000004  -0.000014   0.000085   0.398770
    20  H   -0.000097  -0.000321  -0.000005   0.000011   0.000028   0.390927
    21  H    0.000979   0.000275  -0.000020  -0.000001  -0.000090   0.393829
    22  C    0.299859  -0.000009   0.000003  -0.000001   0.000000   0.000020
    23  H   -0.084681   0.000000  -0.000000   0.000000   0.000000   0.000002
    24  H   -0.026953  -0.000001   0.000000   0.000000   0.000000  -0.000001
    25  H   -0.045035   0.000001   0.000000  -0.000000  -0.000000  -0.000000
    26  C   -0.055763   0.001140  -0.000218  -0.000110   0.000036   0.000003
    27  H   -0.006484   0.000092  -0.000014   0.000003  -0.000002   0.000000
    28  H    0.006493  -0.000072   0.000011  -0.000017   0.000002  -0.000001
    29  H   -0.000289  -0.000192   0.000105   0.000002  -0.000000   0.000000
              19         20         21         22         23         24
     1  O   -0.000004   0.000017   0.000224  -0.112105   0.004461   0.001583
     2  O    0.006857   0.000051   0.005369   0.000000  -0.000000   0.000000
     3  N    0.000005   0.000015   0.000116   0.000104  -0.000030   0.000003
     4  H   -0.000001  -0.000001   0.000000   0.000107  -0.000050  -0.000017
     5  C    0.019729  -0.007935   0.061469   0.002994  -0.000476  -0.000090
     6  C    0.000028   0.000212  -0.001391  -0.010281  -0.032051   0.011187
     7  C    0.000434  -0.000415   0.002935   0.000258   0.000002   0.000001
     8  C   -0.047956  -0.011400  -0.097045  -0.000030  -0.000006   0.000003
     9  C   -0.001287  -0.004044  -0.013455   0.006128   0.003099  -0.002088
    10  H    0.000160   0.000607   0.001404   0.001512  -0.000133   0.000152
    11  H    0.000503  -0.001132  -0.006243   0.000837  -0.000054  -0.000114
    12  C   -0.000243  -0.002532   0.006578  -0.265856   0.060325  -0.008286
    13  C   -0.000012  -0.000097   0.000979   0.299859  -0.084681  -0.026953
    14  C    0.000019  -0.000321   0.000275  -0.000009   0.000000  -0.000001
    15  H   -0.000004  -0.000005  -0.000020   0.000003  -0.000000   0.000000
    16  H   -0.000014   0.000011  -0.000001  -0.000001   0.000000   0.000000
    17  H    0.000085   0.000028  -0.000090   0.000000   0.000000   0.000000
    18  C    0.398770   0.390927   0.393829   0.000020   0.000002  -0.000001
    19  H    0.506453  -0.011027  -0.027121  -0.000000   0.000000   0.000000
    20  H   -0.011027   0.492840  -0.021951  -0.000005  -0.000000   0.000000
    21  H   -0.027121  -0.021951   0.539816   0.000024  -0.000000  -0.000000
    22  C   -0.000000  -0.000005   0.000024   5.422130   0.395029   0.402706
    23  H    0.000000  -0.000000  -0.000000   0.395029   0.538080  -0.027255
    24  H    0.000000   0.000000  -0.000000   0.402706  -0.027255   0.492215
    25  H   -0.000000  -0.000000  -0.000000   0.383004  -0.021489  -0.008016
    26  C    0.000000   0.000003  -0.000014  -0.031786   0.017374  -0.015702
    27  H   -0.000000   0.000000  -0.000000   0.010694  -0.009909  -0.001116
    28  H    0.000000  -0.000000  -0.000000  -0.012105  -0.001576   0.001326
    29  H    0.000000  -0.000000   0.000000   0.001856   0.000730   0.000202
              25         26         27         28         29
     1  O    0.008767   0.000913  -0.000178  -0.000039   0.000023
     2  O    0.000000   0.000004  -0.000000  -0.000000  -0.000000
     3  N    0.000027  -0.029707   0.002251  -0.002633   0.001519
     4  H   -0.000002  -0.007418   0.000885   0.000479   0.001235
     5  C   -0.000126   0.000117   0.000054   0.000389  -0.000451
     6  C   -0.001278   0.185210  -0.042131  -0.035742  -0.050456
     7  C    0.000012   0.002704  -0.000685  -0.001022   0.003589
     8  C    0.000002   0.000569  -0.000001  -0.000014   0.000000
     9  C    0.000034   0.020375  -0.000952  -0.000165  -0.000558
    10  H   -0.000043  -0.000571  -0.000060  -0.000022   0.000074
    11  H   -0.000119   0.000028   0.000004   0.000050  -0.000007
    12  C    0.025986  -0.077941  -0.005478  -0.019728   0.023653
    13  C   -0.045035  -0.055763  -0.006484   0.006493  -0.000289
    14  C    0.000001   0.001140   0.000092  -0.000072  -0.000192
    15  H    0.000000  -0.000218  -0.000014   0.000011   0.000105
    16  H   -0.000000  -0.000110   0.000003  -0.000017   0.000002
    17  H   -0.000000   0.000036  -0.000002   0.000002  -0.000000
    18  C   -0.000000   0.000003   0.000000  -0.000001   0.000000
    19  H   -0.000000   0.000000  -0.000000   0.000000   0.000000
    20  H   -0.000000   0.000003   0.000000  -0.000000  -0.000000
    21  H   -0.000000  -0.000014  -0.000000  -0.000000   0.000000
    22  C    0.383004  -0.031786   0.010694  -0.012105   0.001856
    23  H   -0.021489   0.017374  -0.009909  -0.001576   0.000730
    24  H   -0.008016  -0.015702  -0.001116   0.001326   0.000202
    25  H    0.498483   0.001906   0.000831   0.000106  -0.000047
    26  C    0.001906   5.252124   0.421350   0.432724   0.389403
    27  H    0.000831   0.421350   0.510835  -0.026010  -0.025954
    28  H    0.000106   0.432724  -0.026010   0.474720  -0.016905
    29  H   -0.000047   0.389403  -0.025954  -0.016905   0.516506
 Mulliken charges:
               1
     1  O   -0.377691
     2  O   -0.403595
     3  N   -0.225994
     4  H    0.290420
     5  C   -0.099243
     6  C    0.284438
     7  C    0.231092
     8  C    0.175525
     9  C   -0.292675
    10  H    0.162686
    11  H    0.172396
    12  C   -0.146354
    13  C    0.160100
    14  C   -0.452015
    15  H    0.136300
    16  H    0.172530
    17  H    0.174876
    18  C   -0.469604
    19  H    0.154625
    20  H    0.176156
    21  H    0.154313
    22  C   -0.495086
    23  H    0.158608
    24  H    0.180260
    25  H    0.156996
    26  C   -0.506752
    27  H    0.171976
    28  H    0.199750
    29  H    0.155963
 Sum of Mulliken charges =  -0.00000
 Mulliken charges with hydrogens summed into heavy atoms:
               1
     1  O   -0.377691
     2  O   -0.403595
     3  N    0.064426
     5  C   -0.099243
     6  C    0.284438
     7  C    0.231092
     8  C    0.175525
     9  C    0.042407
    12  C   -0.146354
    13  C    0.160100
    14  C    0.031691
    18  C    0.015490
    22  C    0.000778
    26  C    0.020937
 Electronic spatial extent (au):  <R**2>=           3201.3469
 Charge=             -0.0000 electrons
 Dipole moment (field-independent basis, Debye):
    X=             -4.2921    Y=              7.5829    Z=             -0.3640  Tot=              8.7210
 Quadrupole moment (field-independent basis, Debye-Ang):
   XX=            -98.8678   YY=            -78.3167   ZZ=            -84.7465
   XY=            -13.2383   XZ=             -4.7116   YZ=             -1.2458
 Traceless Quadrupole moment (field-independent basis, Debye-Ang):
   XX=            -11.5575   YY=              8.9936   ZZ=              2.5638
   XY=            -13.2383   XZ=             -4.7116   YZ=             -1.2458
 Octapole moment (field-independent basis, Debye-Ang**2):
  XXX=           -115.3428  YYY=             65.2468  ZZZ=              2.2643  XYY=             36.7577
  XXY=             30.5133  XXZ=            -10.5918  XZZ=             -2.6172  YZZ=             -0.8939
  YYZ=              2.4283  XYZ=              3.8686
 Hexadecapole moment (field-independent basis, Debye-Ang**3):
 XXXX=          -3086.7572 YYYY=          -1269.5703 ZZZZ=           -146.1710 XXXY=            -43.2775
 XXXZ=            -60.6892 YYYX=            -93.5094 YYYZ=            -19.7560 ZZZX=              3.5143
 ZZZY=              4.5171 XXYY=           -688.9434 XXZZ=           -488.9125 YYZZ=           -238.0469
 XXYZ=             -3.0458 YYXZ=             -4.7622 ZZXY=              0.0847
 N-N= 9.002022524112D+02 E-N=-3.276441745339D+03  KE= 6.306895816092D+02
 Leave Link  601 at Sat Jan 24 16:27:55 2026, MaxMem=  2147483648 cpu:               0.7 elap:               0.1
 (Enter /data/home/wyx/g16/l9999.exe)
 Electronic transition elements 
                 1             2             3             4             5 
      1  -0.633202D+03 -0.633186D+03 -0.633172D+03 -0.633140D+03 -0.633123D+03
      2   0.141371D+01  0.225804D+00  0.339346D-01  0.411333D+00 -0.329816D+00
      3   0.418158D+00  0.558942D-01 -0.956975D-01 -0.125235D+01  0.142552D+01
      4   0.312194D+00  0.915995D-01 -0.321420D-01 -0.114675D-01 -0.368773D-01
      5  -0.171495D+00 -0.319968D-01 -0.437719D-02 -0.693072D-01  0.661300D-01
      6  -0.531581D-01 -0.862718D-02  0.140670D-01  0.224828D+00 -0.287150D+00
      7  -0.384770D-01 -0.109650D-01  0.147668D-02 -0.672999D-03  0.738307D-02
      8  -0.387252D+00  0.711888D+00  0.337388D+00 -0.983700D-01  0.293678D+00
      9   0.464216D-02  0.349359D-01 -0.887140D+00  0.491960D-01 -0.331762D-01
     10   0.136738D+01  0.599944D+00  0.175062D+00  0.167130D+00 -0.182290D+00
     11  -0.152497D+00 -0.384576D-01 -0.483414D-01 -0.102172D+01  0.668744D+00
     12   0.259853D+00  0.764423D-01  0.255006D-01  0.154131D+00 -0.262848D+00
     13   0.939053D-02 -0.152731D-02  0.187651D-02 -0.628232D-01 -0.234669D-02
     14   0.476216D+00  0.697681D-01  0.160440D-01 -0.338784D+00  0.295024D+00
     15   0.155589D-01  0.609960D-02  0.565505D-01 -0.270173D+00  0.182889D+00
     16   0.116920D+00  0.875740D-01  0.208265D-01 -0.560516D-01  0.143364D+00
                 6 
      1  -0.633103D+03
      2  -0.119085D-01
      3   0.181881D+00
      4  -0.808810D-01
      5  -0.334382D-02
      6  -0.374560D-01
      7   0.365991D-01
      8  -0.164917D-01
      9  -0.772011D-02
     10   0.270273D-02
     11  -0.183669D+00
     12  -0.167569D+00
     13   0.151909D+00
     14   0.252231D-01
     15  -0.602086D-01
     16  -0.702973D-01
 1\1\GINC-CN015\SP\RCAM-B3LYP TD-FC\TZVP\C11H15N1O2\WYX\24-Jan-2026\0\\
 #p CAM-B3LYP TZVP em=gd3bj td(nstates=6,root=1) scrf=(Solvent=Water)\\
 Title Card Required\\0,1\O,0,2.754165,-1.558174,0.710229\O,0,-3.284086
 ,-1.6507,-1.000686\N,0,-0.690616,1.519341,0.062084\H,0,-0.997037,2.475
 888,-0.007087\C,0,-1.242913,-0.76147,-0.158859\C,0,0.651467,1.304966,0
 .23978\C,0,-1.61237,0.540059,-0.246059\C,0,-2.153583,-1.825457,-0.4978
 01\C,0,0.124935,-1.116017,0.372261\H,0,0.049679,-1.486754,1.402056\H,0
 ,0.546824,-1.940812,-0.199812\C,0,1.106755,0.031924,0.330581\C,0,2.498
 851,-0.38073,0.463597\C,0,-2.940042,1.074134,-0.651439\H,0,-3.155308,2
 .023381,-0.156284\H,0,-2.987064,1.246425,-1.728355\H,0,-3.762779,0.403
 385,-0.416257\C,0,-1.77227,-3.252262,-0.237951\H,0,-2.637166,-3.905055
 ,-0.123555\H,0,-1.183761,-3.652141,-1.0689\H,0,-1.160194,-3.382275,0.6
 546\C,0,3.659333,0.564385,0.276301\H,0,3.520344,1.253768,-0.552213\H,0
 ,3.824826,1.150999,1.181167\H,0,4.546052,-0.039921,0.100847\C,0,1.4299
 85,2.583376,0.303496\H,0,2.222818,2.549866,1.041409\H,0,1.871328,2.821
 139,-0.665049\H,0,0.77183,3.408734,0.571899\\Version=ES64L-G16RevA.03\
 State=1-A\HF=-633.3289954\RMSD=4.899e-09\PG=C01 [X(C11H15N1O2)]\\@


 YOU SHOULDN'T LET PEOPLE DRIVE YOU CRAZY
 WHEN YOU KNOW IT'S WITHIN WALKING DISTANCE.
 Job cpu time:       0 days  0 hours 53 minutes 11.1 seconds.
 Elapsed time:       0 days  0 hours  3 minutes 20.8 seconds.
 File lengths (MBytes):  RWF=    832 Int=      0 D2E=      0 Chk=     34 Scr=      1
 Normal termination of Gaussian 16 at Sat Jan 24 16:27:58 2026.
