 Entering Gaussian System, Link 0=g16
 Input=DDL-S1-cLR-gs-1.gjf
 Output=DDL-S1-cLR-gs-1.log
 Initial command:
 /data/home/wyx/g16/l1.exe "/scr/tmp/wyx/13119/Gau-1527232.inp" -scrdir="/scr/tmp/wyx/13119/"
 Entering Link 1 = /data/home/wyx/g16/l1.exe PID=   1527233.
  
 Copyright (c) 1988,1990,1992,1993,1995,1998,2003,2009,2016,
            Gaussian, Inc.  All Rights Reserved.
  
 This is part of the Gaussian(R) 16 program.  It is based on
 the Gaussian(R) 09 system (copyright 2009, Gaussian, Inc.),
 the Gaussian(R) 03 system (copyright 2003, Gaussian, Inc.),
 the Gaussian(R) 98 system (copyright 1998, Gaussian, Inc.),
 the Gaussian(R) 94 system (copyright 1995, Gaussian, Inc.),
 the Gaussian 92(TM) system (copyright 1992, Gaussian, Inc.),
 the Gaussian 90(TM) system (copyright 1990, Gaussian, Inc.),
 the Gaussian 88(TM) system (copyright 1988, Gaussian, Inc.),
 the Gaussian 86(TM) system (copyright 1986, Carnegie Mellon
 University), and the Gaussian 82(TM) system (copyright 1983,
 Carnegie Mellon University). Gaussian is a federally registered
 trademark of Gaussian, Inc.
  
 This software contains proprietary and confidential information,
 including trade secrets, belonging to Gaussian, Inc.
  
 This software is provided under written license and may be
 used, copied, transmitted, or stored only in accord with that
 written license.
  
 The following legend is applicable only to US Government
 contracts under FAR:
  
                    RESTRICTED RIGHTS LEGEND
  
 Use, reproduction and disclosure by the US Government is
 subject to restrictions as set forth in subparagraphs (a)
 and (c) of the Commercial Computer Software - Restricted
 Rights clause in FAR 52.227-19.
  
 Gaussian, Inc.
 340 Quinnipiac St., Bldg. 40, Wallingford CT 06492
  
  
 ---------------------------------------------------------------
 Warning -- This program may not be used in any manner that
 competes with the business of Gaussian, Inc. or will provide
 assistance to any competitor of Gaussian, Inc.  The licensee
 of this program is prohibited from giving any competitor of
 Gaussian, Inc. access to this program.  By using this program,
 the user acknowledges that Gaussian, Inc. is engaged in the
 business of creating and licensing software in the field of
 computational chemistry and represents and warrants to the
 licensee that it is not a competitor of Gaussian, Inc. and that
 it will not use this program in any manner prohibited above.
 ---------------------------------------------------------------
  

 Cite this work as:
 Gaussian 16, Revision A.03,
 M. J. Frisch, G. W. Trucks, H. B. Schlegel, G. E. Scuseria, 
 M. A. Robb, J. R. Cheeseman, G. Scalmani, V. Barone, 
 G. A. Petersson, H. Nakatsuji, X. Li, M. Caricato, A. V. Marenich, 
 J. Bloino, B. G. Janesko, R. Gomperts, B. Mennucci, H. P. Hratchian, 
 J. V. Ortiz, A. F. Izmaylov, J. L. Sonnenberg, D. Williams-Young, 
 F. Ding, F. Lipparini, F. Egidi, J. Goings, B. Peng, A. Petrone, 
 T. Henderson, D. Ranasinghe, V. G. Zakrzewski, J. Gao, N. Rega, 
 G. Zheng, W. Liang, M. Hada, M. Ehara, K. Toyota, R. Fukuda, 
 J. Hasegawa, M. Ishida, T. Nakajima, Y. Honda, O. Kitao, H. Nakai, 
 T. Vreven, K. Throssell, J. A. Montgomery, Jr., J. E. Peralta, 
 F. Ogliaro, M. J. Bearpark, J. J. Heyd, E. N. Brothers, K. N. Kudin, 
 V. N. Staroverov, T. A. Keith, R. Kobayashi, J. Normand, 
 K. Raghavachari, A. P. Rendell, J. C. Burant, S. S. Iyengar, 
 J. Tomasi, M. Cossi, J. M. Millam, M. Klene, C. Adamo, R. Cammi, 
 J. W. Ochterski, R. L. Martin, K. Morokuma, O. Farkas, 
 J. B. Foresman, and D. J. Fox, Gaussian, Inc., Wallingford CT, 2016.
 
 ******************************************
 Gaussian 16:  ES64L-G16RevA.03 25-Dec-2016
                24-Jan-2026 
 ******************************************
 %nprocshared=16
 Will use up to   16 processors via shared memory.
 %mem=16GB
 %oldchk=DDL-S1-cLR-1.chk
 %chk=DDL-S1-cLR-gs-1.chk
 Copying data from "DDL-S1-cLR-1.chk" to current chk file "DDL-S1-cLR-gs-1.chk"
 IOpt=  2 FromEx=T IUOpen= 4 IOptOp= 5 NList=   0 IFRang= 0 IUIn= 4 IUOut= 2.
 ----------------------------------------------------------------------
 #p CAM-B3LYP TZVP em=gd3bj scrf=(Solvent=Water,NonEquilibrium=Read) Ge
 om=Check Guess=Read
 ----------------------------------------------------------------------
 1/29=2,38=1,172=1/1;
 2/12=2,40=1/2;
 3/5=19,7=101,11=2,14=-4,25=1,30=1,70=6002201,72=1,74=-40,116=-2,124=41/1,2,3;
 4/5=1/1;
 5/5=2,38=6,53=1/2;
 6/7=2,8=2,9=2,10=2,28=1/1;
 99/5=1,9=1/99;
 Leave Link    1 at Sat Jan 24 23:17:22 2026, MaxMem=  2147483648 cpu:               0.8 elap:               0.1
 (Enter /data/home/wyx/g16/l101.exe)
 -------------------
 Title Card Required
 -------------------
 Structure from the checkpoint file:  "DDL-S1-cLR-gs-1.chk"
 Charge =  0 Multiplicity = 1
 Z-Matrix found in chk file.
 O,0,2.766599,-1.550992,0.665639
 O,0,-3.387385,-1.658741,-0.712197
 N,0,-0.654178,1.525183,-0.094329
 H,0,-0.96563,2.47844,-0.182473
 C,0,-1.236912,-0.77698,-0.174805
 C,0,0.66848,1.317689,0.138944
 C,0,-1.607223,0.534477,-0.29697
 C,0,-2.145188,-1.833778,-0.375696
 C,0,0.180041,-1.133566,0.214196
 H,0,0.185317,-1.635938,1.186998
 H,0,0.583039,-1.868097,-0.485539
 C,0,1.133601,0.04126,0.262403
 C,0,2.511494,-0.357793,0.481362
 C,0,-2.954537,1.068516,-0.626412
 H,0,-3.337738,1.708069,0.174446
 H,0,-2.935489,1.662358,-1.544638
 H,0,-3.684434,0.272304,-0.775326
 C,0,-1.833914,-3.296885,-0.214604
 H,0,-2.509524,-3.769833,0.501758
 H,0,-1.945584,-3.82404,-1.16548
 H,0,-0.81506,-3.433568,0.135954
 C,0,3.672851,0.60858,0.477694
 H,0,3.652059,1.289674,-0.369494
 H,0,3.68489,1.20716,1.389248
 H,0,4.587799,0.022296,0.443185
 C,0,1.450273,2.595909,0.223067
 H,0,2.117078,2.612238,1.078673
 H,0,2.046566,2.753478,-0.675211
 H,0,0.772707,3.44258,0.319608
 Recover connectivity data from disk.
 ITRead=  0  0  0  0  0  0  0  0  0  0  0  0  0  0  0  0  0  0  0  0
 ITRead=  0  0  0  0  0  0  0  0  0
 MicOpt= -1 -1 -1 -1 -1 -1 -1 -1 -1 -1 -1 -1 -1 -1 -1 -1 -1 -1 -1 -1
 MicOpt= -1 -1 -1 -1 -1 -1 -1 -1 -1
 NAtoms=     29 NQM=       29 NQMF=       0 NMMI=      0 NMMIF=      0
                NMic=       0 NMicF=      0.
                    Isotopes and Nuclear Properties:
 (Nuclear quadrupole moments (NQMom) in fm**2, nuclear magnetic moments (NMagM)
  in nuclear magnetons)

  Atom         1           2           3           4           5           6           7           8           9          10
 IAtWgt=          16          16          14           1          12          12          12          12          12           1
 AtmWgt=  15.9949146  15.9949146  14.0030740   1.0078250  12.0000000  12.0000000  12.0000000  12.0000000  12.0000000   1.0078250
 NucSpn=           0           0           2           1           0           0           0           0           0           1
 AtZEff=   5.6000000   5.6000000   4.5500000   1.0000000   3.6000000   3.6000000   3.6000000   3.6000000   3.6000000   1.0000000
 NQMom=    0.0000000   0.0000000   2.0440000   0.0000000   0.0000000   0.0000000   0.0000000   0.0000000   0.0000000   0.0000000
 NMagM=    0.0000000   0.0000000   0.4037610   2.7928460   0.0000000   0.0000000   0.0000000   0.0000000   0.0000000   2.7928460
 AtZNuc=   8.0000000   8.0000000   7.0000000   1.0000000   6.0000000   6.0000000   6.0000000   6.0000000   6.0000000   1.0000000

  Atom        11          12          13          14          15          16          17          18          19          20
 IAtWgt=           1          12          12          12           1           1           1          12           1           1
 AtmWgt=   1.0078250  12.0000000  12.0000000  12.0000000   1.0078250   1.0078250   1.0078250  12.0000000   1.0078250   1.0078250
 NucSpn=           1           0           0           0           1           1           1           0           1           1
 AtZEff=   1.0000000   3.6000000   3.6000000   3.6000000   1.0000000   1.0000000   1.0000000   3.6000000   1.0000000   1.0000000
 NQMom=    0.0000000   0.0000000   0.0000000   0.0000000   0.0000000   0.0000000   0.0000000   0.0000000   0.0000000   0.0000000
 NMagM=    2.7928460   0.0000000   0.0000000   0.0000000   2.7928460   2.7928460   2.7928460   0.0000000   2.7928460   2.7928460
 AtZNuc=   1.0000000   6.0000000   6.0000000   6.0000000   1.0000000   1.0000000   1.0000000   6.0000000   1.0000000   1.0000000

  Atom        21          22          23          24          25          26          27          28          29
 IAtWgt=           1          12           1           1           1          12           1           1           1
 AtmWgt=   1.0078250  12.0000000   1.0078250   1.0078250   1.0078250  12.0000000   1.0078250   1.0078250   1.0078250
 NucSpn=           1           0           1           1           1           0           1           1           1
 AtZEff=   1.0000000   3.6000000   1.0000000   1.0000000   1.0000000   3.6000000   1.0000000   1.0000000   1.0000000
 NQMom=    0.0000000   0.0000000   0.0000000   0.0000000   0.0000000   0.0000000   0.0000000   0.0000000   0.0000000
 NMagM=    2.7928460   0.0000000   2.7928460   2.7928460   2.7928460   0.0000000   2.7928460   2.7928460   2.7928460
 AtZNuc=   1.0000000   6.0000000   1.0000000   1.0000000   1.0000000   6.0000000   1.0000000   1.0000000   1.0000000
 Leave Link  101 at Sat Jan 24 23:17:24 2026, MaxMem=  2147483648 cpu:               0.9 elap:               0.1
 (Enter /data/home/wyx/g16/l202.exe)
                          Input orientation:                          
 ---------------------------------------------------------------------
 Center     Atomic      Atomic             Coordinates (Angstroms)
 Number     Number       Type             X           Y           Z
 ---------------------------------------------------------------------
      1          8           0        2.766599   -1.550992    0.665639
      2          8           0       -3.387385   -1.658741   -0.712197
      3          7           0       -0.654178    1.525183   -0.094329
      4          1           0       -0.965630    2.478440   -0.182473
      5          6           0       -1.236912   -0.776980   -0.174805
      6          6           0        0.668480    1.317689    0.138944
      7          6           0       -1.607223    0.534477   -0.296970
      8          6           0       -2.145188   -1.833778   -0.375696
      9          6           0        0.180041   -1.133566    0.214196
     10          1           0        0.185317   -1.635938    1.186998
     11          1           0        0.583039   -1.868097   -0.485539
     12          6           0        1.133601    0.041260    0.262403
     13          6           0        2.511494   -0.357793    0.481362
     14          6           0       -2.954537    1.068516   -0.626412
     15          1           0       -3.337738    1.708069    0.174446
     16          1           0       -2.935489    1.662358   -1.544638
     17          1           0       -3.684434    0.272304   -0.775326
     18          6           0       -1.833914   -3.296885   -0.214604
     19          1           0       -2.509524   -3.769833    0.501758
     20          1           0       -1.945584   -3.824040   -1.165480
     21          1           0       -0.815060   -3.433568    0.135954
     22          6           0        3.672851    0.608580    0.477694
     23          1           0        3.652059    1.289674   -0.369494
     24          1           0        3.684890    1.207160    1.389248
     25          1           0        4.587799    0.022296    0.443185
     26          6           0        1.450273    2.595909    0.223067
     27          1           0        2.117078    2.612238    1.078673
     28          1           0        2.046566    2.753478   -0.675211
     29          1           0        0.772707    3.442580    0.319608
 ---------------------------------------------------------------------
                    Distance matrix (angstroms):
                    1          2          3          4          5
     1  O    0.000000
     2  O    6.307263   0.000000
     3  N    4.662845   4.241409   0.000000
     4  H    5.557441   4.823046   1.006713   0.000000
     5  C    4.163357   2.385545   2.376133   3.266713   0.000000
     6  C    3.592888   5.102315   1.359005   2.030017   2.848964
     7  C    4.940255   2.855100   1.389553   2.050303   1.368201
     8  C    5.028916   1.298816   3.685770   4.474809   1.407887
     9  C    2.658633   3.722975   2.803579   3.810052   1.512029
    10  H    2.634777   4.046191   3.512725   4.486450   2.148267
    11  H    2.488715   3.982395   3.632919   4.624133   2.144601
    12  C    2.316149   4.927389   2.350625   3.247234   2.545584
    13  C    1.234002   6.157420   3.728069   4.535999   3.828423
    14  C    6.423598   2.762725   2.404851   2.478047   2.561258
    15  H    6.937267   3.481955   2.703180   2.519476   3.272753
    16  H    6.908310   3.453530   2.706768   2.530183   3.272916
    17  H    6.856866   1.954778   3.349017   3.551113   2.729833
    18  C    4.998769   2.311793   4.965741   5.840319   2.589965
    19  H    5.726045   2.588636   5.642236   6.472457   3.321814
    20  H    5.542961   2.640601   5.606182   6.453516   3.281498
    21  H    4.080801   3.238244   4.966702   5.922492   2.707765
    22  C    2.349546   7.510228   4.459882   5.044572   5.143083
    23  H    3.150385   7.639658   4.321442   4.771917   5.311403
    24  H    2.995709   7.914956   4.596700   5.070877   5.532378
    25  H    2.416918   8.231911   5.479591   6.104479   5.911684
    26  C    4.373256   6.509969   2.382417   2.452519   4.330779
    27  H    4.233788   7.193580   3.199607   3.333389   4.930239
    28  H    4.565609   6.999776   3.023268   3.064598   4.847243
    29  H    5.388052   6.662917   2.425645   2.050236   4.699755
                    6          7          8          9         10
     6  C    0.000000
     7  C    2.445867   0.000000
     8  C    4.255975   2.429863   0.000000
     9  C    2.500577   2.497593   2.498992   0.000000
    10  H    3.171084   3.182147   2.812900   1.094874   0.000000
    11  H    3.247539   3.256558   2.730653   1.091592   1.734780
    12  C    1.364130   2.840471   3.830587   1.513875   2.137080
    13  C    2.514198   4.285531   4.959614   2.471614   2.746393
    14  C    3.711349   1.486265   3.023444   3.921908   4.523407
    15  H    4.025350   2.143416   3.777501   4.522305   4.961810
    16  H    3.992723   2.143148   3.770142   4.540618   5.299059
    17  H    4.569090   2.147642   2.639046   4.229633   4.739945
    18  C    5.261299   3.838946   1.504501   2.986609   2.966568
    19  H    6.009511   4.469810   2.156612   3.777083   3.505029
    20  H    5.913732   4.457069   2.150522   3.696003   3.855215
    21  H    4.977484   4.069438   2.142511   2.507261   2.310178
    22  C    3.105452   5.337113   6.367336   3.912062   4.207596
    23  H    3.026721   5.313721   6.585140   4.274072   4.795850
    24  H    3.267140   5.594845   6.808241   4.375353   4.513438
    25  H    4.139042   6.260068   7.031976   4.562541   4.762861
    26  C    1.500708   3.724006   5.736548   3.939867   4.520819
    27  H    2.158097   4.481060   6.328440   4.304704   4.668023
    28  H    2.150223   4.291527   6.221208   4.402735   5.118500
    29  H    2.135103   3.808057   6.069391   4.615569   5.185435
                   11         12         13         14         15
    11  H    0.000000
    12  C    2.123247   0.000000
    13  C    2.633411   1.451129   0.000000
    14  C    4.599781   4.307914   5.756650   0.000000
    15  H    5.347620   4.772721   6.210918   1.094187   0.000000
    16  H    5.095669   4.738233   6.152667   1.093686   1.766110
    17  H    4.782951   4.933936   6.353409   1.090357   1.756043
    18  C    2.820727   4.491870   5.291994   4.525716   5.240459
    19  H    3.762353   5.277697   6.070672   4.988028   5.549818
    20  H    3.268328   5.144004   5.881539   5.024508   5.859840
    21  H    2.188980   3.985938   4.543750   5.042551   5.727287
    22  C    4.075375   2.610746   1.510841   6.734453   7.102760
    23  H    4.404982   2.881052   2.176923   6.615287   7.023403
    24  H    4.753263   3.022942   2.156431   6.940036   7.144505
    25  H    4.524844   3.458978   2.111153   7.689307   8.107292
    26  C    4.602344   2.574502   3.149168   4.738871   4.869874
    27  H    4.987328   2.871141   3.055066   5.568812   5.602693
    28  H    4.851478   3.011437   3.351690   5.277548   5.550273
    29  H    5.374712   3.420891   4.182389   4.519235   4.463783
                   16         17         18         19         20
    16  H    0.000000
    17  H    1.756420   0.000000
    18  C    5.251338   4.059303   0.000000
    19  H    5.820471   4.398889   1.092384   0.000000
    20  H    5.587865   4.467198   1.092945   1.760866   0.000000
    21  H    5.769668   4.774644   1.086111   1.765813   1.767564
    22  C    6.990739   7.470795   6.786486   7.575806   7.342680
    23  H    6.701914   7.417808   7.152371   8.020149   7.623468
    24  H    7.255640   7.737330   7.301778   7.995553   7.971314
    25  H    7.952428   8.365232   7.258653   8.047091   7.750303
    26  C    4.819876   5.723735   6.760360   7.502022   7.394299
    27  H    5.771695   6.524580   7.225001   7.903740   7.935182
    28  H    5.173714   6.245847   7.202581   8.043432   7.709823
    29  H    4.516118   5.578139   7.245705   7.926230   7.899263
                   21         22         23         24         25
    21  H    0.000000
    22  C    6.049553   0.000000
    23  H    6.520709   1.087221   0.000000
    24  H    6.584577   1.090584   1.760983   0.000000
    25  H    6.420925   1.087221   1.772654   1.764705   0.000000
    26  C    6.441577   2.992351   2.627782   2.877866   4.063989
    27  H    6.785125   2.606962   2.490488   2.128083   3.635396
    28  H    6.864869   2.928238   2.194036   3.055683   3.894615
    29  H    7.059472   4.058002   3.660674   3.823878   5.125284
                   26         27         28         29
    26  C    0.000000
    27  H    1.084877   0.000000
    28  H    1.089631   1.760974   0.000000
    29  H    1.088700   1.752992   1.757055   0.000000
 Stoichiometry    C11H15NO2
 Framework group  C1[X(C11H15NO2)]
 Deg. of freedom    81
 Full point group                 C1      NOp   1
 RotChk:  IX=0 Diff= 6.87D-16
 Largest Abelian subgroup         C1      NOp   1
 Largest concise Abelian subgroup C1      NOp   1
                         Standard orientation:                         
 ---------------------------------------------------------------------
 Center     Atomic      Atomic             Coordinates (Angstroms)
 Number     Number       Type             X           Y           Z
 ---------------------------------------------------------------------
      1          8           0       -2.256550   -2.313765   -0.078603
      2          8           0        3.675296   -0.180778    0.133859
      3          7           0       -0.067552    1.803322   -0.075878
      4          1           0       -0.102881    2.809404   -0.080539
      5          6           0        1.295340   -0.142423   -0.024780
      6          6           0       -1.250845    1.135392   -0.051758
      7          6           0        1.193277    1.221955   -0.019492
      8          6           0        2.537970   -0.801022    0.040520
      9          6           0        0.052586   -0.997143   -0.130834
     10          1           0        0.067591   -1.563812   -1.067536
     11          1           0        0.053902   -1.752863    0.656858
     12          6           0       -1.248724   -0.228701   -0.041911
     13          6           0       -2.412957   -1.093165    0.013227
     14          6           0        2.299559    2.213003    0.034827
     15          1           0        2.297163    2.863278   -0.845162
     16          1           0        2.221004    2.851554    0.919266
     17          1           0        3.277389    1.732110    0.073153
     18          6           0        2.741677   -2.290856   -0.008671
     19          1           0        3.415231   -2.572698   -0.821194
     20          1           0        3.184685   -2.652585    0.922686
     21          1           0        1.794336   -2.800442   -0.158680
     22          6           0       -3.823741   -0.585410    0.199008
     23          1           0       -3.907895    0.141354    1.003235
     24          1           0       -4.193794   -0.119075   -0.714757
     25          1           0       -4.454231   -1.442226    0.423499
     26          6           0       -2.436201    2.055569   -0.033652
     27          1           0       -3.194949    1.759694   -0.750393
     28          1           0       -2.895850    2.087404    0.953772
     29          1           0       -2.126437    3.068798   -0.284013
 ---------------------------------------------------------------------
 Rotational constants (GHZ):           1.1010127           0.4803272           0.3385797
 Leave Link  202 at Sat Jan 24 23:17:24 2026, MaxMem=  2147483648 cpu:               0.0 elap:               0.0
 (Enter /data/home/wyx/g16/l301.exe)
 Standard basis: TZVP (5D, 7F)
 Ernie: Thresh=  0.10000D-02 Tol=  0.10000D-05 Strict=F.
 There are   370 symmetry adapted cartesian basis functions of A   symmetry.
 There are   356 symmetry adapted basis functions of A   symmetry.
   356 basis functions,   610 primitive gaussians,   370 cartesian basis functions
    52 alpha electrons       52 beta electrons
       nuclear repulsion energy       897.8047055810 Hartrees.
 IExCor=20419 DFT=T Ex+Corr=CAM-B3LYP ExCW=0 ScaHFX=  1.000000
 ScaDFX=  1.000000  1.000000  1.000000  0.810000 ScalE2=  1.000000  1.000000
 IRadAn=      5 IRanWt=     -1 IRanGd=            0 ICorTp=0 IEmpDi=141
 HFx  wShort=  0.000000 wLong=  0.330000 cFull=  0.190000 cShort=  0.000000 cLong=  0.460000
 DFx  wShort=  0.000000 wLong=  0.330000 cFull=  0.190000 cShort=  0.000000 cLong=  0.460000
 NAtoms=   29 NActive=   29 NUniq=   29 SFac= 1.00D+00 NAtFMM=   60 NAOKFM=F Big=F
 Integral buffers will be    131072 words long.
 Raffenetti 2 integral format.
 Two-electron integral symmetry is turned on.
 R6Disp:  Grimme-D3(BJ) Dispersion energy=       -0.0260547091 Hartrees.
 Nuclear repulsion after empirical dispersion term =      897.7786508719 Hartrees.
 ------------------------------------------------------------------------------
 Polarizable Continuum Model (PCM)
 =================================
 Model                : PCM.
 Atomic radii         : UFF (Universal Force Field).
 Polarization charges : Total charges.
 Charge compensation  : None.
 Solution method      : On-the-fly selection.
 Cavity type          : Scaled VdW (van der Waals Surface) (Alpha=1.100).
 Cavity algorithm     : GePol (No added spheres)
                        Default sphere list used, NSphG=   29.
                        Lebedev-Laikov grids with approx.  5.0 points / Ang**2.
                        Smoothing algorithm: York/Karplus (Gamma=1.0000).
                        Polarization charges: spherical gaussians, with
                                              point-specific exponents (IZeta= 3).
                        Self-potential: point-specific (ISelfS= 7).
                        Self-field    : sphere-specific E.n sum rule (ISelfD= 2).
 Solvent              : Water, Eps=  78.355300 Eps(inf)=   1.777849
 ------------------------------------------------------------------------------
 GePol: Number of generator spheres                  =      29
 GePol: Total number of spheres                      =      29
 GePol: Number of exposed spheres                    =      29 (100.00%)
 GePol: Number of points                             =    2114
 GePol: Average weight of points                     =       0.13
 GePol: Minimum weight of points                     =   0.30D-09
 GePol: Maximum weight of points                     =    0.20577
 GePol: Number of points with low weight             =     138
 GePol: Fraction of low-weight points (<1% of avg)   =       6.53%
 GePol: Cavity surface area                          =    269.453 Ang**2
 GePol: Cavity volume                                =    286.933 Ang**3
 Leave Link  301 at Sat Jan 24 23:17:24 2026, MaxMem=  2147483648 cpu:               0.6 elap:               0.0
 (Enter /data/home/wyx/g16/l302.exe)
 NPDir=0 NMtPBC=     1 NCelOv=     1 NCel=       1 NClECP=     1 NCelD=      1
         NCelK=      1 NCelE2=     1 NClLst=     1 CellRange=     0.0.
 One-electron integrals computed using PRISM.
 One-electron integral symmetry used in STVInt
 NBasis=   356 RedAO= T EigKep=  3.78D-05  NBF=   356
 NBsUse=   356 1.00D-06 EigRej= -1.00D+00 NBFU=   356
 Precomputing XC quadrature grid using
 IXCGrd= 4 IRadAn=           5 IRanWt=          -1 IRanGd=           0 AccXCQ= 0.00D+00.
 Generated NRdTot=       0 NPtTot=           0 NUsed=           0 NTot=          32
 NSgBfM=   366   366   366   366   366 MxSgAt=    29 MxSgA2=    29.
 Leave Link  302 at Sat Jan 24 23:17:25 2026, MaxMem=  2147483648 cpu:               3.2 elap:               0.2
 (Enter /data/home/wyx/g16/l303.exe)
 DipDrv:  MaxL=1.
 Leave Link  303 at Sat Jan 24 23:17:25 2026, MaxMem=  2147483648 cpu:               0.5 elap:               0.0
 (Enter /data/home/wyx/g16/l401.exe)
 Initial guess from the checkpoint file:  "DDL-S1-cLR-gs-1.chk"
 B after Tr=     0.000000    0.000000   -0.000000
         Rot=    1.000000   -0.000000   -0.000000    0.000000 Ang=   0.00 deg.
 Guess basis will be translated and rotated to current coordinates.
 JPrj=2 DoOrth=T DoCkMO=T.
 Leave Link  401 at Sat Jan 24 23:17:25 2026, MaxMem=  2147483648 cpu:               2.3 elap:               0.2
 (Enter /data/home/wyx/g16/l502.exe)
 Integral symmetry usage will be decided dynamically.
 Closed shell SCF:
 Using DIIS extrapolation, IDIIS=  1040.
 NGot=  2147483648 LenX=  2147200095 LenY=  2147062754
 Requested convergence on RMS density matrix=1.00D-08 within 128 cycles.
 Requested convergence on MAX density matrix=1.00D-06.
 Requested convergence on             energy=1.00D-06.
 No special actions if energy rises.
 Fock matrices will be formed incrementally for  20 cycles.

 Cycle   1  Pass 1  IDiag  1:
 FoFJK:  IHMeth= 1 ICntrl=       0 DoSepK=T KAlg= 0 I1Cent=           0 FoldK=F
 IRaf=         1 NMat=       1 IRICut=       1 DoRegI=T DoRafI=F ISym2E= 0 IDoP0=0 IntGTp=1.
 FoFCou: FMM=F IPFlag=           0 FMFlag=      100000 FMFlg1=           0
         NFxFlg=           0 DoJE=T BraDBF=F KetDBF=F FulRan=T
         wScrn=  0.000000 ICntrl=       500 IOpCl=  0 I1Cent=           0 NGrid=           0
         NMat0=    1 NMatS0=      1 NMatT0=    0 NMatD0=    1 NMtDS0=    0 NMtDT0=    0
 Symmetry not used in FoFCou.
 Inv3:  Mode=1 IEnd=    13406988.
 Iteration    1 A*A^-1 deviation from unit magnitude is 3.66D-15 for    730.
 Iteration    1 A*A^-1 deviation from orthogonality  is 2.66D-15 for   1395    863.
 Iteration    1 A^-1*A deviation from unit magnitude is 3.66D-15 for    730.
 Iteration    1 A^-1*A deviation from orthogonality  is 2.93D-15 for   1767    206.
 NEqPCM:  Using non-equilibrium solvation (IEInf=1, Eps=  78.3553, EpsInf=   1.7778)
 Inv3:  Mode=1 IEnd=    13406988.
 Iteration    1 A*A^-1 deviation from unit magnitude is 3.77D-15 for    168.
 Iteration    1 A*A^-1 deviation from orthogonality  is 1.50D-15 for   1909    125.
 Iteration    1 A^-1*A deviation from unit magnitude is 3.55D-15 for    168.
 Iteration    1 A^-1*A deviation from orthogonality  is 1.78D-15 for   2005    106.
 E= -633.315874222506    
 DIIS: error= 6.12D-04 at cycle   1 NSaved=   1.
 NSaved= 1 IEnMin= 1 EnMin= -633.315874222506     IErMin= 1 ErrMin= 6.12D-04
 ErrMax= 6.12D-04  0.00D+00 EMaxC= 1.00D-01 BMatC= 4.37D-05 BMatP= 4.37D-05
 IDIUse=3 WtCom= 9.94D-01 WtEn= 6.12D-03
 Coeff-Com:  0.100D+01
 Coeff-En:   0.100D+01
 Coeff:      0.100D+01
 Gap=     0.222 Goal=   None    Shift=    0.000
 RMSDP=2.25D-04 MaxDP=1.37D-02              OVMax= 8.39D-03

 Cycle   2  Pass 1  IDiag  1:
 RMSU=  2.23D-04    CP:  9.98D-01
 E= -633.315956371333     Delta-E=       -0.000082148827 Rises=F Damp=F
 DIIS: error= 2.68D-04 at cycle   2 NSaved=   2.
 NSaved= 2 IEnMin= 2 EnMin= -633.315956371333     IErMin= 2 ErrMin= 2.68D-04
 ErrMax= 2.68D-04  0.00D+00 EMaxC= 1.00D-01 BMatC= 3.88D-05 BMatP= 4.37D-05
 IDIUse=3 WtCom= 9.97D-01 WtEn= 2.68D-03
 Coeff-Com:  0.480D+00 0.520D+00
 Coeff-En:   0.000D+00 0.100D+01
 Coeff:      0.478D+00 0.522D+00
 Gap=     0.223 Goal=   None    Shift=    0.000
 RMSDP=9.23D-05 MaxDP=6.36D-03 DE=-8.21D-05 OVMax= 1.76D-03

 Cycle   3  Pass 1  IDiag  1:
 RMSU=  7.93D-05    CP:  1.00D+00  8.60D-01
 E= -633.315988709400     Delta-E=       -0.000032338067 Rises=F Damp=F
 DIIS: error= 1.70D-04 at cycle   3 NSaved=   3.
 NSaved= 3 IEnMin= 3 EnMin= -633.315988709400     IErMin= 3 ErrMin= 1.70D-04
 ErrMax= 1.70D-04  0.00D+00 EMaxC= 1.00D-01 BMatC= 5.91D-06 BMatP= 3.88D-05
 IDIUse=3 WtCom= 9.98D-01 WtEn= 1.70D-03
 Coeff-Com:  0.975D-01 0.256D+00 0.646D+00
 Coeff-En:   0.000D+00 0.000D+00 0.100D+01
 Coeff:      0.974D-01 0.256D+00 0.647D+00
 Gap=     0.223 Goal=   None    Shift=    0.000
 RMSDP=1.97D-05 MaxDP=9.72D-04 DE=-3.23D-05 OVMax= 1.25D-03

 Cycle   4  Pass 1  IDiag  1:
 RMSU=  1.82D-05    CP:  1.00D+00  8.43D-01  1.06D+00
 E= -633.315993613111     Delta-E=       -0.000004903711 Rises=F Damp=F
 DIIS: error= 6.16D-05 at cycle   4 NSaved=   4.
 NSaved= 4 IEnMin= 4 EnMin= -633.315993613111     IErMin= 4 ErrMin= 6.16D-05
 ErrMax= 6.16D-05  0.00D+00 EMaxC= 1.00D-01 BMatC= 8.40D-07 BMatP= 5.91D-06
 IDIUse=1 WtCom= 1.00D+00 WtEn= 0.00D+00
 Coeff-Com: -0.436D-02 0.303D-01 0.276D+00 0.698D+00
 Coeff:     -0.436D-02 0.303D-01 0.276D+00 0.698D+00
 Gap=     0.223 Goal=   None    Shift=    0.000
 RMSDP=1.62D-05 MaxDP=1.09D-03 DE=-4.90D-06 OVMax= 7.14D-04

 Cycle   5  Pass 1  IDiag  1:
 RMSU=  7.37D-06    CP:  1.00D+00  8.39D-01  1.22D+00  8.91D-01
 E= -633.315994596926     Delta-E=       -0.000000983815 Rises=F Damp=F
 DIIS: error= 2.72D-05 at cycle   5 NSaved=   5.
 NSaved= 5 IEnMin= 5 EnMin= -633.315994596926     IErMin= 5 ErrMin= 2.72D-05
 ErrMax= 2.72D-05  0.00D+00 EMaxC= 1.00D-01 BMatC= 1.48D-07 BMatP= 8.40D-07
 IDIUse=1 WtCom= 1.00D+00 WtEn= 0.00D+00
 Coeff-Com: -0.135D-01-0.393D-01 0.623D-02 0.302D+00 0.744D+00
 Coeff:     -0.135D-01-0.393D-01 0.623D-02 0.302D+00 0.744D+00
 Gap=     0.223 Goal=   None    Shift=    0.000
 RMSDP=5.63D-06 MaxDP=2.60D-04 DE=-9.84D-07 OVMax= 3.74D-04

 Cycle   6  Pass 1  IDiag  1:
 RMSU=  2.76D-06    CP:  1.00D+00  8.31D-01  1.27D+00  9.96D-01  1.12D+00
 E= -633.315994872699     Delta-E=       -0.000000275773 Rises=F Damp=F
 DIIS: error= 1.76D-05 at cycle   6 NSaved=   6.
 NSaved= 6 IEnMin= 6 EnMin= -633.315994872699     IErMin= 6 ErrMin= 1.76D-05
 ErrMax= 1.76D-05  0.00D+00 EMaxC= 1.00D-01 BMatC= 2.01D-08 BMatP= 1.48D-07
 IDIUse=1 WtCom= 1.00D+00 WtEn= 0.00D+00
 Coeff-Com: -0.194D-02-0.218D-01-0.238D-01-0.153D-02 0.188D+00 0.861D+00
 Coeff:     -0.194D-02-0.218D-01-0.238D-01-0.153D-02 0.188D+00 0.861D+00
 Gap=     0.223 Goal=   None    Shift=    0.000
 RMSDP=3.31D-06 MaxDP=1.63D-04 DE=-2.76D-07 OVMax= 2.53D-04

 Cycle   7  Pass 1  IDiag  1:
 RMSU=  1.11D-06    CP:  1.00D+00  8.26D-01  1.30D+00  1.05D+00  1.25D+00
                    CP:  1.31D+00
 E= -633.315994930837     Delta-E=       -0.000000058138 Rises=F Damp=F
 DIIS: error= 6.93D-06 at cycle   7 NSaved=   7.
 NSaved= 7 IEnMin= 7 EnMin= -633.315994930837     IErMin= 7 ErrMin= 6.93D-06
 ErrMax= 6.93D-06  0.00D+00 EMaxC= 1.00D-01 BMatC= 9.87D-09 BMatP= 2.01D-08
 IDIUse=1 WtCom= 1.00D+00 WtEn= 0.00D+00
 Coeff-Com:  0.264D-02-0.516D-02-0.923D-02-0.736D-01-0.115D+00 0.464D+00
 Coeff-Com:  0.736D+00
 Coeff:      0.264D-02-0.516D-02-0.923D-02-0.736D-01-0.115D+00 0.464D+00
 Coeff:      0.736D+00
 Gap=     0.223 Goal=   None    Shift=    0.000
 RMSDP=1.38D-06 MaxDP=6.13D-05 DE=-5.81D-08 OVMax= 1.39D-04

 Cycle   8  Pass 1  IDiag  1:
 RMSU=  4.16D-07    CP:  1.00D+00  8.24D-01  1.31D+00  1.05D+00  1.31D+00
                    CP:  1.53D+00  1.12D+00
 E= -633.315994950134     Delta-E=       -0.000000019297 Rises=F Damp=F
 DIIS: error= 2.06D-06 at cycle   8 NSaved=   8.
 NSaved= 8 IEnMin= 8 EnMin= -633.315994950134     IErMin= 8 ErrMin= 2.06D-06
 ErrMax= 2.06D-06  0.00D+00 EMaxC= 1.00D-01 BMatC= 1.00D-09 BMatP= 9.87D-09
 IDIUse=1 WtCom= 1.00D+00 WtEn= 0.00D+00
 Coeff-Com:  0.136D-02 0.302D-03 0.192D-02-0.249D-01-0.874D-01 0.275D-01
 Coeff-Com:  0.261D+00 0.820D+00
 Coeff:      0.136D-02 0.302D-03 0.192D-02-0.249D-01-0.874D-01 0.275D-01
 Coeff:      0.261D+00 0.820D+00
 Gap=     0.223 Goal=   None    Shift=    0.000
 RMSDP=6.34D-07 MaxDP=3.02D-05 DE=-1.93D-08 OVMax= 5.09D-05

 Cycle   9  Pass 1  IDiag  1:
 RMSU=  1.81D-07    CP:  1.00D+00  8.23D-01  1.31D+00  1.06D+00  1.32D+00
                    CP:  1.64D+00  1.33D+00  1.17D+00
 E= -633.315994952217     Delta-E=       -0.000000002083 Rises=F Damp=F
 DIIS: error= 7.04D-07 at cycle   9 NSaved=   9.
 NSaved= 9 IEnMin= 9 EnMin= -633.315994952217     IErMin= 9 ErrMin= 7.04D-07
 ErrMax= 7.04D-07  0.00D+00 EMaxC= 1.00D-01 BMatC= 1.44D-10 BMatP= 1.00D-09
 IDIUse=1 WtCom= 1.00D+00 WtEn= 0.00D+00
 Coeff-Com:  0.249D-03 0.523D-03 0.225D-02 0.131D-02-0.218D-01-0.503D-01
 Coeff-Com:  0.122D-01 0.374D+00 0.681D+00
 Coeff:      0.249D-03 0.523D-03 0.225D-02 0.131D-02-0.218D-01-0.503D-01
 Coeff:      0.122D-01 0.374D+00 0.681D+00
 Gap=     0.223 Goal=   None    Shift=    0.000
 RMSDP=1.09D-07 MaxDP=4.67D-06 DE=-2.08D-09 OVMax= 1.22D-05

 Cycle  10  Pass 1  IDiag  1:
 RMSU=  6.45D-08    CP:  1.00D+00  8.23D-01  1.31D+00  1.06D+00  1.32D+00
                    CP:  1.65D+00  1.37D+00  1.26D+00  9.40D-01
 E= -633.315994952414     Delta-E=       -0.000000000197 Rises=F Damp=F
 DIIS: error= 2.22D-07 at cycle  10 NSaved=  10.
 NSaved=10 IEnMin=10 EnMin= -633.315994952414     IErMin=10 ErrMin= 2.22D-07
 ErrMax= 2.22D-07  0.00D+00 EMaxC= 1.00D-01 BMatC= 2.37D-11 BMatP= 1.44D-10
 IDIUse=1 WtCom= 1.00D+00 WtEn= 0.00D+00
 Coeff-Com: -0.382D-04 0.284D-03 0.733D-03 0.354D-02-0.148D-02-0.284D-01
 Coeff-Com: -0.225D-01 0.758D-01 0.329D+00 0.643D+00
 Coeff:     -0.382D-04 0.284D-03 0.733D-03 0.354D-02-0.148D-02-0.284D-01
 Coeff:     -0.225D-01 0.758D-01 0.329D+00 0.643D+00
 Gap=     0.223 Goal=   None    Shift=    0.000
 RMSDP=6.82D-08 MaxDP=5.15D-06 DE=-1.97D-10 OVMax= 3.18D-06

 Cycle  11  Pass 1  IDiag  1:
 RMSU=  2.91D-08    CP:  1.00D+00  8.23D-01  1.31D+00  1.06D+00  1.31D+00
                    CP:  1.66D+00  1.40D+00  1.28D+00  1.09D+00  9.43D-01
 E= -633.315994952430     Delta-E=       -0.000000000016 Rises=F Damp=F
 DIIS: error= 9.21D-08 at cycle  11 NSaved=  11.
 NSaved=11 IEnMin=11 EnMin= -633.315994952430     IErMin=11 ErrMin= 9.21D-08
 ErrMax= 9.21D-08  0.00D+00 EMaxC= 1.00D-01 BMatC= 3.88D-12 BMatP= 2.37D-11
 IDIUse=1 WtCom= 1.00D+00 WtEn= 0.00D+00
 Coeff-Com: -0.577D-04 0.795D-04-0.161D-03 0.163D-02 0.362D-02-0.381D-02
 Coeff-Com: -0.123D-01-0.382D-01 0.476D-01 0.301D+00 0.700D+00
 Coeff:     -0.577D-04 0.795D-04-0.161D-03 0.163D-02 0.362D-02-0.381D-02
 Coeff:     -0.123D-01-0.382D-01 0.476D-01 0.301D+00 0.700D+00
 Gap=     0.223 Goal=   None    Shift=    0.000
 RMSDP=2.17D-08 MaxDP=1.74D-06 DE=-1.64D-11 OVMax= 1.17D-06

 Cycle  12  Pass 1  IDiag  1:
 RMSU=  8.07D-09    CP:  1.00D+00  8.23D-01  1.31D+00  1.06D+00  1.31D+00
                    CP:  1.66D+00  1.40D+00  1.29D+00  1.12D+00  1.05D+00
                    CP:  9.60D-01
 E= -633.315994952446     Delta-E=       -0.000000000015 Rises=F Damp=F
 DIIS: error= 3.34D-08 at cycle  12 NSaved=  12.
 NSaved=12 IEnMin=12 EnMin= -633.315994952446     IErMin=12 ErrMin= 3.34D-08
 ErrMax= 3.34D-08  0.00D+00 EMaxC= 1.00D-01 BMatC= 4.56D-13 BMatP= 3.88D-12
 IDIUse=1 WtCom= 1.00D+00 WtEn= 0.00D+00
 Coeff-Com: -0.192D-04 0.140D-04-0.155D-03 0.238D-03 0.140D-02 0.192D-02
 Coeff-Com: -0.876D-03-0.236D-01-0.164D-01 0.215D-01 0.272D+00 0.744D+00
 Coeff:     -0.192D-04 0.140D-04-0.155D-03 0.238D-03 0.140D-02 0.192D-02
 Coeff:     -0.876D-03-0.236D-01-0.164D-01 0.215D-01 0.272D+00 0.744D+00
 Gap=     0.223 Goal=   None    Shift=    0.000
 RMSDP=9.14D-09 MaxDP=7.18D-07 DE=-1.53D-11 OVMax= 4.95D-07

 Error on total polarization charges =  0.00849
 SCF Done:  E(RCAM-B3LYP) =  -633.315994952     A.U. after   12 cycles
            NFock= 12  Conv=0.91D-08     -V/T= 2.0044
 KE= 6.305554848170D+02 PE=-3.271359216384D+03 EE= 1.109709085743D+03
 Leave Link  502 at Sat Jan 24 23:18:13 2026, MaxMem=  2147483648 cpu:             758.3 elap:              48.1
 (Enter /data/home/wyx/g16/l601.exe)
 Copying SCF densities to generalized density rwf, IOpCl= 0 IROHF=0.

 **********************************************************************

            Population analysis using the SCF density.

 **********************************************************************

 Orbital symmetries:
       Occupied  (A) (A) (A) (A) (A) (A) (A) (A) (A) (A) (A) (A)
                 (A) (A) (A) (A) (A) (A) (A) (A) (A) (A) (A) (A)
                 (A) (A) (A) (A) (A) (A) (A) (A) (A) (A) (A) (A)
                 (A) (A) (A) (A) (A) (A) (A) (A) (A) (A) (A) (A)
                 (A) (A) (A) (A)
       Virtual   (A) (A) (A) (A) (A) (A) (A) (A) (A) (A) (A) (A)
                 (A) (A) (A) (A) (A) (A) (A) (A) (A) (A) (A) (A)
                 (A) (A) (A) (A) (A) (A) (A) (A) (A) (A) (A) (A)
                 (A) (A) (A) (A) (A) (A) (A) (A) (A) (A) (A) (A)
                 (A) (A) (A) (A) (A) (A) (A) (A) (A) (A) (A) (A)
                 (A) (A) (A) (A) (A) (A) (A) (A) (A) (A) (A) (A)
                 (A) (A) (A) (A) (A) (A) (A) (A) (A) (A) (A) (A)
                 (A) (A) (A) (A) (A) (A) (A) (A) (A) (A) (A) (A)
                 (A) (A) (A) (A) (A) (A) (A) (A) (A) (A) (A) (A)
                 (A) (A) (A) (A) (A) (A) (A) (A) (A) (A) (A) (A)
                 (A) (A) (A) (A) (A) (A) (A) (A) (A) (A) (A) (A)
                 (A) (A) (A) (A) (A) (A) (A) (A) (A) (A) (A) (A)
                 (A) (A) (A) (A) (A) (A) (A) (A) (A) (A) (A) (A)
                 (A) (A) (A) (A) (A) (A) (A) (A) (A) (A) (A) (A)
                 (A) (A) (A) (A) (A) (A) (A) (A) (A) (A) (A) (A)
                 (A) (A) (A) (A) (A) (A) (A) (A) (A) (A) (A) (A)
                 (A) (A) (A) (A) (A) (A) (A) (A) (A) (A) (A) (A)
                 (A) (A) (A) (A) (A) (A) (A) (A) (A) (A) (A) (A)
                 (A) (A) (A) (A) (A) (A) (A) (A) (A) (A) (A) (A)
                 (A) (A) (A) (A) (A) (A) (A) (A) (A) (A) (A) (A)
                 (A) (A) (A) (A) (A) (A) (A) (A) (A) (A) (A) (A)
                 (A) (A) (A) (A) (A) (A) (A) (A) (A) (A) (A) (A)
                 (A) (A) (A) (A) (A) (A) (A) (A) (A) (A) (A) (A)
                 (A) (A) (A) (A) (A) (A) (A) (A) (A) (A) (A) (A)
                 (A) (A) (A) (A) (A) (A) (A) (A) (A) (A) (A) (A)
                 (A) (A) (A) (A)
 The electronic state is 1-A.
 Alpha  occ. eigenvalues --  -19.17444 -19.16602 -14.44388 -10.33589 -10.33032
 Alpha  occ. eigenvalues --  -10.32817 -10.32166 -10.25469 -10.25412 -10.24927
 Alpha  occ. eigenvalues --  -10.24891 -10.24276 -10.24267 -10.23859  -1.11361
 Alpha  occ. eigenvalues --   -1.08454  -1.07466  -0.91410  -0.90379  -0.83905
 Alpha  occ. eigenvalues --   -0.82341  -0.81289  -0.78830  -0.74112  -0.71599
 Alpha  occ. eigenvalues --   -0.69141  -0.62017  -0.58262  -0.56774  -0.54908
 Alpha  occ. eigenvalues --   -0.54505  -0.54166  -0.52186  -0.51716  -0.50570
 Alpha  occ. eigenvalues --   -0.49361  -0.49222  -0.48857  -0.48324  -0.48095
 Alpha  occ. eigenvalues --   -0.46570  -0.45895  -0.44338  -0.43490  -0.42722
 Alpha  occ. eigenvalues --   -0.42235  -0.41508  -0.40682  -0.32781  -0.31958
 Alpha  occ. eigenvalues --   -0.30785  -0.26116
 Alpha virt. eigenvalues --   -0.03809   0.01950   0.06840   0.08574   0.08867
 Alpha virt. eigenvalues --    0.10394   0.11014   0.11485   0.12769   0.13395
 Alpha virt. eigenvalues --    0.15042   0.15177   0.15731   0.16753   0.16979
 Alpha virt. eigenvalues --    0.17380   0.17553   0.17852   0.18545   0.19389
 Alpha virt. eigenvalues --    0.20107   0.20216   0.22483   0.23198   0.24531
 Alpha virt. eigenvalues --    0.24682   0.25187   0.25576   0.25951   0.26275
 Alpha virt. eigenvalues --    0.27522   0.28147   0.28640   0.29383   0.29714
 Alpha virt. eigenvalues --    0.31195   0.31597   0.33847   0.34122   0.34896
 Alpha virt. eigenvalues --    0.35532   0.35997   0.36944   0.37118   0.37526
 Alpha virt. eigenvalues --    0.40171   0.41031   0.41424   0.42660   0.43212
 Alpha virt. eigenvalues --    0.44176   0.44947   0.45582   0.46431   0.46596
 Alpha virt. eigenvalues --    0.47241   0.48002   0.48286   0.48638   0.49058
 Alpha virt. eigenvalues --    0.49552   0.49962   0.50773   0.51663   0.52026
 Alpha virt. eigenvalues --    0.52209   0.53075   0.53154   0.53932   0.54309
 Alpha virt. eigenvalues --    0.54740   0.55732   0.56221   0.57841   0.58122
 Alpha virt. eigenvalues --    0.58872   0.59331   0.60634   0.62621   0.62995
 Alpha virt. eigenvalues --    0.63353   0.65082   0.66328   0.66699   0.67528
 Alpha virt. eigenvalues --    0.67846   0.68741   0.71432   0.71913   0.72179
 Alpha virt. eigenvalues --    0.73578   0.75754   0.77185   0.77819   0.78682
 Alpha virt. eigenvalues --    0.80585   0.81657   0.84463   0.88281   0.90375
 Alpha virt. eigenvalues --    0.93323   0.96496   1.00100   1.02957   1.20108
 Alpha virt. eigenvalues --    1.22857   1.24052   1.27340   1.29993   1.31383
 Alpha virt. eigenvalues --    1.32009   1.33571   1.34468   1.35244   1.37076
 Alpha virt. eigenvalues --    1.37521   1.37937   1.39631   1.39903   1.40009
 Alpha virt. eigenvalues --    1.40674   1.40770   1.41267   1.41316   1.41857
 Alpha virt. eigenvalues --    1.43049   1.43300   1.44326   1.45088   1.46044
 Alpha virt. eigenvalues --    1.48609   1.49800   1.50291   1.51160   1.51585
 Alpha virt. eigenvalues --    1.52135   1.52884   1.54897   1.57280   1.57539
 Alpha virt. eigenvalues --    1.59471   1.60127   1.60222   1.61105   1.61671
 Alpha virt. eigenvalues --    1.62206   1.62291   1.63027   1.63808   1.64586
 Alpha virt. eigenvalues --    1.65578   1.66205   1.66297   1.67078   1.68143
 Alpha virt. eigenvalues --    1.69198   1.69316   1.69992   1.71419   1.72978
 Alpha virt. eigenvalues --    1.73313   1.74393   1.76031   1.76165   1.80338
 Alpha virt. eigenvalues --    1.81790   1.83387   1.84612   1.85051   1.85627
 Alpha virt. eigenvalues --    1.85894   1.86303   1.90136   1.90418   1.90878
 Alpha virt. eigenvalues --    1.91852   1.92979   1.97320   1.98795   2.01597
 Alpha virt. eigenvalues --    2.02319   2.05086   2.06537   2.07930   2.10310
 Alpha virt. eigenvalues --    2.10705   2.13563   2.15054   2.19034   2.20333
 Alpha virt. eigenvalues --    2.20777   2.23376   2.24383   2.25181   2.26156
 Alpha virt. eigenvalues --    2.27752   2.29330   2.30254   2.31930   2.33375
 Alpha virt. eigenvalues --    2.33887   2.34488   2.35880   2.38322   2.38907
 Alpha virt. eigenvalues --    2.40052   2.41523   2.42821   2.44024   2.45843
 Alpha virt. eigenvalues --    2.46938   2.47733   2.49267   2.50094   2.51082
 Alpha virt. eigenvalues --    2.53249   2.54469   2.55398   2.56481   2.57364
 Alpha virt. eigenvalues --    2.58310   2.58960   2.61598   2.62574   2.63216
 Alpha virt. eigenvalues --    2.63893   2.64709   2.65414   2.66451   2.68328
 Alpha virt. eigenvalues --    2.68805   2.71403   2.73786   2.74467   2.75509
 Alpha virt. eigenvalues --    2.76494   2.76909   2.77533   2.78525   2.79027
 Alpha virt. eigenvalues --    2.80210   2.81332   2.82913   2.83959   2.85126
 Alpha virt. eigenvalues --    2.85811   2.88141   2.89389   2.91076   2.93055
 Alpha virt. eigenvalues --    2.98428   2.98949   2.99275   3.04138   3.08505
 Alpha virt. eigenvalues --    3.11304   3.12874   3.15008   3.17718   3.20409
 Alpha virt. eigenvalues --    3.21621   3.22403   3.25483   3.26088   3.26471
 Alpha virt. eigenvalues --    3.29674   3.30858   3.31400   3.35623   3.38073
 Alpha virt. eigenvalues --    3.38766   3.39663   3.39989   3.40256   3.41379
 Alpha virt. eigenvalues --    3.42605   3.44078   3.45366   3.46774   3.49269
 Alpha virt. eigenvalues --    3.51361   3.52812   3.55139   3.57158   3.60052
 Alpha virt. eigenvalues --    3.62850   3.92387   4.00365   4.27970   4.35909
 Alpha virt. eigenvalues --   21.64593  21.76392  22.04415  22.10453  22.11926
 Alpha virt. eigenvalues --   22.12847  22.16275  22.19303  22.20947  22.26764
 Alpha virt. eigenvalues --   22.31040  31.93153  43.64859  43.67715
          Condensed to atoms (all electrons):
               1          2          3          4          5          6
     1  O    7.952362   0.000000  -0.000231   0.000017   0.017814   0.016293
     2  O    0.000000   8.144136   0.000725   0.000001  -0.194343   0.001758
     3  N   -0.000231   0.000725   6.319928   0.368688  -0.085759   0.388667
     4  H    0.000017   0.000001   0.368688   0.389848   0.011196  -0.038713
     5  C    0.017814  -0.194343  -0.085759   0.011196   7.225437  -0.045065
     6  C    0.016293   0.001758   0.388667  -0.038713  -0.045065   5.538898
     7  C    0.000077   0.004747   0.350629  -0.042963   0.286998  -0.150930
     8  C   -0.000265   0.598825   0.004524  -0.001479  -0.517212   0.050370
     9  C   -0.006312   0.024625   0.017814   0.001034  -0.661869  -0.090168
    10  H    0.006356  -0.000105   0.001715   0.000016  -0.043475  -0.003747
    11  H    0.009848  -0.000184  -0.000875   0.000000  -0.112357   0.021070
    12  C   -0.251545  -0.004044  -0.100234   0.018290   0.219767  -0.118731
    13  C    0.736937  -0.000000  -0.000779   0.000531   0.062725   0.118932
    14  C   -0.000015  -0.095678  -0.048015   0.002845   0.049007  -0.005361
    15  H    0.000000   0.003864   0.000588  -0.000120  -0.010256   0.001869
    16  H    0.000000   0.003153  -0.000168  -0.000413  -0.011615   0.002232
    17  H    0.000000   0.045146   0.003676   0.000688   0.015038  -0.000185
    18  C   -0.000350  -0.084106  -0.000267   0.000009  -0.118104  -0.002373
    19  H    0.000001  -0.000596   0.000009  -0.000001  -0.002370   0.000048
    20  H    0.000009  -0.001431   0.000011  -0.000000  -0.006518   0.000072
    21  H    0.000869   0.007586   0.000059   0.000000   0.081793  -0.001360
    22  C   -0.118877   0.000000   0.000353   0.000101   0.000187  -0.008221
    23  H    0.003935  -0.000000   0.000043  -0.000051  -0.000353  -0.024731
    24  H    0.002211   0.000000   0.000098  -0.000015  -0.000077   0.008561
    25  H    0.010275  -0.000000   0.000021  -0.000002  -0.000071  -0.001648
    26  C    0.000814   0.000009  -0.028100  -0.011006   0.002090   0.199340
    27  H   -0.000110  -0.000000   0.000163   0.000880   0.000353  -0.039023
    28  H   -0.000026  -0.000000  -0.002679   0.000587   0.000447  -0.039815
    29  H    0.000019   0.000000   0.004506   0.002081  -0.000491  -0.051508
               7          8          9         10         11         12
     1  O    0.000077  -0.000265  -0.006312   0.006356   0.009848  -0.251545
     2  O    0.004747   0.598825   0.024625  -0.000105  -0.000184  -0.004044
     3  N    0.350629   0.004524   0.017814   0.001715  -0.000875  -0.100234
     4  H   -0.042963  -0.001479   0.001034   0.000016   0.000000   0.018290
     5  C    0.286998  -0.517212  -0.661869  -0.043475  -0.112357   0.219767
     6  C   -0.150930   0.050370  -0.090168  -0.003747   0.021070  -0.118731
     7  C    5.556882  -0.230416  -0.264612  -0.001676   0.013761   0.048749
     8  C   -0.230416   5.825666   0.205152  -0.005483   0.001412  -0.094811
     9  C   -0.264612   0.205152   6.471398   0.424689   0.522210  -0.134846
    10  H   -0.001676  -0.005483   0.424689   0.537341  -0.041299  -0.025460
    11  H    0.013761   0.001412   0.522210  -0.041299   0.518861  -0.085921
    12  C    0.048749  -0.094811  -0.134846  -0.025460  -0.085921   7.458251
    13  C    0.027930  -0.011148  -0.221358  -0.006649  -0.001917  -0.509442
    14  C    0.175155  -0.109727   0.022925  -0.000680  -0.000013   0.004910
    15  H   -0.031431   0.007474  -0.001233   0.000105  -0.000008  -0.000429
    16  H   -0.031025   0.007212  -0.000247  -0.000023   0.000052  -0.000921
    17  H   -0.066384  -0.030215   0.002537  -0.000004  -0.000019  -0.000335
    18  C    0.029813   0.267839  -0.028616  -0.005462  -0.010406   0.012059
    19  H   -0.000737  -0.027943  -0.001540   0.000391   0.000573  -0.000235
    20  H   -0.001279  -0.018465  -0.000828   0.000309   0.000105  -0.000453
    21  H    0.005514  -0.144242  -0.015768  -0.004235  -0.003648   0.004696
    22  C    0.001197  -0.000058   0.017086   0.001384   0.000159  -0.300917
    23  H   -0.000009   0.000001   0.001527  -0.000146   0.000029   0.049896
    24  H   -0.000039   0.000002  -0.002184   0.000147  -0.000117   0.001877
    25  H    0.000011  -0.000000   0.000012  -0.000074  -0.000051   0.027618
    26  C    0.005158   0.000869   0.018936  -0.000313  -0.000001  -0.084890
    27  H   -0.001102  -0.000002  -0.000568  -0.000012   0.000004  -0.000392
    28  H   -0.001312  -0.000004  -0.000357  -0.000019   0.000061  -0.017307
    29  H    0.003461   0.000022  -0.000669   0.000038  -0.000007   0.022412
              13         14         15         16         17         18
     1  O    0.736937  -0.000015   0.000000   0.000000   0.000000  -0.000350
     2  O   -0.000000  -0.095678   0.003864   0.003153   0.045146  -0.084106
     3  N   -0.000779  -0.048015   0.000588  -0.000168   0.003676  -0.000267
     4  H    0.000531   0.002845  -0.000120  -0.000413   0.000688   0.000009
     5  C    0.062725   0.049007  -0.010256  -0.011615   0.015038  -0.118104
     6  C    0.118932  -0.005361   0.001869   0.002232  -0.000185  -0.002373
     7  C    0.027930   0.175155  -0.031431  -0.031025  -0.066384   0.029813
     8  C   -0.011148  -0.109727   0.007474   0.007212  -0.030215   0.267839
     9  C   -0.221358   0.022925  -0.001233  -0.000247   0.002537  -0.028616
    10  H   -0.006649  -0.000680   0.000105  -0.000023  -0.000004  -0.005462
    11  H   -0.001917  -0.000013  -0.000008   0.000052  -0.000019  -0.010406
    12  C   -0.509442   0.004910  -0.000429  -0.000921  -0.000335   0.012059
    13  C    5.542451  -0.000005  -0.000024  -0.000027   0.000004   0.000816
    14  C   -0.000005   5.348135   0.385414   0.390278   0.415123  -0.004923
    15  H   -0.000024   0.385414   0.530281  -0.029022  -0.016204   0.000130
    16  H   -0.000027   0.390278  -0.029022   0.525004  -0.015651   0.000112
    17  H    0.000004   0.415123  -0.016204  -0.015651   0.448853   0.001779
    18  C    0.000816  -0.004923   0.000130   0.000112   0.001779   5.162560
    19  H   -0.000022  -0.000035   0.000011  -0.000009   0.000015   0.412626
    20  H   -0.000018  -0.000027  -0.000008   0.000012  -0.000011   0.403044
    21  H    0.002158   0.000601  -0.000019  -0.000011  -0.000220   0.414379
    22  C    0.324988   0.000021   0.000000  -0.000002   0.000000   0.000012
    23  H   -0.073566   0.000002  -0.000000   0.000000   0.000000   0.000000
    24  H   -0.039044  -0.000000   0.000000  -0.000000  -0.000000  -0.000000
    25  H   -0.047160   0.000000   0.000000  -0.000000  -0.000000   0.000000
    26  C   -0.053475  -0.000448  -0.000179   0.000048   0.000011  -0.000022
    27  H   -0.007556   0.000009  -0.000004   0.000007  -0.000001  -0.000000
    28  H    0.005943  -0.000058   0.000010  -0.000014   0.000000  -0.000000
    29  H   -0.000084   0.000516   0.000003   0.000024   0.000001   0.000001
              19         20         21         22         23         24
     1  O    0.000001   0.000009   0.000869  -0.118877   0.003935   0.002211
     2  O   -0.000596  -0.001431   0.007586   0.000000  -0.000000   0.000000
     3  N    0.000009   0.000011   0.000059   0.000353   0.000043   0.000098
     4  H   -0.000001  -0.000000   0.000000   0.000101  -0.000051  -0.000015
     5  C   -0.002370  -0.006518   0.081793   0.000187  -0.000353  -0.000077
     6  C    0.000048   0.000072  -0.001360  -0.008221  -0.024731   0.008561
     7  C   -0.000737  -0.001279   0.005514   0.001197  -0.000009  -0.000039
     8  C   -0.027943  -0.018465  -0.144242  -0.000058   0.000001   0.000002
     9  C   -0.001540  -0.000828  -0.015768   0.017086   0.001527  -0.002184
    10  H    0.000391   0.000309  -0.004235   0.001384  -0.000146   0.000147
    11  H    0.000573   0.000105  -0.003648   0.000159   0.000029  -0.000117
    12  C   -0.000235  -0.000453   0.004696  -0.300917   0.049896   0.001877
    13  C   -0.000022  -0.000018   0.002158   0.324988  -0.073566  -0.039044
    14  C   -0.000035  -0.000027   0.000601   0.000021   0.000002  -0.000000
    15  H    0.000011  -0.000008  -0.000019   0.000000  -0.000000   0.000000
    16  H   -0.000009   0.000012  -0.000011  -0.000002   0.000000  -0.000000
    17  H    0.000015  -0.000011  -0.000220   0.000000   0.000000  -0.000000
    18  C    0.412626   0.403044   0.414379   0.000012   0.000000  -0.000000
    19  H    0.502708  -0.020571  -0.022857  -0.000000   0.000000   0.000000
    20  H   -0.020571   0.504141  -0.020020  -0.000001   0.000000   0.000000
    21  H   -0.022857  -0.020020   0.538390   0.000054  -0.000001  -0.000001
    22  C   -0.000000  -0.000001   0.000054   5.432354   0.385483   0.406513
    23  H    0.000000   0.000000  -0.000001   0.385483   0.545714  -0.029746
    24  H    0.000000   0.000000  -0.000001   0.406513  -0.029746   0.498702
    25  H   -0.000000   0.000000  -0.000001   0.380634  -0.020398  -0.008538
    26  C    0.000000   0.000001  -0.000013  -0.039431   0.019955  -0.015514
    27  H   -0.000000   0.000000   0.000000   0.011325  -0.008397  -0.001098
    28  H    0.000000  -0.000000   0.000000  -0.013011  -0.002336   0.001535
    29  H    0.000000  -0.000000  -0.000000   0.001731   0.000721   0.000154
              25         26         27         28         29
     1  O    0.010275   0.000814  -0.000110  -0.000026   0.000019
     2  O   -0.000000   0.000009  -0.000000  -0.000000   0.000000
     3  N    0.000021  -0.028100   0.000163  -0.002679   0.004506
     4  H   -0.000002  -0.011006   0.000880   0.000587   0.002081
     5  C   -0.000071   0.002090   0.000353   0.000447  -0.000491
     6  C   -0.001648   0.199340  -0.039023  -0.039815  -0.051508
     7  C    0.000011   0.005158  -0.001102  -0.001312   0.003461
     8  C   -0.000000   0.000869  -0.000002  -0.000004   0.000022
     9  C    0.000012   0.018936  -0.000568  -0.000357  -0.000669
    10  H   -0.000074  -0.000313  -0.000012  -0.000019   0.000038
    11  H   -0.000051  -0.000001   0.000004   0.000061  -0.000007
    12  C    0.027618  -0.084890  -0.000392  -0.017307   0.022412
    13  C   -0.047160  -0.053475  -0.007556   0.005943  -0.000084
    14  C    0.000000  -0.000448   0.000009  -0.000058   0.000516
    15  H    0.000000  -0.000179  -0.000004   0.000010   0.000003
    16  H   -0.000000   0.000048   0.000007  -0.000014   0.000024
    17  H   -0.000000   0.000011  -0.000001   0.000000   0.000001
    18  C    0.000000  -0.000022  -0.000000  -0.000000   0.000001
    19  H   -0.000000   0.000000  -0.000000   0.000000   0.000000
    20  H    0.000000   0.000001   0.000000  -0.000000  -0.000000
    21  H   -0.000001  -0.000013   0.000000   0.000000  -0.000000
    22  C    0.380634  -0.039431   0.011325  -0.013011   0.001731
    23  H   -0.020398   0.019955  -0.008397  -0.002336   0.000721
    24  H   -0.008538  -0.015514  -0.001098   0.001535   0.000154
    25  H    0.501565   0.001919   0.000659   0.000111  -0.000046
    26  C    0.001919   5.245098   0.414217   0.438611   0.386831
    27  H    0.000659   0.414217   0.512589  -0.029512  -0.023283
    28  H    0.000111   0.438611  -0.029512   0.477217  -0.015366
    29  H   -0.000046   0.386831  -0.023283  -0.015366   0.515137
 Mulliken charges:
               1
     1  O   -0.380106
     2  O   -0.454089
     3  N   -0.195112
     4  H    0.297950
     5  C   -0.162917
     6  C    0.273470
     7  C    0.313834
     8  C    0.222099
     9  C   -0.298772
    10  H    0.166370
    11  H    0.168677
    12  C   -0.137610
    13  C    0.148859
    14  C   -0.529954
    15  H    0.159189
    16  H    0.161016
    17  H    0.196355
    18  C   -0.450548
    19  H    0.160533
    20  H    0.161927
    21  H    0.156295
    22  C   -0.483063
    23  H    0.152428
    24  H    0.176575
    25  H    0.155164
    26  C   -0.500512
    27  H    0.170853
    28  H    0.197293
    29  H    0.153797
 Sum of Mulliken charges =  -0.00000
 Mulliken charges with hydrogens summed into heavy atoms:
               1
     1  O   -0.380106
     2  O   -0.454089
     3  N    0.102838
     5  C   -0.162917
     6  C    0.273470
     7  C    0.313834
     8  C    0.222099
     9  C    0.036276
    12  C   -0.137610
    13  C    0.148859
    14  C   -0.013394
    18  C    0.028207
    22  C    0.001103
    26  C    0.021430
 Electronic spatial extent (au):  <R**2>=           3238.7383
 Charge=             -0.0000 electrons
 Dipole moment (field-independent basis, Debye):
    X=             -5.0810    Y=              7.8371    Z=             -0.1445  Tot=              9.3412
 Quadrupole moment (field-independent basis, Debye-Ang):
   XX=           -102.0538   YY=            -78.4971   ZZ=            -84.2660
   XY=            -14.0192   XZ=             -1.9207   YZ=             -0.6947
 Traceless Quadrupole moment (field-independent basis, Debye-Ang):
   XX=            -13.7815   YY=              9.7752   ZZ=              4.0063
   XY=            -14.0192   XZ=             -1.9207   YZ=             -0.6947
 Octapole moment (field-independent basis, Debye-Ang**2):
  XXX=           -131.4992  YYY=             69.0995  ZZZ=              0.4617  XYY=             36.9095
  XXY=             28.1268  XXZ=             -4.2336  XZZ=             -1.0241  YZZ=             -0.7386
  YYZ=              1.2670  XYZ=              1.5558
 Hexadecapole moment (field-independent basis, Debye-Ang**3):
 XXXX=          -3228.4886 YYYY=          -1283.4988 ZZZZ=           -126.8656 XXXY=            -53.5037
 XXXZ=            -22.3399 YYYX=            -94.0058 YYYZ=             -9.0363 ZZZX=              0.7840
 ZZZY=              1.7301 XXYY=           -698.7593 XXZZ=           -486.9034 YYZZ=           -234.2616
 XXYZ=             -2.8357 YYXZ=             -3.7731 ZZXY=             -3.8939
 N-N= 8.977786508719D+02 E-N=-3.271359210878D+03  KE= 6.305554848170D+02
 No NMR shielding tensors so no spin-rotation constants.
 Leave Link  601 at Sat Jan 24 23:18:14 2026, MaxMem=  2147483648 cpu:               1.8 elap:               0.1
 (Enter /data/home/wyx/g16/l9999.exe)
 1\1\GINC-CN015\SP\RCAM-B3LYP\TZVP\C11H15N1O2\WYX\24-Jan-2026\0\\#p CAM
 -B3LYP TZVP em=gd3bj scrf=(Solvent=Water,NonEquilibrium=Read) Geom=Che
 ck Guess=Read\\Title Card Required\\0,1\O,0,2.766599,-1.550992,0.66563
 9\O,0,-3.387385,-1.658741,-0.712197\N,0,-0.654178,1.525183,-0.094329\H
 ,0,-0.96563,2.47844,-0.182473\C,0,-1.236912,-0.77698,-0.174805\C,0,0.6
 6848,1.317689,0.138944\C,0,-1.607223,0.534477,-0.29697\C,0,-2.145188,-
 1.833778,-0.375696\C,0,0.180041,-1.133566,0.214196\H,0,0.185317,-1.635
 938,1.186998\H,0,0.583039,-1.868097,-0.485539\C,0,1.133601,0.04126,0.2
 62403\C,0,2.511494,-0.357793,0.481362\C,0,-2.954537,1.068516,-0.626412
 \H,0,-3.337738,1.708069,0.174446\H,0,-2.935489,1.662358,-1.544638\H,0,
 -3.684434,0.272304,-0.775326\C,0,-1.833914,-3.296885,-0.214604\H,0,-2.
 509524,-3.769833,0.501758\H,0,-1.945584,-3.82404,-1.16548\H,0,-0.81506
 ,-3.433568,0.135954\C,0,3.672851,0.60858,0.477694\H,0,3.652059,1.28967
 4,-0.369494\H,0,3.68489,1.20716,1.389248\H,0,4.587799,0.022296,0.44318
 5\C,0,1.450273,2.595909,0.223067\H,0,2.117078,2.612238,1.078673\H,0,2.
 046566,2.753478,-0.675211\H,0,0.772707,3.44258,0.319608\\Version=ES64L
 -G16RevA.03\State=1-A\HF=-633.315995\RMSD=9.137e-09\Dipole=0.7798375,3
 .5905851,0.0778245\Quadrupole=-13.7483263,11.9590376,1.7892887,2.00549
 14,-4.7581557,0.0385568\PG=C01 [X(C11H15N1O2)]\\@


 Make no judgements where you have no compassion.
                               -- Anne McCaffrey
 Job cpu time:       0 days  0 hours 12 minutes 48.7 seconds.
 Elapsed time:       0 days  0 hours  0 minutes 48.9 seconds.
 File lengths (MBytes):  RWF=    343 Int=      0 D2E=      0 Chk=     67 Scr=      1
 Normal termination of Gaussian 16 at Sat Jan 24 23:18:14 2026.
