 Entering Gaussian System, Link 0=g16
 Input=DDL-S2-cLR-gs-7.gjf
 Output=DDL-S2-cLR-gs-7.log
 Initial command:
 /data/home/wyx/g16/l1.exe "/scr/tmp/wyx/13119/Gau-1529326.inp" -scrdir="/scr/tmp/wyx/13119/"
 Entering Link 1 = /data/home/wyx/g16/l1.exe PID=   1529327.
  
 Copyright (c) 1988,1990,1992,1993,1995,1998,2003,2009,2016,
            Gaussian, Inc.  All Rights Reserved.
  
 This is part of the Gaussian(R) 16 program.  It is based on
 the Gaussian(R) 09 system (copyright 2009, Gaussian, Inc.),
 the Gaussian(R) 03 system (copyright 2003, Gaussian, Inc.),
 the Gaussian(R) 98 system (copyright 1998, Gaussian, Inc.),
 the Gaussian(R) 94 system (copyright 1995, Gaussian, Inc.),
 the Gaussian 92(TM) system (copyright 1992, Gaussian, Inc.),
 the Gaussian 90(TM) system (copyright 1990, Gaussian, Inc.),
 the Gaussian 88(TM) system (copyright 1988, Gaussian, Inc.),
 the Gaussian 86(TM) system (copyright 1986, Carnegie Mellon
 University), and the Gaussian 82(TM) system (copyright 1983,
 Carnegie Mellon University). Gaussian is a federally registered
 trademark of Gaussian, Inc.
  
 This software contains proprietary and confidential information,
 including trade secrets, belonging to Gaussian, Inc.
  
 This software is provided under written license and may be
 used, copied, transmitted, or stored only in accord with that
 written license.
  
 The following legend is applicable only to US Government
 contracts under FAR:
  
                    RESTRICTED RIGHTS LEGEND
  
 Use, reproduction and disclosure by the US Government is
 subject to restrictions as set forth in subparagraphs (a)
 and (c) of the Commercial Computer Software - Restricted
 Rights clause in FAR 52.227-19.
  
 Gaussian, Inc.
 340 Quinnipiac St., Bldg. 40, Wallingford CT 06492
  
  
 ---------------------------------------------------------------
 Warning -- This program may not be used in any manner that
 competes with the business of Gaussian, Inc. or will provide
 assistance to any competitor of Gaussian, Inc.  The licensee
 of this program is prohibited from giving any competitor of
 Gaussian, Inc. access to this program.  By using this program,
 the user acknowledges that Gaussian, Inc. is engaged in the
 business of creating and licensing software in the field of
 computational chemistry and represents and warrants to the
 licensee that it is not a competitor of Gaussian, Inc. and that
 it will not use this program in any manner prohibited above.
 ---------------------------------------------------------------
  

 Cite this work as:
 Gaussian 16, Revision A.03,
 M. J. Frisch, G. W. Trucks, H. B. Schlegel, G. E. Scuseria, 
 M. A. Robb, J. R. Cheeseman, G. Scalmani, V. Barone, 
 G. A. Petersson, H. Nakatsuji, X. Li, M. Caricato, A. V. Marenich, 
 J. Bloino, B. G. Janesko, R. Gomperts, B. Mennucci, H. P. Hratchian, 
 J. V. Ortiz, A. F. Izmaylov, J. L. Sonnenberg, D. Williams-Young, 
 F. Ding, F. Lipparini, F. Egidi, J. Goings, B. Peng, A. Petrone, 
 T. Henderson, D. Ranasinghe, V. G. Zakrzewski, J. Gao, N. Rega, 
 G. Zheng, W. Liang, M. Hada, M. Ehara, K. Toyota, R. Fukuda, 
 J. Hasegawa, M. Ishida, T. Nakajima, Y. Honda, O. Kitao, H. Nakai, 
 T. Vreven, K. Throssell, J. A. Montgomery, Jr., J. E. Peralta, 
 F. Ogliaro, M. J. Bearpark, J. J. Heyd, E. N. Brothers, K. N. Kudin, 
 V. N. Staroverov, T. A. Keith, R. Kobayashi, J. Normand, 
 K. Raghavachari, A. P. Rendell, J. C. Burant, S. S. Iyengar, 
 J. Tomasi, M. Cossi, J. M. Millam, M. Klene, C. Adamo, R. Cammi, 
 J. W. Ochterski, R. L. Martin, K. Morokuma, O. Farkas, 
 J. B. Foresman, and D. J. Fox, Gaussian, Inc., Wallingford CT, 2016.
 
 ******************************************
 Gaussian 16:  ES64L-G16RevA.03 25-Dec-2016
                24-Jan-2026 
 ******************************************
 %nprocshared=16
 Will use up to   16 processors via shared memory.
 %mem=16GB
 %oldchk=DDL-S2-cLR-7.chk
 %chk=DDL-S2-cLR-gs-7.chk
 Copying data from "DDL-S2-cLR-7.chk" to current chk file "DDL-S2-cLR-gs-7.chk"
 IOpt=  2 FromEx=T IUOpen= 4 IOptOp= 5 NList=   0 IFRang= 0 IUIn= 4 IUOut= 2.
 ----------------------------------------------------------------------
 #p CAM-B3LYP TZVP em=gd3bj scrf=(Solvent=Water,NonEquilibrium=Read) Ge
 om=Check Guess=Read
 ----------------------------------------------------------------------
 1/29=2,38=1,172=1/1;
 2/12=2,40=1/2;
 3/5=19,7=101,11=2,14=-4,25=1,30=1,70=6002201,72=1,74=-40,116=-2,124=41/1,2,3;
 4/5=1/1;
 5/5=2,38=6,53=1/2;
 6/7=2,8=2,9=2,10=2,28=1/1;
 99/5=1,9=1/99;
 Leave Link    1 at Sat Jan 24 23:29:29 2026, MaxMem=  2147483648 cpu:               0.9 elap:               0.1
 (Enter /data/home/wyx/g16/l101.exe)
 -------------------
 Title Card Required
 -------------------
 Structure from the checkpoint file:  "DDL-S2-cLR-gs-7.chk"
 Charge =  0 Multiplicity = 1
 Z-Matrix found in chk file.
 O,0,2.759204,-1.556238,0.693894
 O,0,-3.329061,-1.660395,-0.891358
 N,0,-0.675348,1.522963,0.000492
 H,0,-0.983596,2.478196,-0.077036
 C,0,-1.23986,-0.766191,-0.165184
 C,0,0.658426,1.310621,0.200387
 C,0,-1.609189,0.538242,-0.266212
 C,0,-2.151603,-1.82525,-0.449251
 C,0,0.147883,-1.121674,0.310466
 H,0,0.104742,-1.542112,1.321957
 H,0,0.563745,-1.911874,-0.314602
 C,0,1.117886,0.036923,0.303914
 C,0,2.50381,-0.372231,0.471389
 C,0,-2.942991,1.071367,-0.641906
 H,0,-3.232976,1.914031,-0.008325
 H,0,-2.960894,1.419374,-1.677474
 H,0,-3.746286,0.342259,-0.556836
 C,0,-1.800272,-3.264538,-0.227351
 H,0,-2.630443,-3.863002,0.151442
 H,0,-1.481145,-3.734757,-1.16251
 H,0,-0.981368,-3.407799,0.475632
 C,0,3.666362,0.582304,0.35587
 H,0,3.573701,1.268212,-0.482107
 H,0,3.771379,1.173848,1.266314
 H,0,4.566313,-0.015794,0.235657
 C,0,1.437576,2.588692,0.272125
 H,0,2.1827,2.574766,1.059455
 H,0,1.941657,2.795086,-0.672273
 H,0,0.76965,3.424972,0.47343
 Recover connectivity data from disk.
 ITRead=  0  0  0  0  0  0  0  0  0  0  0  0  0  0  0  0  0  0  0  0
 ITRead=  0  0  0  0  0  0  0  0  0
 MicOpt= -1 -1 -1 -1 -1 -1 -1 -1 -1 -1 -1 -1 -1 -1 -1 -1 -1 -1 -1 -1
 MicOpt= -1 -1 -1 -1 -1 -1 -1 -1 -1
 NAtoms=     29 NQM=       29 NQMF=       0 NMMI=      0 NMMIF=      0
                NMic=       0 NMicF=      0.
                    Isotopes and Nuclear Properties:
 (Nuclear quadrupole moments (NQMom) in fm**2, nuclear magnetic moments (NMagM)
  in nuclear magnetons)

  Atom         1           2           3           4           5           6           7           8           9          10
 IAtWgt=          16          16          14           1          12          12          12          12          12           1
 AtmWgt=  15.9949146  15.9949146  14.0030740   1.0078250  12.0000000  12.0000000  12.0000000  12.0000000  12.0000000   1.0078250
 NucSpn=           0           0           2           1           0           0           0           0           0           1
 AtZEff=   5.6000000   5.6000000   4.5500000   1.0000000   3.6000000   3.6000000   3.6000000   3.6000000   3.6000000   1.0000000
 NQMom=    0.0000000   0.0000000   2.0440000   0.0000000   0.0000000   0.0000000   0.0000000   0.0000000   0.0000000   0.0000000
 NMagM=    0.0000000   0.0000000   0.4037610   2.7928460   0.0000000   0.0000000   0.0000000   0.0000000   0.0000000   2.7928460
 AtZNuc=   8.0000000   8.0000000   7.0000000   1.0000000   6.0000000   6.0000000   6.0000000   6.0000000   6.0000000   1.0000000

  Atom        11          12          13          14          15          16          17          18          19          20
 IAtWgt=           1          12          12          12           1           1           1          12           1           1
 AtmWgt=   1.0078250  12.0000000  12.0000000  12.0000000   1.0078250   1.0078250   1.0078250  12.0000000   1.0078250   1.0078250
 NucSpn=           1           0           0           0           1           1           1           0           1           1
 AtZEff=   1.0000000   3.6000000   3.6000000   3.6000000   1.0000000   1.0000000   1.0000000   3.6000000   1.0000000   1.0000000
 NQMom=    0.0000000   0.0000000   0.0000000   0.0000000   0.0000000   0.0000000   0.0000000   0.0000000   0.0000000   0.0000000
 NMagM=    2.7928460   0.0000000   0.0000000   0.0000000   2.7928460   2.7928460   2.7928460   0.0000000   2.7928460   2.7928460
 AtZNuc=   1.0000000   6.0000000   6.0000000   6.0000000   1.0000000   1.0000000   1.0000000   6.0000000   1.0000000   1.0000000

  Atom        21          22          23          24          25          26          27          28          29
 IAtWgt=           1          12           1           1           1          12           1           1           1
 AtmWgt=   1.0078250  12.0000000   1.0078250   1.0078250   1.0078250  12.0000000   1.0078250   1.0078250   1.0078250
 NucSpn=           1           0           1           1           1           0           1           1           1
 AtZEff=   1.0000000   3.6000000   1.0000000   1.0000000   1.0000000   3.6000000   1.0000000   1.0000000   1.0000000
 NQMom=    0.0000000   0.0000000   0.0000000   0.0000000   0.0000000   0.0000000   0.0000000   0.0000000   0.0000000
 NMagM=    2.7928460   0.0000000   2.7928460   2.7928460   2.7928460   0.0000000   2.7928460   2.7928460   2.7928460
 AtZNuc=   1.0000000   6.0000000   1.0000000   1.0000000   1.0000000   6.0000000   1.0000000   1.0000000   1.0000000
 Leave Link  101 at Sat Jan 24 23:29:32 2026, MaxMem=  2147483648 cpu:               0.9 elap:               0.1
 (Enter /data/home/wyx/g16/l202.exe)
                          Input orientation:                          
 ---------------------------------------------------------------------
 Center     Atomic      Atomic             Coordinates (Angstroms)
 Number     Number       Type             X           Y           Z
 ---------------------------------------------------------------------
      1          8           0        2.759204   -1.556238    0.693894
      2          8           0       -3.329061   -1.660395   -0.891358
      3          7           0       -0.675348    1.522963    0.000492
      4          1           0       -0.983596    2.478196   -0.077036
      5          6           0       -1.239860   -0.766191   -0.165184
      6          6           0        0.658426    1.310621    0.200387
      7          6           0       -1.609189    0.538242   -0.266212
      8          6           0       -2.151603   -1.825250   -0.449251
      9          6           0        0.147883   -1.121674    0.310466
     10          1           0        0.104742   -1.542112    1.321957
     11          1           0        0.563745   -1.911874   -0.314602
     12          6           0        1.117886    0.036923    0.303914
     13          6           0        2.503810   -0.372231    0.471389
     14          6           0       -2.942991    1.071367   -0.641906
     15          1           0       -3.232976    1.914031   -0.008325
     16          1           0       -2.960894    1.419374   -1.677474
     17          1           0       -3.746286    0.342259   -0.556836
     18          6           0       -1.800272   -3.264538   -0.227351
     19          1           0       -2.630443   -3.863002    0.151442
     20          1           0       -1.481145   -3.734757   -1.162510
     21          1           0       -0.981368   -3.407799    0.475632
     22          6           0        3.666362    0.582304    0.355870
     23          1           0        3.573701    1.268212   -0.482107
     24          1           0        3.771379    1.173848    1.266314
     25          1           0        4.566313   -0.015794    0.235657
     26          6           0        1.437576    2.588692    0.272125
     27          1           0        2.182700    2.574766    1.059455
     28          1           0        1.941657    2.795086   -0.672273
     29          1           0        0.769650    3.424972    0.473430
 ---------------------------------------------------------------------
                    Distance matrix (angstroms):
                    1          2          3          4          5
     1  O    0.000000
     2  O    6.292125   0.000000
     3  N    4.664594   4.239264   0.000000
     4  H    5.556936   4.826206   1.006726   0.000000
     5  C    4.165898   2.385726   2.363546   3.255686   0.000000
     6  C    3.588272   5.091060   1.365284   2.033822   2.837302
     7  C    4.938776   2.860554   1.383064   2.047090   1.359469
     8  C    5.049275   1.268481   3.686750   4.474643   1.426035
     9  C    2.674857   3.718029   2.787095   3.793345   1.509451
    10  H    2.727789   4.087023   3.427754   4.393693   2.149790
    11  H    2.442045   3.943327   3.665070   4.660839   2.141940
    12  C    2.320382   4.907637   2.348631   3.243634   2.534563
    13  C    1.231506   6.126894   3.731025   4.537368   3.817787
    14  C    6.419011   2.770162   2.399754   2.477393   2.550400
    15  H    6.960036   3.683137   2.587368   2.320068   3.343756
    16  H    6.870020   3.199766   2.837256   2.755397   3.166334
    17  H    6.891300   2.072825   3.336965   3.524896   2.768433
    18  C    4.955381   2.313304   4.923163   5.802461   2.561184
    19  H    5.887589   2.535148   5.731824   6.555540   3.409430
    20  H    5.115930   2.791289   5.444768   6.326657   3.140901
    21  H    4.179449   3.230131   4.963045   5.911885   2.730486
    22  C    2.347458   7.451256   4.456633   5.040230   5.114778
    23  H    3.166055   7.509484   4.283949   4.732557   5.235418
    24  H    2.967412   7.943849   4.636547   5.110352   5.561066
    25  H    2.418386   8.143206   5.467914   6.092557   5.868170
    26  C    4.370931   6.490706   2.382018   2.448713   4.314527
    27  H    4.187026   7.219541   3.224303   3.365467   4.937170
    28  H    4.633445   6.905054   2.986574   3.001971   4.802279
    29  H    5.368369   6.672558   2.435021   2.067189   4.691674
                    6          7          8          9         10
     6  C    0.000000
     7  C    2.440566   0.000000
     8  C    4.260514   2.431833   0.000000
     9  C    2.487736   2.484991   2.521869   0.000000
    10  H    3.114895   3.128532   2.882436   1.096241   0.000000
    11  H    3.264759   3.275218   2.720064   1.089985   1.739463
    12  C    1.357987   2.830778   3.837252   1.511058   2.134531
    13  C    2.512146   4.276655   4.963035   2.477489   2.801359
    14  C    3.706333   1.484721   3.008953   3.907677   4.469419
    15  H    3.943434   2.143825   3.917398   4.554925   4.985473
    16  H    4.078930   2.143633   3.562453   4.480326   5.212016
    17  H    4.573030   2.165654   2.693081   4.249690   4.680933
    18  C    5.211548   3.807776   1.498073   2.945577   2.999364
    19  H    6.130696   4.537438   2.177740   3.906311   3.773311
    20  H    5.647220   4.367867   2.145803   3.413443   3.673596
    21  H    5.002816   4.063955   2.174700   2.555162   2.318769
    22  C    3.098758   5.312284   6.347697   3.909642   4.258122
    23  H    2.994399   5.238494   6.507664   4.251583   4.815210
    24  H    3.293233   5.630554   6.857074   4.394632   4.563306
    25  H    4.127009   6.220583   6.990967   4.555336   4.838937
    26  C    1.498561   3.711729   5.734586   3.928307   4.465662
    27  H    2.158581   4.503692   6.357870   4.285456   4.619037
    28  H    2.147523   4.226906   6.176732   4.418643   5.114929
    29  H    2.134808   3.813024   6.078642   4.591856   5.082718
                   11         12         13         14         15
    11  H    0.000000
    12  C    2.118359   0.000000
    13  C    2.598487   1.454730   0.000000
    14  C    4.615631   4.295972   5.743783   0.000000
    15  H    5.398745   4.748792   6.194177   1.093434   0.000000
    16  H    5.037630   4.740624   6.139255   1.092625   1.762036
    17  H    4.869924   4.949171   6.374280   1.088172   1.742073
    18  C    2.725048   4.438190   5.232475   4.503081   5.377564
    19  H    3.771861   5.411343   6.216784   5.007503   5.810566
    20  H    2.867652   4.809463   5.464071   5.050431   6.025766
    21  H    2.291208   4.037631   4.621813   5.015953   5.798778
    22  C    4.036916   2.606697   1.508645   6.702111   7.036121
    23  H    4.381876   2.857434   2.178273   6.521622   6.853642
    24  H    4.723335   3.042998   2.151510   6.981015   7.157763
    25  H    4.463010   3.449505   2.106309   7.638173   8.038200
    26  C    4.622004   2.571913   3.153352   4.725156   4.727354
    27  H    4.963767   2.854000   3.022205   5.606028   5.559341
    28  H    4.917524   3.039573   3.414070   5.179953   5.290927
    29  H    5.398640   3.410114   4.174454   4.535100   4.305351
                   16         17         18         19         20
    16  H    0.000000
    17  H    1.741507   0.000000
    18  C    5.038743   4.111510   0.000000
    19  H    5.599788   4.408059   1.091250   0.000000
    20  H    5.387013   4.703165   1.094290   1.750372   0.000000
    21  H    5.644111   4.772179   1.088721   1.741194   1.743613
    22  C    6.982528   7.472483   6.709875   7.710531   6.887621
    23  H    6.644749   7.378698   7.034935   8.076023   7.144516
    24  H    7.351848   7.780148   7.278297   8.221686   7.588320
    25  H    7.898014   8.357963   7.162550   8.160968   7.235835
    26  C    4.951240   5.710172   6.707715   7.628086   7.110775
    27  H    5.939888   6.538299   7.184526   8.089233   7.626990
    28  H    5.190185   6.195352   7.135757   8.118666   7.388826
    29  H    4.750344   5.564013   7.200357   8.048532   7.681412
                   21         22         23         24         25
    21  H    0.000000
    22  C    6.126717   0.000000
    23  H    6.597802   1.086858   0.000000
    24  H    6.648704   1.090808   1.762089   0.000000
    25  H    6.506923   1.087237   1.774580   1.763355   0.000000
    26  C    6.469205   3.000016   2.622130   2.904622   4.071078
    27  H    6.792883   2.581897   2.453239   2.128206   3.615419
    28  H    6.952521   2.987991   2.243006   3.120002   3.951481
    29  H    7.053568   4.060237   3.664337   3.834919   5.129333
                   26         27         28         29
    26  C    0.000000
    27  H    1.084109   0.000000
    28  H    1.090222   1.762250   0.000000
    29  H    1.089042   1.750139   1.755845   0.000000
 Stoichiometry    C11H15NO2
 Framework group  C1[X(C11H15NO2)]
 Deg. of freedom    81
 Full point group                 C1      NOp   1
 RotChk:  IX=0 Diff= 1.65D-15
 Largest Abelian subgroup         C1      NOp   1
 Largest concise Abelian subgroup C1      NOp   1
                         Standard orientation:                         
 ---------------------------------------------------------------------
 Center     Atomic      Atomic             Coordinates (Angstroms)
 Number     Number       Type             X           Y           Z
 ---------------------------------------------------------------------
      1          8           0       -2.267808   -2.304377   -0.115807
      2          8           0        3.652061   -0.210089    0.284135
      3          7           0       -0.053924    1.801194   -0.153785
      4          1           0       -0.088705    2.807315   -0.156551
      5          6           0        1.290913   -0.139685   -0.050102
      6          6           0       -1.243797    1.134594   -0.091757
      7          6           0        1.195019    1.216397   -0.048815
      8          6           0        2.548311   -0.800137    0.077687
      9          6           0        0.053870   -0.982308   -0.245434
     10          1           0        0.066721   -1.448489   -1.237529
     11          1           0        0.052317   -1.809886    0.463917
     12          6           0       -1.242105   -0.223332   -0.079001
     13          6           0       -2.406056   -1.089246    0.028934
     14          6           0        2.303450    2.198750    0.054910
     15          1           0        2.169264    3.032265   -0.639961
     16          1           0        2.376182    2.619717    1.060557
     17          1           0        3.282947    1.779325   -0.165968
     18          6           0        2.687005   -2.286902   -0.042806
     19          1           0        3.595567   -2.599957   -0.559854
     20          1           0        2.716422   -2.755314    0.945726
     21          1           0        1.861615   -2.757970   -0.573974
     22          6           0       -3.789910   -0.577237    0.343269
     23          1           0       -3.799597    0.168778    1.133604
     24          1           0       -4.248275   -0.136225   -0.542886
     25          1           0       -4.390928   -1.431488    0.645123
     26          6           0       -2.418790    2.063305   -0.041003
     27          1           0       -3.235584    1.731158   -0.671731
     28          1           0       -2.793592    2.167439    0.977458
     29          1           0       -2.128370    3.055507   -0.383353
 ---------------------------------------------------------------------
 Rotational constants (GHZ):           1.0964598           0.4841977           0.3417039
 Leave Link  202 at Sat Jan 24 23:29:32 2026, MaxMem=  2147483648 cpu:               0.0 elap:               0.0
 (Enter /data/home/wyx/g16/l301.exe)
 Standard basis: TZVP (5D, 7F)
 Ernie: Thresh=  0.10000D-02 Tol=  0.10000D-05 Strict=F.
 There are   370 symmetry adapted cartesian basis functions of A   symmetry.
 There are   356 symmetry adapted basis functions of A   symmetry.
   356 basis functions,   610 primitive gaussians,   370 cartesian basis functions
    52 alpha electrons       52 beta electrons
       nuclear repulsion energy       899.4815651246 Hartrees.
 IExCor=20419 DFT=T Ex+Corr=CAM-B3LYP ExCW=0 ScaHFX=  1.000000
 ScaDFX=  1.000000  1.000000  1.000000  0.810000 ScalE2=  1.000000  1.000000
 IRadAn=      5 IRanWt=     -1 IRanGd=            0 ICorTp=0 IEmpDi=141
 HFx  wShort=  0.000000 wLong=  0.330000 cFull=  0.190000 cShort=  0.000000 cLong=  0.460000
 DFx  wShort=  0.000000 wLong=  0.330000 cFull=  0.190000 cShort=  0.000000 cLong=  0.460000
 NAtoms=   29 NActive=   29 NUniq=   29 SFac= 1.00D+00 NAtFMM=   60 NAOKFM=F Big=F
 Integral buffers will be    131072 words long.
 Raffenetti 2 integral format.
 Two-electron integral symmetry is turned on.
 R6Disp:  Grimme-D3(BJ) Dispersion energy=       -0.0261145381 Hartrees.
 Nuclear repulsion after empirical dispersion term =      899.4554505865 Hartrees.
 ------------------------------------------------------------------------------
 Polarizable Continuum Model (PCM)
 =================================
 Model                : PCM.
 Atomic radii         : UFF (Universal Force Field).
 Polarization charges : Total charges.
 Charge compensation  : None.
 Solution method      : On-the-fly selection.
 Cavity type          : Scaled VdW (van der Waals Surface) (Alpha=1.100).
 Cavity algorithm     : GePol (No added spheres)
                        Default sphere list used, NSphG=   29.
                        Lebedev-Laikov grids with approx.  5.0 points / Ang**2.
                        Smoothing algorithm: York/Karplus (Gamma=1.0000).
                        Polarization charges: spherical gaussians, with
                                              point-specific exponents (IZeta= 3).
                        Self-potential: point-specific (ISelfS= 7).
                        Self-field    : sphere-specific E.n sum rule (ISelfD= 2).
 Solvent              : Water, Eps=  78.355300 Eps(inf)=   1.777849
 ------------------------------------------------------------------------------
 GePol: Number of generator spheres                  =      29
 GePol: Total number of spheres                      =      29
 GePol: Number of exposed spheres                    =      29 (100.00%)
 GePol: Number of points                             =    2113
 GePol: Average weight of points                     =       0.13
 GePol: Minimum weight of points                     =   0.46D-09
 GePol: Maximum weight of points                     =    0.20577
 GePol: Number of points with low weight             =     138
 GePol: Fraction of low-weight points (<1% of avg)   =       6.53%
 GePol: Cavity surface area                          =    269.025 Ang**2
 GePol: Cavity volume                                =    286.519 Ang**3
 Leave Link  301 at Sat Jan 24 23:29:33 2026, MaxMem=  2147483648 cpu:               0.6 elap:               0.0
 (Enter /data/home/wyx/g16/l302.exe)
 NPDir=0 NMtPBC=     1 NCelOv=     1 NCel=       1 NClECP=     1 NCelD=      1
         NCelK=      1 NCelE2=     1 NClLst=     1 CellRange=     0.0.
 One-electron integrals computed using PRISM.
 One-electron integral symmetry used in STVInt
 NBasis=   356 RedAO= T EigKep=  4.09D-05  NBF=   356
 NBsUse=   356 1.00D-06 EigRej= -1.00D+00 NBFU=   356
 Precomputing XC quadrature grid using
 IXCGrd= 4 IRadAn=           5 IRanWt=          -1 IRanGd=           0 AccXCQ= 0.00D+00.
 Generated NRdTot=       0 NPtTot=           0 NUsed=           0 NTot=          32
 NSgBfM=   366   366   366   366   366 MxSgAt=    29 MxSgA2=    29.
 Leave Link  302 at Sat Jan 24 23:29:33 2026, MaxMem=  2147483648 cpu:               3.1 elap:               0.2
 (Enter /data/home/wyx/g16/l303.exe)
 DipDrv:  MaxL=1.
 Leave Link  303 at Sat Jan 24 23:29:33 2026, MaxMem=  2147483648 cpu:               0.6 elap:               0.0
 (Enter /data/home/wyx/g16/l401.exe)
 Initial guess from the checkpoint file:  "DDL-S2-cLR-gs-7.chk"
 B after Tr=    -0.000000    0.000000    0.000000
         Rot=    1.000000    0.000000    0.000000    0.000000 Ang=   0.00 deg.
 Guess basis will be translated and rotated to current coordinates.
 JPrj=2 DoOrth=T DoCkMO=T.
 Leave Link  401 at Sat Jan 24 23:29:33 2026, MaxMem=  2147483648 cpu:               2.2 elap:               0.2
 (Enter /data/home/wyx/g16/l502.exe)
 Integral symmetry usage will be decided dynamically.
 Closed shell SCF:
 Using DIIS extrapolation, IDIIS=  1040.
 NGot=  2147483648 LenX=  2147200095 LenY=  2147062754
 Requested convergence on RMS density matrix=1.00D-08 within 128 cycles.
 Requested convergence on MAX density matrix=1.00D-06.
 Requested convergence on             energy=1.00D-06.
 No special actions if energy rises.
 Fock matrices will be formed incrementally for  20 cycles.

 Cycle   1  Pass 1  IDiag  1:
 FoFJK:  IHMeth= 1 ICntrl=       0 DoSepK=T KAlg= 0 I1Cent=           0 FoldK=F
 IRaf=         1 NMat=       1 IRICut=       1 DoRegI=T DoRafI=F ISym2E= 0 IDoP0=0 IntGTp=1.
 FoFCou: FMM=F IPFlag=           0 FMFlag=      100000 FMFlg1=           0
         NFxFlg=           0 DoJE=T BraDBF=F KetDBF=F FulRan=T
         wScrn=  0.000000 ICntrl=       500 IOpCl=  0 I1Cent=           0 NGrid=           0
         NMat0=    1 NMatS0=      1 NMatT0=    0 NMatD0=    1 NMtDS0=    0 NMtDT0=    0
 Symmetry not used in FoFCou.
 Inv3:  Mode=1 IEnd=    13394307.
 Iteration    1 A*A^-1 deviation from unit magnitude is 3.22D-15 for    149.
 Iteration    1 A*A^-1 deviation from orthogonality  is 2.63D-15 for   1400    863.
 Iteration    1 A^-1*A deviation from unit magnitude is 3.00D-15 for    149.
 Iteration    1 A^-1*A deviation from orthogonality  is 2.95D-14 for   1394   1347.
 NEqPCM:  Using non-equilibrium solvation (IEInf=1, Eps=  78.3553, EpsInf=   1.7778)
 Inv3:  Mode=1 IEnd=    13394307.
 Iteration    1 A*A^-1 deviation from unit magnitude is 3.11D-15 for   1777.
 Iteration    1 A*A^-1 deviation from orthogonality  is 1.92D-15 for   1910    315.
 Iteration    1 A^-1*A deviation from unit magnitude is 2.89D-15 for    337.
 Iteration    1 A^-1*A deviation from orthogonality  is 1.40D-15 for   1813    252.
 E= -633.321429808334    
 DIIS: error= 8.54D-04 at cycle   1 NSaved=   1.
 NSaved= 1 IEnMin= 1 EnMin= -633.321429808334     IErMin= 1 ErrMin= 8.54D-04
 ErrMax= 8.54D-04  0.00D+00 EMaxC= 1.00D-01 BMatC= 1.35D-04 BMatP= 1.35D-04
 IDIUse=3 WtCom= 9.91D-01 WtEn= 8.54D-03
 Coeff-Com:  0.100D+01
 Coeff-En:   0.100D+01
 Coeff:      0.100D+01
 Gap=     0.234 Goal=   None    Shift=    0.000
 RMSDP=4.48D-04 MaxDP=3.51D-02              OVMax= 1.35D-02

 Cycle   2  Pass 1  IDiag  1:
 RMSU=  4.41D-04    CP:  1.01D+00
 E= -633.321652747323     Delta-E=       -0.000222938989 Rises=F Damp=F
 DIIS: error= 5.85D-04 at cycle   2 NSaved=   2.
 NSaved= 2 IEnMin= 2 EnMin= -633.321652747323     IErMin= 2 ErrMin= 5.85D-04
 ErrMax= 5.85D-04  0.00D+00 EMaxC= 1.00D-01 BMatC= 1.57D-04 BMatP= 1.35D-04
 IDIUse=3 WtCom= 2.92D-01 WtEn= 7.08D-01
 Coeff-Com:  0.527D+00 0.473D+00
 Coeff-En:   0.000D+00 0.100D+01
 Coeff:      0.154D+00 0.846D+00
 Gap=     0.232 Goal=   None    Shift=    0.000
 RMSDP=2.74D-04 MaxDP=1.77D-02 DE=-2.23D-04 OVMax= 5.68D-03

 Cycle   3  Pass 1  IDiag  1:
 RMSU=  2.43D-04    CP:  9.97D-01  8.57D-01
 E= -633.321607154342     Delta-E=        0.000045592981 Rises=F Damp=F
 DIIS: error= 8.18D-04 at cycle   3 NSaved=   3.
 NSaved= 3 IEnMin= 2 EnMin= -633.321652747323     IErMin= 2 ErrMin= 5.85D-04
 ErrMax= 8.18D-04  0.00D+00 EMaxC= 1.00D-01 BMatC= 2.48D-04 BMatP= 1.35D-04
 IDIUse=3 WtCom= 2.59D-01 WtEn= 7.41D-01
 Coeff-Com:  0.782D-01 0.527D+00 0.395D+00
 Coeff-En:   0.000D+00 0.563D+00 0.437D+00
 Coeff:      0.203D-01 0.553D+00 0.426D+00
 Gap=     0.233 Goal=   None    Shift=    0.000
 RMSDP=8.82D-05 MaxDP=6.66D-03 DE= 4.56D-05 OVMax= 3.65D-03

 Cycle   4  Pass 1  IDiag  1:
 RMSU=  2.96D-05    CP:  1.00D+00  9.24D-01  7.25D-01
 E= -633.321788319669     Delta-E=       -0.000181165327 Rises=F Damp=F
 DIIS: error= 9.84D-05 at cycle   4 NSaved=   4.
 NSaved= 4 IEnMin= 4 EnMin= -633.321788319669     IErMin= 4 ErrMin= 9.84D-05
 ErrMax= 9.84D-05  0.00D+00 EMaxC= 1.00D-01 BMatC= 1.32D-06 BMatP= 1.35D-04
 IDIUse=1 WtCom= 1.00D+00 WtEn= 0.00D+00
 Coeff-Com: -0.107D-01 0.145D+00 0.128D+00 0.738D+00
 Coeff:     -0.107D-01 0.145D+00 0.128D+00 0.738D+00
 Gap=     0.233 Goal=   None    Shift=    0.000
 RMSDP=2.07D-05 MaxDP=1.24D-03 DE=-1.81D-04 OVMax= 1.12D-03

 Cycle   5  Pass 1  IDiag  1:
 RMSU=  1.31D-05    CP:  1.00D+00  9.29D-01  7.85D-01  1.04D+00
 E= -633.321790208521     Delta-E=       -0.000001888851 Rises=F Damp=F
 DIIS: error= 3.02D-05 at cycle   5 NSaved=   5.
 NSaved= 5 IEnMin= 5 EnMin= -633.321790208521     IErMin= 5 ErrMin= 3.02D-05
 ErrMax= 3.02D-05  0.00D+00 EMaxC= 1.00D-01 BMatC= 4.03D-07 BMatP= 1.32D-06
 IDIUse=1 WtCom= 1.00D+00 WtEn= 0.00D+00
 Coeff-Com: -0.137D-01-0.149D-01 0.118D-02 0.343D+00 0.684D+00
 Coeff:     -0.137D-01-0.149D-01 0.118D-02 0.343D+00 0.684D+00
 Gap=     0.233 Goal=   None    Shift=    0.000
 RMSDP=1.06D-05 MaxDP=5.23D-04 DE=-1.89D-06 OVMax= 4.58D-04

 Cycle   6  Pass 1  IDiag  1:
 RMSU=  3.92D-06    CP:  1.00D+00  9.25D-01  8.19D-01  1.19D+00  1.09D+00
 E= -633.321790840356     Delta-E=       -0.000000631836 Rises=F Damp=F
 DIIS: error= 2.41D-05 at cycle   6 NSaved=   6.
 NSaved= 6 IEnMin= 6 EnMin= -633.321790840356     IErMin= 6 ErrMin= 2.41D-05
 ErrMax= 2.41D-05  0.00D+00 EMaxC= 1.00D-01 BMatC= 4.64D-08 BMatP= 4.03D-07
 IDIUse=1 WtCom= 1.00D+00 WtEn= 0.00D+00
 Coeff-Com: -0.134D-02-0.276D-01-0.149D-01 0.393D-02 0.187D+00 0.852D+00
 Coeff:     -0.134D-02-0.276D-01-0.149D-01 0.393D-02 0.187D+00 0.852D+00
 Gap=     0.233 Goal=   None    Shift=    0.000
 RMSDP=5.18D-06 MaxDP=2.13D-04 DE=-6.32D-07 OVMax= 3.61D-04

 Cycle   7  Pass 1  IDiag  1:
 RMSU=  2.03D-06    CP:  1.00D+00  9.21D-01  8.33D-01  1.27D+00  1.19D+00
                    CP:  1.21D+00
 E= -633.321790968204     Delta-E=       -0.000000127848 Rises=F Damp=F
 DIIS: error= 9.26D-06 at cycle   7 NSaved=   7.
 NSaved= 7 IEnMin= 7 EnMin= -633.321790968204     IErMin= 7 ErrMin= 9.26D-06
 ErrMax= 9.26D-06  0.00D+00 EMaxC= 1.00D-01 BMatC= 2.08D-08 BMatP= 4.64D-08
 IDIUse=1 WtCom= 1.00D+00 WtEn= 0.00D+00
 Coeff-Com:  0.237D-02-0.108D-01-0.541D-02-0.693D-01-0.896D-01 0.431D+00
 Coeff-Com:  0.742D+00
 Coeff:      0.237D-02-0.108D-01-0.541D-02-0.693D-01-0.896D-01 0.431D+00
 Coeff:      0.742D+00
 Gap=     0.233 Goal=   None    Shift=    0.000
 RMSDP=2.13D-06 MaxDP=8.72D-05 DE=-1.28D-07 OVMax= 1.88D-04

 Cycle   8  Pass 1  IDiag  1:
 RMSU=  7.31D-07    CP:  1.00D+00  9.20D-01  8.38D-01  1.29D+00  1.25D+00
                    CP:  1.42D+00  1.12D+00
 E= -633.321791007636     Delta-E=       -0.000000039432 Rises=F Damp=F
 DIIS: error= 2.80D-06 at cycle   8 NSaved=   8.
 NSaved= 8 IEnMin= 8 EnMin= -633.321791007636     IErMin= 8 ErrMin= 2.80D-06
 ErrMax= 2.80D-06  0.00D+00 EMaxC= 1.00D-01 BMatC= 2.15D-09 BMatP= 2.08D-08
 IDIUse=1 WtCom= 1.00D+00 WtEn= 0.00D+00
 Coeff-Com:  0.105D-02-0.123D-04 0.900D-03-0.236D-01-0.755D-01 0.161D-01
 Coeff-Com:  0.260D+00 0.821D+00
 Coeff:      0.105D-02-0.123D-04 0.900D-03-0.236D-01-0.755D-01 0.161D-01
 Coeff:      0.260D+00 0.821D+00
 Gap=     0.233 Goal=   None    Shift=    0.000
 RMSDP=8.56D-07 MaxDP=2.88D-05 DE=-3.94D-08 OVMax= 6.87D-05

 Cycle   9  Pass 1  IDiag  1:
 RMSU=  2.39D-07    CP:  1.00D+00  9.19D-01  8.40D-01  1.31D+00  1.25D+00
                    CP:  1.52D+00  1.33D+00  1.17D+00
 E= -633.321791012130     Delta-E=       -0.000000004494 Rises=F Damp=F
 DIIS: error= 1.07D-06 at cycle   9 NSaved=   9.
 NSaved= 9 IEnMin= 9 EnMin= -633.321791012130     IErMin= 9 ErrMin= 1.07D-06
 ErrMax= 1.07D-06  0.00D+00 EMaxC= 1.00D-01 BMatC= 2.45D-10 BMatP= 2.15D-09
 IDIUse=1 WtCom= 1.00D+00 WtEn= 0.00D+00
 Coeff-Com:  0.112D-03 0.142D-02 0.110D-02 0.188D-02-0.178D-01-0.522D-01
 Coeff-Com:  0.859D-02 0.328D+00 0.728D+00
 Coeff:      0.112D-03 0.142D-02 0.110D-02 0.188D-02-0.178D-01-0.522D-01
 Coeff:      0.859D-02 0.328D+00 0.728D+00
 Gap=     0.233 Goal=   None    Shift=    0.000
 RMSDP=2.22D-07 MaxDP=9.86D-06 DE=-4.49D-09 OVMax= 1.98D-05

 Cycle  10  Pass 1  IDiag  1:
 RMSU=  9.52D-08    CP:  1.00D+00  9.19D-01  8.39D-01  1.31D+00  1.25D+00
                    CP:  1.54D+00  1.38D+00  1.26D+00  9.68D-01
 E= -633.321791012559     Delta-E=       -0.000000000428 Rises=F Damp=F
 DIIS: error= 3.57D-07 at cycle  10 NSaved=  10.
 NSaved=10 IEnMin=10 EnMin= -633.321791012559     IErMin=10 ErrMin= 3.57D-07
 ErrMax= 3.57D-07  0.00D+00 EMaxC= 1.00D-01 BMatC= 6.09D-11 BMatP= 2.45D-10
 IDIUse=1 WtCom= 1.00D+00 WtEn= 0.00D+00
 Coeff-Com: -0.680D-04 0.672D-03 0.295D-03 0.359D-02-0.344D-03-0.279D-01
 Coeff-Com: -0.228D-01 0.453D-01 0.348D+00 0.653D+00
 Coeff:     -0.680D-04 0.672D-03 0.295D-03 0.359D-02-0.344D-03-0.279D-01
 Coeff:     -0.228D-01 0.453D-01 0.348D+00 0.653D+00
 Gap=     0.233 Goal=   None    Shift=    0.000
 RMSDP=1.20D-07 MaxDP=8.87D-06 DE=-4.28D-10 OVMax= 5.25D-06

 Cycle  11  Pass 1  IDiag  1:
 RMSU=  4.85D-08    CP:  1.00D+00  9.19D-01  8.39D-01  1.31D+00  1.25D+00
                    CP:  1.55D+00  1.40D+00  1.28D+00  1.13D+00  9.29D-01
 E= -633.321791012626     Delta-E=       -0.000000000067 Rises=F Damp=F
 DIIS: error= 1.72D-07 at cycle  11 NSaved=  11.
 NSaved=11 IEnMin=11 EnMin= -633.321791012626     IErMin=11 ErrMin= 1.72D-07
 ErrMax= 1.72D-07  0.00D+00 EMaxC= 1.00D-01 BMatC= 1.15D-11 BMatP= 6.09D-11
 IDIUse=1 WtCom= 1.00D+00 WtEn= 0.00D+00
 Coeff-Com: -0.547D-04 0.871D-04-0.117D-03 0.158D-02 0.386D-02-0.322D-02
 Coeff-Com: -0.123D-01-0.523D-01 0.413D-01 0.318D+00 0.703D+00
 Coeff:     -0.547D-04 0.871D-04-0.117D-03 0.158D-02 0.386D-02-0.322D-02
 Coeff:     -0.123D-01-0.523D-01 0.413D-01 0.318D+00 0.703D+00
 Gap=     0.233 Goal=   None    Shift=    0.000
 RMSDP=4.42D-08 MaxDP=2.23D-06 DE=-6.71D-11 OVMax= 2.09D-06

 Cycle  12  Pass 1  IDiag  1:
 RMSU=  1.43D-08    CP:  1.00D+00  9.19D-01  8.39D-01  1.31D+00  1.25D+00
                    CP:  1.55D+00  1.41D+00  1.29D+00  1.16D+00  1.07D+00
                    CP:  9.41D-01
 E= -633.321791012632     Delta-E=       -0.000000000006 Rises=F Damp=F
 DIIS: error= 5.88D-08 at cycle  12 NSaved=  12.
 NSaved=12 IEnMin=12 EnMin= -633.321791012632     IErMin=12 ErrMin= 5.88D-08
 ErrMax= 5.88D-08  0.00D+00 EMaxC= 1.00D-01 BMatC= 1.28D-12 BMatP= 1.15D-11
 IDIUse=1 WtCom= 1.00D+00 WtEn= 0.00D+00
 Coeff-Com: -0.151D-04-0.311D-04-0.830D-04 0.177D-03 0.146D-02 0.221D-02
 Coeff-Com: -0.543D-03-0.261D-01-0.244D-01 0.240D-01 0.279D+00 0.745D+00
 Coeff:     -0.151D-04-0.311D-04-0.830D-04 0.177D-03 0.146D-02 0.221D-02
 Coeff:     -0.543D-03-0.261D-01-0.244D-01 0.240D-01 0.279D+00 0.745D+00
 Gap=     0.233 Goal=   None    Shift=    0.000
 RMSDP=1.57D-08 MaxDP=1.06D-06 DE=-6.37D-12 OVMax= 6.76D-07

 Cycle  13  Pass 1  IDiag  1:
 RMSU=  5.52D-09    CP:  1.00D+00  9.19D-01  8.39D-01  1.31D+00  1.25D+00
                    CP:  1.55D+00  1.41D+00  1.29D+00  1.18D+00  1.08D+00
                    CP:  1.09D+00  1.09D+00
 E= -633.321791012633     Delta-E=       -0.000000000001 Rises=F Damp=F
 DIIS: error= 1.61D-08 at cycle  13 NSaved=  13.
 NSaved=13 IEnMin=13 EnMin= -633.321791012633     IErMin=13 ErrMin= 1.61D-08
 ErrMax= 1.61D-08  0.00D+00 EMaxC= 1.00D-01 BMatC= 2.03D-13 BMatP= 1.28D-12
 IDIUse=1 WtCom= 1.00D+00 WtEn= 0.00D+00
 Coeff-Com:  0.343D-06-0.237D-04-0.205D-04-0.182D-03 0.780D-04 0.122D-02
 Coeff-Com:  0.155D-02-0.478D-02-0.178D-01-0.453D-01 0.879D-02 0.325D+00
 Coeff-Com:  0.732D+00
 Coeff:      0.343D-06-0.237D-04-0.205D-04-0.182D-03 0.780D-04 0.122D-02
 Coeff:      0.155D-02-0.478D-02-0.178D-01-0.453D-01 0.879D-02 0.325D+00
 Coeff:      0.732D+00
 Gap=     0.233 Goal=   None    Shift=    0.000
 RMSDP=6.22D-09 MaxDP=2.70D-07 DE=-5.68D-13 OVMax= 3.61D-07

 Error on total polarization charges =  0.00888
 SCF Done:  E(RCAM-B3LYP) =  -633.321791013     A.U. after   13 cycles
            NFock= 13  Conv=0.62D-08     -V/T= 2.0042
 KE= 6.306658860146D+02 PE=-3.275021670842D+03 EE= 1.111578543228D+03
 Leave Link  502 at Sat Jan 24 23:30:29 2026, MaxMem=  2147483648 cpu:             879.8 elap:              55.9
 (Enter /data/home/wyx/g16/l601.exe)
 Copying SCF densities to generalized density rwf, IOpCl= 0 IROHF=0.

 **********************************************************************

            Population analysis using the SCF density.

 **********************************************************************

 Orbital symmetries:
       Occupied  (A) (A) (A) (A) (A) (A) (A) (A) (A) (A) (A) (A)
                 (A) (A) (A) (A) (A) (A) (A) (A) (A) (A) (A) (A)
                 (A) (A) (A) (A) (A) (A) (A) (A) (A) (A) (A) (A)
                 (A) (A) (A) (A) (A) (A) (A) (A) (A) (A) (A) (A)
                 (A) (A) (A) (A)
       Virtual   (A) (A) (A) (A) (A) (A) (A) (A) (A) (A) (A) (A)
                 (A) (A) (A) (A) (A) (A) (A) (A) (A) (A) (A) (A)
                 (A) (A) (A) (A) (A) (A) (A) (A) (A) (A) (A) (A)
                 (A) (A) (A) (A) (A) (A) (A) (A) (A) (A) (A) (A)
                 (A) (A) (A) (A) (A) (A) (A) (A) (A) (A) (A) (A)
                 (A) (A) (A) (A) (A) (A) (A) (A) (A) (A) (A) (A)
                 (A) (A) (A) (A) (A) (A) (A) (A) (A) (A) (A) (A)
                 (A) (A) (A) (A) (A) (A) (A) (A) (A) (A) (A) (A)
                 (A) (A) (A) (A) (A) (A) (A) (A) (A) (A) (A) (A)
                 (A) (A) (A) (A) (A) (A) (A) (A) (A) (A) (A) (A)
                 (A) (A) (A) (A) (A) (A) (A) (A) (A) (A) (A) (A)
                 (A) (A) (A) (A) (A) (A) (A) (A) (A) (A) (A) (A)
                 (A) (A) (A) (A) (A) (A) (A) (A) (A) (A) (A) (A)
                 (A) (A) (A) (A) (A) (A) (A) (A) (A) (A) (A) (A)
                 (A) (A) (A) (A) (A) (A) (A) (A) (A) (A) (A) (A)
                 (A) (A) (A) (A) (A) (A) (A) (A) (A) (A) (A) (A)
                 (A) (A) (A) (A) (A) (A) (A) (A) (A) (A) (A) (A)
                 (A) (A) (A) (A) (A) (A) (A) (A) (A) (A) (A) (A)
                 (A) (A) (A) (A) (A) (A) (A) (A) (A) (A) (A) (A)
                 (A) (A) (A) (A) (A) (A) (A) (A) (A) (A) (A) (A)
                 (A) (A) (A) (A) (A) (A) (A) (A) (A) (A) (A) (A)
                 (A) (A) (A) (A) (A) (A) (A) (A) (A) (A) (A) (A)
                 (A) (A) (A) (A) (A) (A) (A) (A) (A) (A) (A) (A)
                 (A) (A) (A) (A) (A) (A) (A) (A) (A) (A) (A) (A)
                 (A) (A) (A) (A) (A) (A) (A) (A) (A) (A) (A) (A)
                 (A) (A) (A) (A)
 The electronic state is 1-A.
 Alpha  occ. eigenvalues --  -19.18271 -19.16448 -14.44626 -10.33804 -10.32990
 Alpha  occ. eigenvalues --  -10.32701 -10.32280 -10.26173 -10.25448 -10.25357
 Alpha  occ. eigenvalues --  -10.25255 -10.24555 -10.24277 -10.23383  -1.12285
 Alpha  occ. eigenvalues --   -1.09158  -1.07974  -0.91726  -0.90830  -0.84047
 Alpha  occ. eigenvalues --   -0.82632  -0.81711  -0.78719  -0.74557  -0.71692
 Alpha  occ. eigenvalues --   -0.69311  -0.62166  -0.58684  -0.57171  -0.55455
 Alpha  occ. eigenvalues --   -0.54924  -0.54204  -0.52567  -0.52021  -0.50893
 Alpha  occ. eigenvalues --   -0.50064  -0.49273  -0.49181  -0.48525  -0.48304
 Alpha  occ. eigenvalues --   -0.46697  -0.44902  -0.44802  -0.43864  -0.43247
 Alpha  occ. eigenvalues --   -0.42781  -0.41944  -0.40650  -0.33224  -0.32672
 Alpha  occ. eigenvalues --   -0.30513  -0.26569
 Alpha virt. eigenvalues --   -0.03309   0.01742   0.06201   0.08207   0.08530
 Alpha virt. eigenvalues --    0.09839   0.10716   0.11819   0.12530   0.13299
 Alpha virt. eigenvalues --    0.14057   0.15265   0.15416   0.16604   0.16777
 Alpha virt. eigenvalues --    0.17365   0.17621   0.17999   0.18231   0.19299
 Alpha virt. eigenvalues --    0.19647   0.20742   0.22404   0.23056   0.23656
 Alpha virt. eigenvalues --    0.24219   0.24495   0.25258   0.25822   0.26198
 Alpha virt. eigenvalues --    0.27422   0.27652   0.28495   0.29538   0.30024
 Alpha virt. eigenvalues --    0.31083   0.31775   0.32767   0.33465   0.34663
 Alpha virt. eigenvalues --    0.35074   0.35733   0.36929   0.37467   0.37828
 Alpha virt. eigenvalues --    0.39598   0.40873   0.41334   0.41951   0.42931
 Alpha virt. eigenvalues --    0.43964   0.44911   0.45117   0.46038   0.46192
 Alpha virt. eigenvalues --    0.47052   0.47962   0.48147   0.48450   0.48789
 Alpha virt. eigenvalues --    0.49267   0.50062   0.50690   0.51413   0.51738
 Alpha virt. eigenvalues --    0.52157   0.52673   0.53322   0.53546   0.54063
 Alpha virt. eigenvalues --    0.54630   0.55308   0.55688   0.56871   0.57807
 Alpha virt. eigenvalues --    0.58388   0.59383   0.59513   0.61442   0.62193
 Alpha virt. eigenvalues --    0.63732   0.64781   0.66109   0.67075   0.67741
 Alpha virt. eigenvalues --    0.69293   0.70339   0.70945   0.71059   0.72372
 Alpha virt. eigenvalues --    0.73219   0.74541   0.75410   0.76659   0.78579
 Alpha virt. eigenvalues --    0.79329   0.80451   0.81744   0.85805   0.86333
 Alpha virt. eigenvalues --    0.89303   0.89874   0.97111   1.00999   1.23153
 Alpha virt. eigenvalues --    1.24041   1.26694   1.27573   1.29710   1.30599
 Alpha virt. eigenvalues --    1.32365   1.32896   1.33937   1.35744   1.36156
 Alpha virt. eigenvalues --    1.37254   1.37611   1.38663   1.39348   1.39553
 Alpha virt. eigenvalues --    1.40000   1.40827   1.40914   1.41722   1.41914
 Alpha virt. eigenvalues --    1.42650   1.43712   1.44439   1.44930   1.46465
 Alpha virt. eigenvalues --    1.47985   1.49260   1.49612   1.50553   1.51441
 Alpha virt. eigenvalues --    1.51579   1.52350   1.53408   1.55943   1.57243
 Alpha virt. eigenvalues --    1.58591   1.60097   1.60353   1.61032   1.61811
 Alpha virt. eigenvalues --    1.62702   1.62989   1.64241   1.65330   1.65705
 Alpha virt. eigenvalues --    1.65944   1.66680   1.67099   1.68309   1.68444
 Alpha virt. eigenvalues --    1.69042   1.69677   1.70790   1.71661   1.73172
 Alpha virt. eigenvalues --    1.73647   1.74014   1.75856   1.76481   1.80173
 Alpha virt. eigenvalues --    1.80757   1.82756   1.84181   1.85043   1.86076
 Alpha virt. eigenvalues --    1.86694   1.86856   1.88597   1.89426   1.89883
 Alpha virt. eigenvalues --    1.91204   1.93316   1.96425   1.98163   2.00969
 Alpha virt. eigenvalues --    2.01729   2.04239   2.05223   2.06818   2.09497
 Alpha virt. eigenvalues --    2.10633   2.13904   2.14276   2.18573   2.19744
 Alpha virt. eigenvalues --    2.20629   2.22677   2.23035   2.24278   2.25359
 Alpha virt. eigenvalues --    2.27404   2.28718   2.29535   2.31369   2.32330
 Alpha virt. eigenvalues --    2.33932   2.34778   2.36127   2.37623   2.38793
 Alpha virt. eigenvalues --    2.40432   2.40875   2.41342   2.43900   2.44973
 Alpha virt. eigenvalues --    2.45558   2.47602   2.48916   2.49873   2.51300
 Alpha virt. eigenvalues --    2.52611   2.53344   2.54410   2.55983   2.57293
 Alpha virt. eigenvalues --    2.58079   2.59693   2.61016   2.61735   2.63219
 Alpha virt. eigenvalues --    2.63777   2.65842   2.66675   2.67621   2.68345
 Alpha virt. eigenvalues --    2.69108   2.72013   2.72882   2.73855   2.74754
 Alpha virt. eigenvalues --    2.76384   2.76725   2.77166   2.77937   2.78785
 Alpha virt. eigenvalues --    2.80341   2.81017   2.83049   2.84567   2.85247
 Alpha virt. eigenvalues --    2.85668   2.87163   2.88741   2.89422   2.92780
 Alpha virt. eigenvalues --    2.97635   2.98736   2.98899   3.03999   3.09324
 Alpha virt. eigenvalues --    3.10088   3.11329   3.13189   3.18599   3.20331
 Alpha virt. eigenvalues --    3.21402   3.22331   3.23650   3.24668   3.25602
 Alpha virt. eigenvalues --    3.27234   3.29659   3.31645   3.35142   3.37023
 Alpha virt. eigenvalues --    3.38978   3.39418   3.40311   3.40622   3.41248
 Alpha virt. eigenvalues --    3.42015   3.43869   3.45202   3.46712   3.49742
 Alpha virt. eigenvalues --    3.50522   3.51309   3.54327   3.58070   3.59026
 Alpha virt. eigenvalues --    3.60827   3.90932   3.99397   4.31413   4.34662
 Alpha virt. eigenvalues --   21.63644  21.76745  22.05885  22.10042  22.11450
 Alpha virt. eigenvalues --   22.12773  22.15524  22.18226  22.20667  22.25933
 Alpha virt. eigenvalues --   22.30928  31.92902  43.63322  43.66093
          Condensed to atoms (all electrons):
               1          2          3          4          5          6
     1  O    7.952564   0.000000  -0.000231   0.000017   0.016858   0.016287
     2  O    0.000000   8.045310   0.000684   0.000039  -0.178854   0.001370
     3  N   -0.000231   0.000684   6.375946   0.373271  -0.104937   0.369182
     4  H    0.000017   0.000039   0.373271   0.395174   0.011945  -0.042819
     5  C    0.016858  -0.178854  -0.104937   0.011945   7.111456  -0.050457
     6  C    0.016287   0.001370   0.369182  -0.042819  -0.050457   5.611546
     7  C   -0.000140  -0.009959   0.354133  -0.043261   0.351298  -0.135508
     8  C   -0.000307   0.635218   0.004856  -0.000934  -0.385330   0.042701
     9  C   -0.015302   0.020972   0.019838   0.000456  -0.642367  -0.091627
    10  H    0.004570   0.000025   0.002788   0.000030  -0.026994  -0.008064
    11  H    0.012890  -0.000227  -0.001353  -0.000000  -0.120083   0.023602
    12  C   -0.239606  -0.003026  -0.104180   0.017066   0.197116  -0.181194
    13  C    0.729737  -0.000005   0.000162   0.000462   0.067961   0.141727
    14  C   -0.000011  -0.057790  -0.048000   0.000413  -0.011381  -0.004570
    15  H    0.000000   0.004736   0.003582  -0.000006   0.005719   0.004416
    16  H   -0.000000   0.000920  -0.003259   0.000470  -0.014724  -0.000072
    17  H    0.000000   0.023796   0.003746   0.000685   0.002792  -0.000326
    18  C   -0.000263  -0.098074  -0.000286   0.000020  -0.174002  -0.001979
    19  H   -0.000002   0.003327   0.000006  -0.000001   0.008505   0.000044
    20  H    0.000015  -0.000928   0.000013  -0.000001  -0.012079   0.000164
    21  H    0.000480   0.006727   0.000096   0.000000   0.075854  -0.001560
    22  C   -0.115603   0.000000   0.000164   0.000108   0.001810  -0.010056
    23  H    0.004316  -0.000000   0.000009  -0.000051  -0.000428  -0.030179
    24  H    0.001876   0.000000   0.000038  -0.000016  -0.000069   0.010571
    25  H    0.009386   0.000000   0.000026  -0.000002  -0.000108  -0.001272
    26  C    0.000906   0.000006  -0.028887  -0.008899   0.000906   0.188130
    27  H   -0.000158  -0.000000   0.001590   0.000892   0.000140  -0.039320
    28  H   -0.000036   0.000000  -0.002943   0.000514   0.000451  -0.036739
    29  H    0.000021   0.000000   0.002359   0.001593  -0.000497  -0.052213
               7          8          9         10         11         12
     1  O   -0.000140  -0.000307  -0.015302   0.004570   0.012890  -0.239606
     2  O   -0.009959   0.635218   0.020972   0.000025  -0.000227  -0.003026
     3  N    0.354133   0.004856   0.019838   0.002788  -0.001353  -0.104180
     4  H   -0.043261  -0.000934   0.000456   0.000030  -0.000000   0.017066
     5  C    0.351298  -0.385330  -0.642367  -0.026994  -0.120083   0.197116
     6  C   -0.135508   0.042701  -0.091627  -0.008064   0.023602  -0.181194
     7  C    5.500636  -0.234147  -0.227331  -0.004839   0.016162   0.042968
     8  C   -0.234147   5.608075   0.173216  -0.001477  -0.003341  -0.076003
     9  C   -0.227331   0.173216   6.491329   0.396228   0.545285  -0.147121
    10  H   -0.004839  -0.001477   0.396228   0.550576  -0.036508  -0.022598
    11  H    0.016162  -0.003341   0.545285  -0.036508   0.504174  -0.102584
    12  C    0.042968  -0.076003  -0.147121  -0.022598  -0.102584   7.505849
    13  C    0.021376  -0.009125  -0.249575  -0.005326  -0.001006  -0.464101
    14  C    0.212904  -0.075049   0.019174  -0.001286   0.000365   0.001868
    15  H   -0.061590   0.006341  -0.001190   0.000134  -0.000007  -0.000652
    16  H   -0.015010   0.005203  -0.000130  -0.000039   0.000051  -0.000273
    17  H   -0.042784  -0.020380   0.001274   0.000084  -0.000056  -0.000266
    18  C    0.019348   0.305530  -0.005672  -0.009034  -0.004711   0.009456
    19  H   -0.000180  -0.032506  -0.001802   0.000365   0.000504  -0.000236
    20  H   -0.001170  -0.006317  -0.001956   0.000390  -0.000171  -0.001657
    21  H    0.004653  -0.125810  -0.016382  -0.000919  -0.006319   0.006828
    22  C    0.000764  -0.000041   0.010054   0.001479   0.000475  -0.284393
    23  H   -0.000004  -0.000002   0.002659  -0.000146  -0.000013   0.057395
    24  H   -0.000031   0.000003  -0.002155   0.000167  -0.000116  -0.004905
    25  H    0.000011   0.000001  -0.000089  -0.000054  -0.000091   0.027033
    26  C    0.002880   0.000781   0.021234  -0.000456   0.000033  -0.080360
    27  H   -0.000701  -0.000005  -0.000983  -0.000059   0.000011  -0.004837
    28  H   -0.001184  -0.000011  -0.000233  -0.000015   0.000048  -0.019191
    29  H    0.003398   0.000008  -0.000547   0.000060  -0.000007   0.024062
              13         14         15         16         17         18
     1  O    0.729737  -0.000011   0.000000  -0.000000   0.000000  -0.000263
     2  O   -0.000005  -0.057790   0.004736   0.000920   0.023796  -0.098074
     3  N    0.000162  -0.048000   0.003582  -0.003259   0.003746  -0.000286
     4  H    0.000462   0.000413  -0.000006   0.000470   0.000685   0.000020
     5  C    0.067961  -0.011381   0.005719  -0.014724   0.002792  -0.174002
     6  C    0.141727  -0.004570   0.004416  -0.000072  -0.000326  -0.001979
     7  C    0.021376   0.212904  -0.061590  -0.015010  -0.042784   0.019348
     8  C   -0.009125  -0.075049   0.006341   0.005203  -0.020380   0.305530
     9  C   -0.249575   0.019174  -0.001190  -0.000130   0.001274  -0.005672
    10  H   -0.005326  -0.001286   0.000134  -0.000039   0.000084  -0.009034
    11  H   -0.001006   0.000365  -0.000007   0.000051  -0.000056  -0.004711
    12  C   -0.464101   0.001868  -0.000652  -0.000273  -0.000266   0.009456
    13  C    5.517705  -0.000059  -0.000017  -0.000026   0.000003   0.001059
    14  C   -0.000059   5.243035   0.385719   0.395328   0.418783  -0.001074
    15  H   -0.000017   0.385719   0.569307  -0.030830  -0.024500   0.000176
    16  H   -0.000026   0.395328  -0.030830   0.509038  -0.015785   0.000034
    17  H    0.000003   0.418783  -0.024500  -0.015785   0.455713   0.000938
    18  C    0.001059  -0.001074   0.000176   0.000034   0.000938   5.217713
    19  H   -0.000020  -0.000043  -0.000000  -0.000009   0.000081   0.403963
    20  H   -0.000071  -0.000252  -0.000005   0.000016   0.000017   0.390457
    21  H    0.001596   0.000376  -0.000023  -0.000003  -0.000129   0.404615
    22  C    0.310429   0.000008   0.000002  -0.000002   0.000000   0.000022
    23  H   -0.081296   0.000001  -0.000000   0.000000   0.000000   0.000001
    24  H   -0.031129  -0.000001   0.000000  -0.000000  -0.000000  -0.000001
    25  H   -0.046509   0.000000   0.000000  -0.000000  -0.000000  -0.000000
    26  C   -0.055404   0.000601  -0.000255  -0.000029   0.000018  -0.000015
    27  H   -0.006764   0.000067  -0.000012   0.000005  -0.000001   0.000000
    28  H    0.006483  -0.000065   0.000014  -0.000017   0.000002  -0.000000
    29  H   -0.000285   0.000043   0.000057   0.000007   0.000002   0.000000
              19         20         21         22         23         24
     1  O   -0.000002   0.000015   0.000480  -0.115603   0.004316   0.001876
     2  O    0.003327  -0.000928   0.006727   0.000000  -0.000000   0.000000
     3  N    0.000006   0.000013   0.000096   0.000164   0.000009   0.000038
     4  H   -0.000001  -0.000001   0.000000   0.000108  -0.000051  -0.000016
     5  C    0.008505  -0.012079   0.075854   0.001810  -0.000428  -0.000069
     6  C    0.000044   0.000164  -0.001560  -0.010056  -0.030179   0.010571
     7  C   -0.000180  -0.001170   0.004653   0.000764  -0.000004  -0.000031
     8  C   -0.032506  -0.006317  -0.125810  -0.000041  -0.000002   0.000003
     9  C   -0.001802  -0.001956  -0.016382   0.010054   0.002659  -0.002155
    10  H    0.000365   0.000390  -0.000919   0.001479  -0.000146   0.000167
    11  H    0.000504  -0.000171  -0.006319   0.000475  -0.000013  -0.000116
    12  C   -0.000236  -0.001657   0.006828  -0.284393   0.057395  -0.004905
    13  C   -0.000020  -0.000071   0.001596   0.310429  -0.081296  -0.031129
    14  C   -0.000043  -0.000252   0.000376   0.000008   0.000001  -0.000001
    15  H   -0.000000  -0.000005  -0.000023   0.000002  -0.000000   0.000000
    16  H   -0.000009   0.000016  -0.000003  -0.000002   0.000000  -0.000000
    17  H    0.000081   0.000017  -0.000129   0.000000   0.000000  -0.000000
    18  C    0.403963   0.390457   0.404615   0.000022   0.000001  -0.000001
    19  H    0.494334  -0.011610  -0.029369  -0.000000   0.000000   0.000000
    20  H   -0.011610   0.495591  -0.021056  -0.000002  -0.000000   0.000000
    21  H   -0.029369  -0.021056   0.548540   0.000038  -0.000001  -0.000001
    22  C   -0.000000  -0.000002   0.000038   5.433384   0.390966   0.403668
    23  H    0.000000  -0.000000  -0.000001   0.390966   0.542208  -0.028247
    24  H    0.000000   0.000000  -0.000001   0.403668  -0.028247   0.494295
    25  H   -0.000000  -0.000000  -0.000001   0.382678  -0.021177  -0.007877
    26  C    0.000000   0.000002  -0.000015  -0.036062   0.018973  -0.015698
    27  H   -0.000000   0.000000  -0.000000   0.011145  -0.009368  -0.001157
    28  H    0.000000  -0.000000  -0.000000  -0.012656  -0.001864   0.001455
    29  H    0.000000  -0.000000  -0.000000   0.001813   0.000729   0.000193
              25         26         27         28         29
     1  O    0.009386   0.000906  -0.000158  -0.000036   0.000021
     2  O    0.000000   0.000006  -0.000000   0.000000   0.000000
     3  N    0.000026  -0.028887   0.001590  -0.002943   0.002359
     4  H   -0.000002  -0.008899   0.000892   0.000514   0.001593
     5  C   -0.000108   0.000906   0.000140   0.000451  -0.000497
     6  C   -0.001272   0.188130  -0.039320  -0.036739  -0.052213
     7  C    0.000011   0.002880  -0.000701  -0.001184   0.003398
     8  C    0.000001   0.000781  -0.000005  -0.000011   0.000008
     9  C   -0.000089   0.021234  -0.000983  -0.000233  -0.000547
    10  H   -0.000054  -0.000456  -0.000059  -0.000015   0.000060
    11  H   -0.000091   0.000033   0.000011   0.000048  -0.000007
    12  C    0.027033  -0.080360  -0.004837  -0.019191   0.024062
    13  C   -0.046509  -0.055404  -0.006764   0.006483  -0.000285
    14  C    0.000000   0.000601   0.000067  -0.000065   0.000043
    15  H    0.000000  -0.000255  -0.000012   0.000014   0.000057
    16  H   -0.000000  -0.000029   0.000005  -0.000017   0.000007
    17  H   -0.000000   0.000018  -0.000001   0.000002   0.000002
    18  C   -0.000000  -0.000015   0.000000  -0.000000   0.000000
    19  H   -0.000000   0.000000  -0.000000   0.000000   0.000000
    20  H   -0.000000   0.000002   0.000000  -0.000000  -0.000000
    21  H   -0.000001  -0.000015  -0.000000  -0.000000  -0.000000
    22  C    0.382678  -0.036062   0.011145  -0.012656   0.001813
    23  H   -0.021177   0.018973  -0.009368  -0.001864   0.000729
    24  H   -0.007877  -0.015698  -0.001157   0.001455   0.000193
    25  H    0.497787   0.001853   0.000776   0.000105  -0.000047
    26  C    0.001853   5.251842   0.417816   0.435033   0.389745
    27  H    0.000776   0.417816   0.512385  -0.027170  -0.025536
    28  H    0.000105   0.435033  -0.027170   0.474138  -0.015926
    29  H   -0.000047   0.389745  -0.025536  -0.015926   0.515375
 Mulliken charges:
               1
     1  O   -0.378265
     2  O   -0.394267
     3  N   -0.218408
     4  H    0.292834
     5  C   -0.130501
     6  C    0.278215
     7  C    0.247307
     8  C    0.188851
     9  C   -0.297258
    10  H    0.160919
    11  H    0.172993
    12  C   -0.152456
    13  C    0.152018
    14  C   -0.479104
    15  H    0.138884
    16  H    0.169134
    17  H    0.196292
    18  C   -0.458222
    19  H    0.164647
    20  H    0.170612
    21  H    0.151781
    22  C   -0.490193
    23  H    0.155519
    24  H    0.179137
    25  H    0.157570
    26  C   -0.504681
    27  H    0.171243
    28  H    0.199807
    29  H    0.155593
 Sum of Mulliken charges =  -0.00000
 Mulliken charges with hydrogens summed into heavy atoms:
               1
     1  O   -0.378265
     2  O   -0.394267
     3  N    0.074426
     5  C   -0.130501
     6  C    0.278215
     7  C    0.247307
     8  C    0.188851
     9  C    0.036654
    12  C   -0.152456
    13  C    0.152018
    14  C    0.025206
    18  C    0.028818
    22  C    0.002033
    26  C    0.021962
 Electronic spatial extent (au):  <R**2>=           3214.8741
 Charge=              0.0000 electrons
 Dipole moment (field-independent basis, Debye):
    X=             -3.8204    Y=              7.5336    Z=             -0.2075  Tot=              8.4495
 Quadrupole moment (field-independent basis, Debye-Ang):
   XX=            -97.3503   YY=            -78.5411   ZZ=            -84.6185
   XY=            -13.8322   XZ=             -3.4771   YZ=             -1.0326
 Traceless Quadrupole moment (field-independent basis, Debye-Ang):
   XX=            -10.5137   YY=              8.2955   ZZ=              2.2181
   XY=            -13.8322   XZ=             -3.4771   YZ=             -1.0326
 Octapole moment (field-independent basis, Debye-Ang**2):
  XXX=           -108.6941  YYY=             65.0361  ZZZ=              2.0898  XYY=             38.8478
  XXY=             28.5610  XXZ=             -7.9875  XZZ=             -1.3850  YZZ=             -0.9392
  YYZ=              2.2205  XYZ=              2.9713
 Hexadecapole moment (field-independent basis, Debye-Ang**3):
 XXXX=          -3092.1962 YYYY=          -1276.2796 ZZZZ=           -137.2406 XXXY=            -51.1252
 XXXZ=            -46.7728 YYYX=            -97.6384 YYYZ=            -15.7052 ZZZX=              3.7695
 ZZZY=              3.0450 XXYY=           -685.2390 XXZZ=           -486.3391 YYZZ=           -236.0896
 XXYZ=             -2.1176 YYXZ=             -3.8156 ZZXY=             -1.9506
 N-N= 8.994554505865D+02 E-N=-3.275021668669D+03  KE= 6.306658860146D+02
 No NMR shielding tensors so no spin-rotation constants.
 Leave Link  601 at Sat Jan 24 23:30:30 2026, MaxMem=  2147483648 cpu:               1.8 elap:               0.1
 (Enter /data/home/wyx/g16/l9999.exe)
 1\1\GINC-CN015\SP\RCAM-B3LYP\TZVP\C11H15N1O2\WYX\24-Jan-2026\0\\#p CAM
 -B3LYP TZVP em=gd3bj scrf=(Solvent=Water,NonEquilibrium=Read) Geom=Che
 ck Guess=Read\\Title Card Required\\0,1\O,0,2.759204,-1.556238,0.69389
 4\O,0,-3.329061,-1.660395,-0.891358\N,0,-0.675348,1.522963,0.000492\H,
 0,-0.983596,2.478196,-0.077036\C,0,-1.23986,-0.766191,-0.165184\C,0,0.
 658426,1.310621,0.200387\C,0,-1.609189,0.538242,-0.266212\C,0,-2.15160
 3,-1.82525,-0.449251\C,0,0.147883,-1.121674,0.310466\H,0,0.104742,-1.5
 42112,1.321957\H,0,0.563745,-1.911874,-0.314602\C,0,1.117886,0.036923,
 0.303914\C,0,2.50381,-0.372231,0.471389\C,0,-2.942991,1.071367,-0.6419
 06\H,0,-3.232976,1.914031,-0.008325\H,0,-2.960894,1.419374,-1.677474\H
 ,0,-3.746286,0.342259,-0.556836\C,0,-1.800272,-3.264538,-0.227351\H,0,
 -2.630443,-3.863002,0.151442\H,0,-1.481145,-3.734757,-1.16251\H,0,-0.9
 81368,-3.407799,0.475632\C,0,3.666362,0.582304,0.35587\H,0,3.573701,1.
 268212,-0.482107\H,0,3.771379,1.173848,1.266314\H,0,4.566313,-0.015794
 ,0.235657\C,0,1.437576,2.588692,0.272125\H,0,2.1827,2.574766,1.059455\
 H,0,1.941657,2.795086,-0.672273\H,0,0.76965,3.424972,0.47343\\Version=
 ES64L-G16RevA.03\State=1-A\HF=-633.321791\RMSD=6.216e-09\Dipole=0.3690
 391,3.3026908,0.0834645\Quadrupole=-11.2768912,11.1712645,0.1056266,3.
 1914344,-5.2662547,0.2303473\PG=C01 [X(C11H15N1O2)]\\@


 CONFIDENCE: THAT QUIET ASSURED FEELING YOU HAVE
 JUST BEFORE YOU FALL FLAT ON YOUR FACE.
 Job cpu time:       0 days  0 hours 14 minutes 50.1 seconds.
 Elapsed time:       0 days  0 hours  0 minutes 56.8 seconds.
 File lengths (MBytes):  RWF=    343 Int=      0 D2E=      0 Chk=     67 Scr=      1
 Normal termination of Gaussian 16 at Sat Jan 24 23:30:30 2026.
