 Entering Gaussian System, Link 0=g16
 Input=DDL-LR-Eq-4.gjf
 Output=DDL-LR-Eq-4.log
 Initial command:
 /data/home/wyx/g16/l1.exe "/scr/tmp/wyx/13119/Gau-1509667.inp" -scrdir="/scr/tmp/wyx/13119/"
 Entering Link 1 = /data/home/wyx/g16/l1.exe PID=   1509668.
  
 Copyright (c) 1988,1990,1992,1993,1995,1998,2003,2009,2016,
            Gaussian, Inc.  All Rights Reserved.
  
 This is part of the Gaussian(R) 16 program.  It is based on
 the Gaussian(R) 09 system (copyright 2009, Gaussian, Inc.),
 the Gaussian(R) 03 system (copyright 2003, Gaussian, Inc.),
 the Gaussian(R) 98 system (copyright 1998, Gaussian, Inc.),
 the Gaussian(R) 94 system (copyright 1995, Gaussian, Inc.),
 the Gaussian 92(TM) system (copyright 1992, Gaussian, Inc.),
 the Gaussian 90(TM) system (copyright 1990, Gaussian, Inc.),
 the Gaussian 88(TM) system (copyright 1988, Gaussian, Inc.),
 the Gaussian 86(TM) system (copyright 1986, Carnegie Mellon
 University), and the Gaussian 82(TM) system (copyright 1983,
 Carnegie Mellon University). Gaussian is a federally registered
 trademark of Gaussian, Inc.
  
 This software contains proprietary and confidential information,
 including trade secrets, belonging to Gaussian, Inc.
  
 This software is provided under written license and may be
 used, copied, transmitted, or stored only in accord with that
 written license.
  
 The following legend is applicable only to US Government
 contracts under FAR:
  
                    RESTRICTED RIGHTS LEGEND
  
 Use, reproduction and disclosure by the US Government is
 subject to restrictions as set forth in subparagraphs (a)
 and (c) of the Commercial Computer Software - Restricted
 Rights clause in FAR 52.227-19.
  
 Gaussian, Inc.
 340 Quinnipiac St., Bldg. 40, Wallingford CT 06492
  
  
 ---------------------------------------------------------------
 Warning -- This program may not be used in any manner that
 competes with the business of Gaussian, Inc. or will provide
 assistance to any competitor of Gaussian, Inc.  The licensee
 of this program is prohibited from giving any competitor of
 Gaussian, Inc. access to this program.  By using this program,
 the user acknowledges that Gaussian, Inc. is engaged in the
 business of creating and licensing software in the field of
 computational chemistry and represents and warrants to the
 licensee that it is not a competitor of Gaussian, Inc. and that
 it will not use this program in any manner prohibited above.
 ---------------------------------------------------------------
  

 Cite this work as:
 Gaussian 16, Revision A.03,
 M. J. Frisch, G. W. Trucks, H. B. Schlegel, G. E. Scuseria, 
 M. A. Robb, J. R. Cheeseman, G. Scalmani, V. Barone, 
 G. A. Petersson, H. Nakatsuji, X. Li, M. Caricato, A. V. Marenich, 
 J. Bloino, B. G. Janesko, R. Gomperts, B. Mennucci, H. P. Hratchian, 
 J. V. Ortiz, A. F. Izmaylov, J. L. Sonnenberg, D. Williams-Young, 
 F. Ding, F. Lipparini, F. Egidi, J. Goings, B. Peng, A. Petrone, 
 T. Henderson, D. Ranasinghe, V. G. Zakrzewski, J. Gao, N. Rega, 
 G. Zheng, W. Liang, M. Hada, M. Ehara, K. Toyota, R. Fukuda, 
 J. Hasegawa, M. Ishida, T. Nakajima, Y. Honda, O. Kitao, H. Nakai, 
 T. Vreven, K. Throssell, J. A. Montgomery, Jr., J. E. Peralta, 
 F. Ogliaro, M. J. Bearpark, J. J. Heyd, E. N. Brothers, K. N. Kudin, 
 V. N. Staroverov, T. A. Keith, R. Kobayashi, J. Normand, 
 K. Raghavachari, A. P. Rendell, J. C. Burant, S. S. Iyengar, 
 J. Tomasi, M. Cossi, J. M. Millam, M. Klene, C. Adamo, R. Cammi, 
 J. W. Ochterski, R. L. Martin, K. Morokuma, O. Farkas, 
 J. B. Foresman, and D. J. Fox, Gaussian, Inc., Wallingford CT, 2016.
 
 ******************************************
 Gaussian 16:  ES64L-G16RevA.03 25-Dec-2016
                24-Jan-2026 
 ******************************************
 %nprocshared=16
 Will use up to   16 processors via shared memory.
 %mem=16GB
 %oldchk=DDL-LR-4.chk
 %chk=DDL-LR-Eq-4.chk
 Copying data from "DDL-LR-4.chk" to current chk file "DDL-LR-Eq-4.chk"
 IOpt=  2 FromEx=T IUOpen= 4 IOptOp= 5 NList=   0 IFRang= 0 IUIn= 4 IUOut= 2.
 ----------------------------------------------------------------------
 #p CAM-B3LYP TZVP em=gd3bj td(Eqsolv,nstates=6,root=1) scrf=(Solvent=W
 ater) Geom=Check Guess=Read
 ----------------------------------------------------------------------
 1/29=2,38=1,172=1/1;
 2/12=2,40=1/2;
 3/5=19,7=101,11=9,14=-4,25=1,30=1,70=2201,72=1,74=-40,116=-2,124=41/1,2,3,8;
 4/5=1/1;
 5/5=2,38=6,53=1/2;
 8/6=1,10=1,107=1,108=6/1;
 9/8=1,41=6,42=1,70=2,73=2/14;
 6/7=2,8=2,9=2,10=2/1;
 99/5=1,9=1/99;
 Leave Link    1 at Sat Jan 24 15:47:57 2026, MaxMem=  2147483648 cpu:               0.8 elap:               0.2
 (Enter /data/home/wyx/g16/l101.exe)
 -------------------
 Title Card Required
 -------------------
 Structure from the checkpoint file:  "DDL-LR-Eq-4.chk"
 Charge =  0 Multiplicity = 1
 Z-Matrix found in chk file.
 O,0,2.7628,-1.553973,0.680952
 O,0,-3.359321,-1.662849,-0.804642
 N,0,-0.66469,1.524611,-0.045964
 H,0,-0.974729,2.478783,-0.128956
 C,0,-1.238131,-0.770933,-0.169935
 C,0,0.66333,1.314369,0.170546
 C,0,-1.607714,0.536478,-0.281604
 C,0,-2.148582,-1.82807,-0.412963
 C,0,0.164021,-1.126902,0.263888
 H,0,0.144313,-1.587195,1.257873
 H,0,0.574685,-1.889653,-0.399012
 C,0,1.12574,0.039615,0.283965
 C,0,2.507476,-0.365344,0.476809
 C,0,-2.947134,1.070026,-0.634893
 H,0,-3.286739,1.816967,0.088652
 H,0,-2.945867,1.543963,-1.620083
 H,0,-3.72109,0.304598,-0.666836
 C,0,-1.817865,-3.277815,-0.220569
 H,0,-2.582471,-3.81908,0.340487
 H,0,-1.716602,-3.786094,-1.183842
 H,0,-0.880149,-3.424034,0.31025
 C,0,3.670128,0.595361,0.41576
 H,0,3.612602,1.278802,-0.427562
 H,0,3.729548,1.19048,1.327841
 H,0,4.578217,0.002678,0.337452
 C,0,1.44357,2.592367,0.248339
 H,0,2.15101,2.593285,1.070314
 H,0,1.993586,2.77488,-0.674766
 H,0,0.77006,3.434681,0.398499
 Recover connectivity data from disk.
 ITRead=  0  0  0  0  0  0  0  0  0  0  0  0  0  0  0  0  0  0  0  0
 ITRead=  0  0  0  0  0  0  0  0  0
 MicOpt= -1 -1 -1 -1 -1 -1 -1 -1 -1 -1 -1 -1 -1 -1 -1 -1 -1 -1 -1 -1
 MicOpt= -1 -1 -1 -1 -1 -1 -1 -1 -1
 NAtoms=     29 NQM=       29 NQMF=       0 NMMI=      0 NMMIF=      0
                NMic=       0 NMicF=      0.
                    Isotopes and Nuclear Properties:
 (Nuclear quadrupole moments (NQMom) in fm**2, nuclear magnetic moments (NMagM)
  in nuclear magnetons)

  Atom         1           2           3           4           5           6           7           8           9          10
 IAtWgt=          16          16          14           1          12          12          12          12          12           1
 AtmWgt=  15.9949146  15.9949146  14.0030740   1.0078250  12.0000000  12.0000000  12.0000000  12.0000000  12.0000000   1.0078250
 NucSpn=           0           0           2           1           0           0           0           0           0           1
 AtZEff=   5.6000000   5.6000000   4.5500000   1.0000000   3.6000000   3.6000000   3.6000000   3.6000000   3.6000000   1.0000000
 NQMom=    0.0000000   0.0000000   2.0440000   0.0000000   0.0000000   0.0000000   0.0000000   0.0000000   0.0000000   0.0000000
 NMagM=    0.0000000   0.0000000   0.4037610   2.7928460   0.0000000   0.0000000   0.0000000   0.0000000   0.0000000   2.7928460
 AtZNuc=   8.0000000   8.0000000   7.0000000   1.0000000   6.0000000   6.0000000   6.0000000   6.0000000   6.0000000   1.0000000

  Atom        11          12          13          14          15          16          17          18          19          20
 IAtWgt=           1          12          12          12           1           1           1          12           1           1
 AtmWgt=   1.0078250  12.0000000  12.0000000  12.0000000   1.0078250   1.0078250   1.0078250  12.0000000   1.0078250   1.0078250
 NucSpn=           1           0           0           0           1           1           1           0           1           1
 AtZEff=   1.0000000   3.6000000   3.6000000   3.6000000   1.0000000   1.0000000   1.0000000   3.6000000   1.0000000   1.0000000
 NQMom=    0.0000000   0.0000000   0.0000000   0.0000000   0.0000000   0.0000000   0.0000000   0.0000000   0.0000000   0.0000000
 NMagM=    2.7928460   0.0000000   0.0000000   0.0000000   2.7928460   2.7928460   2.7928460   0.0000000   2.7928460   2.7928460
 AtZNuc=   1.0000000   6.0000000   6.0000000   6.0000000   1.0000000   1.0000000   1.0000000   6.0000000   1.0000000   1.0000000

  Atom        21          22          23          24          25          26          27          28          29
 IAtWgt=           1          12           1           1           1          12           1           1           1
 AtmWgt=   1.0078250  12.0000000   1.0078250   1.0078250   1.0078250  12.0000000   1.0078250   1.0078250   1.0078250
 NucSpn=           1           0           1           1           1           0           1           1           1
 AtZEff=   1.0000000   3.6000000   1.0000000   1.0000000   1.0000000   3.6000000   1.0000000   1.0000000   1.0000000
 NQMom=    0.0000000   0.0000000   0.0000000   0.0000000   0.0000000   0.0000000   0.0000000   0.0000000   0.0000000
 NMagM=    2.7928460   0.0000000   2.7928460   2.7928460   2.7928460   0.0000000   2.7928460   2.7928460   2.7928460
 AtZNuc=   1.0000000   6.0000000   1.0000000   1.0000000   1.0000000   6.0000000   1.0000000   1.0000000   1.0000000
 Leave Link  101 at Sat Jan 24 15:48:00 2026, MaxMem=  2147483648 cpu:               0.8 elap:               0.1
 (Enter /data/home/wyx/g16/l202.exe)
                          Input orientation:                          
 ---------------------------------------------------------------------
 Center     Atomic      Atomic             Coordinates (Angstroms)
 Number     Number       Type             X           Y           Z
 ---------------------------------------------------------------------
      1          8           0        2.762800   -1.553973    0.680952
      2          8           0       -3.359321   -1.662849   -0.804642
      3          7           0       -0.664690    1.524611   -0.045964
      4          1           0       -0.974729    2.478783   -0.128956
      5          6           0       -1.238131   -0.770933   -0.169935
      6          6           0        0.663330    1.314369    0.170546
      7          6           0       -1.607714    0.536478   -0.281604
      8          6           0       -2.148582   -1.828070   -0.412963
      9          6           0        0.164021   -1.126902    0.263888
     10          1           0        0.144313   -1.587195    1.257873
     11          1           0        0.574685   -1.889653   -0.399012
     12          6           0        1.125740    0.039615    0.283965
     13          6           0        2.507476   -0.365344    0.476809
     14          6           0       -2.947134    1.070026   -0.634893
     15          1           0       -3.286739    1.816967    0.088652
     16          1           0       -2.945867    1.543963   -1.620083
     17          1           0       -3.721090    0.304598   -0.666836
     18          6           0       -1.817865   -3.277815   -0.220569
     19          1           0       -2.582471   -3.819080    0.340487
     20          1           0       -1.716602   -3.786094   -1.183842
     21          1           0       -0.880149   -3.424034    0.310250
     22          6           0        3.670128    0.595361    0.415760
     23          1           0        3.612602    1.278802   -0.427562
     24          1           0        3.729548    1.190480    1.327841
     25          1           0        4.578217    0.002678    0.337452
     26          6           0        1.443570    2.592367    0.248339
     27          1           0        2.151010    2.593285    1.070314
     28          1           0        1.993586    2.774880   -0.674766
     29          1           0        0.770060    3.434681    0.398499
 ---------------------------------------------------------------------
                    Distance matrix (angstroms):
                    1          2          3          4          5
     1  O    0.000000
     2  O    6.300731   0.000000
     3  N    4.664094   4.242232   0.000000
     4  H    5.557715   4.826587   1.006706   0.000000
     5  C    4.164686   2.387009   2.369330   3.260631   0.000000
     6  C    3.591055   5.098680   1.361879   2.031945   2.842528
     7  C    4.939422   2.859849   1.386083   2.048541   1.363226
     8  C    5.039192   1.283199   3.684711   4.472983   1.416165
     9  C    2.666455   3.720609   2.795227   3.801584   1.510280
    10  H    2.681495   4.066343   3.469555   4.439339   2.148504
    11  H    2.463098   3.961361   3.649369   4.642935   2.142501
    12  C    2.318855   4.919270   2.349405   3.245307   2.539862
    13  C    1.232763   6.143691   3.729324   4.536713   3.822611
    14  C    6.420293   2.768992   2.400632   2.476076   2.554605
    15  H    6.950610   3.593377   2.641729   2.414693   3.310723
    16  H    6.890635   3.334596   2.771641   2.642486   3.221496
    17  H    6.878346   2.005172   3.348954   3.543853   2.751138
    18  C    4.976632   2.307670   4.942023   5.818736   2.573541
    19  H    5.815372   2.562059   5.690541   6.516770   3.370309
    20  H    5.340867   2.711178   5.532167   6.396237   3.216852
    21  H    4.111645   3.238989   4.966125   5.919890   2.719866
    22  C    2.348022   7.483452   4.457280   5.041695   5.128431
    23  H    3.158414   7.576491   4.301310   4.751076   5.272324
    24  H    2.980787   7.933539   4.616093   5.090403   5.546919
    25  H    2.415966   8.190413   5.472784   6.097855   5.889467
    26  C    4.372603   6.502568   2.381486   2.450188   4.321835
    27  H    4.210183   7.210678   3.211901   3.349866   4.933808
    28  H    4.600938   6.954417   3.004163   3.032569   4.824069
    29  H    5.379355   6.669644   2.429902   2.058212   4.695012
                    6          7          8          9         10
     6  C    0.000000
     7  C    2.442784   0.000000
     8  C    4.257024   2.429173   0.000000
     9  C    2.493557   2.490670   2.509561   0.000000
    10  H    3.141772   3.154295   2.847294   1.095566   0.000000
    11  H    3.255459   3.265388   2.723999   1.090812   1.738381
    12  C    1.360766   2.835227   3.833424   1.511975   2.134996
    13  C    2.513187   4.280568   4.960861   2.473275   2.772638
    14  C    3.707275   1.484430   3.014282   3.913258   4.494489
    15  H    3.982757   2.143797   3.851404   4.539253   4.972677
    16  H    4.035513   2.144109   3.669252   4.511571   5.256995
    17  H    4.576460   2.160678   2.661861   4.243763   4.714311
    18  C    5.234258   3.820565   1.499383   2.964624   2.982303
    19  H    6.075887   4.506444   2.172572   3.846675   3.641189
    20  H    5.789056   4.417071   2.148190   3.564262   3.776259
    21  H    4.985409   4.070049   2.163114   2.523738   2.306835
    22  C    3.101280   5.324040   6.357451   3.909225   4.231321
    23  H    3.009519   5.274851   6.545541   4.261247   4.804546
    24  H    3.279691   5.612878   6.833334   4.383519   4.535888
    25  H    4.132158   6.239705   7.011746   4.557026   4.799414
    26  C    1.499368   3.717237   5.734208   3.933249   4.491766
    27  H    2.158333   4.492899   6.343105   4.293977   4.640951
    28  H    2.148773   4.258448   6.197842   4.410474   5.116894
    29  H    2.135199   3.809978   6.072355   4.603634   5.133159
                   11         12         13         14         15
    11  H    0.000000
    12  C    2.119480   0.000000
    13  C    2.612712   1.452713   0.000000
    14  C    4.606360   4.300506   5.748821   0.000000
    15  H    5.374704   4.760998   6.203715   1.093970   0.000000
    16  H    5.067052   4.739878   6.146654   1.093260   1.763661
    17  H    4.831164   4.946312   6.368028   1.088994   1.745475
    18  C    2.771846   4.463710   5.260931   4.511168   5.311310
    19  H    3.773219   5.351967   6.152596   4.998770   5.685459
    20  H    3.076108   4.986924   5.683496   5.039589   5.956414
    21  H    2.230229   4.002642   4.567202   5.036099   5.771384
    22  C    4.052273   2.607707   1.509450   6.716944   7.070878
    23  H    4.389631   2.868159   2.177707   6.566332   6.939525
    24  H    4.735230   3.032158   2.153672   6.960238   7.152367
    25  H    4.489049   3.453089   2.107802   7.662610   8.075338
    26  C    4.611131   2.572708   3.151531   4.730317   4.796099
    27  H    4.973978   2.861949   3.038553   5.587407   5.579914
    28  H    4.883358   3.025557   3.383964   5.226742   5.420538
    29  H    5.387275   3.415567   4.179107   4.525155   4.378427
                   16         17         18         19         20
    16  H    0.000000
    17  H    1.745187   0.000000
    18  C    5.145928   4.081066   0.000000
    19  H    5.721724   4.394983   1.091959   0.000000
    20  H    5.487341   4.584651   1.093845   1.753396   0.000000
    21  H    5.716150   4.788355   1.087410   1.747820   1.750158
    22  C    6.986837   7.475738   6.747183   7.654277   7.125499
    23  H    6.671277   7.401984   7.091937   8.059605   7.390910
    24  H    7.305913   7.763732   7.289515   8.118629   7.793291
    25  H    7.925865   8.365300   7.209916   8.116729   7.502924
    26  C    4.884394   5.722337   6.731706   7.571271   7.261033
    27  H    5.858111   6.537380   7.203344   8.003556   7.793338
    28  H    5.177545   6.225743   7.167187   8.090201   7.554537
    29  H    4.632235   5.576987   7.220679   7.991238   7.799159
                   21         22         23         24         25
    21  H    0.000000
    22  C    6.072206   0.000000
    23  H    6.545674   1.087011   0.000000
    24  H    6.601404   1.090683   1.761510   0.000000
    25  H    6.444909   1.087212   1.773739   1.764081   0.000000
    26  C    6.449851   2.995601   2.624308   2.890728   4.066994
    27  H    6.780395   2.593812   2.471386   2.127431   3.624868
    28  H    6.903271   2.958098   2.218236   3.087770   3.923010
    29  H    7.054995   4.058624   3.661999   3.828666   5.126834
                   26         27         28         29
    26  C    0.000000
    27  H    1.084488   0.000000
    28  H    1.089932   1.761551   0.000000
    29  H    1.088879   1.751087   1.756204   0.000000
 Stoichiometry    C11H15NO2
 Framework group  C1[X(C11H15NO2)]
 Deg. of freedom    81
 Full point group                 C1      NOp   1
 RotChk:  IX=0 Diff= 4.37D-16
 Largest Abelian subgroup         C1      NOp   1
 Largest concise Abelian subgroup C1      NOp   1
                         Standard orientation:                         
 ---------------------------------------------------------------------
 Center     Atomic      Atomic             Coordinates (Angstroms)
 Number     Number       Type             X           Y           Z
 ---------------------------------------------------------------------
      1          8           0       -2.261950   -2.309797   -0.097575
      2          8           0        3.666054   -0.197287    0.211091
      3          7           0       -0.061038    1.802310   -0.115904
      4          1           0       -0.095912    2.808404   -0.119633
      5          6           0        1.292717   -0.140613   -0.037652
      6          6           0       -1.247349    1.134855   -0.072473
      7          6           0        1.193688    1.219007   -0.034371
      8          6           0        2.542842   -0.798889    0.059207
      9          6           0        0.052930   -0.989622   -0.189503
     10          1           0        0.066695   -1.505187   -1.156079
     11          1           0        0.052342   -1.782119    0.560042
     12          6           0       -1.245608   -0.225861   -0.060910
     13          6           0       -2.409227   -1.091654    0.021343
     14          6           0        2.299990    2.205562    0.045240
     15          1           0        2.230521    2.953567   -0.750016
     16          1           0        2.296972    2.739350    0.999325
     17          1           0        3.286880    1.754638   -0.047623
     18          6           0        2.714119   -2.285982   -0.026640
     19          1           0        3.514947   -2.584733   -0.706196
     20          1           0        2.959563   -2.707638    0.952370
     21          1           0        1.812665   -2.789918   -0.367064
     22          6           0       -3.807280   -0.581304    0.273200
     23          1           0       -3.853201    0.155525    1.071052
     24          1           0       -4.222712   -0.128185   -0.627738
     25          1           0       -4.423378   -1.437152    0.537733
     26          6           0       -2.427334    2.059269   -0.037846
     27          1           0       -3.216686    1.744471   -0.711599
     28          1           0       -2.844285    2.128287    0.966813
     29          1           0       -2.126902    3.062585   -0.335762
 ---------------------------------------------------------------------
 Rotational constants (GHZ):           1.0994203           0.4822890           0.3401133
 Leave Link  202 at Sat Jan 24 15:48:00 2026, MaxMem=  2147483648 cpu:               0.0 elap:               0.0
 (Enter /data/home/wyx/g16/l301.exe)
 Standard basis: TZVP (5D, 7F)
 Ernie: Thresh=  0.10000D-02 Tol=  0.10000D-05 Strict=F.
 There are   370 symmetry adapted cartesian basis functions of A   symmetry.
 There are   356 symmetry adapted basis functions of A   symmetry.
   356 basis functions,   610 primitive gaussians,   370 cartesian basis functions
    52 alpha electrons       52 beta electrons
       nuclear repulsion energy       898.7696791010 Hartrees.
 IExCor=20419 DFT=T Ex+Corr=CAM-B3LYP ExCW=0 ScaHFX=  1.000000
 ScaDFX=  1.000000  1.000000  1.000000  0.810000 ScalE2=  1.000000  1.000000
 IRadAn=      5 IRanWt=     -1 IRanGd=            0 ICorTp=0 IEmpDi=141
 HFx  wShort=  0.000000 wLong=  0.330000 cFull=  0.190000 cShort=  0.000000 cLong=  0.460000
 DFx  wShort=  0.000000 wLong=  0.330000 cFull=  0.190000 cShort=  0.000000 cLong=  0.460000
 NAtoms=   29 NActive=   29 NUniq=   29 SFac= 1.00D+00 NAtFMM=   60 NAOKFM=F Big=F
 Integral buffers will be    131072 words long.
 Raffenetti 1 integral format.
 Two-electron integral symmetry is turned on.
 R6Disp:  Grimme-D3(BJ) Dispersion energy=       -0.0260843601 Hartrees.
 Nuclear repulsion after empirical dispersion term =      898.7435947409 Hartrees.
 ------------------------------------------------------------------------------
 Polarizable Continuum Model (PCM)
 =================================
 Model                : PCM.
 Atomic radii         : UFF (Universal Force Field).
 Polarization charges : Total charges.
 Charge compensation  : None.
 Solution method      : On-the-fly selection.
 Cavity type          : Scaled VdW (van der Waals Surface) (Alpha=1.100).
 Cavity algorithm     : GePol (No added spheres)
                        Default sphere list used, NSphG=   29.
                        Lebedev-Laikov grids with approx.  5.0 points / Ang**2.
                        Smoothing algorithm: York/Karplus (Gamma=1.0000).
                        Polarization charges: spherical gaussians, with
                                              point-specific exponents (IZeta= 3).
                        Self-potential: point-specific (ISelfS= 7).
                        Self-field    : sphere-specific E.n sum rule (ISelfD= 2).
 Solvent              : Water, Eps=  78.355300 Eps(inf)=   1.777849
 ------------------------------------------------------------------------------
 GePol: Number of generator spheres                  =      29
 GePol: Total number of spheres                      =      29
 GePol: Number of exposed spheres                    =      29 (100.00%)
 GePol: Number of points                             =    2098
 GePol: Average weight of points                     =       0.13
 GePol: Minimum weight of points                     =   0.22D-08
 GePol: Maximum weight of points                     =    0.20577
 GePol: Number of points with low weight             =     122
 GePol: Fraction of low-weight points (<1% of avg)   =       5.82%
 GePol: Cavity surface area                          =    269.263 Ang**2
 GePol: Cavity volume                                =    286.653 Ang**3
 Leave Link  301 at Sat Jan 24 15:48:01 2026, MaxMem=  2147483648 cpu:               0.6 elap:               0.0
 (Enter /data/home/wyx/g16/l302.exe)
 NPDir=0 NMtPBC=     1 NCelOv=     1 NCel=       1 NClECP=     1 NCelD=      1
         NCelK=      1 NCelE2=     1 NClLst=     1 CellRange=     0.0.
 One-electron integrals computed using PRISM.
 One-electron integral symmetry used in STVInt
 NBasis=   356 RedAO= T EigKep=  3.91D-05  NBF=   356
 NBsUse=   356 1.00D-06 EigRej= -1.00D+00 NBFU=   356
 Precomputing XC quadrature grid using
 IXCGrd= 4 IRadAn=           5 IRanWt=          -1 IRanGd=           0 AccXCQ= 0.00D+00.
 Generated NRdTot=       0 NPtTot=           0 NUsed=           0 NTot=          32
 NSgBfM=   366   366   366   366   366 MxSgAt=    29 MxSgA2=    29.
 Leave Link  302 at Sat Jan 24 15:48:01 2026, MaxMem=  2147483648 cpu:               3.1 elap:               0.2
 (Enter /data/home/wyx/g16/l303.exe)
 DipDrv:  MaxL=1.
 Leave Link  303 at Sat Jan 24 15:48:01 2026, MaxMem=  2147483648 cpu:               0.6 elap:               0.0
 (Enter /data/home/wyx/g16/l308.exe)
 Leave Link  308 at Sat Jan 24 15:48:01 2026, MaxMem=  2147483648 cpu:               0.7 elap:               0.1
 (Enter /data/home/wyx/g16/l401.exe)
 Initial guess from the checkpoint file:  "DDL-LR-Eq-4.chk"
 B after Tr=    -0.000000    0.000000    0.000000
         Rot=    1.000000    0.000000   -0.000000   -0.000000 Ang=   0.00 deg.
 Guess basis will be translated and rotated to current coordinates.
 JPrj=2 DoOrth=T DoCkMO=T.
 Leave Link  401 at Sat Jan 24 15:48:02 2026, MaxMem=  2147483648 cpu:               2.2 elap:               0.2
 (Enter /data/home/wyx/g16/l502.exe)
 Integral symmetry usage will be decided dynamically.
 Closed shell SCF:
 Using DIIS extrapolation, IDIIS=  1040.
 NGot=  2147483648 LenX=  2147200095 LenY=  2147062754
 Requested convergence on RMS density matrix=1.00D-08 within 128 cycles.
 Requested convergence on MAX density matrix=1.00D-06.
 Requested convergence on             energy=1.00D-06.
 No special actions if energy rises.
 Fock matrices will be formed incrementally for  20 cycles.

 Cycle   1  Pass 1  IDiag  1:
 FoFJK:  IHMeth= 1 ICntrl=       0 DoSepK=T KAlg= 0 I1Cent=           0 FoldK=F
 IRaf=         1 NMat=       1 IRICut=       1 DoRegI=T DoRafI=F ISym2E= 0 IDoP0=0 IntGTp=1.
 FoFCou: FMM=F IPFlag=           0 FMFlag=      100000 FMFlg1=           0
         NFxFlg=           0 DoJE=T BraDBF=F KetDBF=F FulRan=T
         wScrn=  0.000000 ICntrl=       500 IOpCl=  0 I1Cent=           0 NGrid=           0
         NMat0=    1 NMatS0=      1 NMatT0=    0 NMatD0=    1 NMtDS0=    0 NMtDT0=    0
 Symmetry not used in FoFCou.
 Inv3:  Mode=1 IEnd=    13204812.
 Iteration    1 A*A^-1 deviation from unit magnitude is 3.33D-15 for   1845.
 Iteration    1 A*A^-1 deviation from orthogonality  is 3.15D-15 for   1339    960.
 Iteration    1 A^-1*A deviation from unit magnitude is 3.33D-15 for    395.
 Iteration    1 A^-1*A deviation from orthogonality  is 1.58D-15 for   1310    386.
 E= -633.320259872597    
 DIIS: error= 8.14D-09 at cycle   1 NSaved=   1.
 NSaved= 1 IEnMin= 1 EnMin= -633.320259872597     IErMin= 1 ErrMin= 8.14D-09
 ErrMax= 8.14D-09  0.00D+00 EMaxC= 1.00D-01 BMatC= 2.02D-14 BMatP= 2.02D-14
 IDIUse=1 WtCom= 1.00D+00 WtEn= 0.00D+00
 Coeff-Com:  0.100D+01
 Coeff:      0.100D+01
 Gap=     0.228 Goal=   None    Shift=    0.000
 RMSDP=2.27D-09 MaxDP=1.40D-07              OVMax= 9.72D-08

 Error on total polarization charges =  0.01559
 SCF Done:  E(RCAM-B3LYP) =  -633.320259873     A.U. after    1 cycles
            NFock=  1  Conv=0.23D-08     -V/T= 2.0043
 KE= 6.306209348424D+02 PE=-3.273432576910D+03 EE= 1.110747787454D+03
 Leave Link  502 at Sat Jan 24 15:48:07 2026, MaxMem=  2147483648 cpu:              85.7 elap:               5.6
 (Enter /data/home/wyx/g16/l801.exe)
 DoSCS=F DFT=T ScalE2(SS,OS)=  1.000000  1.000000
 ExpMin= 9.52D-02 ExpMax= 2.70D+04 ExpMxC= 9.22D+02 IAcc=3 IRadAn=         5 AccDes= 0.00D+00
 HarFok:  IExCor=  205 AccDes= 0.00D+00 IRadAn=         5 IDoV=-2 UseB2=F ITyADJ=14
 ICtDFT= 12500011 ScaDFX=  1.000000  1.000000  1.000000  1.000000
 Largest valence mixing into a core orbital is  5.63D-05
 Largest core mixing into a valence orbital is  1.03D-05
 Range of M.O.s used for correlation:    15   356
 NBasis=   356 NAE=    52 NBE=    52 NFC=    14 NFV=     0
 NROrb=    342 NOA=    38 NOB=    38 NVA=   304 NVB=   304

 **** Warning!!: The largest alpha MO coefficient is  0.46702281D+02

 Leave Link  801 at Sat Jan 24 15:48:08 2026, MaxMem=  2147483648 cpu:               1.0 elap:               0.1
 (Enter /data/home/wyx/g16/l914.exe)
 RHF ground state
 Two-electron integrals replicated using symmetry.
 MDV=  2147483648 DFT=T DoStab=F Mixed=T DoRPA=T DoScal=F NonHer=T
 NEqPCM:  Using equilibrium solvation (IEInf=0, Eps=  78.3553, EpsInf=   1.7778)
 Making orbital integer symmetry assigments:
 Orbital symmetries:
       Occupied  (A) (A) (A) (A) (A) (A) (A) (A) (A) (A) (A) (A)
                 (A) (A) (A) (A) (A) (A) (A) (A) (A) (A) (A) (A)
                 (A) (A) (A) (A) (A) (A) (A) (A) (A) (A) (A) (A)
                 (A) (A) (A) (A) (A) (A) (A) (A) (A) (A) (A) (A)
                 (A) (A) (A) (A)
       Virtual   (A) (A) (A) (A) (A) (A) (A) (A) (A) (A) (A) (A)
                 (A) (A) (A) (A) (A) (A) (A) (A) (A) (A) (A) (A)
                 (A) (A) (A) (A) (A) (A) (A) (A) (A) (A) (A) (A)
                 (A) (A) (A) (A) (A) (A) (A) (A) (A) (A) (A) (A)
                 (A) (A) (A) (A) (A) (A) (A) (A) (A) (A) (A) (A)
                 (A) (A) (A) (A) (A) (A) (A) (A) (A) (A) (A) (A)
                 (A) (A) (A) (A) (A) (A) (A) (A) (A) (A) (A) (A)
                 (A) (A) (A) (A) (A) (A) (A) (A) (A) (A) (A) (A)
                 (A) (A) (A) (A) (A) (A) (A) (A) (A) (A) (A) (A)
                 (A) (A) (A) (A) (A) (A) (A) (A) (A) (A) (A) (A)
                 (A) (A) (A) (A) (A) (A) (A) (A) (A) (A) (A) (A)
                 (A) (A) (A) (A) (A) (A) (A) (A) (A) (A) (A) (A)
                 (A) (A) (A) (A) (A) (A) (A) (A) (A) (A) (A) (A)
                 (A) (A) (A) (A) (A) (A) (A) (A) (A) (A) (A) (A)
                 (A) (A) (A) (A) (A) (A) (A) (A) (A) (A) (A) (A)
                 (A) (A) (A) (A) (A) (A) (A) (A) (A) (A) (A) (A)
                 (A) (A) (A) (A) (A) (A) (A) (A) (A) (A) (A) (A)
                 (A) (A) (A) (A) (A) (A) (A) (A) (A) (A) (A) (A)
                 (A) (A) (A) (A) (A) (A) (A) (A) (A) (A) (A) (A)
                 (A) (A) (A) (A) (A) (A) (A) (A) (A) (A) (A) (A)
                 (A) (A) (A) (A) (A) (A) (A) (A) (A) (A) (A) (A)
                 (A) (A) (A) (A) (A) (A) (A) (A) (A) (A) (A) (A)
                 (A) (A) (A) (A) (A) (A) (A) (A) (A) (A) (A) (A)
                 (A) (A) (A) (A) (A) (A) (A) (A) (A) (A) (A) (A)
                 (A) (A) (A) (A) (A) (A) (A) (A) (A) (A) (A) (A)
                 (A) (A) (A) (A)
    24 initial guesses have been made.
 Convergence on wavefunction:    0.001000000000000
 Davidson Disk Diagonalization:  ConvIn= 1.00D-03 SkipCon=T Conv= 1.00D-03.
 Max sub-space:  2000 roots to seek:    24 dimension of matrix:        23104
 Iteration     1 Dimension    24 NMult     0 NNew     24
 CISAX will form    24 AO SS matrices at one time.
 NMat=    24 NSing=    24 JSym2X= 0.
 FoFJK:  IHMeth= 1 ICntrl=       0 DoSepK=T KAlg= 0 I1Cent=           0 FoldK=F
 IRaf=         1 NMat=      48 IRICut=       1 DoRegI=T DoRafI=F ISym2E= 0 IDoP0=3 IntGTp=3.
 FoFCou: FMM=F IPFlag=           0 FMFlag=      100000 FMFlg1=           0
         NFxFlg=           0 DoJE=F BraDBF=F KetDBF=F FulRan=T
         wScrn=  0.000000 ICntrl=       500 IOpCl=  0 I1Cent=           0 NGrid=           0
         NMat0=   24 NMatS0=     24 NMatT0=    0 NMatD0=   24 NMtDS0=    0 NMtDT0=    0
 Symmetry not used in FoFCou.
 New state      3 was old state      4
 New state      4 was old state      3
 New state      6 was old state      7
 Excitation Energies [eV] at current iteration:
 Root      1 :     3.604838157684495
 Root      2 :     3.727203277780079
 Root      3 :     4.476020202634365
 Root      4 :     5.408941508138833
 Root      5 :     6.073178465053545
 Root      6 :     6.321058079847022
 Root      7 :     6.583682170986669
 Root      8 :     6.690023072366515
 Root      9 :     6.930606200630794
 Root     10 :     7.167375301339071
 Root     11 :     7.189594920391312
 Root     12 :     7.212281788505793
 Root     13 :     7.544594066109786
 Root     14 :     7.633609511447470
 Root     15 :     7.674287187524780
 Root     16 :     7.751697851201632
 Root     17 :     7.899287118243029
 Root     18 :     8.199590244426135
 Root     19 :     8.236026771923141
 Root     20 :     8.337498288036860
 Root     21 :     8.412914291442183
 Root     22 :     8.648378669149752
 Root     23 :     8.695177822432669
 Root     24 :     9.143895695001438
 Iteration     2 Dimension    36 NMult    24 NNew     12
 CISAX will form    12 AO SS matrices at one time.
 NMat=    12 NSing=    12 JSym2X= 0.
 Root      1 not converged, maximum delta is    0.146912413723605
 Root      2 not converged, maximum delta is    0.140147189505653
 Root      3 not converged, maximum delta is    0.093571847909861
 Root      4 not converged, maximum delta is    0.470115163729300
 Root      5 not converged, maximum delta is    0.450416115553848
 Root      6 not converged, maximum delta is    0.081057969405171
 Excitation Energies [eV] at current iteration:
 Root      1 :     3.189862552512766   Change is   -0.414975605171730
 Root      2 :     3.512715239282183   Change is   -0.214488038497897
 Root      3 :     4.237500695686187   Change is   -0.238519506948178
 Root      4 :     4.965201222521261   Change is   -0.443740285617572
 Root      5 :     5.355198735002877   Change is   -0.717979730050668
 Root      6 :     6.151863118733599   Change is   -0.169194961113424
 Iteration     3 Dimension    48 NMult    36 NNew     12
 CISAX will form    12 AO SS matrices at one time.
 NMat=    12 NSing=    12 JSym2X= 0.
 Root      1 not converged, maximum delta is    0.007074632758413
 Root      2 not converged, maximum delta is    0.009971446265367
 Root      3 not converged, maximum delta is    0.017261309605221
 Root      4 not converged, maximum delta is    0.014917679206308
 Root      5 not converged, maximum delta is    0.014416593557485
 Root      6 not converged, maximum delta is    0.018721638572412
 Excitation Energies [eV] at current iteration:
 Root      1 :     3.175724690264104   Change is   -0.014137862248661
 Root      2 :     3.504298936425831   Change is   -0.008416302856352
 Root      3 :     4.225053845645652   Change is   -0.012446850040534
 Root      4 :     4.941625874964925   Change is   -0.023575347556336
 Root      5 :     5.341723332225732   Change is   -0.013475402777144
 Root      6 :     6.140695803680291   Change is   -0.011167315053307
 Iteration     4 Dimension    60 NMult    48 NNew     12
 CISAX will form    12 AO SS matrices at one time.
 NMat=    12 NSing=    12 JSym2X= 0.
 Root      1 not converged, maximum delta is    0.001572036994518
 Root      2 not converged, maximum delta is    0.001430480766690
 Root      3 not converged, maximum delta is    0.002102394117001
 Root      4 not converged, maximum delta is    0.003066154701599
 Root      5 not converged, maximum delta is    0.002807148595969
 Root      6 not converged, maximum delta is    0.003538964588454
 Excitation Energies [eV] at current iteration:
 Root      1 :     3.174648178150409   Change is   -0.001076512113695
 Root      2 :     3.503790911915846   Change is   -0.000508024509985
 Root      3 :     4.224506905960574   Change is   -0.000546939685078
 Root      4 :     4.938712105696741   Change is   -0.002913769268184
 Root      5 :     5.340111572202343   Change is   -0.001611760023389
 Root      6 :     6.139877473444955   Change is   -0.000818330235337
 Iteration     5 Dimension    72 NMult    60 NNew     12
 CISAX will form    12 AO SS matrices at one time.
 NMat=    12 NSing=    12 JSym2X= 0.
 Root      1 has converged.
 Root      2 has converged.
 Root      3 has converged.
 Root      4 has converged.
 Root      5 has converged.
 Root      6 has converged.
 Excitation Energies [eV] at current iteration:
 Root      1 :     3.174598206267621   Change is   -0.000049971882788
 Root      2 :     3.503767049845231   Change is   -0.000023862070614
 Root      3 :     4.224476716296941   Change is   -0.000030189663634
 Root      4 :     4.938546555038613   Change is   -0.000165550658128
 Root      5 :     5.339986007542731   Change is   -0.000125564659612
 Root      6 :     6.139828605122471   Change is   -0.000048868322483
 Convergence achieved on expansion vectors.
 ***********************************************************************
 Excited states from <AA,BB:AA,BB> singles matrix:
 ***********************************************************************
 
 1PDM for each excited state written to RWF  633
 Ground to excited state transition densities written to RWF  633
 Ground to excited state transition electric dipole moments (Au):
       state          X           Y           Z        Dip. S.      Osc.
         1        -1.7989     -0.0769     -0.0419      3.2438      0.2523
         2         0.2049      0.0221      0.0503      0.0450      0.0039
         3         0.0104     -0.1068      0.0412      0.0132      0.0014
         4         0.0324     -2.0615      0.0732      4.2562      0.5150
         5        -0.3427      1.1938     -0.0091      1.5426      0.2018
         6        -0.0456      0.1007      0.0172      0.0125      0.0019
 Ground to excited state transition velocity dipole moments (Au):
       state          X           Y           Z        Dip. S.      Osc.
         1         0.2041      0.0078      0.0049      0.0417      0.2384
         2        -0.0261     -0.0027     -0.0052      0.0007      0.0037
         3        -0.0018      0.0158     -0.0027      0.0003      0.0011
         4        -0.0103      0.3554     -0.0107      0.1266      0.4649
         5         0.0631     -0.2328      0.0025      0.0582      0.1976
         6         0.0110     -0.0205     -0.0237      0.0011      0.0033
 Ground to excited state transition magnetic dipole moments (Au):
       state          X           Y           Z
         1         0.0843      0.0191     -1.3933
         2         0.7199      0.2656      0.2639
         3        -0.0031     -0.9402     -0.0593
         4         0.0425      0.0751     -0.4868
         5        -0.1244     -0.0791      0.2110
         6         0.0462      0.0149     -0.0198
 Ground to excited state transition velocity quadrupole moments (Au):
       state          XX          YY          ZZ          XY          XZ          YZ
         1         0.4035     -0.1594     -0.0105     -0.5083      0.0377     -0.0074
         2        -0.0527      0.0024     -0.0003      0.0692     -0.0439      0.0328
         3        -0.0229      0.0081     -0.0127     -0.0263      0.0770      0.0051
         4        -1.5353      0.3579      0.0337     -0.2954     -0.0644     -0.0206
         5         0.5462     -0.4212     -0.0288     -0.0855      0.0525     -0.0405
         6        -0.2015     -0.1330      0.1036     -0.0212     -0.0261      0.1039
 <0|del|b> * <b|rxdel|0> + <0|del|b> * <b|delr+rdel|0>
 Rotatory Strengths (R) in cgs (10**-40 erg-esu-cm/Gauss)
       state          XX          YY          ZZ    R(velocity)    E-M Angle
         1       -28.8654     34.3520     58.0330     21.1732       87.89
         2        -7.0366    -56.7517    -50.9246    -38.2376      164.11
         3       -36.1148      0.1965    -31.0616    -22.3266      165.20
         4       112.9122      3.5491      6.1014     40.8542       79.70
         5        55.7262    -17.4166      1.6140     13.3079       79.72
         6         0.2071      2.5308     -0.6333      0.7015       67.33
 1/2[<0|r|b>*<b|rxdel|0> + (<0|rxdel|b>*<b|r|0>)*]
 Rotatory Strengths (R) in cgs (10**-40 erg-esu-cm/Gauss)
       state          XX          YY          ZZ     R(length)
         1       107.2312      1.0376    -41.2834     22.3285
         2      -104.2928     -4.1435     -9.3893    -39.2752
         3         0.0231    -70.9939      1.7291    -23.0805
         4        -0.9727    109.4516     25.2060     44.5616
         5       -30.1382     66.7362      1.3532     12.6504
         6         1.4881     -1.0621      0.2402      0.2221
  1/2[<0|del|b>*<b|r|0> + (<0|r|b>*<b|del|0>)*] (Au)
       state          X           Y           Z        Dip. S.   Osc.(frdel)
         1        -0.3671     -0.0006     -0.0002      0.3679      0.2453
         2        -0.0054     -0.0001     -0.0003      0.0057      0.0038
         3        -0.0000     -0.0017     -0.0001      0.0018      0.0012
         4        -0.0003     -0.7327     -0.0008      0.7339      0.4892
         5        -0.0216     -0.2778     -0.0000      0.2995      0.1997
         6        -0.0005     -0.0021     -0.0004      0.0030      0.0020

 Excitation energies and oscillator strengths:
 
 Excited State   1:      Singlet-A      3.1746 eV  390.55 nm  f=0.2523  <S**2>=0.000
      52 -> 53         0.69740
 This state for optimization and/or second-order correction.
 Total Energy, E(TD-HF/TD-DFT) =  -633.203595535    
 Copying the excited state density for this state as the 1-particle RhoCI density.
 
 Excited State   2:      Singlet-A      3.5038 eV  353.86 nm  f=0.0039  <S**2>=0.000
      51 -> 53         0.62529
      51 -> 54        -0.27902
 
 Excited State   3:      Singlet-A      4.2245 eV  293.49 nm  f=0.0014  <S**2>=0.000
      50 -> 53         0.52170
      50 -> 54         0.41712
      50 -> 58         0.11837
      51 -> 54         0.10370
 
 Excited State   4:      Singlet-A      4.9385 eV  251.05 nm  f=0.5150  <S**2>=0.000
      49 -> 53        -0.18355
      52 -> 54         0.67522
 
 Excited State   5:      Singlet-A      5.3400 eV  232.18 nm  f=0.2018  <S**2>=0.000
      49 -> 53         0.66026
      50 -> 53        -0.13036
      52 -> 54         0.18299
 
 Excited State   6:      Singlet-A      6.1398 eV  201.93 nm  f=0.0019  <S**2>=0.000
      52 -> 55         0.66270
      52 -> 56         0.12510
      52 -> 61        -0.10377
      52 -> 62        -0.10341
 SavETr:  write IOETrn=   770 NScale= 10 NData=  16 NLR=1 NState=    6 LETran=     118.
 Leave Link  914 at Sat Jan 24 15:50:06 2026, MaxMem=  2147483648 cpu:            1876.5 elap:             117.7
 (Enter /data/home/wyx/g16/l601.exe)
 Copying SCF densities to generalized density rwf, IOpCl= 0 IROHF=0.

 **********************************************************************

            Population analysis using the SCF density.

 **********************************************************************

 Orbital symmetries:
       Occupied  (A) (A) (A) (A) (A) (A) (A) (A) (A) (A) (A) (A)
                 (A) (A) (A) (A) (A) (A) (A) (A) (A) (A) (A) (A)
                 (A) (A) (A) (A) (A) (A) (A) (A) (A) (A) (A) (A)
                 (A) (A) (A) (A) (A) (A) (A) (A) (A) (A) (A) (A)
                 (A) (A) (A) (A)
       Virtual   (A) (A) (A) (A) (A) (A) (A) (A) (A) (A) (A) (A)
                 (A) (A) (A) (A) (A) (A) (A) (A) (A) (A) (A) (A)
                 (A) (A) (A) (A) (A) (A) (A) (A) (A) (A) (A) (A)
                 (A) (A) (A) (A) (A) (A) (A) (A) (A) (A) (A) (A)
                 (A) (A) (A) (A) (A) (A) (A) (A) (A) (A) (A) (A)
                 (A) (A) (A) (A) (A) (A) (A) (A) (A) (A) (A) (A)
                 (A) (A) (A) (A) (A) (A) (A) (A) (A) (A) (A) (A)
                 (A) (A) (A) (A) (A) (A) (A) (A) (A) (A) (A) (A)
                 (A) (A) (A) (A) (A) (A) (A) (A) (A) (A) (A) (A)
                 (A) (A) (A) (A) (A) (A) (A) (A) (A) (A) (A) (A)
                 (A) (A) (A) (A) (A) (A) (A) (A) (A) (A) (A) (A)
                 (A) (A) (A) (A) (A) (A) (A) (A) (A) (A) (A) (A)
                 (A) (A) (A) (A) (A) (A) (A) (A) (A) (A) (A) (A)
                 (A) (A) (A) (A) (A) (A) (A) (A) (A) (A) (A) (A)
                 (A) (A) (A) (A) (A) (A) (A) (A) (A) (A) (A) (A)
                 (A) (A) (A) (A) (A) (A) (A) (A) (A) (A) (A) (A)
                 (A) (A) (A) (A) (A) (A) (A) (A) (A) (A) (A) (A)
                 (A) (A) (A) (A) (A) (A) (A) (A) (A) (A) (A) (A)
                 (A) (A) (A) (A) (A) (A) (A) (A) (A) (A) (A) (A)
                 (A) (A) (A) (A) (A) (A) (A) (A) (A) (A) (A) (A)
                 (A) (A) (A) (A) (A) (A) (A) (A) (A) (A) (A) (A)
                 (A) (A) (A) (A) (A) (A) (A) (A) (A) (A) (A) (A)
                 (A) (A) (A) (A) (A) (A) (A) (A) (A) (A) (A) (A)
                 (A) (A) (A) (A) (A) (A) (A) (A) (A) (A) (A) (A)
                 (A) (A) (A) (A) (A) (A) (A) (A) (A) (A) (A) (A)
                 (A) (A) (A) (A)
 The electronic state is 1-A.
 Alpha  occ. eigenvalues --  -19.17798 -19.16665 -14.44478 -10.33426 -10.33349
 Alpha  occ. eigenvalues --  -10.32564 -10.32391 -10.25717 -10.25334 -10.25165
 Alpha  occ. eigenvalues --  -10.25119 -10.24216 -10.24085 -10.23924  -1.11761
 Alpha  occ. eigenvalues --   -1.08943  -1.07748  -0.91547  -0.90632  -0.83939
 Alpha  occ. eigenvalues --   -0.82484  -0.81471  -0.78800  -0.74338  -0.71633
 Alpha  occ. eigenvalues --   -0.69244  -0.62125  -0.58485  -0.56962  -0.55153
 Alpha  occ. eigenvalues --   -0.54712  -0.54250  -0.52415  -0.51815  -0.50659
 Alpha  occ. eigenvalues --   -0.49645  -0.49298  -0.49013  -0.48451  -0.48215
 Alpha  occ. eigenvalues --   -0.46601  -0.45458  -0.44529  -0.43637  -0.42961
 Alpha  occ. eigenvalues --   -0.42436  -0.41749  -0.40784  -0.32988  -0.32269
 Alpha  occ. eigenvalues --   -0.30818  -0.26349
 Alpha virt. eigenvalues --   -0.03555   0.01820   0.06596   0.08427   0.08768
 Alpha virt. eigenvalues --    0.10212   0.10784   0.11700   0.12701   0.13324
 Alpha virt. eigenvalues --    0.14522   0.15402   0.15555   0.16611   0.16945
 Alpha virt. eigenvalues --    0.17499   0.17604   0.17906   0.18510   0.19178
 Alpha virt. eigenvalues --    0.19917   0.20330   0.22482   0.23165   0.24298
 Alpha virt. eigenvalues --    0.24438   0.24884   0.25512   0.25818   0.26272
 Alpha virt. eigenvalues --    0.27493   0.28074   0.28522   0.29359   0.29938
 Alpha virt. eigenvalues --    0.31230   0.31712   0.33449   0.33857   0.34872
 Alpha virt. eigenvalues --    0.35209   0.35988   0.37108   0.37322   0.37650
 Alpha virt. eigenvalues --    0.39989   0.40914   0.41290   0.42371   0.43243
 Alpha virt. eigenvalues --    0.44130   0.44911   0.45472   0.46345   0.46388
 Alpha virt. eigenvalues --    0.47076   0.47953   0.48115   0.48633   0.48852
 Alpha virt. eigenvalues --    0.49457   0.50075   0.50717   0.51551   0.51811
 Alpha virt. eigenvalues --    0.52367   0.52809   0.53069   0.53872   0.54107
 Alpha virt. eigenvalues --    0.54716   0.55753   0.55830   0.57437   0.57958
 Alpha virt. eigenvalues --    0.58842   0.59237   0.60004   0.62130   0.62607
 Alpha virt. eigenvalues --    0.63546   0.64737   0.66371   0.67469   0.68012
 Alpha virt. eigenvalues --    0.68240   0.69047   0.70987   0.71599   0.72208
 Alpha virt. eigenvalues --    0.73481   0.75113   0.76502   0.77216   0.78606
 Alpha virt. eigenvalues --    0.79958   0.80871   0.83245   0.87465   0.88113
 Alpha virt. eigenvalues --    0.91371   0.93169   0.98645   1.01862   1.21493
 Alpha virt. eigenvalues --    1.23477   1.25524   1.27321   1.29890   1.30941
 Alpha virt. eigenvalues --    1.32419   1.33254   1.34299   1.35590   1.36702
 Alpha virt. eigenvalues --    1.37510   1.37687   1.39304   1.39716   1.39941
 Alpha virt. eigenvalues --    1.40514   1.40727   1.41121   1.41398   1.41823
 Alpha virt. eigenvalues --    1.42965   1.43397   1.44575   1.45485   1.45677
 Alpha virt. eigenvalues --    1.48463   1.49677   1.49921   1.50965   1.51425
 Alpha virt. eigenvalues --    1.52166   1.52367   1.54230   1.56680   1.57525
 Alpha virt. eigenvalues --    1.59299   1.59970   1.60233   1.61106   1.61947
 Alpha virt. eigenvalues --    1.62843   1.63190   1.63601   1.64080   1.64621
 Alpha virt. eigenvalues --    1.65865   1.66389   1.66487   1.67809   1.68245
 Alpha virt. eigenvalues --    1.69021   1.69333   1.70332   1.71397   1.73168
 Alpha virt. eigenvalues --    1.73617   1.74143   1.75809   1.76239   1.80300
 Alpha virt. eigenvalues --    1.81339   1.83138   1.84520   1.85047   1.85877
 Alpha virt. eigenvalues --    1.86087   1.86533   1.89468   1.89980   1.90309
 Alpha virt. eigenvalues --    1.91631   1.93168   1.96966   1.98571   2.01442
 Alpha virt. eigenvalues --    2.02213   2.04828   2.05895   2.07395   2.09972
 Alpha virt. eigenvalues --    2.10742   2.13730   2.14765   2.19032   2.20170
 Alpha virt. eigenvalues --    2.20814   2.23106   2.23877   2.24925   2.25561
 Alpha virt. eigenvalues --    2.27587   2.29247   2.29928   2.31852   2.32940
 Alpha virt. eigenvalues --    2.34198   2.34978   2.36239   2.38117   2.38959
 Alpha virt. eigenvalues --    2.40111   2.41100   2.42675   2.43594   2.45711
 Alpha virt. eigenvalues --    2.46714   2.47223   2.49437   2.49568   2.51289
 Alpha virt. eigenvalues --    2.53038   2.53938   2.54823   2.56512   2.56975
 Alpha virt. eigenvalues --    2.58264   2.59732   2.61333   2.62318   2.62981
 Alpha virt. eigenvalues --    2.63971   2.65452   2.66040   2.66825   2.68249
 Alpha virt. eigenvalues --    2.68609   2.71602   2.73582   2.74429   2.75127
 Alpha virt. eigenvalues --    2.76182   2.76773   2.77433   2.78292   2.78656
 Alpha virt. eigenvalues --    2.80345   2.81094   2.83185   2.84073   2.85326
 Alpha virt. eigenvalues --    2.85620   2.87728   2.89464   2.90358   2.92798
 Alpha virt. eigenvalues --    2.98183   2.98570   2.98976   3.03839   3.08706
 Alpha virt. eigenvalues --    3.11081   3.11816   3.13913   3.19585   3.19768
 Alpha virt. eigenvalues --    3.21237   3.22250   3.24990   3.25231   3.25906
 Alpha virt. eigenvalues --    3.28577   3.30461   3.31010   3.35352   3.37658
 Alpha virt. eigenvalues --    3.39300   3.39697   3.40032   3.40548   3.41294
 Alpha virt. eigenvalues --    3.42052   3.44026   3.45289   3.46799   3.49385
 Alpha virt. eigenvalues --    3.51274   3.52107   3.55001   3.58161   3.59588
 Alpha virt. eigenvalues --    3.61909   3.91844   3.99923   4.29579   4.35350
 Alpha virt. eigenvalues --   21.64228  21.76657  22.04974  22.10350  22.11855
 Alpha virt. eigenvalues --   22.12793  22.15968  22.18817  22.20868  22.26478
 Alpha virt. eigenvalues --   22.31143  31.93092  43.64203  43.66871
          Condensed to atoms (all electrons):
               1          2          3          4          5          6
     1  O    7.952478   0.000000  -0.000230   0.000017   0.017845   0.016262
     2  O    0.000000   8.106743   0.000680   0.000020  -0.188306   0.001591
     3  N   -0.000230   0.000680   6.345741   0.370857  -0.092894   0.381409
     4  H    0.000017   0.000020   0.370857   0.392397   0.011622  -0.040867
     5  C    0.017845  -0.188306  -0.092894   0.011622   7.177854  -0.046361
     6  C    0.016262   0.001591   0.381409  -0.040867  -0.046361   5.576981
     7  C   -0.000047  -0.000961   0.352699  -0.043280   0.315740  -0.146415
     8  C   -0.000256   0.616028   0.004562  -0.001250  -0.477809   0.048798
     9  C   -0.009495   0.022665   0.017907   0.000749  -0.646998  -0.092732
    10  H    0.005367  -0.000027   0.002386   0.000026  -0.034917  -0.006566
    11  H    0.011506  -0.000220  -0.001172  -0.000002  -0.118791   0.022568
    12  C   -0.245315  -0.003556  -0.103251   0.017837   0.202204  -0.151876
    13  C    0.731574  -0.000004  -0.000266   0.000502   0.065626   0.126201
    14  C   -0.000014  -0.079805  -0.049326   0.001999   0.025181  -0.005605
    15  H    0.000000   0.004521   0.002569  -0.000131  -0.002839   0.003112
    16  H    0.000000   0.001912  -0.002081   0.000086  -0.013865   0.001032
    17  H    0.000000   0.035622   0.003761   0.000684   0.010734  -0.000260
    18  C   -0.000324  -0.089956  -0.000284   0.000014  -0.133007  -0.002344
    19  H   -0.000000   0.001004   0.000009  -0.000001   0.004917   0.000041
    20  H    0.000012  -0.001594   0.000011  -0.000001  -0.011747   0.000112
    21  H    0.000726   0.007443   0.000078   0.000000   0.079552  -0.001501
    22  C   -0.117246   0.000000   0.000285   0.000104   0.001026  -0.010712
    23  H    0.004149  -0.000000   0.000026  -0.000051  -0.000400  -0.027684
    24  H    0.002041   0.000000   0.000069  -0.000015  -0.000076   0.010016
    25  H    0.009763   0.000000   0.000024  -0.000002  -0.000092  -0.001379
    26  C    0.000880   0.000008  -0.028149  -0.009993   0.001491   0.196614
    27  H   -0.000135  -0.000000   0.000890   0.000886   0.000271  -0.038544
    28  H   -0.000032  -0.000000  -0.002829   0.000553   0.000430  -0.037917
    29  H    0.000020   0.000000   0.003411   0.001855  -0.000520  -0.052252
               7          8          9         10         11         12
     1  O   -0.000047  -0.000256  -0.009495   0.005367   0.011506  -0.245315
     2  O   -0.000961   0.616028   0.022665  -0.000027  -0.000220  -0.003556
     3  N    0.352699   0.004562   0.017907   0.002386  -0.001172  -0.103251
     4  H   -0.043280  -0.001250   0.000749   0.000026  -0.000002   0.017837
     5  C    0.315740  -0.477809  -0.646998  -0.034917  -0.118791   0.202204
     6  C   -0.146415   0.048798  -0.092732  -0.006566   0.022568  -0.151876
     7  C    5.514148  -0.231399  -0.243907  -0.003495   0.014791   0.048013
     8  C   -0.231399   5.742026   0.186204  -0.002374  -0.000960  -0.087254
     9  C   -0.243907   0.186204   6.472436   0.408087   0.538425  -0.132862
    10  H   -0.003495  -0.002374   0.408087   0.549358  -0.040309  -0.023202
    11  H    0.014791  -0.000960   0.538425  -0.040309   0.513783  -0.096187
    12  C    0.048013  -0.087254  -0.132862  -0.023202  -0.096187   7.477430
    13  C    0.025089  -0.010452  -0.231634  -0.006312  -0.001350  -0.480252
    14  C    0.196004  -0.098087   0.021694  -0.001056   0.000232   0.003678
    15  H   -0.046080   0.007112  -0.001278   0.000127  -0.000009  -0.000537
    16  H   -0.022353   0.006586  -0.000253  -0.000031   0.000051  -0.000638
    17  H   -0.056679  -0.026607   0.001982   0.000046  -0.000047  -0.000281
    18  C    0.026498   0.286673  -0.020260  -0.007699  -0.007567   0.011652
    19  H   -0.000382  -0.033625  -0.001881   0.000443   0.000544  -0.000193
    20  H   -0.001249  -0.011013  -0.001022   0.000316   0.000013  -0.000917
    21  H    0.004990  -0.135461  -0.015630  -0.002475  -0.005756   0.005343
    22  C    0.001019  -0.000050   0.014189   0.001464   0.000236  -0.289422
    23  H    0.000001  -0.000001   0.002130  -0.000148   0.000009   0.053597
    24  H   -0.000038   0.000003  -0.002253   0.000162  -0.000117  -0.002175
    25  H    0.000011   0.000000  -0.000097  -0.000064  -0.000068   0.027238
    26  C    0.004349   0.000839   0.019726  -0.000401   0.000046  -0.085118
    27  H   -0.000901  -0.000004  -0.000828  -0.000036   0.000009  -0.002940
    28  H   -0.001251  -0.000008  -0.000269  -0.000018   0.000056  -0.018425
    29  H    0.003429   0.000017  -0.000613   0.000049  -0.000008   0.023696
              13         14         15         16         17         18
     1  O    0.731574  -0.000014   0.000000   0.000000   0.000000  -0.000324
     2  O   -0.000004  -0.079805   0.004521   0.001912   0.035622  -0.089956
     3  N   -0.000266  -0.049326   0.002569  -0.002081   0.003761  -0.000284
     4  H    0.000502   0.001999  -0.000131   0.000086   0.000684   0.000014
     5  C    0.065626   0.025181  -0.002839  -0.013865   0.010734  -0.133007
     6  C    0.126201  -0.005605   0.003112   0.001032  -0.000260  -0.002344
     7  C    0.025089   0.196004  -0.046080  -0.022353  -0.056679   0.026498
     8  C   -0.010452  -0.098087   0.007112   0.006586  -0.026607   0.286673
     9  C   -0.231634   0.021694  -0.001278  -0.000253   0.001982  -0.020260
    10  H   -0.006312  -0.001056   0.000127  -0.000031   0.000046  -0.007699
    11  H   -0.001350   0.000232  -0.000009   0.000051  -0.000047  -0.007567
    12  C   -0.480252   0.003678  -0.000537  -0.000638  -0.000281   0.011652
    13  C    5.521386  -0.000047  -0.000021  -0.000027   0.000004   0.000987
    14  C   -0.000047   5.302771   0.384644   0.394168   0.417563  -0.003216
    15  H   -0.000021   0.384644   0.548484  -0.029794  -0.019611   0.000144
    16  H   -0.000027   0.394168  -0.029794   0.512662  -0.016005   0.000078
    17  H    0.000004   0.417563  -0.019611  -0.016005   0.454056   0.001409
    18  C    0.000987  -0.003216   0.000144   0.000078   0.001409   5.179013
    19  H   -0.000019  -0.000009   0.000004  -0.000010   0.000047   0.410874
    20  H   -0.000038  -0.000150  -0.000006   0.000015   0.000002   0.398478
    21  H    0.001997   0.000495  -0.000022  -0.000006  -0.000178   0.408449
    22  C    0.318087   0.000015   0.000001  -0.000002   0.000000   0.000017
    23  H   -0.077444   0.000002  -0.000000   0.000000   0.000000   0.000001
    24  H   -0.034717  -0.000001   0.000000  -0.000000  -0.000000  -0.000001
    25  H   -0.046864   0.000000   0.000000  -0.000000  -0.000000   0.000000
    26  C   -0.053772   0.000040  -0.000231   0.000017   0.000011  -0.000021
    27  H   -0.007325   0.000037  -0.000007   0.000005  -0.000001   0.000000
    28  H    0.006278  -0.000057   0.000012  -0.000015   0.000001  -0.000000
    29  H   -0.000187   0.000299   0.000027   0.000012   0.000002   0.000001
              19         20         21         22         23         24
     1  O   -0.000000   0.000012   0.000726  -0.117246   0.004149   0.002041
     2  O    0.001004  -0.001594   0.007443   0.000000  -0.000000   0.000000
     3  N    0.000009   0.000011   0.000078   0.000285   0.000026   0.000069
     4  H   -0.000001  -0.000001   0.000000   0.000104  -0.000051  -0.000015
     5  C    0.004917  -0.011747   0.079552   0.001026  -0.000400  -0.000076
     6  C    0.000041   0.000112  -0.001501  -0.010712  -0.027684   0.010016
     7  C   -0.000382  -0.001249   0.004990   0.001019   0.000001  -0.000038
     8  C   -0.033625  -0.011013  -0.135461  -0.000050  -0.000001   0.000003
     9  C   -0.001881  -0.001022  -0.015630   0.014189   0.002130  -0.002253
    10  H    0.000443   0.000316  -0.002475   0.001464  -0.000148   0.000162
    11  H    0.000544   0.000013  -0.005756   0.000236   0.000009  -0.000117
    12  C   -0.000193  -0.000917   0.005343  -0.289422   0.053597  -0.002175
    13  C   -0.000019  -0.000038   0.001997   0.318087  -0.077444  -0.034717
    14  C   -0.000009  -0.000150   0.000495   0.000015   0.000002  -0.000001
    15  H    0.000004  -0.000006  -0.000022   0.000001  -0.000000   0.000000
    16  H   -0.000010   0.000015  -0.000006  -0.000002   0.000000  -0.000000
    17  H    0.000047   0.000002  -0.000178   0.000000   0.000000  -0.000000
    18  C    0.410874   0.398478   0.408449   0.000017   0.000001  -0.000001
    19  H    0.502121  -0.017652  -0.026524  -0.000000   0.000000   0.000000
    20  H   -0.017652   0.496548  -0.019650  -0.000001  -0.000000   0.000000
    21  H   -0.026524  -0.019650   0.545140   0.000049  -0.000001  -0.000001
    22  C   -0.000000  -0.000001   0.000049   5.429564   0.388454   0.405277
    23  H    0.000000  -0.000000  -0.000001   0.388454   0.543526  -0.028899
    24  H    0.000000   0.000000  -0.000001   0.405277  -0.028899   0.495760
    25  H   -0.000000   0.000000  -0.000001   0.381760  -0.020859  -0.008161
    26  C    0.000000   0.000001  -0.000014  -0.037386   0.019580  -0.015693
    27  H   -0.000000   0.000000   0.000000   0.011510  -0.008924  -0.001145
    28  H    0.000000  -0.000000   0.000000  -0.012927  -0.002065   0.001500
    29  H    0.000000  -0.000000  -0.000000   0.001765   0.000731   0.000172
              25         26         27         28         29
     1  O    0.009763   0.000880  -0.000135  -0.000032   0.000020
     2  O    0.000000   0.000008  -0.000000  -0.000000   0.000000
     3  N    0.000024  -0.028149   0.000890  -0.002829   0.003411
     4  H   -0.000002  -0.009993   0.000886   0.000553   0.001855
     5  C   -0.000092   0.001491   0.000271   0.000430  -0.000520
     6  C   -0.001379   0.196614  -0.038544  -0.037917  -0.052252
     7  C    0.000011   0.004349  -0.000901  -0.001251   0.003429
     8  C    0.000000   0.000839  -0.000004  -0.000008   0.000017
     9  C   -0.000097   0.019726  -0.000828  -0.000269  -0.000613
    10  H   -0.000064  -0.000401  -0.000036  -0.000018   0.000049
    11  H   -0.000068   0.000046   0.000009   0.000056  -0.000008
    12  C    0.027238  -0.085118  -0.002940  -0.018425   0.023696
    13  C   -0.046864  -0.053772  -0.007325   0.006278  -0.000187
    14  C    0.000000   0.000040   0.000037  -0.000057   0.000299
    15  H    0.000000  -0.000231  -0.000007   0.000012   0.000027
    16  H   -0.000000   0.000017   0.000005  -0.000015   0.000012
    17  H   -0.000000   0.000011  -0.000001   0.000001   0.000002
    18  C    0.000000  -0.000021   0.000000  -0.000000   0.000001
    19  H   -0.000000   0.000000  -0.000000   0.000000   0.000000
    20  H    0.000000   0.000001   0.000000  -0.000000  -0.000000
    21  H   -0.000001  -0.000014   0.000000   0.000000  -0.000000
    22  C    0.381760  -0.037386   0.011510  -0.012927   0.001765
    23  H   -0.020859   0.019580  -0.008924  -0.002065   0.000731
    24  H   -0.008161  -0.015693  -0.001145   0.001500   0.000172
    25  H    0.499741   0.001876   0.000722   0.000108  -0.000046
    26  C    0.001876   5.246661   0.415819   0.436807   0.387929
    27  H    0.000722   0.415819   0.511492  -0.028041  -0.024444
    28  H    0.000108   0.436807  -0.028041   0.474099  -0.015614
    29  H   -0.000046   0.387929  -0.024444  -0.015614   0.516302
 Mulliken charges:
               1
     1  O   -0.379545
     2  O   -0.433806
     3  N   -0.206891
     4  H    0.295386
     5  C   -0.145874
     6  C    0.278279
     7  C    0.291654
     8  C    0.217761
     9  C   -0.304183
    10  H    0.161299
    11  H    0.170293
    12  C   -0.146284
    13  C    0.153000
    14  C   -0.511449
    15  H    0.149809
    16  H    0.168453
    17  H    0.193743
    18  C   -0.459610
    19  H    0.160290
    20  H    0.169532
    21  H    0.152957
    22  C   -0.487079
    23  H    0.154270
    24  H    0.178291
    25  H    0.156391
    26  C   -0.501915
    27  H    0.171632
    28  H    0.199627
    29  H    0.153968
 Sum of Mulliken charges =  -0.00000
 Mulliken charges with hydrogens summed into heavy atoms:
               1
     1  O   -0.379545
     2  O   -0.433806
     3  N    0.088495
     5  C   -0.145874
     6  C    0.278279
     7  C    0.291654
     8  C    0.217761
     9  C    0.027409
    12  C   -0.146284
    13  C    0.153000
    14  C    0.000556
    18  C    0.023168
    22  C    0.001874
    26  C    0.023311
 Electronic spatial extent (au):  <R**2>=           3226.9352
 Charge=             -0.0000 electrons
 Dipole moment (field-independent basis, Debye):
    X=             -4.6048    Y=              7.7735    Z=             -0.1881  Tot=              9.0370
 Quadrupole moment (field-independent basis, Debye-Ang):
   XX=           -100.1364   YY=            -78.4101   ZZ=            -84.3878
   XY=            -13.8097   XZ=             -2.7940   YZ=             -0.8938
 Traceless Quadrupole moment (field-independent basis, Debye-Ang):
   XX=            -12.4916   YY=              9.2347   ZZ=              3.2570
   XY=            -13.8097   XZ=             -2.7940   YZ=             -0.8938
 Octapole moment (field-independent basis, Debye-Ang**2):
  XXX=           -123.8362  YYY=             67.4463  ZZZ=              1.3897  XYY=             38.0000
  XXY=             28.9919  XXZ=             -6.5608  XZZ=             -1.1917  YZZ=             -0.7350
  YYZ=              1.8412  XYZ=              2.2453
 Hexadecapole moment (field-independent basis, Debye-Ang**3):
 XXXX=          -3172.3802 YYYY=          -1278.3568 ZZZZ=           -131.3435 XXXY=            -49.9020
 XXXZ=            -36.8850 YYYX=            -95.6004 YYYZ=            -12.6540 ZZZX=              2.4608
 ZZZY=              2.2078 XXYY=           -691.1347 XXZZ=           -486.2671 YYZZ=           -234.6180
 XXYZ=             -2.3105 YYXZ=             -3.5609 ZZXY=             -3.0930
 N-N= 8.987435947409D+02 E-N=-3.273432576995D+03  KE= 6.306209348424D+02
 Leave Link  601 at Sat Jan 24 15:50:07 2026, MaxMem=  2147483648 cpu:               0.7 elap:               0.1
 (Enter /data/home/wyx/g16/l9999.exe)
 Electronic transition elements 
                 1             2             3             4             5 
      1  -0.633204D+03 -0.633191D+03 -0.633165D+03 -0.633139D+03 -0.633124D+03
      2   0.167609D+01 -0.186812D+00  0.344046D-01  0.683629D+00 -0.910242D-01
      3   0.559765D+00 -0.525640D-01 -0.104772D+00 -0.194327D+01  0.123790D+01
      4   0.348144D+00 -0.855689D-01 -0.323782D-01  0.112189D+00 -0.436656D-01
      5  -0.189796D+00  0.240120D-01 -0.425578D-02 -0.113127D+00  0.212994D-01
      6  -0.643243D-01  0.676681D-02  0.155012D-01  0.336666D+00 -0.240081D+00
      7  -0.395866D-01  0.968725D-02  0.150380D-02 -0.204425D-01  0.841164D-02
      8  -0.346534D+00 -0.703910D+00  0.310820D+00 -0.156286D+00  0.181158D+00
      9   0.274947D-01 -0.111404D-01 -0.877346D+00  0.690840D-01 -0.363496D-01
     10   0.135205D+01 -0.403559D+00  0.145181D+00  0.463925D+00 -0.179094D+00
     11  -0.612770D-02  0.986648D-02 -0.627980D-01 -0.142139D+01  0.347817D+00
     12   0.244554D+00 -0.523240D-01  0.227254D-01  0.318764D+00 -0.242763D+00
     13  -0.476654D-02 -0.803697D-02  0.125177D-01 -0.410643D-01 -0.886255D-02
     14   0.556250D+00 -0.613611D-01  0.748880D-02 -0.391361D+00  0.364358D+00
     15   0.177728D-01 -0.262209D-01  0.642465D-01 -0.335518D+00  0.970494D-01
     16   0.119880D+00 -0.572405D-01  0.230342D-01 -0.865543D-01  0.133416D+00
                 6 
      1  -0.633095D+03
      2   0.110595D-01
      3   0.109753D+00
      4  -0.185081D-01
      5  -0.763910D-02
      6  -0.223747D-01
      7   0.233678D-01
      8  -0.513415D-01
      9  -0.166412D-02
     10   0.103584D-01
     11  -0.200302D+00
     12  -0.133290D+00
     13   0.102643D+00
     14   0.127413D-01
     15  -0.472706D-01
     16  -0.991891D-01
 1\1\GINC-CN015\SP\RCAM-B3LYP TD-FC\TZVP\C11H15N1O2\WYX\24-Jan-2026\0\\
 #p CAM-B3LYP TZVP em=gd3bj td(Eqsolv,nstates=6,root=1) scrf=(Solvent=W
 ater) Geom=Check Guess=Read\\Title Card Required\\0,1\O,0,2.7628,-1.55
 3973,0.680952\O,0,-3.359321,-1.662849,-0.804642\N,0,-0.66469,1.524611,
 -0.045964\H,0,-0.974729,2.478783,-0.128956\C,0,-1.238131,-0.770933,-0.
 169935\C,0,0.66333,1.314369,0.170546\C,0,-1.607714,0.536478,-0.281604\
 C,0,-2.148582,-1.82807,-0.412963\C,0,0.164021,-1.126902,0.263888\H,0,0
 .144313,-1.587195,1.257873\H,0,0.574685,-1.889653,-0.399012\C,0,1.1257
 4,0.039615,0.283965\C,0,2.507476,-0.365344,0.476809\C,0,-2.947134,1.07
 0026,-0.634893\H,0,-3.286739,1.816967,0.088652\H,0,-2.945867,1.543963,
 -1.620083\H,0,-3.72109,0.304598,-0.666836\C,0,-1.817865,-3.277815,-0.2
 20569\H,0,-2.582471,-3.81908,0.340487\H,0,-1.716602,-3.786094,-1.18384
 2\H,0,-0.880149,-3.424034,0.31025\C,0,3.670128,0.595361,0.41576\H,0,3.
 612602,1.278802,-0.427562\H,0,3.729548,1.19048,1.327841\H,0,4.578217,0
 .002678,0.337452\C,0,1.44357,2.592367,0.248339\H,0,2.15101,2.593285,1.
 070314\H,0,1.993586,2.77488,-0.674766\H,0,0.77006,3.434681,0.398499\\V
 ersion=ES64L-G16RevA.03\State=1-A\HF=-633.3202599\RMSD=2.270e-09\PG=C0
 1 [X(C11H15N1O2)]\\@


 NO HUMAN INVESTIGATION CAN BECOME REAL SCIENCE
 WITHOUT GOING THROUGH MATHEMATICAL PEOPLE.
 -- LEONARDO DA VINCI, IN "PENSIERI" CA. 1492
 Job cpu time:       0 days  0 hours 32 minutes 53.3 seconds.
 Elapsed time:       0 days  0 hours  2 minutes  4.3 seconds.
 File lengths (MBytes):  RWF=    734 Int=      0 D2E=      0 Chk=     67 Scr=      1
 Normal termination of Gaussian 16 at Sat Jan 24 15:50:11 2026.
