 Entering Gaussian System, Link 0=g16
 Input=DDL-S1-cLR-gs-0.gjf
 Output=DDL-S1-cLR-gs-0.log
 Initial command:
 /data/home/wyx/g16/l1.exe "/scr/tmp/wyx/13119/Gau-1526909.inp" -scrdir="/scr/tmp/wyx/13119/"
 Entering Link 1 = /data/home/wyx/g16/l1.exe PID=   1526910.
  
 Copyright (c) 1988,1990,1992,1993,1995,1998,2003,2009,2016,
            Gaussian, Inc.  All Rights Reserved.
  
 This is part of the Gaussian(R) 16 program.  It is based on
 the Gaussian(R) 09 system (copyright 2009, Gaussian, Inc.),
 the Gaussian(R) 03 system (copyright 2003, Gaussian, Inc.),
 the Gaussian(R) 98 system (copyright 1998, Gaussian, Inc.),
 the Gaussian(R) 94 system (copyright 1995, Gaussian, Inc.),
 the Gaussian 92(TM) system (copyright 1992, Gaussian, Inc.),
 the Gaussian 90(TM) system (copyright 1990, Gaussian, Inc.),
 the Gaussian 88(TM) system (copyright 1988, Gaussian, Inc.),
 the Gaussian 86(TM) system (copyright 1986, Carnegie Mellon
 University), and the Gaussian 82(TM) system (copyright 1983,
 Carnegie Mellon University). Gaussian is a federally registered
 trademark of Gaussian, Inc.
  
 This software contains proprietary and confidential information,
 including trade secrets, belonging to Gaussian, Inc.
  
 This software is provided under written license and may be
 used, copied, transmitted, or stored only in accord with that
 written license.
  
 The following legend is applicable only to US Government
 contracts under FAR:
  
                    RESTRICTED RIGHTS LEGEND
  
 Use, reproduction and disclosure by the US Government is
 subject to restrictions as set forth in subparagraphs (a)
 and (c) of the Commercial Computer Software - Restricted
 Rights clause in FAR 52.227-19.
  
 Gaussian, Inc.
 340 Quinnipiac St., Bldg. 40, Wallingford CT 06492
  
  
 ---------------------------------------------------------------
 Warning -- This program may not be used in any manner that
 competes with the business of Gaussian, Inc. or will provide
 assistance to any competitor of Gaussian, Inc.  The licensee
 of this program is prohibited from giving any competitor of
 Gaussian, Inc. access to this program.  By using this program,
 the user acknowledges that Gaussian, Inc. is engaged in the
 business of creating and licensing software in the field of
 computational chemistry and represents and warrants to the
 licensee that it is not a competitor of Gaussian, Inc. and that
 it will not use this program in any manner prohibited above.
 ---------------------------------------------------------------
  

 Cite this work as:
 Gaussian 16, Revision A.03,
 M. J. Frisch, G. W. Trucks, H. B. Schlegel, G. E. Scuseria, 
 M. A. Robb, J. R. Cheeseman, G. Scalmani, V. Barone, 
 G. A. Petersson, H. Nakatsuji, X. Li, M. Caricato, A. V. Marenich, 
 J. Bloino, B. G. Janesko, R. Gomperts, B. Mennucci, H. P. Hratchian, 
 J. V. Ortiz, A. F. Izmaylov, J. L. Sonnenberg, D. Williams-Young, 
 F. Ding, F. Lipparini, F. Egidi, J. Goings, B. Peng, A. Petrone, 
 T. Henderson, D. Ranasinghe, V. G. Zakrzewski, J. Gao, N. Rega, 
 G. Zheng, W. Liang, M. Hada, M. Ehara, K. Toyota, R. Fukuda, 
 J. Hasegawa, M. Ishida, T. Nakajima, Y. Honda, O. Kitao, H. Nakai, 
 T. Vreven, K. Throssell, J. A. Montgomery, Jr., J. E. Peralta, 
 F. Ogliaro, M. J. Bearpark, J. J. Heyd, E. N. Brothers, K. N. Kudin, 
 V. N. Staroverov, T. A. Keith, R. Kobayashi, J. Normand, 
 K. Raghavachari, A. P. Rendell, J. C. Burant, S. S. Iyengar, 
 J. Tomasi, M. Cossi, J. M. Millam, M. Klene, C. Adamo, R. Cammi, 
 J. W. Ochterski, R. L. Martin, K. Morokuma, O. Farkas, 
 J. B. Foresman, and D. J. Fox, Gaussian, Inc., Wallingford CT, 2016.
 
 ******************************************
 Gaussian 16:  ES64L-G16RevA.03 25-Dec-2016
                24-Jan-2026 
 ******************************************
 %nprocshared=16
 Will use up to   16 processors via shared memory.
 %mem=16GB
 %oldchk=DDL-S1-cLR-0.chk
 %chk=DDL-S1-cLR-gs-0.chk
 Copying data from "DDL-S1-cLR-0.chk" to current chk file "DDL-S1-cLR-gs-0.chk"
 IOpt=  2 FromEx=T IUOpen= 4 IOptOp= 5 NList=   0 IFRang= 0 IUIn= 4 IUOut= 2.
 ----------------------------------------------------------------------
 #p CAM-B3LYP TZVP em=gd3bj scrf=(Solvent=Water,NonEquilibrium=Read) Ge
 om=Check Guess=Read
 ----------------------------------------------------------------------
 1/29=2,38=1,172=1/1;
 2/12=2,40=1/2;
 3/5=19,7=101,11=2,14=-4,25=1,30=1,70=6002201,72=1,74=-40,116=-2,124=41/1,2,3;
 4/5=1/1;
 5/5=2,38=6,53=1/2;
 6/7=2,8=2,9=2,10=2,28=1/1;
 99/5=1,9=1/99;
 Leave Link    1 at Sat Jan 24 23:15:33 2026, MaxMem=  2147483648 cpu:               0.8 elap:               0.1
 (Enter /data/home/wyx/g16/l101.exe)
 -------------------
 Title Card Required
 -------------------
 Structure from the checkpoint file:  "DDL-S1-cLR-gs-0.chk"
 Charge =  0 Multiplicity = 1
 Z-Matrix found in chk file.
 O,0,2.768019,-1.549781,0.659742
 O,0,-3.396275,-1.655867,-0.680071
 N,0,-0.650631,1.525121,-0.111194
 H,0,-0.962393,2.478124,-0.201082
 C,0,-1.236599,-0.779324,-0.176477
 C,0,0.670327,1.318725,0.12776
 C,0,-1.607335,0.533797,-0.302054
 C,0,-2.144057,-1.836397,-0.362876
 C,0,0.185498,-1.136119,0.196453
 H,0,0.199747,-1.652947,1.161306
 H,0,0.585158,-1.860989,-0.515561
 C,0,1.136326,0.041598,0.25459
 C,0,2.513005,-0.355051,0.482639
 C,0,-2.958043,1.067937,-0.623098
 H,0,-3.354071,1.669388,0.200783
 H,0,-2.932998,1.700178,-1.51527
 H,0,-3.669929,0.262626,-0.810041
 C,0,-1.839155,-3.305249,-0.212616
 H,0,-2.482293,-3.752816,0.548718
 H,0,-2.018635,-3.833184,-1.15222
 H,0,-0.80126,-3.435018,0.078473
 C,0,3.673564,0.613108,0.499163
 H,0,3.66559,1.293443,-0.34896
 H,0,3.669122,1.212807,1.410019
 H,0,4.590522,0.029248,0.479943
 C,0,1.45275,2.597098,0.214108
 H,0,2.105088,2.618751,1.080841
 H,0,2.064749,2.745969,-0.674916
 H,0,0.774195,3.444823,0.291904
 Recover connectivity data from disk.
 ITRead=  0  0  0  0  0  0  0  0  0  0  0  0  0  0  0  0  0  0  0  0
 ITRead=  0  0  0  0  0  0  0  0  0
 MicOpt= -1 -1 -1 -1 -1 -1 -1 -1 -1 -1 -1 -1 -1 -1 -1 -1 -1 -1 -1 -1
 MicOpt= -1 -1 -1 -1 -1 -1 -1 -1 -1
 NAtoms=     29 NQM=       29 NQMF=       0 NMMI=      0 NMMIF=      0
                NMic=       0 NMicF=      0.
                    Isotopes and Nuclear Properties:
 (Nuclear quadrupole moments (NQMom) in fm**2, nuclear magnetic moments (NMagM)
  in nuclear magnetons)

  Atom         1           2           3           4           5           6           7           8           9          10
 IAtWgt=          16          16          14           1          12          12          12          12          12           1
 AtmWgt=  15.9949146  15.9949146  14.0030740   1.0078250  12.0000000  12.0000000  12.0000000  12.0000000  12.0000000   1.0078250
 NucSpn=           0           0           2           1           0           0           0           0           0           1
 AtZEff=   5.6000000   5.6000000   4.5500000   1.0000000   3.6000000   3.6000000   3.6000000   3.6000000   3.6000000   1.0000000
 NQMom=    0.0000000   0.0000000   2.0440000   0.0000000   0.0000000   0.0000000   0.0000000   0.0000000   0.0000000   0.0000000
 NMagM=    0.0000000   0.0000000   0.4037610   2.7928460   0.0000000   0.0000000   0.0000000   0.0000000   0.0000000   2.7928460
 AtZNuc=   8.0000000   8.0000000   7.0000000   1.0000000   6.0000000   6.0000000   6.0000000   6.0000000   6.0000000   1.0000000

  Atom        11          12          13          14          15          16          17          18          19          20
 IAtWgt=           1          12          12          12           1           1           1          12           1           1
 AtmWgt=   1.0078250  12.0000000  12.0000000  12.0000000   1.0078250   1.0078250   1.0078250  12.0000000   1.0078250   1.0078250
 NucSpn=           1           0           0           0           1           1           1           0           1           1
 AtZEff=   1.0000000   3.6000000   3.6000000   3.6000000   1.0000000   1.0000000   1.0000000   3.6000000   1.0000000   1.0000000
 NQMom=    0.0000000   0.0000000   0.0000000   0.0000000   0.0000000   0.0000000   0.0000000   0.0000000   0.0000000   0.0000000
 NMagM=    2.7928460   0.0000000   0.0000000   0.0000000   2.7928460   2.7928460   2.7928460   0.0000000   2.7928460   2.7928460
 AtZNuc=   1.0000000   6.0000000   6.0000000   6.0000000   1.0000000   1.0000000   1.0000000   6.0000000   1.0000000   1.0000000

  Atom        21          22          23          24          25          26          27          28          29
 IAtWgt=           1          12           1           1           1          12           1           1           1
 AtmWgt=   1.0078250  12.0000000   1.0078250   1.0078250   1.0078250  12.0000000   1.0078250   1.0078250   1.0078250
 NucSpn=           1           0           1           1           1           0           1           1           1
 AtZEff=   1.0000000   3.6000000   1.0000000   1.0000000   1.0000000   3.6000000   1.0000000   1.0000000   1.0000000
 NQMom=    0.0000000   0.0000000   0.0000000   0.0000000   0.0000000   0.0000000   0.0000000   0.0000000   0.0000000
 NMagM=    2.7928460   0.0000000   2.7928460   2.7928460   2.7928460   0.0000000   2.7928460   2.7928460   2.7928460
 AtZNuc=   1.0000000   6.0000000   1.0000000   1.0000000   1.0000000   6.0000000   1.0000000   1.0000000   1.0000000
 Leave Link  101 at Sat Jan 24 23:15:35 2026, MaxMem=  2147483648 cpu:               0.9 elap:               0.1
 (Enter /data/home/wyx/g16/l202.exe)
                          Input orientation:                          
 ---------------------------------------------------------------------
 Center     Atomic      Atomic             Coordinates (Angstroms)
 Number     Number       Type             X           Y           Z
 ---------------------------------------------------------------------
      1          8           0        2.768019   -1.549781    0.659742
      2          8           0       -3.396275   -1.655867   -0.680071
      3          7           0       -0.650631    1.525121   -0.111194
      4          1           0       -0.962393    2.478124   -0.201082
      5          6           0       -1.236599   -0.779324   -0.176477
      6          6           0        0.670327    1.318725    0.127760
      7          6           0       -1.607335    0.533797   -0.302054
      8          6           0       -2.144057   -1.836397   -0.362876
      9          6           0        0.185498   -1.136119    0.196453
     10          1           0        0.199747   -1.652947    1.161306
     11          1           0        0.585158   -1.860989   -0.515561
     12          6           0        1.136326    0.041598    0.254590
     13          6           0        2.513005   -0.355051    0.482639
     14          6           0       -2.958043    1.067937   -0.623098
     15          1           0       -3.354071    1.669388    0.200783
     16          1           0       -2.932998    1.700178   -1.515270
     17          1           0       -3.669929    0.262626   -0.810041
     18          6           0       -1.839155   -3.305249   -0.212616
     19          1           0       -2.482293   -3.752816    0.548718
     20          1           0       -2.018635   -3.833184   -1.152220
     21          1           0       -0.801260   -3.435018    0.078473
     22          6           0        3.673564    0.613108    0.499163
     23          1           0        3.665590    1.293443   -0.348960
     24          1           0        3.669122    1.212807    1.410019
     25          1           0        4.590522    0.029248    0.479943
     26          6           0        1.452750    2.597098    0.214108
     27          1           0        2.105088    2.618751    1.080841
     28          1           0        2.064749    2.745969   -0.674916
     29          1           0        0.774195    3.444823    0.291904
 ---------------------------------------------------------------------
                    Distance matrix (angstroms):
                    1          2          3          4          5
     1  O    0.000000
     2  O    6.309110   0.000000
     3  N    4.662245   4.240385   0.000000
     4  H    5.557069   4.821109   1.006722   0.000000
     5  C    4.162911   2.384562   2.378673   3.269061   0.000000
     6  C    3.593278   5.102748   1.358171   2.029315   2.851445
     7  C    4.940655   2.852688   1.390839   2.050988   1.370220
     8  C    5.025573   1.304321   3.686932   4.476338   1.405570
     9  C    2.656157   3.723913   2.806413   3.812931   1.512858
    10  H    2.618822   4.040056   3.527395   4.502490   2.148481
    11  H    2.498614   3.990106   3.627179   4.617544   2.145641
    12  C    2.314964   4.929447   2.351139   3.247910   2.547647
    13  C    1.234414   6.161461   3.727771   4.535719   3.830662
    14  C    6.425411   2.759420   2.407325   2.479787   2.564218
    15  H    6.932076   3.440204   2.725203   2.556496   3.259172
    16  H    6.913357   3.489301   2.685381   2.493105   3.289083
    17  H    6.847792   1.942265   3.346407   3.551058   2.721793
    18  C    5.006868   2.315944   4.975475   5.849466   2.597052
    19  H    5.694863   2.596629   5.625575   6.457314   3.304439
    20  H    5.604390   2.619451   5.627309   6.469383   3.299957
    21  H    4.078204   3.236490   4.966049   5.921939   2.703189
    22  C    2.350295   7.518076   4.461274   5.045862   5.148306
    23  H    3.147544   7.660157   4.328969   4.779494   5.325183
    24  H    3.001132   7.906807   4.590413   5.064346   5.527355
    25  H    2.418094   8.244645   5.482405   6.107017   5.919461
    26  C    4.373229   6.511552   2.383100   2.453457   4.334210
    27  H    4.241870   7.185970   3.195459   3.327543   4.928959
    28  H    4.552952   7.014198   3.030106   3.075687   4.855413
    29  H    5.390427   6.659924   2.424432   2.047750   4.701712
                    6          7          8          9         10
     6  C    0.000000
     7  C    2.447161   0.000000
     8  C    4.256322   2.430965   0.000000
     9  C    2.503205   2.500276   2.496010   0.000000
    10  H    3.181273   3.191993   2.801821   1.094649   0.000000
    11  H    3.245258   3.253861   2.733593   1.091846   1.733120
    12  C    1.365392   2.842497   3.830019   1.514751   2.137942
    13  C    2.514543   4.287540   4.959587   2.471691   2.737935
    14  C    3.713725   1.487544   3.027449   3.925733   4.534197
    15  H    4.040306   2.143245   3.751316   4.516574   4.958844
    16  H    3.978568   2.142363   3.802342   4.549681   5.312400
    17  H    4.564278   2.141466   2.633275   4.223013   4.746580
    18  C    5.272048   3.847079   1.507670   2.995277   2.962243
    19  H    5.986380   4.456951   2.148969   3.753439   3.460932
    20  H    5.950717   4.467938   2.150803   3.735141   3.876475
    21  H    4.976552   4.067684   2.133889   2.504505   2.313076
    22  C    3.107293   5.341922   6.370863   3.913826   4.200100
    23  H    3.033068   5.327570   6.599098   4.279169   4.793139
    24  H    3.263155   5.588671   6.799548   4.373309   4.506769
    25  H    4.141825   6.267338   7.038859   4.565379   4.751099
    26  C    1.501293   3.726628   5.738102   3.942480   4.531013
    27  H    2.158001   4.476775   6.323598   4.308830   4.678055
    28  H    2.150750   4.303130   6.229727   4.400168   5.118633
    29  H    2.134953   3.807695   6.069285   4.619600   5.203183
                   11         12         13         14         15
    11  H    0.000000
    12  C    2.125266   0.000000
    13  C    2.642129   1.450718   0.000000
    14  C    4.598309   4.311330   5.760201   0.000000
    15  H    5.337999   4.776637   6.212920   1.094240   0.000000
    16  H    5.104777   4.737372   6.154231   1.093767   1.767226
    17  H    4.764685   4.927715   6.346749   1.090988   1.760827
    18  C    2.838125   4.502572   5.303616   4.532677   5.216597
    19  H    3.757786   5.251523   6.041703   4.983889   5.502849
    20  H    3.327856   5.191034   5.941880   5.018311   5.821710
    21  H    2.180046   3.983982   4.542455   5.041876   5.708482
    22  C    4.085226   2.612282   1.511457   6.741257   7.112834
    23  H    4.412172   2.885925   2.176589   6.633138   7.051184
    24  H    4.760978   3.020232   2.157503   6.933532   7.141145
    25  H    4.539489   3.461561   2.112764   7.699117   8.116930
    26  C    4.599964   2.575334   3.148243   4.742820   4.895544
    27  H    4.992670   2.874527   3.060676   5.562709   5.610544
    28  H    4.841347   3.006588   3.340238   5.295934   5.593701
    29  H    5.370231   3.422641   4.183167   4.518453   4.494781
                   16         17         18         19         20
    16  H    0.000000
    17  H    1.762660   0.000000
    18  C    5.286558   4.054427   0.000000
    19  H    5.847933   4.402327   1.092507   0.000000
    20  H    5.620139   4.429392   1.092604   1.764831   0.000000
    21  H    5.783992   4.763538   1.085725   1.774260   1.776272
    22  C    6.991875   7.467512   6.800752   7.547074   7.409299
    23  H    6.713202   7.421928   7.174174   8.004188   7.696619
    24  H    7.237599   7.726136   7.306633   7.952305   8.023570
    25  H    7.960919   8.363825   7.275937   8.020814   7.827087
    26  C    4.798958   5.721930   6.771738   7.477830   7.434103
    27  H    5.741592   6.517483   7.233523   7.869186   7.976159
    28  H    5.174683   6.250743   7.216053   8.025402   7.758034
    29  H    4.478051   5.575921   7.255867   7.904219   7.928101
                   21         22         23         24         25
    21  H    0.000000
    22  C    6.048831   0.000000
    23  H    6.518726   1.087305   0.000000
    24  H    6.584801   1.090558   1.760830   0.000000
    25  H    6.421342   1.087232   1.772221   1.764888   0.000000
    26  C    6.440915   2.991569   2.629301   2.873807   4.063267
    27  H    6.789677   2.611718   2.497186   2.128671   3.639229
    28  H    6.854648   2.918192   2.186040   3.044922   3.885074
    29  H    7.061149   4.058067   3.660506   3.822653   5.125023
                   26         27         28         29
    26  C    0.000000
    27  H    1.085007   0.000000
    28  H    1.089527   1.760822   0.000000
    29  H    1.088635   1.753879   1.757461   0.000000
 Stoichiometry    C11H15NO2
 Framework group  C1[X(C11H15NO2)]
 Deg. of freedom    81
 Full point group                 C1      NOp   1
 RotChk:  IX=0 Diff= 3.96D-16
 Largest Abelian subgroup         C1      NOp   1
 Largest concise Abelian subgroup C1      NOp   1
                         Standard orientation:                         
 ---------------------------------------------------------------------
 Center     Atomic      Atomic             Coordinates (Angstroms)
 Number     Number       Type             X           Y           Z
 ---------------------------------------------------------------------
      1          8           0       -2.254845   -2.314804   -0.071962
      2          8           0        3.677334   -0.174232    0.107172
      3          7           0       -0.069709    1.803644   -0.061779
      4          1           0       -0.105377    2.809723   -0.066634
      5          6           0        1.296388   -0.143187   -0.020380
      6          6           0       -1.252106    1.135616   -0.044352
      7          6           0        1.193307    1.223137   -0.014493
      8          6           0        2.536585   -0.802408    0.034083
      9          6           0        0.052572   -0.999686   -0.110214
     10          1           0        0.067813   -1.583796   -1.035870
     11          1           0        0.054961   -1.742600    0.689911
     12          6           0       -1.249745   -0.229743   -0.035182
     13          6           0       -2.414394   -1.093514    0.010339
     14          6           0        2.300256    2.215800    0.031001
     15          1           0        2.320285    2.830976   -0.873719
     16          1           0        2.196311    2.887090    0.888260
     17          1           0        3.271217    1.725092    0.112820
     18          6           0        2.751499   -2.294236   -0.002432
     19          1           0        3.380566   -2.568718   -0.852436
     20          1           0        3.254278   -2.632541    0.906714
     21          1           0        1.794449   -2.799146   -0.091428
     22          6           0       -3.829120   -0.586910    0.172837
     23          1           0       -3.926721    0.136211    0.978940
     24          1           0       -4.183224   -0.115835   -0.744777
     25          1           0       -4.464287   -1.443900    0.383087
     26          6           0       -2.439398    2.054346   -0.031926
     27          1           0       -3.187001    1.765239   -0.763191
     28          1           0       -2.913587    2.073070    0.948820
     29          1           0       -2.126688    3.070627   -0.265403
 ---------------------------------------------------------------------
 Rotational constants (GHZ):           1.1011253           0.4796176           0.3380535
 Leave Link  202 at Sat Jan 24 23:15:35 2026, MaxMem=  2147483648 cpu:               0.0 elap:               0.0
 (Enter /data/home/wyx/g16/l301.exe)
 Standard basis: TZVP (5D, 7F)
 Ernie: Thresh=  0.10000D-02 Tol=  0.10000D-05 Strict=F.
 There are   370 symmetry adapted cartesian basis functions of A   symmetry.
 There are   356 symmetry adapted basis functions of A   symmetry.
   356 basis functions,   610 primitive gaussians,   370 cartesian basis functions
    52 alpha electrons       52 beta electrons
       nuclear repulsion energy       897.3884785518 Hartrees.
 IExCor=20419 DFT=T Ex+Corr=CAM-B3LYP ExCW=0 ScaHFX=  1.000000
 ScaDFX=  1.000000  1.000000  1.000000  0.810000 ScalE2=  1.000000  1.000000
 IRadAn=      5 IRanWt=     -1 IRanGd=            0 ICorTp=0 IEmpDi=141
 HFx  wShort=  0.000000 wLong=  0.330000 cFull=  0.190000 cShort=  0.000000 cLong=  0.460000
 DFx  wShort=  0.000000 wLong=  0.330000 cFull=  0.190000 cShort=  0.000000 cLong=  0.460000
 NAtoms=   29 NActive=   29 NUniq=   29 SFac= 1.00D+00 NAtFMM=   60 NAOKFM=F Big=F
 Integral buffers will be    131072 words long.
 Raffenetti 2 integral format.
 Two-electron integral symmetry is turned on.
 R6Disp:  Grimme-D3(BJ) Dispersion energy=       -0.0260440033 Hartrees.
 Nuclear repulsion after empirical dispersion term =      897.3624345485 Hartrees.
 ------------------------------------------------------------------------------
 Polarizable Continuum Model (PCM)
 =================================
 Model                : PCM.
 Atomic radii         : UFF (Universal Force Field).
 Polarization charges : Total charges.
 Charge compensation  : None.
 Solution method      : On-the-fly selection.
 Cavity type          : Scaled VdW (van der Waals Surface) (Alpha=1.100).
 Cavity algorithm     : GePol (No added spheres)
                        Default sphere list used, NSphG=   29.
                        Lebedev-Laikov grids with approx.  5.0 points / Ang**2.
                        Smoothing algorithm: York/Karplus (Gamma=1.0000).
                        Polarization charges: spherical gaussians, with
                                              point-specific exponents (IZeta= 3).
                        Self-potential: point-specific (ISelfS= 7).
                        Self-field    : sphere-specific E.n sum rule (ISelfD= 2).
 Solvent              : Water, Eps=  78.355300 Eps(inf)=   1.777849
 ------------------------------------------------------------------------------
 GePol: Number of generator spheres                  =      29
 GePol: Total number of spheres                      =      29
 GePol: Number of exposed spheres                    =      29 (100.00%)
 GePol: Number of points                             =    2103
 GePol: Average weight of points                     =       0.13
 GePol: Minimum weight of points                     =   0.28D-08
 GePol: Maximum weight of points                     =    0.20577
 GePol: Number of points with low weight             =     134
 GePol: Fraction of low-weight points (<1% of avg)   =       6.37%
 GePol: Cavity surface area                          =    269.392 Ang**2
 GePol: Cavity volume                                =    286.857 Ang**3
 Leave Link  301 at Sat Jan 24 23:15:35 2026, MaxMem=  2147483648 cpu:               0.6 elap:               0.0
 (Enter /data/home/wyx/g16/l302.exe)
 NPDir=0 NMtPBC=     1 NCelOv=     1 NCel=       1 NClECP=     1 NCelD=      1
         NCelK=      1 NCelE2=     1 NClLst=     1 CellRange=     0.0.
 One-electron integrals computed using PRISM.
 One-electron integral symmetry used in STVInt
 NBasis=   356 RedAO= T EigKep=  3.69D-05  NBF=   356
 NBsUse=   356 1.00D-06 EigRej= -1.00D+00 NBFU=   356
 Precomputing XC quadrature grid using
 IXCGrd= 4 IRadAn=           5 IRanWt=          -1 IRanGd=           0 AccXCQ= 0.00D+00.
 Generated NRdTot=       0 NPtTot=           0 NUsed=           0 NTot=          32
 NSgBfM=   366   366   366   366   366 MxSgAt=    29 MxSgA2=    29.
 Leave Link  302 at Sat Jan 24 23:15:35 2026, MaxMem=  2147483648 cpu:               3.1 elap:               0.2
 (Enter /data/home/wyx/g16/l303.exe)
 DipDrv:  MaxL=1.
 Leave Link  303 at Sat Jan 24 23:15:35 2026, MaxMem=  2147483648 cpu:               0.6 elap:               0.0
 (Enter /data/home/wyx/g16/l401.exe)
 Initial guess from the checkpoint file:  "DDL-S1-cLR-gs-0.chk"
 B after Tr=     0.000000    0.000000   -0.000000
         Rot=    1.000000   -0.000000   -0.000000   -0.000000 Ang=   0.00 deg.
 Guess basis will be translated and rotated to current coordinates.
 JPrj=2 DoOrth=T DoCkMO=T.
 Leave Link  401 at Sat Jan 24 23:15:36 2026, MaxMem=  2147483648 cpu:               2.3 elap:               0.2
 (Enter /data/home/wyx/g16/l502.exe)
 Integral symmetry usage will be decided dynamically.
 Closed shell SCF:
 Using DIIS extrapolation, IDIIS=  1040.
 NGot=  2147483648 LenX=  2147200095 LenY=  2147062754
 Requested convergence on RMS density matrix=1.00D-08 within 128 cycles.
 Requested convergence on MAX density matrix=1.00D-06.
 Requested convergence on             energy=1.00D-06.
 No special actions if energy rises.
 Fock matrices will be formed incrementally for  20 cycles.

 Cycle   1  Pass 1  IDiag  1:
 FoFJK:  IHMeth= 1 ICntrl=       0 DoSepK=T KAlg= 0 I1Cent=           0 FoldK=F
 IRaf=         1 NMat=       1 IRICut=       1 DoRegI=T DoRafI=F ISym2E= 0 IDoP0=0 IntGTp=1.
 FoFCou: FMM=F IPFlag=           0 FMFlag=      100000 FMFlg1=           0
         NFxFlg=           0 DoJE=T BraDBF=F KetDBF=F FulRan=T
         wScrn=  0.000000 ICntrl=       500 IOpCl=  0 I1Cent=           0 NGrid=           0
         NMat0=    1 NMatS0=      1 NMatT0=    0 NMatD0=    1 NMtDS0=    0 NMtDT0=    0
 Symmetry not used in FoFCou.
 Inv3:  Mode=1 IEnd=    13267827.
 Iteration    1 A*A^-1 deviation from unit magnitude is 3.11D-15 for   1766.
 Iteration    1 A*A^-1 deviation from orthogonality  is 2.75D-15 for   1765    192.
 Iteration    1 A^-1*A deviation from unit magnitude is 3.33D-15 for   1766.
 Iteration    1 A^-1*A deviation from orthogonality  is 2.48D-15 for   1773    625.
 NEqPCM:  Using non-equilibrium solvation (IEInf=1, Eps=  78.3553, EpsInf=   1.7778)
 Inv3:  Mode=1 IEnd=    13267827.
 Iteration    1 A*A^-1 deviation from unit magnitude is 3.66D-15 for    193.
 Iteration    1 A*A^-1 deviation from orthogonality  is 1.79D-15 for   1792    235.
 Iteration    1 A^-1*A deviation from unit magnitude is 3.22D-15 for    193.
 Iteration    1 A^-1*A deviation from orthogonality  is 1.60D-15 for   1399    845.
 E= -633.314548953517    
 DIIS: error= 6.44D-04 at cycle   1 NSaved=   1.
 NSaved= 1 IEnMin= 1 EnMin= -633.314548953517     IErMin= 1 ErrMin= 6.44D-04
 ErrMax= 6.44D-04  0.00D+00 EMaxC= 1.00D-01 BMatC= 4.46D-05 BMatP= 4.46D-05
 IDIUse=3 WtCom= 9.94D-01 WtEn= 6.44D-03
 Coeff-Com:  0.100D+01
 Coeff-En:   0.100D+01
 Coeff:      0.100D+01
 Gap=     0.221 Goal=   None    Shift=    0.000
 RMSDP=2.22D-04 MaxDP=1.42D-02              OVMax= 8.60D-03

 Cycle   2  Pass 1  IDiag  1:
 RMSU=  2.20D-04    CP:  9.98D-01
 E= -633.314633584231     Delta-E=       -0.000084630715 Rises=F Damp=F
 DIIS: error= 2.70D-04 at cycle   2 NSaved=   2.
 NSaved= 2 IEnMin= 2 EnMin= -633.314633584231     IErMin= 2 ErrMin= 2.70D-04
 ErrMax= 2.70D-04  0.00D+00 EMaxC= 1.00D-01 BMatC= 4.00D-05 BMatP= 4.46D-05
 IDIUse=3 WtCom= 9.97D-01 WtEn= 2.70D-03
 Coeff-Com:  0.481D+00 0.519D+00
 Coeff-En:   0.000D+00 0.100D+01
 Coeff:      0.479D+00 0.521D+00
 Gap=     0.222 Goal=   None    Shift=    0.000
 RMSDP=9.48D-05 MaxDP=6.52D-03 DE=-8.46D-05 OVMax= 1.76D-03

 Cycle   3  Pass 1  IDiag  1:
 RMSU=  8.13D-05    CP:  1.00D+00  8.51D-01
 E= -633.314666816897     Delta-E=       -0.000033232666 Rises=F Damp=F
 DIIS: error= 1.79D-04 at cycle   3 NSaved=   3.
 NSaved= 3 IEnMin= 3 EnMin= -633.314666816897     IErMin= 3 ErrMin= 1.79D-04
 ErrMax= 1.79D-04  0.00D+00 EMaxC= 1.00D-01 BMatC= 6.09D-06 BMatP= 4.00D-05
 IDIUse=3 WtCom= 9.98D-01 WtEn= 1.79D-03
 Coeff-Com:  0.982D-01 0.256D+00 0.646D+00
 Coeff-En:   0.000D+00 0.000D+00 0.100D+01
 Coeff:      0.980D-01 0.255D+00 0.647D+00
 Gap=     0.222 Goal=   None    Shift=    0.000
 RMSDP=1.98D-05 MaxDP=9.91D-04 DE=-3.32D-05 OVMax= 1.29D-03

 Cycle   4  Pass 1  IDiag  1:
 RMSU=  1.82D-05    CP:  1.00D+00  8.34D-01  1.06D+00
 E= -633.314671895320     Delta-E=       -0.000005078423 Rises=F Damp=F
 DIIS: error= 6.46D-05 at cycle   4 NSaved=   4.
 NSaved= 4 IEnMin= 4 EnMin= -633.314671895320     IErMin= 4 ErrMin= 6.46D-05
 ErrMax= 6.46D-05  0.00D+00 EMaxC= 1.00D-01 BMatC= 8.91D-07 BMatP= 6.09D-06
 IDIUse=1 WtCom= 1.00D+00 WtEn= 0.00D+00
 Coeff-Com: -0.438D-02 0.296D-01 0.278D+00 0.697D+00
 Coeff:     -0.438D-02 0.296D-01 0.278D+00 0.697D+00
 Gap=     0.222 Goal=   None    Shift=    0.000
 RMSDP=1.69D-05 MaxDP=1.13D-03 DE=-5.08D-06 OVMax= 7.44D-04

 Cycle   5  Pass 1  IDiag  1:
 RMSU=  7.43D-06    CP:  1.00D+00  8.27D-01  1.22D+00  8.65D-01
 E= -633.314672949913     Delta-E=       -0.000001054593 Rises=F Damp=F
 DIIS: error= 2.89D-05 at cycle   5 NSaved=   5.
 NSaved= 5 IEnMin= 5 EnMin= -633.314672949913     IErMin= 5 ErrMin= 2.89D-05
 ErrMax= 2.89D-05  0.00D+00 EMaxC= 1.00D-01 BMatC= 1.55D-07 BMatP= 8.91D-07
 IDIUse=1 WtCom= 1.00D+00 WtEn= 0.00D+00
 Coeff-Com: -0.136D-01-0.405D-01 0.520D-02 0.300D+00 0.749D+00
 Coeff:     -0.136D-01-0.405D-01 0.520D-02 0.300D+00 0.749D+00
 Gap=     0.222 Goal=   None    Shift=    0.000
 RMSDP=5.83D-06 MaxDP=2.71D-04 DE=-1.05D-06 OVMax= 3.94D-04

 Cycle   6  Pass 1  IDiag  1:
 RMSU=  2.81D-06    CP:  1.00D+00  8.19D-01  1.27D+00  9.69D-01  1.13D+00
 E= -633.314673246858     Delta-E=       -0.000000296945 Rises=F Damp=F
 DIIS: error= 1.84D-05 at cycle   6 NSaved=   6.
 NSaved= 6 IEnMin= 6 EnMin= -633.314673246858     IErMin= 6 ErrMin= 1.84D-05
 ErrMax= 1.84D-05  0.00D+00 EMaxC= 1.00D-01 BMatC= 2.15D-08 BMatP= 1.55D-07
 IDIUse=1 WtCom= 1.00D+00 WtEn= 0.00D+00
 Coeff-Com: -0.187D-02-0.223D-01-0.244D-01-0.326D-02 0.186D+00 0.866D+00
 Coeff:     -0.187D-02-0.223D-01-0.244D-01-0.326D-02 0.186D+00 0.866D+00
 Gap=     0.222 Goal=   None    Shift=    0.000
 RMSDP=3.42D-06 MaxDP=1.73D-04 DE=-2.97D-07 OVMax= 2.66D-04

 Cycle   7  Pass 1  IDiag  1:
 RMSU=  1.13D-06    CP:  1.00D+00  8.13D-01  1.30D+00  1.02D+00  1.26D+00
                    CP:  1.31D+00
 E= -633.314673310052     Delta-E=       -0.000000063194 Rises=F Damp=F
 DIIS: error= 7.10D-06 at cycle   7 NSaved=   7.
 NSaved= 7 IEnMin= 7 EnMin= -633.314673310052     IErMin= 7 ErrMin= 7.10D-06
 ErrMax= 7.10D-06  0.00D+00 EMaxC= 1.00D-01 BMatC= 1.06D-08 BMatP= 2.15D-08
 IDIUse=1 WtCom= 1.00D+00 WtEn= 0.00D+00
 Coeff-Com:  0.274D-02-0.526D-02-0.923D-02-0.742D-01-0.118D+00 0.468D+00
 Coeff-Com:  0.736D+00
 Coeff:      0.274D-02-0.526D-02-0.923D-02-0.742D-01-0.118D+00 0.468D+00
 Coeff:      0.736D+00
 Gap=     0.222 Goal=   None    Shift=    0.000
 RMSDP=1.43D-06 MaxDP=6.56D-05 DE=-6.32D-08 OVMax= 1.45D-04

 Cycle   8  Pass 1  IDiag  1:
 RMSU=  4.24D-07    CP:  1.00D+00  8.10D-01  1.31D+00  1.02D+00  1.32D+00
                    CP:  1.53D+00  1.12D+00
 E= -633.314673330788     Delta-E=       -0.000000020736 Rises=F Damp=F
 DIIS: error= 2.09D-06 at cycle   8 NSaved=   8.
 NSaved= 8 IEnMin= 8 EnMin= -633.314673330788     IErMin= 8 ErrMin= 2.09D-06
 ErrMax= 2.09D-06  0.00D+00 EMaxC= 1.00D-01 BMatC= 1.07D-09 BMatP= 1.06D-08
 IDIUse=1 WtCom= 1.00D+00 WtEn= 0.00D+00
 Coeff-Com:  0.139D-02 0.279D-03 0.194D-02-0.253D-01-0.889D-01 0.325D-01
 Coeff-Com:  0.265D+00 0.813D+00
 Coeff:      0.139D-02 0.279D-03 0.194D-02-0.253D-01-0.889D-01 0.325D-01
 Coeff:      0.265D+00 0.813D+00
 Gap=     0.222 Goal=   None    Shift=    0.000
 RMSDP=6.48D-07 MaxDP=3.08D-05 DE=-2.07D-08 OVMax= 5.22D-05

 Cycle   9  Pass 1  IDiag  1:
 RMSU=  1.84D-07    CP:  1.00D+00  8.09D-01  1.32D+00  1.03D+00  1.33D+00
                    CP:  1.63D+00  1.33D+00  1.15D+00
 E= -633.314673332968     Delta-E=       -0.000000002180 Rises=F Damp=F
 DIIS: error= 7.46D-07 at cycle   9 NSaved=   9.
 NSaved= 9 IEnMin= 9 EnMin= -633.314673332968     IErMin= 9 ErrMin= 7.46D-07
 ErrMax= 7.46D-07  0.00D+00 EMaxC= 1.00D-01 BMatC= 1.57D-10 BMatP= 1.07D-09
 IDIUse=1 WtCom= 1.00D+00 WtEn= 0.00D+00
 Coeff-Com:  0.259D-03 0.524D-03 0.228D-02 0.120D-02-0.223D-01-0.487D-01
 Coeff-Com:  0.138D-01 0.376D+00 0.677D+00
 Coeff:      0.259D-03 0.524D-03 0.228D-02 0.120D-02-0.223D-01-0.487D-01
 Coeff:      0.138D-01 0.376D+00 0.677D+00
 Gap=     0.222 Goal=   None    Shift=    0.000
 RMSDP=1.10D-07 MaxDP=5.15D-06 DE=-2.18D-09 OVMax= 1.23D-05

 Cycle  10  Pass 1  IDiag  1:
 RMSU=  6.63D-08    CP:  1.00D+00  8.09D-01  1.32D+00  1.03D+00  1.33D+00
                    CP:  1.65D+00  1.36D+00  1.25D+00  9.26D-01
 E= -633.314673333186     Delta-E=       -0.000000000217 Rises=F Damp=F
 DIIS: error= 2.41D-07 at cycle  10 NSaved=  10.
 NSaved=10 IEnMin=10 EnMin= -633.314673333186     IErMin=10 ErrMin= 2.41D-07
 ErrMax= 2.41D-07  0.00D+00 EMaxC= 1.00D-01 BMatC= 2.46D-11 BMatP= 1.57D-10
 IDIUse=1 WtCom= 1.00D+00 WtEn= 0.00D+00
 Coeff-Com: -0.367D-04 0.284D-03 0.748D-03 0.349D-02-0.162D-02-0.280D-01
 Coeff-Com: -0.221D-01 0.783D-01 0.326D+00 0.643D+00
 Coeff:     -0.367D-04 0.284D-03 0.748D-03 0.349D-02-0.162D-02-0.280D-01
 Coeff:     -0.221D-01 0.783D-01 0.326D+00 0.643D+00
 Gap=     0.222 Goal=   None    Shift=    0.000
 RMSDP=6.91D-08 MaxDP=5.32D-06 DE=-2.17D-10 OVMax= 3.21D-06

 Cycle  11  Pass 1  IDiag  1:
 RMSU=  2.91D-08    CP:  1.00D+00  8.09D-01  1.32D+00  1.03D+00  1.33D+00
                    CP:  1.66D+00  1.39D+00  1.27D+00  1.07D+00  9.48D-01
 E= -633.314673333204     Delta-E=       -0.000000000019 Rises=F Damp=F
 DIIS: error= 9.27D-08 at cycle  11 NSaved=  11.
 NSaved=11 IEnMin=11 EnMin= -633.314673333204     IErMin=11 ErrMin= 9.27D-08
 ErrMax= 9.27D-08  0.00D+00 EMaxC= 1.00D-01 BMatC= 4.02D-12 BMatP= 2.46D-11
 IDIUse=1 WtCom= 1.00D+00 WtEn= 0.00D+00
 Coeff-Com: -0.575D-04 0.799D-04-0.155D-03 0.161D-02 0.358D-02-0.394D-02
 Coeff-Com: -0.124D-01-0.364D-01 0.476D-01 0.302D+00 0.698D+00
 Coeff:     -0.575D-04 0.799D-04-0.155D-03 0.161D-02 0.358D-02-0.394D-02
 Coeff:     -0.124D-01-0.364D-01 0.476D-01 0.302D+00 0.698D+00
 Gap=     0.222 Goal=   None    Shift=    0.000
 RMSDP=2.24D-08 MaxDP=1.95D-06 DE=-1.86D-11 OVMax= 1.14D-06

 Cycle  12  Pass 1  IDiag  1:
 RMSU=  8.17D-09    CP:  1.00D+00  8.09D-01  1.32D+00  1.03D+00  1.32D+00
                    CP:  1.66D+00  1.39D+00  1.28D+00  1.10D+00  1.05D+00
                    CP:  9.56D-01
 E= -633.314673333217     Delta-E=       -0.000000000013 Rises=F Damp=F
 DIIS: error= 3.58D-08 at cycle  12 NSaved=  12.
 NSaved=12 IEnMin=12 EnMin= -633.314673333217     IErMin=12 ErrMin= 3.58D-08
 ErrMax= 3.58D-08  0.00D+00 EMaxC= 1.00D-01 BMatC= 4.59D-13 BMatP= 4.02D-12
 IDIUse=1 WtCom= 1.00D+00 WtEn= 0.00D+00
 Coeff-Com: -0.192D-04 0.143D-04-0.152D-03 0.243D-03 0.139D-02 0.179D-02
 Coeff-Com: -0.103D-02-0.230D-01-0.154D-01 0.229D-01 0.269D+00 0.745D+00
 Coeff:     -0.192D-04 0.143D-04-0.152D-03 0.243D-03 0.139D-02 0.179D-02
 Coeff:     -0.103D-02-0.230D-01-0.154D-01 0.229D-01 0.269D+00 0.745D+00
 Gap=     0.222 Goal=   None    Shift=    0.000
 RMSDP=9.14D-09 MaxDP=7.56D-07 DE=-1.25D-11 OVMax= 4.99D-07

 Error on total polarization charges =  0.00838
 SCF Done:  E(RCAM-B3LYP) =  -633.314673333     A.U. after   12 cycles
            NFock= 12  Conv=0.91D-08     -V/T= 2.0044
 KE= 6.305262470186D+02 PE=-3.270498460447D+03 EE= 1.109295105546D+03
 Leave Link  502 at Sat Jan 24 23:16:24 2026, MaxMem=  2147483648 cpu:             758.5 elap:              48.1
 (Enter /data/home/wyx/g16/l601.exe)
 Copying SCF densities to generalized density rwf, IOpCl= 0 IROHF=0.

 **********************************************************************

            Population analysis using the SCF density.

 **********************************************************************

 Orbital symmetries:
       Occupied  (A) (A) (A) (A) (A) (A) (A) (A) (A) (A) (A) (A)
                 (A) (A) (A) (A) (A) (A) (A) (A) (A) (A) (A) (A)
                 (A) (A) (A) (A) (A) (A) (A) (A) (A) (A) (A) (A)
                 (A) (A) (A) (A) (A) (A) (A) (A) (A) (A) (A) (A)
                 (A) (A) (A) (A)
       Virtual   (A) (A) (A) (A) (A) (A) (A) (A) (A) (A) (A) (A)
                 (A) (A) (A) (A) (A) (A) (A) (A) (A) (A) (A) (A)
                 (A) (A) (A) (A) (A) (A) (A) (A) (A) (A) (A) (A)
                 (A) (A) (A) (A) (A) (A) (A) (A) (A) (A) (A) (A)
                 (A) (A) (A) (A) (A) (A) (A) (A) (A) (A) (A) (A)
                 (A) (A) (A) (A) (A) (A) (A) (A) (A) (A) (A) (A)
                 (A) (A) (A) (A) (A) (A) (A) (A) (A) (A) (A) (A)
                 (A) (A) (A) (A) (A) (A) (A) (A) (A) (A) (A) (A)
                 (A) (A) (A) (A) (A) (A) (A) (A) (A) (A) (A) (A)
                 (A) (A) (A) (A) (A) (A) (A) (A) (A) (A) (A) (A)
                 (A) (A) (A) (A) (A) (A) (A) (A) (A) (A) (A) (A)
                 (A) (A) (A) (A) (A) (A) (A) (A) (A) (A) (A) (A)
                 (A) (A) (A) (A) (A) (A) (A) (A) (A) (A) (A) (A)
                 (A) (A) (A) (A) (A) (A) (A) (A) (A) (A) (A) (A)
                 (A) (A) (A) (A) (A) (A) (A) (A) (A) (A) (A) (A)
                 (A) (A) (A) (A) (A) (A) (A) (A) (A) (A) (A) (A)
                 (A) (A) (A) (A) (A) (A) (A) (A) (A) (A) (A) (A)
                 (A) (A) (A) (A) (A) (A) (A) (A) (A) (A) (A) (A)
                 (A) (A) (A) (A) (A) (A) (A) (A) (A) (A) (A) (A)
                 (A) (A) (A) (A) (A) (A) (A) (A) (A) (A) (A) (A)
                 (A) (A) (A) (A) (A) (A) (A) (A) (A) (A) (A) (A)
                 (A) (A) (A) (A) (A) (A) (A) (A) (A) (A) (A) (A)
                 (A) (A) (A) (A) (A) (A) (A) (A) (A) (A) (A) (A)
                 (A) (A) (A) (A) (A) (A) (A) (A) (A) (A) (A) (A)
                 (A) (A) (A) (A) (A) (A) (A) (A) (A) (A) (A) (A)
                 (A) (A) (A) (A)
 The electronic state is 1-A.
 Alpha  occ. eigenvalues --  -19.17419 -19.16542 -14.44441 -10.33610 -10.33022
 Alpha  occ. eigenvalues --  -10.32917 -10.32197 -10.25482 -10.25475 -10.24956
 Alpha  occ. eigenvalues --  -10.24919 -10.24354 -10.24277 -10.23858  -1.11323
 Alpha  occ. eigenvalues --   -1.08285  -1.07383  -0.91402  -0.90364  -0.83906
 Alpha  occ. eigenvalues --   -0.82329  -0.81280  -0.78839  -0.74120  -0.71620
 Alpha  occ. eigenvalues --   -0.69157  -0.62003  -0.58236  -0.56760  -0.54897
 Alpha  occ. eigenvalues --   -0.54497  -0.54127  -0.52142  -0.51711  -0.50574
 Alpha  occ. eigenvalues --   -0.49337  -0.49217  -0.48829  -0.48331  -0.48081
 Alpha  occ. eigenvalues --   -0.46571  -0.46022  -0.44322  -0.43519  -0.42731
 Alpha  occ. eigenvalues --   -0.42226  -0.41463  -0.40609  -0.32762  -0.31938
 Alpha  occ. eigenvalues --   -0.30728  -0.26116
 Alpha virt. eigenvalues --   -0.03898   0.01944   0.06842   0.08578   0.08861
 Alpha virt. eigenvalues --    0.10374   0.11091   0.11374   0.12757   0.13378
 Alpha virt. eigenvalues --    0.15058   0.15192   0.15729   0.16747   0.17034
 Alpha virt. eigenvalues --    0.17301   0.17572   0.17811   0.18512   0.19438
 Alpha virt. eigenvalues --    0.20105   0.20194   0.22440   0.23140   0.24526
 Alpha virt. eigenvalues --    0.24697   0.25250   0.25557   0.25947   0.26292
 Alpha virt. eigenvalues --    0.27475   0.28109   0.28648   0.29364   0.29640
 Alpha virt. eigenvalues --    0.31096   0.31474   0.33865   0.34126   0.34850
 Alpha virt. eigenvalues --    0.35515   0.35932   0.36838   0.36952   0.37512
 Alpha virt. eigenvalues --    0.40121   0.41049   0.41450   0.42646   0.43092
 Alpha virt. eigenvalues --    0.44134   0.44956   0.45570   0.46361   0.46667
 Alpha virt. eigenvalues --    0.47227   0.47990   0.48293   0.48656   0.49054
 Alpha virt. eigenvalues --    0.49543   0.49925   0.50784   0.51584   0.52028
 Alpha virt. eigenvalues --    0.52166   0.53115   0.53163   0.53862   0.54327
 Alpha virt. eigenvalues --    0.54734   0.55679   0.56277   0.57879   0.58103
 Alpha virt. eigenvalues --    0.58743   0.59350   0.60772   0.62579   0.63110
 Alpha virt. eigenvalues --    0.63340   0.65125   0.65706   0.66675   0.67489
 Alpha virt. eigenvalues --    0.67910   0.68844   0.71436   0.71912   0.72107
 Alpha virt. eigenvalues --    0.73497   0.75851   0.77304   0.77893   0.78679
 Alpha virt. eigenvalues --    0.80682   0.81843   0.84713   0.88420   0.90974
 Alpha virt. eigenvalues --    0.93888   0.96673   1.00375   1.03228   1.19931
 Alpha virt. eigenvalues --    1.22519   1.23671   1.27294   1.29975   1.31503
 Alpha virt. eigenvalues --    1.31834   1.33574   1.34439   1.35063   1.37058
 Alpha virt. eigenvalues --    1.37456   1.38060   1.39437   1.39850   1.40042
 Alpha virt. eigenvalues --    1.40658   1.40761   1.41312   1.41336   1.41911
 Alpha virt. eigenvalues --    1.42885   1.43307   1.44101   1.44917   1.46063
 Alpha virt. eigenvalues --    1.48538   1.49778   1.50360   1.51104   1.51615
 Alpha virt. eigenvalues --    1.52033   1.52982   1.54980   1.57397   1.57553
 Alpha virt. eigenvalues --    1.59352   1.59959   1.60085   1.60798   1.61678
 Alpha virt. eigenvalues --    1.62222   1.62337   1.62998   1.63894   1.64761
 Alpha virt. eigenvalues --    1.65530   1.66144   1.66316   1.66834   1.68170
 Alpha virt. eigenvalues --    1.69053   1.69276   1.69871   1.71438   1.72852
 Alpha virt. eigenvalues --    1.73043   1.74427   1.75933   1.76278   1.80316
 Alpha virt. eigenvalues --    1.81861   1.83370   1.84617   1.85038   1.85636
 Alpha virt. eigenvalues --    1.85839   1.86240   1.90057   1.90552   1.91048
 Alpha virt. eigenvalues --    1.91854   1.92854   1.97374   1.98768   2.01468
 Alpha virt. eigenvalues --    2.02247   2.05022   2.06609   2.08039   2.10285
 Alpha virt. eigenvalues --    2.10568   2.13413   2.15070   2.18881   2.20272
 Alpha virt. eigenvalues --    2.20644   2.23495   2.24473   2.25010   2.26376
 Alpha virt. eigenvalues --    2.27744   2.29221   2.30251   2.31747   2.32995
 Alpha virt. eigenvalues --    2.33614   2.34497   2.35659   2.38359   2.38845
 Alpha virt. eigenvalues --    2.40055   2.41632   2.42503   2.44095   2.45695
 Alpha virt. eigenvalues --    2.46841   2.47825   2.49234   2.50128   2.50888
 Alpha virt. eigenvalues --    2.53122   2.54519   2.55539   2.56344   2.57344
 Alpha virt. eigenvalues --    2.58212   2.58579   2.61556   2.62685   2.63195
 Alpha virt. eigenvalues --    2.63915   2.64813   2.65491   2.66282   2.68262
 Alpha virt. eigenvalues --    2.68856   2.71386   2.73513   2.74449   2.75520
 Alpha virt. eigenvalues --    2.76555   2.76823   2.77479   2.78512   2.78994
 Alpha virt. eigenvalues --    2.80265   2.81410   2.82774   2.84054   2.84952
 Alpha virt. eigenvalues --    2.85836   2.88179   2.89238   2.91241   2.93033
 Alpha virt. eigenvalues --    2.98365   2.99015   2.99355   3.04167   3.08476
 Alpha virt. eigenvalues --    3.11149   3.13007   3.15240   3.17108   3.20549
 Alpha virt. eigenvalues --    3.21688   3.22358   3.25500   3.26073   3.26543
 Alpha virt. eigenvalues --    3.29719   3.31027   3.31561   3.35643   3.38079
 Alpha virt. eigenvalues --    3.38553   3.39312   3.39971   3.40312   3.41353
 Alpha virt. eigenvalues --    3.42661   3.44062   3.45295   3.46638   3.49130
 Alpha virt. eigenvalues --    3.51206   3.52939   3.54943   3.56600   3.60083
 Alpha virt. eigenvalues --    3.63020   3.92351   4.00382   4.27394   4.35987
 Alpha virt. eigenvalues --   21.64534  21.76170  22.04260  22.10364  22.11836
 Alpha virt. eigenvalues --   22.12792  22.16293  22.19309  22.20853  22.26693
 Alpha virt. eigenvalues --   22.30812  31.93067  43.64938  43.67870
          Condensed to atoms (all electrons):
               1          2          3          4          5          6
     1  O    7.952567   0.000000  -0.000231   0.000017   0.017992   0.016335
     2  O    0.000000   8.153607   0.000726  -0.000002  -0.192571   0.001813
     3  N   -0.000231   0.000726   6.317290   0.368456  -0.085266   0.389792
     4  H    0.000017  -0.000002   0.368456   0.389787   0.011004  -0.038237
     5  C    0.017992  -0.192571  -0.085266   0.011004   7.206424  -0.041883
     6  C    0.016335   0.001813   0.389792  -0.038237  -0.041883   5.532761
     7  C    0.000111   0.002947   0.350019  -0.042894   0.297320  -0.153778
     8  C   -0.000289   0.592409   0.004401  -0.001492  -0.509794   0.049733
     9  C   -0.005152   0.025321   0.018473   0.001055  -0.670128  -0.089601
    10  H    0.006704  -0.000130   0.001470   0.000012  -0.047322  -0.003137
    11  H    0.009325  -0.000166  -0.000712   0.000003  -0.108775   0.020475
    12  C   -0.253767  -0.004185  -0.100407   0.018291   0.219590  -0.110730
    13  C    0.738006   0.000001  -0.000913   0.000539   0.062638   0.116880
    14  C   -0.000015  -0.098019  -0.047529   0.002746   0.048048  -0.005145
    15  H    0.000000   0.003520  -0.000190  -0.000026  -0.011689   0.001439
    16  H    0.000000   0.003571   0.000446  -0.000539  -0.009657   0.002632
    17  H    0.000000   0.046331   0.003669   0.000695   0.015774  -0.000187
    18  C   -0.000339  -0.082223  -0.000266   0.000008  -0.115343  -0.002299
    19  H    0.000002  -0.000940   0.000009  -0.000001  -0.004502   0.000049
    20  H    0.000007  -0.001174   0.000011  -0.000000  -0.004051   0.000061
    21  H    0.000880   0.007643   0.000057   0.000001   0.081711  -0.001320
    22  C   -0.119094   0.000000   0.000359   0.000100   0.000015  -0.007639
    23  H    0.003855  -0.000000   0.000050  -0.000051  -0.000344  -0.023664
    24  H    0.002276   0.000000   0.000106  -0.000015  -0.000082   0.007960
    25  H    0.010366  -0.000000   0.000020  -0.000002  -0.000063  -0.001717
    26  C    0.000793   0.000010  -0.028018  -0.011180   0.002208   0.200366
    27  H   -0.000105  -0.000000  -0.000053   0.000876   0.000375  -0.038743
    28  H   -0.000024  -0.000000  -0.002640   0.000594   0.000462  -0.040253
    29  H    0.000019   0.000000   0.004656   0.002171  -0.000480  -0.051490
               7          8          9         10         11         12
     1  O    0.000111  -0.000289  -0.005152   0.006704   0.009325  -0.253767
     2  O    0.002947   0.592409   0.025321  -0.000130  -0.000166  -0.004185
     3  N    0.350019   0.004401   0.018473   0.001470  -0.000712  -0.100407
     4  H   -0.042894  -0.001492   0.001055   0.000012   0.000003   0.018291
     5  C    0.297320  -0.509794  -0.670128  -0.047322  -0.108775   0.219590
     6  C   -0.153778   0.049733  -0.089601  -0.003137   0.020475  -0.110730
     7  C    5.564383  -0.236646  -0.273428  -0.000462   0.012671   0.052624
     8  C   -0.236646   5.832468   0.215077  -0.006964   0.001955  -0.095169
     9  C   -0.273428   0.215077   6.478716   0.432342   0.514984  -0.138809
    10  H   -0.000462  -0.006964   0.432342   0.535547  -0.041942  -0.028528
    11  H    0.012671   0.001955   0.514984  -0.041942   0.521109  -0.081263
    12  C    0.052624  -0.095169  -0.138809  -0.028528  -0.081263   7.457922
    13  C    0.028388  -0.011138  -0.218180  -0.006339  -0.002223  -0.514863
    14  C    0.173316  -0.108920   0.022433  -0.000530  -0.000103   0.005299
    15  H   -0.027557   0.007347  -0.001214   0.000099  -0.000008  -0.000371
    16  H   -0.035356   0.007202  -0.000179  -0.000022   0.000053  -0.001020
    17  H   -0.067561  -0.030973   0.002694  -0.000020  -0.000008  -0.000353
    18  C    0.029000   0.262594  -0.029579  -0.004620  -0.011216   0.012024
    19  H   -0.000822  -0.025992  -0.001492   0.000376   0.000556  -0.000272
    20  H   -0.001247  -0.021876  -0.000964   0.000295   0.000171  -0.000345
    21  H    0.005865  -0.146600  -0.016196  -0.004731  -0.002866   0.004721
    22  C    0.001233  -0.000056   0.017844   0.001348   0.000148  -0.303336
    23  H   -0.000013   0.000001   0.001321  -0.000147   0.000036   0.048447
    24  H   -0.000037   0.000002  -0.002118   0.000144  -0.000117   0.003165
    25  H    0.000010  -0.000000   0.000029  -0.000077  -0.000044   0.027621
    26  C    0.005102   0.000869   0.018822  -0.000281  -0.000024  -0.085294
    27  H   -0.001157  -0.000001  -0.000473  -0.000008   0.000004   0.000070
    28  H   -0.001318  -0.000003  -0.000425  -0.000018   0.000061  -0.017029
    29  H    0.003486   0.000022  -0.000675   0.000035  -0.000007   0.022358
              13         14         15         16         17         18
     1  O    0.738006  -0.000015   0.000000   0.000000   0.000000  -0.000339
     2  O    0.000001  -0.098019   0.003520   0.003571   0.046331  -0.082223
     3  N   -0.000913  -0.047529  -0.000190   0.000446   0.003669  -0.000266
     4  H    0.000539   0.002746  -0.000026  -0.000539   0.000695   0.000008
     5  C    0.062638   0.048048  -0.011689  -0.009657   0.015774  -0.115343
     6  C    0.116880  -0.005145   0.001439   0.002632  -0.000187  -0.002299
     7  C    0.028388   0.173316  -0.027557  -0.035356  -0.067561   0.029000
     8  C   -0.011138  -0.108920   0.007347   0.007202  -0.030973   0.262594
     9  C   -0.218180   0.022433  -0.001214  -0.000179   0.002694  -0.029579
    10  H   -0.006339  -0.000530   0.000099  -0.000022  -0.000020  -0.004620
    11  H   -0.002223  -0.000103  -0.000008   0.000053  -0.000008  -0.011216
    12  C   -0.514863   0.005299  -0.000371  -0.001020  -0.000353   0.012024
    13  C    5.543936   0.000002  -0.000024  -0.000028   0.000004   0.000747
    14  C    0.000002   5.353406   0.386433   0.389500   0.414125  -0.005111
    15  H   -0.000024   0.386433   0.524568  -0.028949  -0.015380   0.000120
    16  H   -0.000028   0.389500  -0.028949   0.529469  -0.015681   0.000117
    17  H    0.000004   0.414125  -0.015380  -0.015681   0.448103   0.001771
    18  C    0.000747  -0.005111   0.000120   0.000117   0.001771   5.158034
    19  H   -0.000023  -0.000052   0.000013  -0.000009   0.000008   0.412572
    20  H   -0.000014   0.000010  -0.000009   0.000010  -0.000010   0.405003
    21  H    0.002149   0.000623  -0.000017  -0.000013  -0.000229   0.415379
    22  C    0.327129   0.000021   0.000000  -0.000002   0.000000   0.000011
    23  H   -0.072346   0.000002  -0.000000   0.000000  -0.000000   0.000000
    24  H   -0.040288  -0.000000   0.000000  -0.000000  -0.000000  -0.000000
    25  H   -0.047097   0.000000   0.000000  -0.000000  -0.000000   0.000000
    26  C   -0.053149  -0.000586  -0.000160   0.000058   0.000013  -0.000021
    27  H   -0.007543  -0.000000  -0.000003   0.000007  -0.000000  -0.000000
    28  H    0.005853  -0.000058   0.000010  -0.000013  -0.000000  -0.000000
    29  H   -0.000067   0.000567  -0.000004   0.000029   0.000000   0.000001
              19         20         21         22         23         24
     1  O    0.000002   0.000007   0.000880  -0.119094   0.003855   0.002276
     2  O   -0.000940  -0.001174   0.007643   0.000000  -0.000000   0.000000
     3  N    0.000009   0.000011   0.000057   0.000359   0.000050   0.000106
     4  H   -0.000001  -0.000000   0.000001   0.000100  -0.000051  -0.000015
     5  C   -0.004502  -0.004051   0.081711   0.000015  -0.000344  -0.000082
     6  C    0.000049   0.000061  -0.001320  -0.007639  -0.023664   0.007960
     7  C   -0.000822  -0.001247   0.005865   0.001233  -0.000013  -0.000037
     8  C   -0.025992  -0.021876  -0.146600  -0.000056   0.000001   0.000002
     9  C   -0.001492  -0.000964  -0.016196   0.017844   0.001321  -0.002118
    10  H    0.000376   0.000295  -0.004731   0.001348  -0.000147   0.000144
    11  H    0.000556   0.000171  -0.002866   0.000148   0.000036  -0.000117
    12  C   -0.000272  -0.000345   0.004721  -0.303336   0.048447   0.003165
    13  C   -0.000023  -0.000014   0.002149   0.327129  -0.072346  -0.040288
    14  C   -0.000052   0.000010   0.000623   0.000021   0.000002  -0.000000
    15  H    0.000013  -0.000009  -0.000017   0.000000  -0.000000   0.000000
    16  H   -0.000009   0.000010  -0.000013  -0.000002   0.000000  -0.000000
    17  H    0.000008  -0.000010  -0.000229   0.000000  -0.000000  -0.000000
    18  C    0.412572   0.405003   0.415379   0.000011   0.000000  -0.000000
    19  H    0.501273  -0.020795  -0.021504  -0.000000   0.000000   0.000000
    20  H   -0.020795   0.504450  -0.020357  -0.000000   0.000000  -0.000000
    21  H   -0.021504  -0.020357   0.539509   0.000054  -0.000001  -0.000001
    22  C   -0.000000  -0.000000   0.000054   5.431317   0.384756   0.406841
    23  H    0.000000   0.000000  -0.000001   0.384756   0.546327  -0.030012
    24  H    0.000000  -0.000000  -0.000001   0.406841  -0.030012   0.499459
    25  H   -0.000000   0.000000  -0.000000   0.380469  -0.020234  -0.008639
    26  C    0.000000   0.000000  -0.000014  -0.040187   0.020130  -0.015419
    27  H   -0.000000   0.000000   0.000000   0.011192  -0.008231  -0.001041
    28  H    0.000000  -0.000000   0.000000  -0.013026  -0.002411   0.001538
    29  H    0.000000  -0.000000  -0.000000   0.001733   0.000715   0.000149
              25         26         27         28         29
     1  O    0.010366   0.000793  -0.000105  -0.000024   0.000019
     2  O   -0.000000   0.000010  -0.000000  -0.000000   0.000000
     3  N    0.000020  -0.028018  -0.000053  -0.002640   0.004656
     4  H   -0.000002  -0.011180   0.000876   0.000594   0.002171
     5  C   -0.000063   0.002208   0.000375   0.000462  -0.000480
     6  C   -0.001717   0.200366  -0.038743  -0.040253  -0.051490
     7  C    0.000010   0.005102  -0.001157  -0.001318   0.003486
     8  C   -0.000000   0.000869  -0.000001  -0.000003   0.000022
     9  C    0.000029   0.018822  -0.000473  -0.000425  -0.000675
    10  H   -0.000077  -0.000281  -0.000008  -0.000018   0.000035
    11  H   -0.000044  -0.000024   0.000004   0.000061  -0.000007
    12  C    0.027621  -0.085294   0.000070  -0.017029   0.022358
    13  C   -0.047097  -0.053149  -0.007543   0.005853  -0.000067
    14  C    0.000000  -0.000586  -0.000000  -0.000058   0.000567
    15  H    0.000000  -0.000160  -0.000003   0.000010  -0.000004
    16  H   -0.000000   0.000058   0.000007  -0.000013   0.000029
    17  H   -0.000000   0.000013  -0.000000  -0.000000   0.000000
    18  C    0.000000  -0.000021  -0.000000  -0.000000   0.000001
    19  H   -0.000000   0.000000  -0.000000   0.000000   0.000000
    20  H    0.000000   0.000000   0.000000  -0.000000  -0.000000
    21  H   -0.000000  -0.000014   0.000000   0.000000  -0.000000
    22  C    0.380469  -0.040187   0.011192  -0.013026   0.001733
    23  H   -0.020234   0.020130  -0.008231  -0.002411   0.000715
    24  H   -0.008639  -0.015419  -0.001041   0.001538   0.000149
    25  H    0.501443   0.001924   0.000639   0.000110  -0.000045
    26  C    0.001924   5.243793   0.413589   0.439179   0.386397
    27  H    0.000639   0.413589   0.512399  -0.029812  -0.022923
    28  H    0.000110   0.439179  -0.029812   0.477417  -0.015262
    29  H   -0.000045   0.386397  -0.022923  -0.015262   0.515166
 Mulliken charges:
               1
     1  O   -0.380239
     2  O   -0.458489
     3  N   -0.193787
     4  H    0.298085
     5  C   -0.161607
     6  C    0.269525
     7  C    0.315801
     8  C    0.221833
     9  C   -0.300499
    10  H    0.166904
    11  H    0.167921
    12  C   -0.136393
    13  C    0.147962
    14  C   -0.530462
    15  H    0.162052
    16  H    0.158374
    17  H    0.197212
    18  C   -0.446364
    19  H    0.161545
    20  H    0.160825
    21  H    0.155259
    22  C   -0.481230
    23  H    0.151811
    24  H    0.176130
    25  H    0.155288
    26  C   -0.498921
    27  H    0.170946
    28  H    0.197070
    29  H    0.153450
 Sum of Mulliken charges =  -0.00000
 Mulliken charges with hydrogens summed into heavy atoms:
               1
     1  O   -0.380239
     2  O   -0.458489
     3  N    0.104298
     5  C   -0.161607
     6  C    0.269525
     7  C    0.315801
     8  C    0.221833
     9  C    0.034327
    12  C   -0.136393
    13  C    0.147962
    14  C   -0.012825
    18  C    0.031264
    22  C    0.001999
    26  C    0.022544
 Electronic spatial extent (au):  <R**2>=           3242.6333
 Charge=             -0.0000 electrons
 Dipole moment (field-independent basis, Debye):
    X=             -5.1428    Y=              7.8386    Z=             -0.1087  Tot=              9.3757
 Quadrupole moment (field-independent basis, Debye-Ang):
   XX=           -102.1950   YY=            -78.5754   ZZ=            -84.2463
   XY=            -14.1336   XZ=             -1.6043   YZ=             -0.6378
 Traceless Quadrupole moment (field-independent basis, Debye-Ang):
   XX=            -13.8561   YY=              9.7635   ZZ=              4.0926
   XY=            -14.1336   XZ=             -1.6043   YZ=             -0.6378
 Octapole moment (field-independent basis, Debye-Ang**2):
  XXX=           -132.7668  YYY=             69.6572  ZZZ=              0.1759  XYY=             36.6473
  XXY=             27.5895  XXZ=             -3.2838  XZZ=             -0.9241  YZZ=             -0.7631
  YYZ=              1.1350  XYZ=              1.3013
 Hexadecapole moment (field-independent basis, Debye-Ang**3):
 XXXX=          -3237.5305 YYYY=          -1285.8823 ZZZZ=           -125.7059 XXXY=            -55.7176
 XXXZ=            -16.9563 YYYX=            -93.3265 YYYZ=             -7.8460 ZZZX=              0.1845
 ZZZY=              1.5533 XXYY=           -700.3222 XXZZ=           -486.9978 YYZZ=           -234.3152
 XXYZ=             -3.0985 YYXZ=             -3.9006 ZZXY=             -4.1302
 N-N= 8.973624345485D+02 E-N=-3.270498454837D+03  KE= 6.305262470186D+02
 No NMR shielding tensors so no spin-rotation constants.
 Leave Link  601 at Sat Jan 24 23:16:24 2026, MaxMem=  2147483648 cpu:               1.8 elap:               0.1
 (Enter /data/home/wyx/g16/l9999.exe)
 1\1\GINC-CN015\SP\RCAM-B3LYP\TZVP\C11H15N1O2\WYX\24-Jan-2026\0\\#p CAM
 -B3LYP TZVP em=gd3bj scrf=(Solvent=Water,NonEquilibrium=Read) Geom=Che
 ck Guess=Read\\Title Card Required\\0,1\O,0,2.768019,-1.549781,0.65974
 2\O,0,-3.396275,-1.655867,-0.680071\N,0,-0.650631,1.525121,-0.111194\H
 ,0,-0.962393,2.478124,-0.201082\C,0,-1.236599,-0.779324,-0.176477\C,0,
 0.670327,1.318725,0.12776\C,0,-1.607335,0.533797,-0.302054\C,0,-2.1440
 57,-1.836397,-0.362876\C,0,0.185498,-1.136119,0.196453\H,0,0.199747,-1
 .652947,1.161306\H,0,0.585158,-1.860989,-0.515561\C,0,1.136326,0.04159
 8,0.25459\C,0,2.513005,-0.355051,0.482639\C,0,-2.958043,1.067937,-0.62
 3098\H,0,-3.354071,1.669388,0.200783\H,0,-2.932998,1.700178,-1.51527\H
 ,0,-3.669929,0.262626,-0.810041\C,0,-1.839155,-3.305249,-0.212616\H,0,
 -2.482293,-3.752816,0.548718\H,0,-2.018635,-3.833184,-1.15222\H,0,-0.8
 0126,-3.435018,0.078473\C,0,3.673564,0.613108,0.499163\H,0,3.66559,1.2
 93443,-0.34896\H,0,3.669122,1.212807,1.410019\H,0,4.590522,0.029248,0.
 479943\C,0,1.45275,2.597098,0.214108\H,0,2.105088,2.618751,1.080841\H,
 0,2.064749,2.745969,-0.674916\H,0,0.774195,3.444823,0.291904\\Version=
 ES64L-G16RevA.03\State=1-A\HF=-633.3146733\RMSD=9.137e-09\Dipole=0.802
 8353,3.5997962,0.0584669\Quadrupole=-13.9444323,12.0063055,1.9381268,2
 .0282395,-4.5615021,0.0639693\PG=C01 [X(C11H15N1O2)]\\@


 The chemist is a guest at the physicist's table and
 frequently dines well.
                   -- Richard Bersohn
 Job cpu time:       0 days  0 hours 12 minutes 48.9 seconds.
 Elapsed time:       0 days  0 hours  0 minutes 48.9 seconds.
 File lengths (MBytes):  RWF=    340 Int=      0 D2E=      0 Chk=     67 Scr=      1
 Normal termination of Gaussian 16 at Sat Jan 24 23:16:25 2026.
